PSF EXT CMAP XPLOR

         2 !NTITLE
* GENERATED BY CHARMM-GUI FF-Converter
* DATE:   02/18/25   11:27:42

     82350 !NATOM
         1 MEMB     1        SAPS     N        NH3L    -0.300000       14.0070           0
         2 MEMB     1        SAPS     HN1      HCL      0.330000       1.00800           0
         3 MEMB     1        SAPS     HN2      HCL      0.330000       1.00800           0
         4 MEMB     1        SAPS     HN3      HCL      0.330000       1.00800           0
         5 MEMB     1        SAPS     C12      CTL1     0.210000       12.0110           0
         6 MEMB     1        SAPS     H12A     HBL      0.100000       1.00800           0
         7 MEMB     1        SAPS     C13      CCL      0.340000       12.0110           0
         8 MEMB     1        SAPS     O13A     OCL     -0.670000       15.9994           0
         9 MEMB     1        SAPS     O13B     OCL     -0.670000       15.9994           0
        10 MEMB     1        SAPS     C11      CTL2    -0.800000E-01   12.0110           0
        11 MEMB     1        SAPS     H11A     HAL2     0.900000E-01   1.00800           0
        12 MEMB     1        SAPS     H11B     HAL2     0.900000E-01   1.00800           0
        13 MEMB     1        SAPS     P        PL       1.500000       30.9740           0
        14 MEMB     1        SAPS     O13      O2L     -0.780000       15.9994           0
        15 MEMB     1        SAPS     O14      O2L     -0.780000       15.9994           0
        16 MEMB     1        SAPS     O12      OSLP    -0.570000       15.9994           0
        17 MEMB     1        SAPS     O11      OSLP    -0.570000       15.9994           0
        18 MEMB     1        SAPS     C1       CTL2    -0.800000E-01   12.0110           0
        19 MEMB     1        SAPS     HA       HAL2     0.900000E-01   1.00800           0
        20 MEMB     1        SAPS     HB       HAL2     0.900000E-01   1.00800           0
        21 MEMB     1        SAPS     C2       CTL1     0.170000       12.0110           0
        22 MEMB     1        SAPS     HS       HAL1     0.900000E-01   1.00800           0
        23 MEMB     1        SAPS     O21      OSL     -0.490000       15.9994           0
        24 MEMB     1        SAPS     C21      CL       0.900000       12.0110           0
        25 MEMB     1        SAPS     O22      OBL     -0.630000       15.9994           0
        26 MEMB     1        SAPS     C22      CTL2    -0.220000       12.0110           0
        27 MEMB     1        SAPS     H2R      HAL2     0.900000E-01   1.00800           0
        28 MEMB     1        SAPS     H2S      HAL2     0.900000E-01   1.00800           0
        29 MEMB     1        SAPS     C3       CTL2     0.800000E-01   12.0110           0
        30 MEMB     1        SAPS     HX       HAL2     0.900000E-01   1.00800           0
        31 MEMB     1        SAPS     HY       HAL2     0.900000E-01   1.00800           0
        32 MEMB     1        SAPS     O31      OSL     -0.490000       15.9994           0
        33 MEMB     1        SAPS     C31      CL       0.900000       12.0110           0
        34 MEMB     1        SAPS     O32      OBL     -0.630000       15.9994           0
        35 MEMB     1        SAPS     C32      CTL2    -0.220000       12.0110           0
        36 MEMB     1        SAPS     H2X      HAL2     0.900000E-01   1.00800           0
        37 MEMB     1        SAPS     H2Y      HAL2     0.900000E-01   1.00800           0
        38 MEMB     1        SAPS     C23      CTL2    -0.180000       12.0110           0
        39 MEMB     1        SAPS     H3R      HAL2     0.900000E-01   1.00800           0
        40 MEMB     1        SAPS     H3S      HAL2     0.900000E-01   1.00800           0
        41 MEMB     1        SAPS     C24      CTL2    -0.180000       12.0110           0
        42 MEMB     1        SAPS     H4R      HAL2     0.900000E-01   1.00800           0
        43 MEMB     1        SAPS     H4S      HAL2     0.900000E-01   1.00800           0
        44 MEMB     1        SAPS     C25      CEL1    -0.150000       12.0110           0
        45 MEMB     1        SAPS     H5R      HEL1     0.150000       1.00800           0
        46 MEMB     1        SAPS     C26      CEL1    -0.150000       12.0110           0
        47 MEMB     1        SAPS     H6R      HEL1     0.150000       1.00800           0
        48 MEMB     1        SAPS     C27      CTL2    -0.180000       12.0110           0
        49 MEMB     1        SAPS     H7R      HAL2     0.900000E-01   1.00800           0
        50 MEMB     1        SAPS     H7S      HAL2     0.900000E-01   1.00800           0
        51 MEMB     1        SAPS     C28      CEL1    -0.150000       12.0110           0
        52 MEMB     1        SAPS     H8R      HEL1     0.150000       1.00800           0
        53 MEMB     1        SAPS     C29      CEL1    -0.150000       12.0110           0
        54 MEMB     1        SAPS     H9R      HEL1     0.150000       1.00800           0
        55 MEMB     1        SAPS     C210     CTL2    -0.180000       12.0110           0
        56 MEMB     1        SAPS     H10R     HAL2     0.900000E-01   1.00800           0
        57 MEMB     1        SAPS     H10S     HAL2     0.900000E-01   1.00800           0
        58 MEMB     1        SAPS     C211     CEL1    -0.150000       12.0110           0
        59 MEMB     1        SAPS     H11R     HEL1     0.150000       1.00800           0
        60 MEMB     1        SAPS     C212     CEL1    -0.150000       12.0110           0
        61 MEMB     1        SAPS     H12R     HEL1     0.150000       1.00800           0
        62 MEMB     1        SAPS     C213     CTL2    -0.180000       12.0110           0
        63 MEMB     1        SAPS     H13R     HAL2     0.900000E-01   1.00800           0
        64 MEMB     1        SAPS     H13S     HAL2     0.900000E-01   1.00800           0
        65 MEMB     1        SAPS     C214     CEL1    -0.150000       12.0110           0
        66 MEMB     1        SAPS     H14R     HEL1     0.150000       1.00800           0
        67 MEMB     1        SAPS     C215     CEL1    -0.150000       12.0110           0
        68 MEMB     1        SAPS     H15R     HEL1     0.150000       1.00800           0
        69 MEMB     1        SAPS     C216     CTL2    -0.180000       12.0110           0
        70 MEMB     1        SAPS     H16R     HAL2     0.900000E-01   1.00800           0
        71 MEMB     1        SAPS     H16S     HAL2     0.900000E-01   1.00800           0
        72 MEMB     1        SAPS     C217     CTL2    -0.180000       12.0110           0
        73 MEMB     1        SAPS     H17R     HAL2     0.900000E-01   1.00800           0
        74 MEMB     1        SAPS     H17S     HAL2     0.900000E-01   1.00800           0
        75 MEMB     1        SAPS     C218     CTL2    -0.180000       12.0110           0
        76 MEMB     1        SAPS     H18R     HAL2     0.900000E-01   1.00800           0
        77 MEMB     1        SAPS     H18S     HAL2     0.900000E-01   1.00800           0
        78 MEMB     1        SAPS     C219     CTL2    -0.180000       12.0110           0
        79 MEMB     1        SAPS     H19R     HAL2     0.900000E-01   1.00800           0
        80 MEMB     1        SAPS     H19S     HAL2     0.900000E-01   1.00800           0
        81 MEMB     1        SAPS     C220     CTL3    -0.270000       12.0110           0
        82 MEMB     1        SAPS     H20R     HAL3     0.900000E-01   1.00800           0
        83 MEMB     1        SAPS     H20S     HAL3     0.900000E-01   1.00800           0
        84 MEMB     1        SAPS     H20T     HAL3     0.900000E-01   1.00800           0
        85 MEMB     1        SAPS     C33      CTL2    -0.180000       12.0110           0
        86 MEMB     1        SAPS     H3X      HAL2     0.900000E-01   1.00800           0
        87 MEMB     1        SAPS     H3Y      HAL2     0.900000E-01   1.00800           0
        88 MEMB     1        SAPS     C34      CTL2    -0.180000       12.0110           0
        89 MEMB     1        SAPS     H4X      HAL2     0.900000E-01   1.00800           0
        90 MEMB     1        SAPS     H4Y      HAL2     0.900000E-01   1.00800           0
        91 MEMB     1        SAPS     C35      CTL2    -0.180000       12.0110           0
        92 MEMB     1        SAPS     H5X      HAL2     0.900000E-01   1.00800           0
        93 MEMB     1        SAPS     H5Y      HAL2     0.900000E-01   1.00800           0
        94 MEMB     1        SAPS     C36      CTL2    -0.180000       12.0110           0
        95 MEMB     1        SAPS     H6X      HAL2     0.900000E-01   1.00800           0
        96 MEMB     1        SAPS     H6Y      HAL2     0.900000E-01   1.00800           0
        97 MEMB     1        SAPS     C37      CTL2    -0.180000       12.0110           0
        98 MEMB     1        SAPS     H7X      HAL2     0.900000E-01   1.00800           0
        99 MEMB     1        SAPS     H7Y      HAL2     0.900000E-01   1.00800           0
       100 MEMB     1        SAPS     C38      CTL2    -0.180000       12.0110           0
       101 MEMB     1        SAPS     H8X      HAL2     0.900000E-01   1.00800           0
       102 MEMB     1        SAPS     H8Y      HAL2     0.900000E-01   1.00800           0
       103 MEMB     1        SAPS     C39      CTL2    -0.180000       12.0110           0
       104 MEMB     1        SAPS     H9X      HAL2     0.900000E-01   1.00800           0
       105 MEMB     1        SAPS     H9Y      HAL2     0.900000E-01   1.00800           0
       106 MEMB     1        SAPS     C310     CTL2    -0.180000       12.0110           0
       107 MEMB     1        SAPS     H10X     HAL2     0.900000E-01   1.00800           0
       108 MEMB     1        SAPS     H10Y     HAL2     0.900000E-01   1.00800           0
       109 MEMB     1        SAPS     C311     CTL2    -0.180000       12.0110           0
       110 MEMB     1        SAPS     H11X     HAL2     0.900000E-01   1.00800           0
       111 MEMB     1        SAPS     H11Y     HAL2     0.900000E-01   1.00800           0
       112 MEMB     1        SAPS     C312     CTL2    -0.180000       12.0110           0
       113 MEMB     1        SAPS     H12X     HAL2     0.900000E-01   1.00800           0
       114 MEMB     1        SAPS     H12Y     HAL2     0.900000E-01   1.00800           0
       115 MEMB     1        SAPS     C313     CTL2    -0.180000       12.0110           0
       116 MEMB     1        SAPS     H13X     HAL2     0.900000E-01   1.00800           0
       117 MEMB     1        SAPS     H13Y     HAL2     0.900000E-01   1.00800           0
       118 MEMB     1        SAPS     C314     CTL2    -0.180000       12.0110           0
       119 MEMB     1        SAPS     H14X     HAL2     0.900000E-01   1.00800           0
       120 MEMB     1        SAPS     H14Y     HAL2     0.900000E-01   1.00800           0
       121 MEMB     1        SAPS     C315     CTL2    -0.180000       12.0110           0
       122 MEMB     1        SAPS     H15X     HAL2     0.900000E-01   1.00800           0
       123 MEMB     1        SAPS     H15Y     HAL2     0.900000E-01   1.00800           0
       124 MEMB     1        SAPS     C316     CTL2    -0.180000       12.0110           0
       125 MEMB     1        SAPS     H16X     HAL2     0.900000E-01   1.00800           0
       126 MEMB     1        SAPS     H16Y     HAL2     0.900000E-01   1.00800           0
       127 MEMB     1        SAPS     C317     CTL2    -0.180000       12.0110           0
       128 MEMB     1        SAPS     H17X     HAL2     0.900000E-01   1.00800           0
       129 MEMB     1        SAPS     H17Y     HAL2     0.900000E-01   1.00800           0
       130 MEMB     1        SAPS     C318     CTL3    -0.270000       12.0110           0
       131 MEMB     1        SAPS     H18X     HAL3     0.900000E-01   1.00800           0
       132 MEMB     1        SAPS     H18Y     HAL3     0.900000E-01   1.00800           0
       133 MEMB     1        SAPS     H18Z     HAL3     0.900000E-01   1.00800           0
       134 MEMB     17       SAPS     N        NH3L    -0.300000       14.0070           0
       135 MEMB     17       SAPS     HN1      HCL      0.330000       1.00800           0
       136 MEMB     17       SAPS     HN2      HCL      0.330000       1.00800           0
       137 MEMB     17       SAPS     HN3      HCL      0.330000       1.00800           0
       138 MEMB     17       SAPS     C12      CTL1     0.210000       12.0110           0
       139 MEMB     17       SAPS     H12A     HBL      0.100000       1.00800           0
       140 MEMB     17       SAPS     C13      CCL      0.340000       12.0110           0
       141 MEMB     17       SAPS     O13A     OCL     -0.670000       15.9994           0
       142 MEMB     17       SAPS     O13B     OCL     -0.670000       15.9994           0
       143 MEMB     17       SAPS     C11      CTL2    -0.800000E-01   12.0110           0
       144 MEMB     17       SAPS     H11A     HAL2     0.900000E-01   1.00800           0
       145 MEMB     17       SAPS     H11B     HAL2     0.900000E-01   1.00800           0
       146 MEMB     17       SAPS     P        PL       1.500000       30.9740           0
       147 MEMB     17       SAPS     O13      O2L     -0.780000       15.9994           0
       148 MEMB     17       SAPS     O14      O2L     -0.780000       15.9994           0
       149 MEMB     17       SAPS     O12      OSLP    -0.570000       15.9994           0
       150 MEMB     17       SAPS     O11      OSLP    -0.570000       15.9994           0
       151 MEMB     17       SAPS     C1       CTL2    -0.800000E-01   12.0110           0
       152 MEMB     17       SAPS     HA       HAL2     0.900000E-01   1.00800           0
       153 MEMB     17       SAPS     HB       HAL2     0.900000E-01   1.00800           0
       154 MEMB     17       SAPS     C2       CTL1     0.170000       12.0110           0
       155 MEMB     17       SAPS     HS       HAL1     0.900000E-01   1.00800           0
       156 MEMB     17       SAPS     O21      OSL     -0.490000       15.9994           0
       157 MEMB     17       SAPS     C21      CL       0.900000       12.0110           0
       158 MEMB     17       SAPS     O22      OBL     -0.630000       15.9994           0
       159 MEMB     17       SAPS     C22      CTL2    -0.220000       12.0110           0
       160 MEMB     17       SAPS     H2R      HAL2     0.900000E-01   1.00800           0
       161 MEMB     17       SAPS     H2S      HAL2     0.900000E-01   1.00800           0
       162 MEMB     17       SAPS     C3       CTL2     0.800000E-01   12.0110           0
       163 MEMB     17       SAPS     HX       HAL2     0.900000E-01   1.00800           0
       164 MEMB     17       SAPS     HY       HAL2     0.900000E-01   1.00800           0
       165 MEMB     17       SAPS     O31      OSL     -0.490000       15.9994           0
       166 MEMB     17       SAPS     C31      CL       0.900000       12.0110           0
       167 MEMB     17       SAPS     O32      OBL     -0.630000       15.9994           0
       168 MEMB     17       SAPS     C32      CTL2    -0.220000       12.0110           0
       169 MEMB     17       SAPS     H2X      HAL2     0.900000E-01   1.00800           0
       170 MEMB     17       SAPS     H2Y      HAL2     0.900000E-01   1.00800           0
       171 MEMB     17       SAPS     C23      CTL2    -0.180000       12.0110           0
       172 MEMB     17       SAPS     H3R      HAL2     0.900000E-01   1.00800           0
       173 MEMB     17       SAPS     H3S      HAL2     0.900000E-01   1.00800           0
       174 MEMB     17       SAPS     C24      CTL2    -0.180000       12.0110           0
       175 MEMB     17       SAPS     H4R      HAL2     0.900000E-01   1.00800           0
       176 MEMB     17       SAPS     H4S      HAL2     0.900000E-01   1.00800           0
       177 MEMB     17       SAPS     C25      CEL1    -0.150000       12.0110           0
       178 MEMB     17       SAPS     H5R      HEL1     0.150000       1.00800           0
       179 MEMB     17       SAPS     C26      CEL1    -0.150000       12.0110           0
       180 MEMB     17       SAPS     H6R      HEL1     0.150000       1.00800           0
       181 MEMB     17       SAPS     C27      CTL2    -0.180000       12.0110           0
       182 MEMB     17       SAPS     H7R      HAL2     0.900000E-01   1.00800           0
       183 MEMB     17       SAPS     H7S      HAL2     0.900000E-01   1.00800           0
       184 MEMB     17       SAPS     C28      CEL1    -0.150000       12.0110           0
       185 MEMB     17       SAPS     H8R      HEL1     0.150000       1.00800           0
       186 MEMB     17       SAPS     C29      CEL1    -0.150000       12.0110           0
       187 MEMB     17       SAPS     H9R      HEL1     0.150000       1.00800           0
       188 MEMB     17       SAPS     C210     CTL2    -0.180000       12.0110           0
       189 MEMB     17       SAPS     H10R     HAL2     0.900000E-01   1.00800           0
       190 MEMB     17       SAPS     H10S     HAL2     0.900000E-01   1.00800           0
       191 MEMB     17       SAPS     C211     CEL1    -0.150000       12.0110           0
       192 MEMB     17       SAPS     H11R     HEL1     0.150000       1.00800           0
       193 MEMB     17       SAPS     C212     CEL1    -0.150000       12.0110           0
       194 MEMB     17       SAPS     H12R     HEL1     0.150000       1.00800           0
       195 MEMB     17       SAPS     C213     CTL2    -0.180000       12.0110           0
       196 MEMB     17       SAPS     H13R     HAL2     0.900000E-01   1.00800           0
       197 MEMB     17       SAPS     H13S     HAL2     0.900000E-01   1.00800           0
       198 MEMB     17       SAPS     C214     CEL1    -0.150000       12.0110           0
       199 MEMB     17       SAPS     H14R     HEL1     0.150000       1.00800           0
       200 MEMB     17       SAPS     C215     CEL1    -0.150000       12.0110           0
       201 MEMB     17       SAPS     H15R     HEL1     0.150000       1.00800           0
       202 MEMB     17       SAPS     C216     CTL2    -0.180000       12.0110           0
       203 MEMB     17       SAPS     H16R     HAL2     0.900000E-01   1.00800           0
       204 MEMB     17       SAPS     H16S     HAL2     0.900000E-01   1.00800           0
       205 MEMB     17       SAPS     C217     CTL2    -0.180000       12.0110           0
       206 MEMB     17       SAPS     H17R     HAL2     0.900000E-01   1.00800           0
       207 MEMB     17       SAPS     H17S     HAL2     0.900000E-01   1.00800           0
       208 MEMB     17       SAPS     C218     CTL2    -0.180000       12.0110           0
       209 MEMB     17       SAPS     H18R     HAL2     0.900000E-01   1.00800           0
       210 MEMB     17       SAPS     H18S     HAL2     0.900000E-01   1.00800           0
       211 MEMB     17       SAPS     C219     CTL2    -0.180000       12.0110           0
       212 MEMB     17       SAPS     H19R     HAL2     0.900000E-01   1.00800           0
       213 MEMB     17       SAPS     H19S     HAL2     0.900000E-01   1.00800           0
       214 MEMB     17       SAPS     C220     CTL3    -0.270000       12.0110           0
       215 MEMB     17       SAPS     H20R     HAL3     0.900000E-01   1.00800           0
       216 MEMB     17       SAPS     H20S     HAL3     0.900000E-01   1.00800           0
       217 MEMB     17       SAPS     H20T     HAL3     0.900000E-01   1.00800           0
       218 MEMB     17       SAPS     C33      CTL2    -0.180000       12.0110           0
       219 MEMB     17       SAPS     H3X      HAL2     0.900000E-01   1.00800           0
       220 MEMB     17       SAPS     H3Y      HAL2     0.900000E-01   1.00800           0
       221 MEMB     17       SAPS     C34      CTL2    -0.180000       12.0110           0
       222 MEMB     17       SAPS     H4X      HAL2     0.900000E-01   1.00800           0
       223 MEMB     17       SAPS     H4Y      HAL2     0.900000E-01   1.00800           0
       224 MEMB     17       SAPS     C35      CTL2    -0.180000       12.0110           0
       225 MEMB     17       SAPS     H5X      HAL2     0.900000E-01   1.00800           0
       226 MEMB     17       SAPS     H5Y      HAL2     0.900000E-01   1.00800           0
       227 MEMB     17       SAPS     C36      CTL2    -0.180000       12.0110           0
       228 MEMB     17       SAPS     H6X      HAL2     0.900000E-01   1.00800           0
       229 MEMB     17       SAPS     H6Y      HAL2     0.900000E-01   1.00800           0
       230 MEMB     17       SAPS     C37      CTL2    -0.180000       12.0110           0
       231 MEMB     17       SAPS     H7X      HAL2     0.900000E-01   1.00800           0
       232 MEMB     17       SAPS     H7Y      HAL2     0.900000E-01   1.00800           0
       233 MEMB     17       SAPS     C38      CTL2    -0.180000       12.0110           0
       234 MEMB     17       SAPS     H8X      HAL2     0.900000E-01   1.00800           0
       235 MEMB     17       SAPS     H8Y      HAL2     0.900000E-01   1.00800           0
       236 MEMB     17       SAPS     C39      CTL2    -0.180000       12.0110           0
       237 MEMB     17       SAPS     H9X      HAL2     0.900000E-01   1.00800           0
       238 MEMB     17       SAPS     H9Y      HAL2     0.900000E-01   1.00800           0
       239 MEMB     17       SAPS     C310     CTL2    -0.180000       12.0110           0
       240 MEMB     17       SAPS     H10X     HAL2     0.900000E-01   1.00800           0
       241 MEMB     17       SAPS     H10Y     HAL2     0.900000E-01   1.00800           0
       242 MEMB     17       SAPS     C311     CTL2    -0.180000       12.0110           0
       243 MEMB     17       SAPS     H11X     HAL2     0.900000E-01   1.00800           0
       244 MEMB     17       SAPS     H11Y     HAL2     0.900000E-01   1.00800           0
       245 MEMB     17       SAPS     C312     CTL2    -0.180000       12.0110           0
       246 MEMB     17       SAPS     H12X     HAL2     0.900000E-01   1.00800           0
       247 MEMB     17       SAPS     H12Y     HAL2     0.900000E-01   1.00800           0
       248 MEMB     17       SAPS     C313     CTL2    -0.180000       12.0110           0
       249 MEMB     17       SAPS     H13X     HAL2     0.900000E-01   1.00800           0
       250 MEMB     17       SAPS     H13Y     HAL2     0.900000E-01   1.00800           0
       251 MEMB     17       SAPS     C314     CTL2    -0.180000       12.0110           0
       252 MEMB     17       SAPS     H14X     HAL2     0.900000E-01   1.00800           0
       253 MEMB     17       SAPS     H14Y     HAL2     0.900000E-01   1.00800           0
       254 MEMB     17       SAPS     C315     CTL2    -0.180000       12.0110           0
       255 MEMB     17       SAPS     H15X     HAL2     0.900000E-01   1.00800           0
       256 MEMB     17       SAPS     H15Y     HAL2     0.900000E-01   1.00800           0
       257 MEMB     17       SAPS     C316     CTL2    -0.180000       12.0110           0
       258 MEMB     17       SAPS     H16X     HAL2     0.900000E-01   1.00800           0
       259 MEMB     17       SAPS     H16Y     HAL2     0.900000E-01   1.00800           0
       260 MEMB     17       SAPS     C317     CTL2    -0.180000       12.0110           0
       261 MEMB     17       SAPS     H17X     HAL2     0.900000E-01   1.00800           0
       262 MEMB     17       SAPS     H17Y     HAL2     0.900000E-01   1.00800           0
       263 MEMB     17       SAPS     C318     CTL3    -0.270000       12.0110           0
       264 MEMB     17       SAPS     H18X     HAL3     0.900000E-01   1.00800           0
       265 MEMB     17       SAPS     H18Y     HAL3     0.900000E-01   1.00800           0
       266 MEMB     17       SAPS     H18Z     HAL3     0.900000E-01   1.00800           0
       267 MEMB     31       SAPS     N        NH3L    -0.300000       14.0070           0
       268 MEMB     31       SAPS     HN1      HCL      0.330000       1.00800           0
       269 MEMB     31       SAPS     HN2      HCL      0.330000       1.00800           0
       270 MEMB     31       SAPS     HN3      HCL      0.330000       1.00800           0
       271 MEMB     31       SAPS     C12      CTL1     0.210000       12.0110           0
       272 MEMB     31       SAPS     H12A     HBL      0.100000       1.00800           0
       273 MEMB     31       SAPS     C13      CCL      0.340000       12.0110           0
       274 MEMB     31       SAPS     O13A     OCL     -0.670000       15.9994           0
       275 MEMB     31       SAPS     O13B     OCL     -0.670000       15.9994           0
       276 MEMB     31       SAPS     C11      CTL2    -0.800000E-01   12.0110           0
       277 MEMB     31       SAPS     H11A     HAL2     0.900000E-01   1.00800           0
       278 MEMB     31       SAPS     H11B     HAL2     0.900000E-01   1.00800           0
       279 MEMB     31       SAPS     P        PL       1.500000       30.9740           0
       280 MEMB     31       SAPS     O13      O2L     -0.780000       15.9994           0
       281 MEMB     31       SAPS     O14      O2L     -0.780000       15.9994           0
       282 MEMB     31       SAPS     O12      OSLP    -0.570000       15.9994           0
       283 MEMB     31       SAPS     O11      OSLP    -0.570000       15.9994           0
       284 MEMB     31       SAPS     C1       CTL2    -0.800000E-01   12.0110           0
       285 MEMB     31       SAPS     HA       HAL2     0.900000E-01   1.00800           0
       286 MEMB     31       SAPS     HB       HAL2     0.900000E-01   1.00800           0
       287 MEMB     31       SAPS     C2       CTL1     0.170000       12.0110           0
       288 MEMB     31       SAPS     HS       HAL1     0.900000E-01   1.00800           0
       289 MEMB     31       SAPS     O21      OSL     -0.490000       15.9994           0
       290 MEMB     31       SAPS     C21      CL       0.900000       12.0110           0
       291 MEMB     31       SAPS     O22      OBL     -0.630000       15.9994           0
       292 MEMB     31       SAPS     C22      CTL2    -0.220000       12.0110           0
       293 MEMB     31       SAPS     H2R      HAL2     0.900000E-01   1.00800           0
       294 MEMB     31       SAPS     H2S      HAL2     0.900000E-01   1.00800           0
       295 MEMB     31       SAPS     C3       CTL2     0.800000E-01   12.0110           0
       296 MEMB     31       SAPS     HX       HAL2     0.900000E-01   1.00800           0
       297 MEMB     31       SAPS     HY       HAL2     0.900000E-01   1.00800           0
       298 MEMB     31       SAPS     O31      OSL     -0.490000       15.9994           0
       299 MEMB     31       SAPS     C31      CL       0.900000       12.0110           0
       300 MEMB     31       SAPS     O32      OBL     -0.630000       15.9994           0
       301 MEMB     31       SAPS     C32      CTL2    -0.220000       12.0110           0
       302 MEMB     31       SAPS     H2X      HAL2     0.900000E-01   1.00800           0
       303 MEMB     31       SAPS     H2Y      HAL2     0.900000E-01   1.00800           0
       304 MEMB     31       SAPS     C23      CTL2    -0.180000       12.0110           0
       305 MEMB     31       SAPS     H3R      HAL2     0.900000E-01   1.00800           0
       306 MEMB     31       SAPS     H3S      HAL2     0.900000E-01   1.00800           0
       307 MEMB     31       SAPS     C24      CTL2    -0.180000       12.0110           0
       308 MEMB     31       SAPS     H4R      HAL2     0.900000E-01   1.00800           0
       309 MEMB     31       SAPS     H4S      HAL2     0.900000E-01   1.00800           0
       310 MEMB     31       SAPS     C25      CEL1    -0.150000       12.0110           0
       311 MEMB     31       SAPS     H5R      HEL1     0.150000       1.00800           0
       312 MEMB     31       SAPS     C26      CEL1    -0.150000       12.0110           0
       313 MEMB     31       SAPS     H6R      HEL1     0.150000       1.00800           0
       314 MEMB     31       SAPS     C27      CTL2    -0.180000       12.0110           0
       315 MEMB     31       SAPS     H7R      HAL2     0.900000E-01   1.00800           0
       316 MEMB     31       SAPS     H7S      HAL2     0.900000E-01   1.00800           0
       317 MEMB     31       SAPS     C28      CEL1    -0.150000       12.0110           0
       318 MEMB     31       SAPS     H8R      HEL1     0.150000       1.00800           0
       319 MEMB     31       SAPS     C29      CEL1    -0.150000       12.0110           0
       320 MEMB     31       SAPS     H9R      HEL1     0.150000       1.00800           0
       321 MEMB     31       SAPS     C210     CTL2    -0.180000       12.0110           0
       322 MEMB     31       SAPS     H10R     HAL2     0.900000E-01   1.00800           0
       323 MEMB     31       SAPS     H10S     HAL2     0.900000E-01   1.00800           0
       324 MEMB     31       SAPS     C211     CEL1    -0.150000       12.0110           0
       325 MEMB     31       SAPS     H11R     HEL1     0.150000       1.00800           0
       326 MEMB     31       SAPS     C212     CEL1    -0.150000       12.0110           0
       327 MEMB     31       SAPS     H12R     HEL1     0.150000       1.00800           0
       328 MEMB     31       SAPS     C213     CTL2    -0.180000       12.0110           0
       329 MEMB     31       SAPS     H13R     HAL2     0.900000E-01   1.00800           0
       330 MEMB     31       SAPS     H13S     HAL2     0.900000E-01   1.00800           0
       331 MEMB     31       SAPS     C214     CEL1    -0.150000       12.0110           0
       332 MEMB     31       SAPS     H14R     HEL1     0.150000       1.00800           0
       333 MEMB     31       SAPS     C215     CEL1    -0.150000       12.0110           0
       334 MEMB     31       SAPS     H15R     HEL1     0.150000       1.00800           0
       335 MEMB     31       SAPS     C216     CTL2    -0.180000       12.0110           0
       336 MEMB     31       SAPS     H16R     HAL2     0.900000E-01   1.00800           0
       337 MEMB     31       SAPS     H16S     HAL2     0.900000E-01   1.00800           0
       338 MEMB     31       SAPS     C217     CTL2    -0.180000       12.0110           0
       339 MEMB     31       SAPS     H17R     HAL2     0.900000E-01   1.00800           0
       340 MEMB     31       SAPS     H17S     HAL2     0.900000E-01   1.00800           0
       341 MEMB     31       SAPS     C218     CTL2    -0.180000       12.0110           0
       342 MEMB     31       SAPS     H18R     HAL2     0.900000E-01   1.00800           0
       343 MEMB     31       SAPS     H18S     HAL2     0.900000E-01   1.00800           0
       344 MEMB     31       SAPS     C219     CTL2    -0.180000       12.0110           0
       345 MEMB     31       SAPS     H19R     HAL2     0.900000E-01   1.00800           0
       346 MEMB     31       SAPS     H19S     HAL2     0.900000E-01   1.00800           0
       347 MEMB     31       SAPS     C220     CTL3    -0.270000       12.0110           0
       348 MEMB     31       SAPS     H20R     HAL3     0.900000E-01   1.00800           0
       349 MEMB     31       SAPS     H20S     HAL3     0.900000E-01   1.00800           0
       350 MEMB     31       SAPS     H20T     HAL3     0.900000E-01   1.00800           0
       351 MEMB     31       SAPS     C33      CTL2    -0.180000       12.0110           0
       352 MEMB     31       SAPS     H3X      HAL2     0.900000E-01   1.00800           0
       353 MEMB     31       SAPS     H3Y      HAL2     0.900000E-01   1.00800           0
       354 MEMB     31       SAPS     C34      CTL2    -0.180000       12.0110           0
       355 MEMB     31       SAPS     H4X      HAL2     0.900000E-01   1.00800           0
       356 MEMB     31       SAPS     H4Y      HAL2     0.900000E-01   1.00800           0
       357 MEMB     31       SAPS     C35      CTL2    -0.180000       12.0110           0
       358 MEMB     31       SAPS     H5X      HAL2     0.900000E-01   1.00800           0
       359 MEMB     31       SAPS     H5Y      HAL2     0.900000E-01   1.00800           0
       360 MEMB     31       SAPS     C36      CTL2    -0.180000       12.0110           0
       361 MEMB     31       SAPS     H6X      HAL2     0.900000E-01   1.00800           0
       362 MEMB     31       SAPS     H6Y      HAL2     0.900000E-01   1.00800           0
       363 MEMB     31       SAPS     C37      CTL2    -0.180000       12.0110           0
       364 MEMB     31       SAPS     H7X      HAL2     0.900000E-01   1.00800           0
       365 MEMB     31       SAPS     H7Y      HAL2     0.900000E-01   1.00800           0
       366 MEMB     31       SAPS     C38      CTL2    -0.180000       12.0110           0
       367 MEMB     31       SAPS     H8X      HAL2     0.900000E-01   1.00800           0
       368 MEMB     31       SAPS     H8Y      HAL2     0.900000E-01   1.00800           0
       369 MEMB     31       SAPS     C39      CTL2    -0.180000       12.0110           0
       370 MEMB     31       SAPS     H9X      HAL2     0.900000E-01   1.00800           0
       371 MEMB     31       SAPS     H9Y      HAL2     0.900000E-01   1.00800           0
       372 MEMB     31       SAPS     C310     CTL2    -0.180000       12.0110           0
       373 MEMB     31       SAPS     H10X     HAL2     0.900000E-01   1.00800           0
       374 MEMB     31       SAPS     H10Y     HAL2     0.900000E-01   1.00800           0
       375 MEMB     31       SAPS     C311     CTL2    -0.180000       12.0110           0
       376 MEMB     31       SAPS     H11X     HAL2     0.900000E-01   1.00800           0
       377 MEMB     31       SAPS     H11Y     HAL2     0.900000E-01   1.00800           0
       378 MEMB     31       SAPS     C312     CTL2    -0.180000       12.0110           0
       379 MEMB     31       SAPS     H12X     HAL2     0.900000E-01   1.00800           0
       380 MEMB     31       SAPS     H12Y     HAL2     0.900000E-01   1.00800           0
       381 MEMB     31       SAPS     C313     CTL2    -0.180000       12.0110           0
       382 MEMB     31       SAPS     H13X     HAL2     0.900000E-01   1.00800           0
       383 MEMB     31       SAPS     H13Y     HAL2     0.900000E-01   1.00800           0
       384 MEMB     31       SAPS     C314     CTL2    -0.180000       12.0110           0
       385 MEMB     31       SAPS     H14X     HAL2     0.900000E-01   1.00800           0
       386 MEMB     31       SAPS     H14Y     HAL2     0.900000E-01   1.00800           0
       387 MEMB     31       SAPS     C315     CTL2    -0.180000       12.0110           0
       388 MEMB     31       SAPS     H15X     HAL2     0.900000E-01   1.00800           0
       389 MEMB     31       SAPS     H15Y     HAL2     0.900000E-01   1.00800           0
       390 MEMB     31       SAPS     C316     CTL2    -0.180000       12.0110           0
       391 MEMB     31       SAPS     H16X     HAL2     0.900000E-01   1.00800           0
       392 MEMB     31       SAPS     H16Y     HAL2     0.900000E-01   1.00800           0
       393 MEMB     31       SAPS     C317     CTL2    -0.180000       12.0110           0
       394 MEMB     31       SAPS     H17X     HAL2     0.900000E-01   1.00800           0
       395 MEMB     31       SAPS     H17Y     HAL2     0.900000E-01   1.00800           0
       396 MEMB     31       SAPS     C318     CTL3    -0.270000       12.0110           0
       397 MEMB     31       SAPS     H18X     HAL3     0.900000E-01   1.00800           0
       398 MEMB     31       SAPS     H18Y     HAL3     0.900000E-01   1.00800           0
       399 MEMB     31       SAPS     H18Z     HAL3     0.900000E-01   1.00800           0
       400 MEMB     53       SAPS     N        NH3L    -0.300000       14.0070           0
       401 MEMB     53       SAPS     HN1      HCL      0.330000       1.00800           0
       402 MEMB     53       SAPS     HN2      HCL      0.330000       1.00800           0
       403 MEMB     53       SAPS     HN3      HCL      0.330000       1.00800           0
       404 MEMB     53       SAPS     C12      CTL1     0.210000       12.0110           0
       405 MEMB     53       SAPS     H12A     HBL      0.100000       1.00800           0
       406 MEMB     53       SAPS     C13      CCL      0.340000       12.0110           0
       407 MEMB     53       SAPS     O13A     OCL     -0.670000       15.9994           0
       408 MEMB     53       SAPS     O13B     OCL     -0.670000       15.9994           0
       409 MEMB     53       SAPS     C11      CTL2    -0.800000E-01   12.0110           0
       410 MEMB     53       SAPS     H11A     HAL2     0.900000E-01   1.00800           0
       411 MEMB     53       SAPS     H11B     HAL2     0.900000E-01   1.00800           0
       412 MEMB     53       SAPS     P        PL       1.500000       30.9740           0
       413 MEMB     53       SAPS     O13      O2L     -0.780000       15.9994           0
       414 MEMB     53       SAPS     O14      O2L     -0.780000       15.9994           0
       415 MEMB     53       SAPS     O12      OSLP    -0.570000       15.9994           0
       416 MEMB     53       SAPS     O11      OSLP    -0.570000       15.9994           0
       417 MEMB     53       SAPS     C1       CTL2    -0.800000E-01   12.0110           0
       418 MEMB     53       SAPS     HA       HAL2     0.900000E-01   1.00800           0
       419 MEMB     53       SAPS     HB       HAL2     0.900000E-01   1.00800           0
       420 MEMB     53       SAPS     C2       CTL1     0.170000       12.0110           0
       421 MEMB     53       SAPS     HS       HAL1     0.900000E-01   1.00800           0
       422 MEMB     53       SAPS     O21      OSL     -0.490000       15.9994           0
       423 MEMB     53       SAPS     C21      CL       0.900000       12.0110           0
       424 MEMB     53       SAPS     O22      OBL     -0.630000       15.9994           0
       425 MEMB     53       SAPS     C22      CTL2    -0.220000       12.0110           0
       426 MEMB     53       SAPS     H2R      HAL2     0.900000E-01   1.00800           0
       427 MEMB     53       SAPS     H2S      HAL2     0.900000E-01   1.00800           0
       428 MEMB     53       SAPS     C3       CTL2     0.800000E-01   12.0110           0
       429 MEMB     53       SAPS     HX       HAL2     0.900000E-01   1.00800           0
       430 MEMB     53       SAPS     HY       HAL2     0.900000E-01   1.00800           0
       431 MEMB     53       SAPS     O31      OSL     -0.490000       15.9994           0
       432 MEMB     53       SAPS     C31      CL       0.900000       12.0110           0
       433 MEMB     53       SAPS     O32      OBL     -0.630000       15.9994           0
       434 MEMB     53       SAPS     C32      CTL2    -0.220000       12.0110           0
       435 MEMB     53       SAPS     H2X      HAL2     0.900000E-01   1.00800           0
       436 MEMB     53       SAPS     H2Y      HAL2     0.900000E-01   1.00800           0
       437 MEMB     53       SAPS     C23      CTL2    -0.180000       12.0110           0
       438 MEMB     53       SAPS     H3R      HAL2     0.900000E-01   1.00800           0
       439 MEMB     53       SAPS     H3S      HAL2     0.900000E-01   1.00800           0
       440 MEMB     53       SAPS     C24      CTL2    -0.180000       12.0110           0
       441 MEMB     53       SAPS     H4R      HAL2     0.900000E-01   1.00800           0
       442 MEMB     53       SAPS     H4S      HAL2     0.900000E-01   1.00800           0
       443 MEMB     53       SAPS     C25      CEL1    -0.150000       12.0110           0
       444 MEMB     53       SAPS     H5R      HEL1     0.150000       1.00800           0
       445 MEMB     53       SAPS     C26      CEL1    -0.150000       12.0110           0
       446 MEMB     53       SAPS     H6R      HEL1     0.150000       1.00800           0
       447 MEMB     53       SAPS     C27      CTL2    -0.180000       12.0110           0
       448 MEMB     53       SAPS     H7R      HAL2     0.900000E-01   1.00800           0
       449 MEMB     53       SAPS     H7S      HAL2     0.900000E-01   1.00800           0
       450 MEMB     53       SAPS     C28      CEL1    -0.150000       12.0110           0
       451 MEMB     53       SAPS     H8R      HEL1     0.150000       1.00800           0
       452 MEMB     53       SAPS     C29      CEL1    -0.150000       12.0110           0
       453 MEMB     53       SAPS     H9R      HEL1     0.150000       1.00800           0
       454 MEMB     53       SAPS     C210     CTL2    -0.180000       12.0110           0
       455 MEMB     53       SAPS     H10R     HAL2     0.900000E-01   1.00800           0
       456 MEMB     53       SAPS     H10S     HAL2     0.900000E-01   1.00800           0
       457 MEMB     53       SAPS     C211     CEL1    -0.150000       12.0110           0
       458 MEMB     53       SAPS     H11R     HEL1     0.150000       1.00800           0
       459 MEMB     53       SAPS     C212     CEL1    -0.150000       12.0110           0
       460 MEMB     53       SAPS     H12R     HEL1     0.150000       1.00800           0
       461 MEMB     53       SAPS     C213     CTL2    -0.180000       12.0110           0
       462 MEMB     53       SAPS     H13R     HAL2     0.900000E-01   1.00800           0
       463 MEMB     53       SAPS     H13S     HAL2     0.900000E-01   1.00800           0
       464 MEMB     53       SAPS     C214     CEL1    -0.150000       12.0110           0
       465 MEMB     53       SAPS     H14R     HEL1     0.150000       1.00800           0
       466 MEMB     53       SAPS     C215     CEL1    -0.150000       12.0110           0
       467 MEMB     53       SAPS     H15R     HEL1     0.150000       1.00800           0
       468 MEMB     53       SAPS     C216     CTL2    -0.180000       12.0110           0
       469 MEMB     53       SAPS     H16R     HAL2     0.900000E-01   1.00800           0
       470 MEMB     53       SAPS     H16S     HAL2     0.900000E-01   1.00800           0
       471 MEMB     53       SAPS     C217     CTL2    -0.180000       12.0110           0
       472 MEMB     53       SAPS     H17R     HAL2     0.900000E-01   1.00800           0
       473 MEMB     53       SAPS     H17S     HAL2     0.900000E-01   1.00800           0
       474 MEMB     53       SAPS     C218     CTL2    -0.180000       12.0110           0
       475 MEMB     53       SAPS     H18R     HAL2     0.900000E-01   1.00800           0
       476 MEMB     53       SAPS     H18S     HAL2     0.900000E-01   1.00800           0
       477 MEMB     53       SAPS     C219     CTL2    -0.180000       12.0110           0
       478 MEMB     53       SAPS     H19R     HAL2     0.900000E-01   1.00800           0
       479 MEMB     53       SAPS     H19S     HAL2     0.900000E-01   1.00800           0
       480 MEMB     53       SAPS     C220     CTL3    -0.270000       12.0110           0
       481 MEMB     53       SAPS     H20R     HAL3     0.900000E-01   1.00800           0
       482 MEMB     53       SAPS     H20S     HAL3     0.900000E-01   1.00800           0
       483 MEMB     53       SAPS     H20T     HAL3     0.900000E-01   1.00800           0
       484 MEMB     53       SAPS     C33      CTL2    -0.180000       12.0110           0
       485 MEMB     53       SAPS     H3X      HAL2     0.900000E-01   1.00800           0
       486 MEMB     53       SAPS     H3Y      HAL2     0.900000E-01   1.00800           0
       487 MEMB     53       SAPS     C34      CTL2    -0.180000       12.0110           0
       488 MEMB     53       SAPS     H4X      HAL2     0.900000E-01   1.00800           0
       489 MEMB     53       SAPS     H4Y      HAL2     0.900000E-01   1.00800           0
       490 MEMB     53       SAPS     C35      CTL2    -0.180000       12.0110           0
       491 MEMB     53       SAPS     H5X      HAL2     0.900000E-01   1.00800           0
       492 MEMB     53       SAPS     H5Y      HAL2     0.900000E-01   1.00800           0
       493 MEMB     53       SAPS     C36      CTL2    -0.180000       12.0110           0
       494 MEMB     53       SAPS     H6X      HAL2     0.900000E-01   1.00800           0
       495 MEMB     53       SAPS     H6Y      HAL2     0.900000E-01   1.00800           0
       496 MEMB     53       SAPS     C37      CTL2    -0.180000       12.0110           0
       497 MEMB     53       SAPS     H7X      HAL2     0.900000E-01   1.00800           0
       498 MEMB     53       SAPS     H7Y      HAL2     0.900000E-01   1.00800           0
       499 MEMB     53       SAPS     C38      CTL2    -0.180000       12.0110           0
       500 MEMB     53       SAPS     H8X      HAL2     0.900000E-01   1.00800           0
       501 MEMB     53       SAPS     H8Y      HAL2     0.900000E-01   1.00800           0
       502 MEMB     53       SAPS     C39      CTL2    -0.180000       12.0110           0
       503 MEMB     53       SAPS     H9X      HAL2     0.900000E-01   1.00800           0
       504 MEMB     53       SAPS     H9Y      HAL2     0.900000E-01   1.00800           0
       505 MEMB     53       SAPS     C310     CTL2    -0.180000       12.0110           0
       506 MEMB     53       SAPS     H10X     HAL2     0.900000E-01   1.00800           0
       507 MEMB     53       SAPS     H10Y     HAL2     0.900000E-01   1.00800           0
       508 MEMB     53       SAPS     C311     CTL2    -0.180000       12.0110           0
       509 MEMB     53       SAPS     H11X     HAL2     0.900000E-01   1.00800           0
       510 MEMB     53       SAPS     H11Y     HAL2     0.900000E-01   1.00800           0
       511 MEMB     53       SAPS     C312     CTL2    -0.180000       12.0110           0
       512 MEMB     53       SAPS     H12X     HAL2     0.900000E-01   1.00800           0
       513 MEMB     53       SAPS     H12Y     HAL2     0.900000E-01   1.00800           0
       514 MEMB     53       SAPS     C313     CTL2    -0.180000       12.0110           0
       515 MEMB     53       SAPS     H13X     HAL2     0.900000E-01   1.00800           0
       516 MEMB     53       SAPS     H13Y     HAL2     0.900000E-01   1.00800           0
       517 MEMB     53       SAPS     C314     CTL2    -0.180000       12.0110           0
       518 MEMB     53       SAPS     H14X     HAL2     0.900000E-01   1.00800           0
       519 MEMB     53       SAPS     H14Y     HAL2     0.900000E-01   1.00800           0
       520 MEMB     53       SAPS     C315     CTL2    -0.180000       12.0110           0
       521 MEMB     53       SAPS     H15X     HAL2     0.900000E-01   1.00800           0
       522 MEMB     53       SAPS     H15Y     HAL2     0.900000E-01   1.00800           0
       523 MEMB     53       SAPS     C316     CTL2    -0.180000       12.0110           0
       524 MEMB     53       SAPS     H16X     HAL2     0.900000E-01   1.00800           0
       525 MEMB     53       SAPS     H16Y     HAL2     0.900000E-01   1.00800           0
       526 MEMB     53       SAPS     C317     CTL2    -0.180000       12.0110           0
       527 MEMB     53       SAPS     H17X     HAL2     0.900000E-01   1.00800           0
       528 MEMB     53       SAPS     H17Y     HAL2     0.900000E-01   1.00800           0
       529 MEMB     53       SAPS     C318     CTL3    -0.270000       12.0110           0
       530 MEMB     53       SAPS     H18X     HAL3     0.900000E-01   1.00800           0
       531 MEMB     53       SAPS     H18Y     HAL3     0.900000E-01   1.00800           0
       532 MEMB     53       SAPS     H18Z     HAL3     0.900000E-01   1.00800           0
       533 MEMB     66       SAPS     N        NH3L    -0.300000       14.0070           0
       534 MEMB     66       SAPS     HN1      HCL      0.330000       1.00800           0
       535 MEMB     66       SAPS     HN2      HCL      0.330000       1.00800           0
       536 MEMB     66       SAPS     HN3      HCL      0.330000       1.00800           0
       537 MEMB     66       SAPS     C12      CTL1     0.210000       12.0110           0
       538 MEMB     66       SAPS     H12A     HBL      0.100000       1.00800           0
       539 MEMB     66       SAPS     C13      CCL      0.340000       12.0110           0
       540 MEMB     66       SAPS     O13A     OCL     -0.670000       15.9994           0
       541 MEMB     66       SAPS     O13B     OCL     -0.670000       15.9994           0
       542 MEMB     66       SAPS     C11      CTL2    -0.800000E-01   12.0110           0
       543 MEMB     66       SAPS     H11A     HAL2     0.900000E-01   1.00800           0
       544 MEMB     66       SAPS     H11B     HAL2     0.900000E-01   1.00800           0
       545 MEMB     66       SAPS     P        PL       1.500000       30.9740           0
       546 MEMB     66       SAPS     O13      O2L     -0.780000       15.9994           0
       547 MEMB     66       SAPS     O14      O2L     -0.780000       15.9994           0
       548 MEMB     66       SAPS     O12      OSLP    -0.570000       15.9994           0
       549 MEMB     66       SAPS     O11      OSLP    -0.570000       15.9994           0
       550 MEMB     66       SAPS     C1       CTL2    -0.800000E-01   12.0110           0
       551 MEMB     66       SAPS     HA       HAL2     0.900000E-01   1.00800           0
       552 MEMB     66       SAPS     HB       HAL2     0.900000E-01   1.00800           0
       553 MEMB     66       SAPS     C2       CTL1     0.170000       12.0110           0
       554 MEMB     66       SAPS     HS       HAL1     0.900000E-01   1.00800           0
       555 MEMB     66       SAPS     O21      OSL     -0.490000       15.9994           0
       556 MEMB     66       SAPS     C21      CL       0.900000       12.0110           0
       557 MEMB     66       SAPS     O22      OBL     -0.630000       15.9994           0
       558 MEMB     66       SAPS     C22      CTL2    -0.220000       12.0110           0
       559 MEMB     66       SAPS     H2R      HAL2     0.900000E-01   1.00800           0
       560 MEMB     66       SAPS     H2S      HAL2     0.900000E-01   1.00800           0
       561 MEMB     66       SAPS     C3       CTL2     0.800000E-01   12.0110           0
       562 MEMB     66       SAPS     HX       HAL2     0.900000E-01   1.00800           0
       563 MEMB     66       SAPS     HY       HAL2     0.900000E-01   1.00800           0
       564 MEMB     66       SAPS     O31      OSL     -0.490000       15.9994           0
       565 MEMB     66       SAPS     C31      CL       0.900000       12.0110           0
       566 MEMB     66       SAPS     O32      OBL     -0.630000       15.9994           0
       567 MEMB     66       SAPS     C32      CTL2    -0.220000       12.0110           0
       568 MEMB     66       SAPS     H2X      HAL2     0.900000E-01   1.00800           0
       569 MEMB     66       SAPS     H2Y      HAL2     0.900000E-01   1.00800           0
       570 MEMB     66       SAPS     C23      CTL2    -0.180000       12.0110           0
       571 MEMB     66       SAPS     H3R      HAL2     0.900000E-01   1.00800           0
       572 MEMB     66       SAPS     H3S      HAL2     0.900000E-01   1.00800           0
       573 MEMB     66       SAPS     C24      CTL2    -0.180000       12.0110           0
       574 MEMB     66       SAPS     H4R      HAL2     0.900000E-01   1.00800           0
       575 MEMB     66       SAPS     H4S      HAL2     0.900000E-01   1.00800           0
       576 MEMB     66       SAPS     C25      CEL1    -0.150000       12.0110           0
       577 MEMB     66       SAPS     H5R      HEL1     0.150000       1.00800           0
       578 MEMB     66       SAPS     C26      CEL1    -0.150000       12.0110           0
       579 MEMB     66       SAPS     H6R      HEL1     0.150000       1.00800           0
       580 MEMB     66       SAPS     C27      CTL2    -0.180000       12.0110           0
       581 MEMB     66       SAPS     H7R      HAL2     0.900000E-01   1.00800           0
       582 MEMB     66       SAPS     H7S      HAL2     0.900000E-01   1.00800           0
       583 MEMB     66       SAPS     C28      CEL1    -0.150000       12.0110           0
       584 MEMB     66       SAPS     H8R      HEL1     0.150000       1.00800           0
       585 MEMB     66       SAPS     C29      CEL1    -0.150000       12.0110           0
       586 MEMB     66       SAPS     H9R      HEL1     0.150000       1.00800           0
       587 MEMB     66       SAPS     C210     CTL2    -0.180000       12.0110           0
       588 MEMB     66       SAPS     H10R     HAL2     0.900000E-01   1.00800           0
       589 MEMB     66       SAPS     H10S     HAL2     0.900000E-01   1.00800           0
       590 MEMB     66       SAPS     C211     CEL1    -0.150000       12.0110           0
       591 MEMB     66       SAPS     H11R     HEL1     0.150000       1.00800           0
       592 MEMB     66       SAPS     C212     CEL1    -0.150000       12.0110           0
       593 MEMB     66       SAPS     H12R     HEL1     0.150000       1.00800           0
       594 MEMB     66       SAPS     C213     CTL2    -0.180000       12.0110           0
       595 MEMB     66       SAPS     H13R     HAL2     0.900000E-01   1.00800           0
       596 MEMB     66       SAPS     H13S     HAL2     0.900000E-01   1.00800           0
       597 MEMB     66       SAPS     C214     CEL1    -0.150000       12.0110           0
       598 MEMB     66       SAPS     H14R     HEL1     0.150000       1.00800           0
       599 MEMB     66       SAPS     C215     CEL1    -0.150000       12.0110           0
       600 MEMB     66       SAPS     H15R     HEL1     0.150000       1.00800           0
       601 MEMB     66       SAPS     C216     CTL2    -0.180000       12.0110           0
       602 MEMB     66       SAPS     H16R     HAL2     0.900000E-01   1.00800           0
       603 MEMB     66       SAPS     H16S     HAL2     0.900000E-01   1.00800           0
       604 MEMB     66       SAPS     C217     CTL2    -0.180000       12.0110           0
       605 MEMB     66       SAPS     H17R     HAL2     0.900000E-01   1.00800           0
       606 MEMB     66       SAPS     H17S     HAL2     0.900000E-01   1.00800           0
       607 MEMB     66       SAPS     C218     CTL2    -0.180000       12.0110           0
       608 MEMB     66       SAPS     H18R     HAL2     0.900000E-01   1.00800           0
       609 MEMB     66       SAPS     H18S     HAL2     0.900000E-01   1.00800           0
       610 MEMB     66       SAPS     C219     CTL2    -0.180000       12.0110           0
       611 MEMB     66       SAPS     H19R     HAL2     0.900000E-01   1.00800           0
       612 MEMB     66       SAPS     H19S     HAL2     0.900000E-01   1.00800           0
       613 MEMB     66       SAPS     C220     CTL3    -0.270000       12.0110           0
       614 MEMB     66       SAPS     H20R     HAL3     0.900000E-01   1.00800           0
       615 MEMB     66       SAPS     H20S     HAL3     0.900000E-01   1.00800           0
       616 MEMB     66       SAPS     H20T     HAL3     0.900000E-01   1.00800           0
       617 MEMB     66       SAPS     C33      CTL2    -0.180000       12.0110           0
       618 MEMB     66       SAPS     H3X      HAL2     0.900000E-01   1.00800           0
       619 MEMB     66       SAPS     H3Y      HAL2     0.900000E-01   1.00800           0
       620 MEMB     66       SAPS     C34      CTL2    -0.180000       12.0110           0
       621 MEMB     66       SAPS     H4X      HAL2     0.900000E-01   1.00800           0
       622 MEMB     66       SAPS     H4Y      HAL2     0.900000E-01   1.00800           0
       623 MEMB     66       SAPS     C35      CTL2    -0.180000       12.0110           0
       624 MEMB     66       SAPS     H5X      HAL2     0.900000E-01   1.00800           0
       625 MEMB     66       SAPS     H5Y      HAL2     0.900000E-01   1.00800           0
       626 MEMB     66       SAPS     C36      CTL2    -0.180000       12.0110           0
       627 MEMB     66       SAPS     H6X      HAL2     0.900000E-01   1.00800           0
       628 MEMB     66       SAPS     H6Y      HAL2     0.900000E-01   1.00800           0
       629 MEMB     66       SAPS     C37      CTL2    -0.180000       12.0110           0
       630 MEMB     66       SAPS     H7X      HAL2     0.900000E-01   1.00800           0
       631 MEMB     66       SAPS     H7Y      HAL2     0.900000E-01   1.00800           0
       632 MEMB     66       SAPS     C38      CTL2    -0.180000       12.0110           0
       633 MEMB     66       SAPS     H8X      HAL2     0.900000E-01   1.00800           0
       634 MEMB     66       SAPS     H8Y      HAL2     0.900000E-01   1.00800           0
       635 MEMB     66       SAPS     C39      CTL2    -0.180000       12.0110           0
       636 MEMB     66       SAPS     H9X      HAL2     0.900000E-01   1.00800           0
       637 MEMB     66       SAPS     H9Y      HAL2     0.900000E-01   1.00800           0
       638 MEMB     66       SAPS     C310     CTL2    -0.180000       12.0110           0
       639 MEMB     66       SAPS     H10X     HAL2     0.900000E-01   1.00800           0
       640 MEMB     66       SAPS     H10Y     HAL2     0.900000E-01   1.00800           0
       641 MEMB     66       SAPS     C311     CTL2    -0.180000       12.0110           0
       642 MEMB     66       SAPS     H11X     HAL2     0.900000E-01   1.00800           0
       643 MEMB     66       SAPS     H11Y     HAL2     0.900000E-01   1.00800           0
       644 MEMB     66       SAPS     C312     CTL2    -0.180000       12.0110           0
       645 MEMB     66       SAPS     H12X     HAL2     0.900000E-01   1.00800           0
       646 MEMB     66       SAPS     H12Y     HAL2     0.900000E-01   1.00800           0
       647 MEMB     66       SAPS     C313     CTL2    -0.180000       12.0110           0
       648 MEMB     66       SAPS     H13X     HAL2     0.900000E-01   1.00800           0
       649 MEMB     66       SAPS     H13Y     HAL2     0.900000E-01   1.00800           0
       650 MEMB     66       SAPS     C314     CTL2    -0.180000       12.0110           0
       651 MEMB     66       SAPS     H14X     HAL2     0.900000E-01   1.00800           0
       652 MEMB     66       SAPS     H14Y     HAL2     0.900000E-01   1.00800           0
       653 MEMB     66       SAPS     C315     CTL2    -0.180000       12.0110           0
       654 MEMB     66       SAPS     H15X     HAL2     0.900000E-01   1.00800           0
       655 MEMB     66       SAPS     H15Y     HAL2     0.900000E-01   1.00800           0
       656 MEMB     66       SAPS     C316     CTL2    -0.180000       12.0110           0
       657 MEMB     66       SAPS     H16X     HAL2     0.900000E-01   1.00800           0
       658 MEMB     66       SAPS     H16Y     HAL2     0.900000E-01   1.00800           0
       659 MEMB     66       SAPS     C317     CTL2    -0.180000       12.0110           0
       660 MEMB     66       SAPS     H17X     HAL2     0.900000E-01   1.00800           0
       661 MEMB     66       SAPS     H17Y     HAL2     0.900000E-01   1.00800           0
       662 MEMB     66       SAPS     C318     CTL3    -0.270000       12.0110           0
       663 MEMB     66       SAPS     H18X     HAL3     0.900000E-01   1.00800           0
       664 MEMB     66       SAPS     H18Y     HAL3     0.900000E-01   1.00800           0
       665 MEMB     66       SAPS     H18Z     HAL3     0.900000E-01   1.00800           0
       666 MEMB     76       SAPS     N        NH3L    -0.300000       14.0070           0
       667 MEMB     76       SAPS     HN1      HCL      0.330000       1.00800           0
       668 MEMB     76       SAPS     HN2      HCL      0.330000       1.00800           0
       669 MEMB     76       SAPS     HN3      HCL      0.330000       1.00800           0
       670 MEMB     76       SAPS     C12      CTL1     0.210000       12.0110           0
       671 MEMB     76       SAPS     H12A     HBL      0.100000       1.00800           0
       672 MEMB     76       SAPS     C13      CCL      0.340000       12.0110           0
       673 MEMB     76       SAPS     O13A     OCL     -0.670000       15.9994           0
       674 MEMB     76       SAPS     O13B     OCL     -0.670000       15.9994           0
       675 MEMB     76       SAPS     C11      CTL2    -0.800000E-01   12.0110           0
       676 MEMB     76       SAPS     H11A     HAL2     0.900000E-01   1.00800           0
       677 MEMB     76       SAPS     H11B     HAL2     0.900000E-01   1.00800           0
       678 MEMB     76       SAPS     P        PL       1.500000       30.9740           0
       679 MEMB     76       SAPS     O13      O2L     -0.780000       15.9994           0
       680 MEMB     76       SAPS     O14      O2L     -0.780000       15.9994           0
       681 MEMB     76       SAPS     O12      OSLP    -0.570000       15.9994           0
       682 MEMB     76       SAPS     O11      OSLP    -0.570000       15.9994           0
       683 MEMB     76       SAPS     C1       CTL2    -0.800000E-01   12.0110           0
       684 MEMB     76       SAPS     HA       HAL2     0.900000E-01   1.00800           0
       685 MEMB     76       SAPS     HB       HAL2     0.900000E-01   1.00800           0
       686 MEMB     76       SAPS     C2       CTL1     0.170000       12.0110           0
       687 MEMB     76       SAPS     HS       HAL1     0.900000E-01   1.00800           0
       688 MEMB     76       SAPS     O21      OSL     -0.490000       15.9994           0
       689 MEMB     76       SAPS     C21      CL       0.900000       12.0110           0
       690 MEMB     76       SAPS     O22      OBL     -0.630000       15.9994           0
       691 MEMB     76       SAPS     C22      CTL2    -0.220000       12.0110           0
       692 MEMB     76       SAPS     H2R      HAL2     0.900000E-01   1.00800           0
       693 MEMB     76       SAPS     H2S      HAL2     0.900000E-01   1.00800           0
       694 MEMB     76       SAPS     C3       CTL2     0.800000E-01   12.0110           0
       695 MEMB     76       SAPS     HX       HAL2     0.900000E-01   1.00800           0
       696 MEMB     76       SAPS     HY       HAL2     0.900000E-01   1.00800           0
       697 MEMB     76       SAPS     O31      OSL     -0.490000       15.9994           0
       698 MEMB     76       SAPS     C31      CL       0.900000       12.0110           0
       699 MEMB     76       SAPS     O32      OBL     -0.630000       15.9994           0
       700 MEMB     76       SAPS     C32      CTL2    -0.220000       12.0110           0
       701 MEMB     76       SAPS     H2X      HAL2     0.900000E-01   1.00800           0
       702 MEMB     76       SAPS     H2Y      HAL2     0.900000E-01   1.00800           0
       703 MEMB     76       SAPS     C23      CTL2    -0.180000       12.0110           0
       704 MEMB     76       SAPS     H3R      HAL2     0.900000E-01   1.00800           0
       705 MEMB     76       SAPS     H3S      HAL2     0.900000E-01   1.00800           0
       706 MEMB     76       SAPS     C24      CTL2    -0.180000       12.0110           0
       707 MEMB     76       SAPS     H4R      HAL2     0.900000E-01   1.00800           0
       708 MEMB     76       SAPS     H4S      HAL2     0.900000E-01   1.00800           0
       709 MEMB     76       SAPS     C25      CEL1    -0.150000       12.0110           0
       710 MEMB     76       SAPS     H5R      HEL1     0.150000       1.00800           0
       711 MEMB     76       SAPS     C26      CEL1    -0.150000       12.0110           0
       712 MEMB     76       SAPS     H6R      HEL1     0.150000       1.00800           0
       713 MEMB     76       SAPS     C27      CTL2    -0.180000       12.0110           0
       714 MEMB     76       SAPS     H7R      HAL2     0.900000E-01   1.00800           0
       715 MEMB     76       SAPS     H7S      HAL2     0.900000E-01   1.00800           0
       716 MEMB     76       SAPS     C28      CEL1    -0.150000       12.0110           0
       717 MEMB     76       SAPS     H8R      HEL1     0.150000       1.00800           0
       718 MEMB     76       SAPS     C29      CEL1    -0.150000       12.0110           0
       719 MEMB     76       SAPS     H9R      HEL1     0.150000       1.00800           0
       720 MEMB     76       SAPS     C210     CTL2    -0.180000       12.0110           0
       721 MEMB     76       SAPS     H10R     HAL2     0.900000E-01   1.00800           0
       722 MEMB     76       SAPS     H10S     HAL2     0.900000E-01   1.00800           0
       723 MEMB     76       SAPS     C211     CEL1    -0.150000       12.0110           0
       724 MEMB     76       SAPS     H11R     HEL1     0.150000       1.00800           0
       725 MEMB     76       SAPS     C212     CEL1    -0.150000       12.0110           0
       726 MEMB     76       SAPS     H12R     HEL1     0.150000       1.00800           0
       727 MEMB     76       SAPS     C213     CTL2    -0.180000       12.0110           0
       728 MEMB     76       SAPS     H13R     HAL2     0.900000E-01   1.00800           0
       729 MEMB     76       SAPS     H13S     HAL2     0.900000E-01   1.00800           0
       730 MEMB     76       SAPS     C214     CEL1    -0.150000       12.0110           0
       731 MEMB     76       SAPS     H14R     HEL1     0.150000       1.00800           0
       732 MEMB     76       SAPS     C215     CEL1    -0.150000       12.0110           0
       733 MEMB     76       SAPS     H15R     HEL1     0.150000       1.00800           0
       734 MEMB     76       SAPS     C216     CTL2    -0.180000       12.0110           0
       735 MEMB     76       SAPS     H16R     HAL2     0.900000E-01   1.00800           0
       736 MEMB     76       SAPS     H16S     HAL2     0.900000E-01   1.00800           0
       737 MEMB     76       SAPS     C217     CTL2    -0.180000       12.0110           0
       738 MEMB     76       SAPS     H17R     HAL2     0.900000E-01   1.00800           0
       739 MEMB     76       SAPS     H17S     HAL2     0.900000E-01   1.00800           0
       740 MEMB     76       SAPS     C218     CTL2    -0.180000       12.0110           0
       741 MEMB     76       SAPS     H18R     HAL2     0.900000E-01   1.00800           0
       742 MEMB     76       SAPS     H18S     HAL2     0.900000E-01   1.00800           0
       743 MEMB     76       SAPS     C219     CTL2    -0.180000       12.0110           0
       744 MEMB     76       SAPS     H19R     HAL2     0.900000E-01   1.00800           0
       745 MEMB     76       SAPS     H19S     HAL2     0.900000E-01   1.00800           0
       746 MEMB     76       SAPS     C220     CTL3    -0.270000       12.0110           0
       747 MEMB     76       SAPS     H20R     HAL3     0.900000E-01   1.00800           0
       748 MEMB     76       SAPS     H20S     HAL3     0.900000E-01   1.00800           0
       749 MEMB     76       SAPS     H20T     HAL3     0.900000E-01   1.00800           0
       750 MEMB     76       SAPS     C33      CTL2    -0.180000       12.0110           0
       751 MEMB     76       SAPS     H3X      HAL2     0.900000E-01   1.00800           0
       752 MEMB     76       SAPS     H3Y      HAL2     0.900000E-01   1.00800           0
       753 MEMB     76       SAPS     C34      CTL2    -0.180000       12.0110           0
       754 MEMB     76       SAPS     H4X      HAL2     0.900000E-01   1.00800           0
       755 MEMB     76       SAPS     H4Y      HAL2     0.900000E-01   1.00800           0
       756 MEMB     76       SAPS     C35      CTL2    -0.180000       12.0110           0
       757 MEMB     76       SAPS     H5X      HAL2     0.900000E-01   1.00800           0
       758 MEMB     76       SAPS     H5Y      HAL2     0.900000E-01   1.00800           0
       759 MEMB     76       SAPS     C36      CTL2    -0.180000       12.0110           0
       760 MEMB     76       SAPS     H6X      HAL2     0.900000E-01   1.00800           0
       761 MEMB     76       SAPS     H6Y      HAL2     0.900000E-01   1.00800           0
       762 MEMB     76       SAPS     C37      CTL2    -0.180000       12.0110           0
       763 MEMB     76       SAPS     H7X      HAL2     0.900000E-01   1.00800           0
       764 MEMB     76       SAPS     H7Y      HAL2     0.900000E-01   1.00800           0
       765 MEMB     76       SAPS     C38      CTL2    -0.180000       12.0110           0
       766 MEMB     76       SAPS     H8X      HAL2     0.900000E-01   1.00800           0
       767 MEMB     76       SAPS     H8Y      HAL2     0.900000E-01   1.00800           0
       768 MEMB     76       SAPS     C39      CTL2    -0.180000       12.0110           0
       769 MEMB     76       SAPS     H9X      HAL2     0.900000E-01   1.00800           0
       770 MEMB     76       SAPS     H9Y      HAL2     0.900000E-01   1.00800           0
       771 MEMB     76       SAPS     C310     CTL2    -0.180000       12.0110           0
       772 MEMB     76       SAPS     H10X     HAL2     0.900000E-01   1.00800           0
       773 MEMB     76       SAPS     H10Y     HAL2     0.900000E-01   1.00800           0
       774 MEMB     76       SAPS     C311     CTL2    -0.180000       12.0110           0
       775 MEMB     76       SAPS     H11X     HAL2     0.900000E-01   1.00800           0
       776 MEMB     76       SAPS     H11Y     HAL2     0.900000E-01   1.00800           0
       777 MEMB     76       SAPS     C312     CTL2    -0.180000       12.0110           0
       778 MEMB     76       SAPS     H12X     HAL2     0.900000E-01   1.00800           0
       779 MEMB     76       SAPS     H12Y     HAL2     0.900000E-01   1.00800           0
       780 MEMB     76       SAPS     C313     CTL2    -0.180000       12.0110           0
       781 MEMB     76       SAPS     H13X     HAL2     0.900000E-01   1.00800           0
       782 MEMB     76       SAPS     H13Y     HAL2     0.900000E-01   1.00800           0
       783 MEMB     76       SAPS     C314     CTL2    -0.180000       12.0110           0
       784 MEMB     76       SAPS     H14X     HAL2     0.900000E-01   1.00800           0
       785 MEMB     76       SAPS     H14Y     HAL2     0.900000E-01   1.00800           0
       786 MEMB     76       SAPS     C315     CTL2    -0.180000       12.0110           0
       787 MEMB     76       SAPS     H15X     HAL2     0.900000E-01   1.00800           0
       788 MEMB     76       SAPS     H15Y     HAL2     0.900000E-01   1.00800           0
       789 MEMB     76       SAPS     C316     CTL2    -0.180000       12.0110           0
       790 MEMB     76       SAPS     H16X     HAL2     0.900000E-01   1.00800           0
       791 MEMB     76       SAPS     H16Y     HAL2     0.900000E-01   1.00800           0
       792 MEMB     76       SAPS     C317     CTL2    -0.180000       12.0110           0
       793 MEMB     76       SAPS     H17X     HAL2     0.900000E-01   1.00800           0
       794 MEMB     76       SAPS     H17Y     HAL2     0.900000E-01   1.00800           0
       795 MEMB     76       SAPS     C318     CTL3    -0.270000       12.0110           0
       796 MEMB     76       SAPS     H18X     HAL3     0.900000E-01   1.00800           0
       797 MEMB     76       SAPS     H18Y     HAL3     0.900000E-01   1.00800           0
       798 MEMB     76       SAPS     H18Z     HAL3     0.900000E-01   1.00800           0
       799 MEMB     82       SAPS     N        NH3L    -0.300000       14.0070           0
       800 MEMB     82       SAPS     HN1      HCL      0.330000       1.00800           0
       801 MEMB     82       SAPS     HN2      HCL      0.330000       1.00800           0
       802 MEMB     82       SAPS     HN3      HCL      0.330000       1.00800           0
       803 MEMB     82       SAPS     C12      CTL1     0.210000       12.0110           0
       804 MEMB     82       SAPS     H12A     HBL      0.100000       1.00800           0
       805 MEMB     82       SAPS     C13      CCL      0.340000       12.0110           0
       806 MEMB     82       SAPS     O13A     OCL     -0.670000       15.9994           0
       807 MEMB     82       SAPS     O13B     OCL     -0.670000       15.9994           0
       808 MEMB     82       SAPS     C11      CTL2    -0.800000E-01   12.0110           0
       809 MEMB     82       SAPS     H11A     HAL2     0.900000E-01   1.00800           0
       810 MEMB     82       SAPS     H11B     HAL2     0.900000E-01   1.00800           0
       811 MEMB     82       SAPS     P        PL       1.500000       30.9740           0
       812 MEMB     82       SAPS     O13      O2L     -0.780000       15.9994           0
       813 MEMB     82       SAPS     O14      O2L     -0.780000       15.9994           0
       814 MEMB     82       SAPS     O12      OSLP    -0.570000       15.9994           0
       815 MEMB     82       SAPS     O11      OSLP    -0.570000       15.9994           0
       816 MEMB     82       SAPS     C1       CTL2    -0.800000E-01   12.0110           0
       817 MEMB     82       SAPS     HA       HAL2     0.900000E-01   1.00800           0
       818 MEMB     82       SAPS     HB       HAL2     0.900000E-01   1.00800           0
       819 MEMB     82       SAPS     C2       CTL1     0.170000       12.0110           0
       820 MEMB     82       SAPS     HS       HAL1     0.900000E-01   1.00800           0
       821 MEMB     82       SAPS     O21      OSL     -0.490000       15.9994           0
       822 MEMB     82       SAPS     C21      CL       0.900000       12.0110           0
       823 MEMB     82       SAPS     O22      OBL     -0.630000       15.9994           0
       824 MEMB     82       SAPS     C22      CTL2    -0.220000       12.0110           0
       825 MEMB     82       SAPS     H2R      HAL2     0.900000E-01   1.00800           0
       826 MEMB     82       SAPS     H2S      HAL2     0.900000E-01   1.00800           0
       827 MEMB     82       SAPS     C3       CTL2     0.800000E-01   12.0110           0
       828 MEMB     82       SAPS     HX       HAL2     0.900000E-01   1.00800           0
       829 MEMB     82       SAPS     HY       HAL2     0.900000E-01   1.00800           0
       830 MEMB     82       SAPS     O31      OSL     -0.490000       15.9994           0
       831 MEMB     82       SAPS     C31      CL       0.900000       12.0110           0
       832 MEMB     82       SAPS     O32      OBL     -0.630000       15.9994           0
       833 MEMB     82       SAPS     C32      CTL2    -0.220000       12.0110           0
       834 MEMB     82       SAPS     H2X      HAL2     0.900000E-01   1.00800           0
       835 MEMB     82       SAPS     H2Y      HAL2     0.900000E-01   1.00800           0
       836 MEMB     82       SAPS     C23      CTL2    -0.180000       12.0110           0
       837 MEMB     82       SAPS     H3R      HAL2     0.900000E-01   1.00800           0
       838 MEMB     82       SAPS     H3S      HAL2     0.900000E-01   1.00800           0
       839 MEMB     82       SAPS     C24      CTL2    -0.180000       12.0110           0
       840 MEMB     82       SAPS     H4R      HAL2     0.900000E-01   1.00800           0
       841 MEMB     82       SAPS     H4S      HAL2     0.900000E-01   1.00800           0
       842 MEMB     82       SAPS     C25      CEL1    -0.150000       12.0110           0
       843 MEMB     82       SAPS     H5R      HEL1     0.150000       1.00800           0
       844 MEMB     82       SAPS     C26      CEL1    -0.150000       12.0110           0
       845 MEMB     82       SAPS     H6R      HEL1     0.150000       1.00800           0
       846 MEMB     82       SAPS     C27      CTL2    -0.180000       12.0110           0
       847 MEMB     82       SAPS     H7R      HAL2     0.900000E-01   1.00800           0
       848 MEMB     82       SAPS     H7S      HAL2     0.900000E-01   1.00800           0
       849 MEMB     82       SAPS     C28      CEL1    -0.150000       12.0110           0
       850 MEMB     82       SAPS     H8R      HEL1     0.150000       1.00800           0
       851 MEMB     82       SAPS     C29      CEL1    -0.150000       12.0110           0
       852 MEMB     82       SAPS     H9R      HEL1     0.150000       1.00800           0
       853 MEMB     82       SAPS     C210     CTL2    -0.180000       12.0110           0
       854 MEMB     82       SAPS     H10R     HAL2     0.900000E-01   1.00800           0
       855 MEMB     82       SAPS     H10S     HAL2     0.900000E-01   1.00800           0
       856 MEMB     82       SAPS     C211     CEL1    -0.150000       12.0110           0
       857 MEMB     82       SAPS     H11R     HEL1     0.150000       1.00800           0
       858 MEMB     82       SAPS     C212     CEL1    -0.150000       12.0110           0
       859 MEMB     82       SAPS     H12R     HEL1     0.150000       1.00800           0
       860 MEMB     82       SAPS     C213     CTL2    -0.180000       12.0110           0
       861 MEMB     82       SAPS     H13R     HAL2     0.900000E-01   1.00800           0
       862 MEMB     82       SAPS     H13S     HAL2     0.900000E-01   1.00800           0
       863 MEMB     82       SAPS     C214     CEL1    -0.150000       12.0110           0
       864 MEMB     82       SAPS     H14R     HEL1     0.150000       1.00800           0
       865 MEMB     82       SAPS     C215     CEL1    -0.150000       12.0110           0
       866 MEMB     82       SAPS     H15R     HEL1     0.150000       1.00800           0
       867 MEMB     82       SAPS     C216     CTL2    -0.180000       12.0110           0
       868 MEMB     82       SAPS     H16R     HAL2     0.900000E-01   1.00800           0
       869 MEMB     82       SAPS     H16S     HAL2     0.900000E-01   1.00800           0
       870 MEMB     82       SAPS     C217     CTL2    -0.180000       12.0110           0
       871 MEMB     82       SAPS     H17R     HAL2     0.900000E-01   1.00800           0
       872 MEMB     82       SAPS     H17S     HAL2     0.900000E-01   1.00800           0
       873 MEMB     82       SAPS     C218     CTL2    -0.180000       12.0110           0
       874 MEMB     82       SAPS     H18R     HAL2     0.900000E-01   1.00800           0
       875 MEMB     82       SAPS     H18S     HAL2     0.900000E-01   1.00800           0
       876 MEMB     82       SAPS     C219     CTL2    -0.180000       12.0110           0
       877 MEMB     82       SAPS     H19R     HAL2     0.900000E-01   1.00800           0
       878 MEMB     82       SAPS     H19S     HAL2     0.900000E-01   1.00800           0
       879 MEMB     82       SAPS     C220     CTL3    -0.270000       12.0110           0
       880 MEMB     82       SAPS     H20R     HAL3     0.900000E-01   1.00800           0
       881 MEMB     82       SAPS     H20S     HAL3     0.900000E-01   1.00800           0
       882 MEMB     82       SAPS     H20T     HAL3     0.900000E-01   1.00800           0
       883 MEMB     82       SAPS     C33      CTL2    -0.180000       12.0110           0
       884 MEMB     82       SAPS     H3X      HAL2     0.900000E-01   1.00800           0
       885 MEMB     82       SAPS     H3Y      HAL2     0.900000E-01   1.00800           0
       886 MEMB     82       SAPS     C34      CTL2    -0.180000       12.0110           0
       887 MEMB     82       SAPS     H4X      HAL2     0.900000E-01   1.00800           0
       888 MEMB     82       SAPS     H4Y      HAL2     0.900000E-01   1.00800           0
       889 MEMB     82       SAPS     C35      CTL2    -0.180000       12.0110           0
       890 MEMB     82       SAPS     H5X      HAL2     0.900000E-01   1.00800           0
       891 MEMB     82       SAPS     H5Y      HAL2     0.900000E-01   1.00800           0
       892 MEMB     82       SAPS     C36      CTL2    -0.180000       12.0110           0
       893 MEMB     82       SAPS     H6X      HAL2     0.900000E-01   1.00800           0
       894 MEMB     82       SAPS     H6Y      HAL2     0.900000E-01   1.00800           0
       895 MEMB     82       SAPS     C37      CTL2    -0.180000       12.0110           0
       896 MEMB     82       SAPS     H7X      HAL2     0.900000E-01   1.00800           0
       897 MEMB     82       SAPS     H7Y      HAL2     0.900000E-01   1.00800           0
       898 MEMB     82       SAPS     C38      CTL2    -0.180000       12.0110           0
       899 MEMB     82       SAPS     H8X      HAL2     0.900000E-01   1.00800           0
       900 MEMB     82       SAPS     H8Y      HAL2     0.900000E-01   1.00800           0
       901 MEMB     82       SAPS     C39      CTL2    -0.180000       12.0110           0
       902 MEMB     82       SAPS     H9X      HAL2     0.900000E-01   1.00800           0
       903 MEMB     82       SAPS     H9Y      HAL2     0.900000E-01   1.00800           0
       904 MEMB     82       SAPS     C310     CTL2    -0.180000       12.0110           0
       905 MEMB     82       SAPS     H10X     HAL2     0.900000E-01   1.00800           0
       906 MEMB     82       SAPS     H10Y     HAL2     0.900000E-01   1.00800           0
       907 MEMB     82       SAPS     C311     CTL2    -0.180000       12.0110           0
       908 MEMB     82       SAPS     H11X     HAL2     0.900000E-01   1.00800           0
       909 MEMB     82       SAPS     H11Y     HAL2     0.900000E-01   1.00800           0
       910 MEMB     82       SAPS     C312     CTL2    -0.180000       12.0110           0
       911 MEMB     82       SAPS     H12X     HAL2     0.900000E-01   1.00800           0
       912 MEMB     82       SAPS     H12Y     HAL2     0.900000E-01   1.00800           0
       913 MEMB     82       SAPS     C313     CTL2    -0.180000       12.0110           0
       914 MEMB     82       SAPS     H13X     HAL2     0.900000E-01   1.00800           0
       915 MEMB     82       SAPS     H13Y     HAL2     0.900000E-01   1.00800           0
       916 MEMB     82       SAPS     C314     CTL2    -0.180000       12.0110           0
       917 MEMB     82       SAPS     H14X     HAL2     0.900000E-01   1.00800           0
       918 MEMB     82       SAPS     H14Y     HAL2     0.900000E-01   1.00800           0
       919 MEMB     82       SAPS     C315     CTL2    -0.180000       12.0110           0
       920 MEMB     82       SAPS     H15X     HAL2     0.900000E-01   1.00800           0
       921 MEMB     82       SAPS     H15Y     HAL2     0.900000E-01   1.00800           0
       922 MEMB     82       SAPS     C316     CTL2    -0.180000       12.0110           0
       923 MEMB     82       SAPS     H16X     HAL2     0.900000E-01   1.00800           0
       924 MEMB     82       SAPS     H16Y     HAL2     0.900000E-01   1.00800           0
       925 MEMB     82       SAPS     C317     CTL2    -0.180000       12.0110           0
       926 MEMB     82       SAPS     H17X     HAL2     0.900000E-01   1.00800           0
       927 MEMB     82       SAPS     H17Y     HAL2     0.900000E-01   1.00800           0
       928 MEMB     82       SAPS     C318     CTL3    -0.270000       12.0110           0
       929 MEMB     82       SAPS     H18X     HAL3     0.900000E-01   1.00800           0
       930 MEMB     82       SAPS     H18Y     HAL3     0.900000E-01   1.00800           0
       931 MEMB     82       SAPS     H18Z     HAL3     0.900000E-01   1.00800           0
       932 MEMB     85       SAPS     N        NH3L    -0.300000       14.0070           0
       933 MEMB     85       SAPS     HN1      HCL      0.330000       1.00800           0
       934 MEMB     85       SAPS     HN2      HCL      0.330000       1.00800           0
       935 MEMB     85       SAPS     HN3      HCL      0.330000       1.00800           0
       936 MEMB     85       SAPS     C12      CTL1     0.210000       12.0110           0
       937 MEMB     85       SAPS     H12A     HBL      0.100000       1.00800           0
       938 MEMB     85       SAPS     C13      CCL      0.340000       12.0110           0
       939 MEMB     85       SAPS     O13A     OCL     -0.670000       15.9994           0
       940 MEMB     85       SAPS     O13B     OCL     -0.670000       15.9994           0
       941 MEMB     85       SAPS     C11      CTL2    -0.800000E-01   12.0110           0
       942 MEMB     85       SAPS     H11A     HAL2     0.900000E-01   1.00800           0
       943 MEMB     85       SAPS     H11B     HAL2     0.900000E-01   1.00800           0
       944 MEMB     85       SAPS     P        PL       1.500000       30.9740           0
       945 MEMB     85       SAPS     O13      O2L     -0.780000       15.9994           0
       946 MEMB     85       SAPS     O14      O2L     -0.780000       15.9994           0
       947 MEMB     85       SAPS     O12      OSLP    -0.570000       15.9994           0
       948 MEMB     85       SAPS     O11      OSLP    -0.570000       15.9994           0
       949 MEMB     85       SAPS     C1       CTL2    -0.800000E-01   12.0110           0
       950 MEMB     85       SAPS     HA       HAL2     0.900000E-01   1.00800           0
       951 MEMB     85       SAPS     HB       HAL2     0.900000E-01   1.00800           0
       952 MEMB     85       SAPS     C2       CTL1     0.170000       12.0110           0
       953 MEMB     85       SAPS     HS       HAL1     0.900000E-01   1.00800           0
       954 MEMB     85       SAPS     O21      OSL     -0.490000       15.9994           0
       955 MEMB     85       SAPS     C21      CL       0.900000       12.0110           0
       956 MEMB     85       SAPS     O22      OBL     -0.630000       15.9994           0
       957 MEMB     85       SAPS     C22      CTL2    -0.220000       12.0110           0
       958 MEMB     85       SAPS     H2R      HAL2     0.900000E-01   1.00800           0
       959 MEMB     85       SAPS     H2S      HAL2     0.900000E-01   1.00800           0
       960 MEMB     85       SAPS     C3       CTL2     0.800000E-01   12.0110           0
       961 MEMB     85       SAPS     HX       HAL2     0.900000E-01   1.00800           0
       962 MEMB     85       SAPS     HY       HAL2     0.900000E-01   1.00800           0
       963 MEMB     85       SAPS     O31      OSL     -0.490000       15.9994           0
       964 MEMB     85       SAPS     C31      CL       0.900000       12.0110           0
       965 MEMB     85       SAPS     O32      OBL     -0.630000       15.9994           0
       966 MEMB     85       SAPS     C32      CTL2    -0.220000       12.0110           0
       967 MEMB     85       SAPS     H2X      HAL2     0.900000E-01   1.00800           0
       968 MEMB     85       SAPS     H2Y      HAL2     0.900000E-01   1.00800           0
       969 MEMB     85       SAPS     C23      CTL2    -0.180000       12.0110           0
       970 MEMB     85       SAPS     H3R      HAL2     0.900000E-01   1.00800           0
       971 MEMB     85       SAPS     H3S      HAL2     0.900000E-01   1.00800           0
       972 MEMB     85       SAPS     C24      CTL2    -0.180000       12.0110           0
       973 MEMB     85       SAPS     H4R      HAL2     0.900000E-01   1.00800           0
       974 MEMB     85       SAPS     H4S      HAL2     0.900000E-01   1.00800           0
       975 MEMB     85       SAPS     C25      CEL1    -0.150000       12.0110           0
       976 MEMB     85       SAPS     H5R      HEL1     0.150000       1.00800           0
       977 MEMB     85       SAPS     C26      CEL1    -0.150000       12.0110           0
       978 MEMB     85       SAPS     H6R      HEL1     0.150000       1.00800           0
       979 MEMB     85       SAPS     C27      CTL2    -0.180000       12.0110           0
       980 MEMB     85       SAPS     H7R      HAL2     0.900000E-01   1.00800           0
       981 MEMB     85       SAPS     H7S      HAL2     0.900000E-01   1.00800           0
       982 MEMB     85       SAPS     C28      CEL1    -0.150000       12.0110           0
       983 MEMB     85       SAPS     H8R      HEL1     0.150000       1.00800           0
       984 MEMB     85       SAPS     C29      CEL1    -0.150000       12.0110           0
       985 MEMB     85       SAPS     H9R      HEL1     0.150000       1.00800           0
       986 MEMB     85       SAPS     C210     CTL2    -0.180000       12.0110           0
       987 MEMB     85       SAPS     H10R     HAL2     0.900000E-01   1.00800           0
       988 MEMB     85       SAPS     H10S     HAL2     0.900000E-01   1.00800           0
       989 MEMB     85       SAPS     C211     CEL1    -0.150000       12.0110           0
       990 MEMB     85       SAPS     H11R     HEL1     0.150000       1.00800           0
       991 MEMB     85       SAPS     C212     CEL1    -0.150000       12.0110           0
       992 MEMB     85       SAPS     H12R     HEL1     0.150000       1.00800           0
       993 MEMB     85       SAPS     C213     CTL2    -0.180000       12.0110           0
       994 MEMB     85       SAPS     H13R     HAL2     0.900000E-01   1.00800           0
       995 MEMB     85       SAPS     H13S     HAL2     0.900000E-01   1.00800           0
       996 MEMB     85       SAPS     C214     CEL1    -0.150000       12.0110           0
       997 MEMB     85       SAPS     H14R     HEL1     0.150000       1.00800           0
       998 MEMB     85       SAPS     C215     CEL1    -0.150000       12.0110           0
       999 MEMB     85       SAPS     H15R     HEL1     0.150000       1.00800           0
      1000 MEMB     85       SAPS     C216     CTL2    -0.180000       12.0110           0
      1001 MEMB     85       SAPS     H16R     HAL2     0.900000E-01   1.00800           0
      1002 MEMB     85       SAPS     H16S     HAL2     0.900000E-01   1.00800           0
      1003 MEMB     85       SAPS     C217     CTL2    -0.180000       12.0110           0
      1004 MEMB     85       SAPS     H17R     HAL2     0.900000E-01   1.00800           0
      1005 MEMB     85       SAPS     H17S     HAL2     0.900000E-01   1.00800           0
      1006 MEMB     85       SAPS     C218     CTL2    -0.180000       12.0110           0
      1007 MEMB     85       SAPS     H18R     HAL2     0.900000E-01   1.00800           0
      1008 MEMB     85       SAPS     H18S     HAL2     0.900000E-01   1.00800           0
      1009 MEMB     85       SAPS     C219     CTL2    -0.180000       12.0110           0
      1010 MEMB     85       SAPS     H19R     HAL2     0.900000E-01   1.00800           0
      1011 MEMB     85       SAPS     H19S     HAL2     0.900000E-01   1.00800           0
      1012 MEMB     85       SAPS     C220     CTL3    -0.270000       12.0110           0
      1013 MEMB     85       SAPS     H20R     HAL3     0.900000E-01   1.00800           0
      1014 MEMB     85       SAPS     H20S     HAL3     0.900000E-01   1.00800           0
      1015 MEMB     85       SAPS     H20T     HAL3     0.900000E-01   1.00800           0
      1016 MEMB     85       SAPS     C33      CTL2    -0.180000       12.0110           0
      1017 MEMB     85       SAPS     H3X      HAL2     0.900000E-01   1.00800           0
      1018 MEMB     85       SAPS     H3Y      HAL2     0.900000E-01   1.00800           0
      1019 MEMB     85       SAPS     C34      CTL2    -0.180000       12.0110           0
      1020 MEMB     85       SAPS     H4X      HAL2     0.900000E-01   1.00800           0
      1021 MEMB     85       SAPS     H4Y      HAL2     0.900000E-01   1.00800           0
      1022 MEMB     85       SAPS     C35      CTL2    -0.180000       12.0110           0
      1023 MEMB     85       SAPS     H5X      HAL2     0.900000E-01   1.00800           0
      1024 MEMB     85       SAPS     H5Y      HAL2     0.900000E-01   1.00800           0
      1025 MEMB     85       SAPS     C36      CTL2    -0.180000       12.0110           0
      1026 MEMB     85       SAPS     H6X      HAL2     0.900000E-01   1.00800           0
      1027 MEMB     85       SAPS     H6Y      HAL2     0.900000E-01   1.00800           0
      1028 MEMB     85       SAPS     C37      CTL2    -0.180000       12.0110           0
      1029 MEMB     85       SAPS     H7X      HAL2     0.900000E-01   1.00800           0
      1030 MEMB     85       SAPS     H7Y      HAL2     0.900000E-01   1.00800           0
      1031 MEMB     85       SAPS     C38      CTL2    -0.180000       12.0110           0
      1032 MEMB     85       SAPS     H8X      HAL2     0.900000E-01   1.00800           0
      1033 MEMB     85       SAPS     H8Y      HAL2     0.900000E-01   1.00800           0
      1034 MEMB     85       SAPS     C39      CTL2    -0.180000       12.0110           0
      1035 MEMB     85       SAPS     H9X      HAL2     0.900000E-01   1.00800           0
      1036 MEMB     85       SAPS     H9Y      HAL2     0.900000E-01   1.00800           0
      1037 MEMB     85       SAPS     C310     CTL2    -0.180000       12.0110           0
      1038 MEMB     85       SAPS     H10X     HAL2     0.900000E-01   1.00800           0
      1039 MEMB     85       SAPS     H10Y     HAL2     0.900000E-01   1.00800           0
      1040 MEMB     85       SAPS     C311     CTL2    -0.180000       12.0110           0
      1041 MEMB     85       SAPS     H11X     HAL2     0.900000E-01   1.00800           0
      1042 MEMB     85       SAPS     H11Y     HAL2     0.900000E-01   1.00800           0
      1043 MEMB     85       SAPS     C312     CTL2    -0.180000       12.0110           0
      1044 MEMB     85       SAPS     H12X     HAL2     0.900000E-01   1.00800           0
      1045 MEMB     85       SAPS     H12Y     HAL2     0.900000E-01   1.00800           0
      1046 MEMB     85       SAPS     C313     CTL2    -0.180000       12.0110           0
      1047 MEMB     85       SAPS     H13X     HAL2     0.900000E-01   1.00800           0
      1048 MEMB     85       SAPS     H13Y     HAL2     0.900000E-01   1.00800           0
      1049 MEMB     85       SAPS     C314     CTL2    -0.180000       12.0110           0
      1050 MEMB     85       SAPS     H14X     HAL2     0.900000E-01   1.00800           0
      1051 MEMB     85       SAPS     H14Y     HAL2     0.900000E-01   1.00800           0
      1052 MEMB     85       SAPS     C315     CTL2    -0.180000       12.0110           0
      1053 MEMB     85       SAPS     H15X     HAL2     0.900000E-01   1.00800           0
      1054 MEMB     85       SAPS     H15Y     HAL2     0.900000E-01   1.00800           0
      1055 MEMB     85       SAPS     C316     CTL2    -0.180000       12.0110           0
      1056 MEMB     85       SAPS     H16X     HAL2     0.900000E-01   1.00800           0
      1057 MEMB     85       SAPS     H16Y     HAL2     0.900000E-01   1.00800           0
      1058 MEMB     85       SAPS     C317     CTL2    -0.180000       12.0110           0
      1059 MEMB     85       SAPS     H17X     HAL2     0.900000E-01   1.00800           0
      1060 MEMB     85       SAPS     H17Y     HAL2     0.900000E-01   1.00800           0
      1061 MEMB     85       SAPS     C318     CTL3    -0.270000       12.0110           0
      1062 MEMB     85       SAPS     H18X     HAL3     0.900000E-01   1.00800           0
      1063 MEMB     85       SAPS     H18Y     HAL3     0.900000E-01   1.00800           0
      1064 MEMB     85       SAPS     H18Z     HAL3     0.900000E-01   1.00800           0
      1065 MEMB     100      SAPS     N        NH3L    -0.300000       14.0070           0
      1066 MEMB     100      SAPS     HN1      HCL      0.330000       1.00800           0
      1067 MEMB     100      SAPS     HN2      HCL      0.330000       1.00800           0
      1068 MEMB     100      SAPS     HN3      HCL      0.330000       1.00800           0
      1069 MEMB     100      SAPS     C12      CTL1     0.210000       12.0110           0
      1070 MEMB     100      SAPS     H12A     HBL      0.100000       1.00800           0
      1071 MEMB     100      SAPS     C13      CCL      0.340000       12.0110           0
      1072 MEMB     100      SAPS     O13A     OCL     -0.670000       15.9994           0
      1073 MEMB     100      SAPS     O13B     OCL     -0.670000       15.9994           0
      1074 MEMB     100      SAPS     C11      CTL2    -0.800000E-01   12.0110           0
      1075 MEMB     100      SAPS     H11A     HAL2     0.900000E-01   1.00800           0
      1076 MEMB     100      SAPS     H11B     HAL2     0.900000E-01   1.00800           0
      1077 MEMB     100      SAPS     P        PL       1.500000       30.9740           0
      1078 MEMB     100      SAPS     O13      O2L     -0.780000       15.9994           0
      1079 MEMB     100      SAPS     O14      O2L     -0.780000       15.9994           0
      1080 MEMB     100      SAPS     O12      OSLP    -0.570000       15.9994           0
      1081 MEMB     100      SAPS     O11      OSLP    -0.570000       15.9994           0
      1082 MEMB     100      SAPS     C1       CTL2    -0.800000E-01   12.0110           0
      1083 MEMB     100      SAPS     HA       HAL2     0.900000E-01   1.00800           0
      1084 MEMB     100      SAPS     HB       HAL2     0.900000E-01   1.00800           0
      1085 MEMB     100      SAPS     C2       CTL1     0.170000       12.0110           0
      1086 MEMB     100      SAPS     HS       HAL1     0.900000E-01   1.00800           0
      1087 MEMB     100      SAPS     O21      OSL     -0.490000       15.9994           0
      1088 MEMB     100      SAPS     C21      CL       0.900000       12.0110           0
      1089 MEMB     100      SAPS     O22      OBL     -0.630000       15.9994           0
      1090 MEMB     100      SAPS     C22      CTL2    -0.220000       12.0110           0
      1091 MEMB     100      SAPS     H2R      HAL2     0.900000E-01   1.00800           0
      1092 MEMB     100      SAPS     H2S      HAL2     0.900000E-01   1.00800           0
      1093 MEMB     100      SAPS     C3       CTL2     0.800000E-01   12.0110           0
      1094 MEMB     100      SAPS     HX       HAL2     0.900000E-01   1.00800           0
      1095 MEMB     100      SAPS     HY       HAL2     0.900000E-01   1.00800           0
      1096 MEMB     100      SAPS     O31      OSL     -0.490000       15.9994           0
      1097 MEMB     100      SAPS     C31      CL       0.900000       12.0110           0
      1098 MEMB     100      SAPS     O32      OBL     -0.630000       15.9994           0
      1099 MEMB     100      SAPS     C32      CTL2    -0.220000       12.0110           0
      1100 MEMB     100      SAPS     H2X      HAL2     0.900000E-01   1.00800           0
      1101 MEMB     100      SAPS     H2Y      HAL2     0.900000E-01   1.00800           0
      1102 MEMB     100      SAPS     C23      CTL2    -0.180000       12.0110           0
      1103 MEMB     100      SAPS     H3R      HAL2     0.900000E-01   1.00800           0
      1104 MEMB     100      SAPS     H3S      HAL2     0.900000E-01   1.00800           0
      1105 MEMB     100      SAPS     C24      CTL2    -0.180000       12.0110           0
      1106 MEMB     100      SAPS     H4R      HAL2     0.900000E-01   1.00800           0
      1107 MEMB     100      SAPS     H4S      HAL2     0.900000E-01   1.00800           0
      1108 MEMB     100      SAPS     C25      CEL1    -0.150000       12.0110           0
      1109 MEMB     100      SAPS     H5R      HEL1     0.150000       1.00800           0
      1110 MEMB     100      SAPS     C26      CEL1    -0.150000       12.0110           0
      1111 MEMB     100      SAPS     H6R      HEL1     0.150000       1.00800           0
      1112 MEMB     100      SAPS     C27      CTL2    -0.180000       12.0110           0
      1113 MEMB     100      SAPS     H7R      HAL2     0.900000E-01   1.00800           0
      1114 MEMB     100      SAPS     H7S      HAL2     0.900000E-01   1.00800           0
      1115 MEMB     100      SAPS     C28      CEL1    -0.150000       12.0110           0
      1116 MEMB     100      SAPS     H8R      HEL1     0.150000       1.00800           0
      1117 MEMB     100      SAPS     C29      CEL1    -0.150000       12.0110           0
      1118 MEMB     100      SAPS     H9R      HEL1     0.150000       1.00800           0
      1119 MEMB     100      SAPS     C210     CTL2    -0.180000       12.0110           0
      1120 MEMB     100      SAPS     H10R     HAL2     0.900000E-01   1.00800           0
      1121 MEMB     100      SAPS     H10S     HAL2     0.900000E-01   1.00800           0
      1122 MEMB     100      SAPS     C211     CEL1    -0.150000       12.0110           0
      1123 MEMB     100      SAPS     H11R     HEL1     0.150000       1.00800           0
      1124 MEMB     100      SAPS     C212     CEL1    -0.150000       12.0110           0
      1125 MEMB     100      SAPS     H12R     HEL1     0.150000       1.00800           0
      1126 MEMB     100      SAPS     C213     CTL2    -0.180000       12.0110           0
      1127 MEMB     100      SAPS     H13R     HAL2     0.900000E-01   1.00800           0
      1128 MEMB     100      SAPS     H13S     HAL2     0.900000E-01   1.00800           0
      1129 MEMB     100      SAPS     C214     CEL1    -0.150000       12.0110           0
      1130 MEMB     100      SAPS     H14R     HEL1     0.150000       1.00800           0
      1131 MEMB     100      SAPS     C215     CEL1    -0.150000       12.0110           0
      1132 MEMB     100      SAPS     H15R     HEL1     0.150000       1.00800           0
      1133 MEMB     100      SAPS     C216     CTL2    -0.180000       12.0110           0
      1134 MEMB     100      SAPS     H16R     HAL2     0.900000E-01   1.00800           0
      1135 MEMB     100      SAPS     H16S     HAL2     0.900000E-01   1.00800           0
      1136 MEMB     100      SAPS     C217     CTL2    -0.180000       12.0110           0
      1137 MEMB     100      SAPS     H17R     HAL2     0.900000E-01   1.00800           0
      1138 MEMB     100      SAPS     H17S     HAL2     0.900000E-01   1.00800           0
      1139 MEMB     100      SAPS     C218     CTL2    -0.180000       12.0110           0
      1140 MEMB     100      SAPS     H18R     HAL2     0.900000E-01   1.00800           0
      1141 MEMB     100      SAPS     H18S     HAL2     0.900000E-01   1.00800           0
      1142 MEMB     100      SAPS     C219     CTL2    -0.180000       12.0110           0
      1143 MEMB     100      SAPS     H19R     HAL2     0.900000E-01   1.00800           0
      1144 MEMB     100      SAPS     H19S     HAL2     0.900000E-01   1.00800           0
      1145 MEMB     100      SAPS     C220     CTL3    -0.270000       12.0110           0
      1146 MEMB     100      SAPS     H20R     HAL3     0.900000E-01   1.00800           0
      1147 MEMB     100      SAPS     H20S     HAL3     0.900000E-01   1.00800           0
      1148 MEMB     100      SAPS     H20T     HAL3     0.900000E-01   1.00800           0
      1149 MEMB     100      SAPS     C33      CTL2    -0.180000       12.0110           0
      1150 MEMB     100      SAPS     H3X      HAL2     0.900000E-01   1.00800           0
      1151 MEMB     100      SAPS     H3Y      HAL2     0.900000E-01   1.00800           0
      1152 MEMB     100      SAPS     C34      CTL2    -0.180000       12.0110           0
      1153 MEMB     100      SAPS     H4X      HAL2     0.900000E-01   1.00800           0
      1154 MEMB     100      SAPS     H4Y      HAL2     0.900000E-01   1.00800           0
      1155 MEMB     100      SAPS     C35      CTL2    -0.180000       12.0110           0
      1156 MEMB     100      SAPS     H5X      HAL2     0.900000E-01   1.00800           0
      1157 MEMB     100      SAPS     H5Y      HAL2     0.900000E-01   1.00800           0
      1158 MEMB     100      SAPS     C36      CTL2    -0.180000       12.0110           0
      1159 MEMB     100      SAPS     H6X      HAL2     0.900000E-01   1.00800           0
      1160 MEMB     100      SAPS     H6Y      HAL2     0.900000E-01   1.00800           0
      1161 MEMB     100      SAPS     C37      CTL2    -0.180000       12.0110           0
      1162 MEMB     100      SAPS     H7X      HAL2     0.900000E-01   1.00800           0
      1163 MEMB     100      SAPS     H7Y      HAL2     0.900000E-01   1.00800           0
      1164 MEMB     100      SAPS     C38      CTL2    -0.180000       12.0110           0
      1165 MEMB     100      SAPS     H8X      HAL2     0.900000E-01   1.00800           0
      1166 MEMB     100      SAPS     H8Y      HAL2     0.900000E-01   1.00800           0
      1167 MEMB     100      SAPS     C39      CTL2    -0.180000       12.0110           0
      1168 MEMB     100      SAPS     H9X      HAL2     0.900000E-01   1.00800           0
      1169 MEMB     100      SAPS     H9Y      HAL2     0.900000E-01   1.00800           0
      1170 MEMB     100      SAPS     C310     CTL2    -0.180000       12.0110           0
      1171 MEMB     100      SAPS     H10X     HAL2     0.900000E-01   1.00800           0
      1172 MEMB     100      SAPS     H10Y     HAL2     0.900000E-01   1.00800           0
      1173 MEMB     100      SAPS     C311     CTL2    -0.180000       12.0110           0
      1174 MEMB     100      SAPS     H11X     HAL2     0.900000E-01   1.00800           0
      1175 MEMB     100      SAPS     H11Y     HAL2     0.900000E-01   1.00800           0
      1176 MEMB     100      SAPS     C312     CTL2    -0.180000       12.0110           0
      1177 MEMB     100      SAPS     H12X     HAL2     0.900000E-01   1.00800           0
      1178 MEMB     100      SAPS     H12Y     HAL2     0.900000E-01   1.00800           0
      1179 MEMB     100      SAPS     C313     CTL2    -0.180000       12.0110           0
      1180 MEMB     100      SAPS     H13X     HAL2     0.900000E-01   1.00800           0
      1181 MEMB     100      SAPS     H13Y     HAL2     0.900000E-01   1.00800           0
      1182 MEMB     100      SAPS     C314     CTL2    -0.180000       12.0110           0
      1183 MEMB     100      SAPS     H14X     HAL2     0.900000E-01   1.00800           0
      1184 MEMB     100      SAPS     H14Y     HAL2     0.900000E-01   1.00800           0
      1185 MEMB     100      SAPS     C315     CTL2    -0.180000       12.0110           0
      1186 MEMB     100      SAPS     H15X     HAL2     0.900000E-01   1.00800           0
      1187 MEMB     100      SAPS     H15Y     HAL2     0.900000E-01   1.00800           0
      1188 MEMB     100      SAPS     C316     CTL2    -0.180000       12.0110           0
      1189 MEMB     100      SAPS     H16X     HAL2     0.900000E-01   1.00800           0
      1190 MEMB     100      SAPS     H16Y     HAL2     0.900000E-01   1.00800           0
      1191 MEMB     100      SAPS     C317     CTL2    -0.180000       12.0110           0
      1192 MEMB     100      SAPS     H17X     HAL2     0.900000E-01   1.00800           0
      1193 MEMB     100      SAPS     H17Y     HAL2     0.900000E-01   1.00800           0
      1194 MEMB     100      SAPS     C318     CTL3    -0.270000       12.0110           0
      1195 MEMB     100      SAPS     H18X     HAL3     0.900000E-01   1.00800           0
      1196 MEMB     100      SAPS     H18Y     HAL3     0.900000E-01   1.00800           0
      1197 MEMB     100      SAPS     H18Z     HAL3     0.900000E-01   1.00800           0
      1198 MEMB     129      SAPS     N        NH3L    -0.300000       14.0070           0
      1199 MEMB     129      SAPS     HN1      HCL      0.330000       1.00800           0
      1200 MEMB     129      SAPS     HN2      HCL      0.330000       1.00800           0
      1201 MEMB     129      SAPS     HN3      HCL      0.330000       1.00800           0
      1202 MEMB     129      SAPS     C12      CTL1     0.210000       12.0110           0
      1203 MEMB     129      SAPS     H12A     HBL      0.100000       1.00800           0
      1204 MEMB     129      SAPS     C13      CCL      0.340000       12.0110           0
      1205 MEMB     129      SAPS     O13A     OCL     -0.670000       15.9994           0
      1206 MEMB     129      SAPS     O13B     OCL     -0.670000       15.9994           0
      1207 MEMB     129      SAPS     C11      CTL2    -0.800000E-01   12.0110           0
      1208 MEMB     129      SAPS     H11A     HAL2     0.900000E-01   1.00800           0
      1209 MEMB     129      SAPS     H11B     HAL2     0.900000E-01   1.00800           0
      1210 MEMB     129      SAPS     P        PL       1.500000       30.9740           0
      1211 MEMB     129      SAPS     O13      O2L     -0.780000       15.9994           0
      1212 MEMB     129      SAPS     O14      O2L     -0.780000       15.9994           0
      1213 MEMB     129      SAPS     O12      OSLP    -0.570000       15.9994           0
      1214 MEMB     129      SAPS     O11      OSLP    -0.570000       15.9994           0
      1215 MEMB     129      SAPS     C1       CTL2    -0.800000E-01   12.0110           0
      1216 MEMB     129      SAPS     HA       HAL2     0.900000E-01   1.00800           0
      1217 MEMB     129      SAPS     HB       HAL2     0.900000E-01   1.00800           0
      1218 MEMB     129      SAPS     C2       CTL1     0.170000       12.0110           0
      1219 MEMB     129      SAPS     HS       HAL1     0.900000E-01   1.00800           0
      1220 MEMB     129      SAPS     O21      OSL     -0.490000       15.9994           0
      1221 MEMB     129      SAPS     C21      CL       0.900000       12.0110           0
      1222 MEMB     129      SAPS     O22      OBL     -0.630000       15.9994           0
      1223 MEMB     129      SAPS     C22      CTL2    -0.220000       12.0110           0
      1224 MEMB     129      SAPS     H2R      HAL2     0.900000E-01   1.00800           0
      1225 MEMB     129      SAPS     H2S      HAL2     0.900000E-01   1.00800           0
      1226 MEMB     129      SAPS     C3       CTL2     0.800000E-01   12.0110           0
      1227 MEMB     129      SAPS     HX       HAL2     0.900000E-01   1.00800           0
      1228 MEMB     129      SAPS     HY       HAL2     0.900000E-01   1.00800           0
      1229 MEMB     129      SAPS     O31      OSL     -0.490000       15.9994           0
      1230 MEMB     129      SAPS     C31      CL       0.900000       12.0110           0
      1231 MEMB     129      SAPS     O32      OBL     -0.630000       15.9994           0
      1232 MEMB     129      SAPS     C32      CTL2    -0.220000       12.0110           0
      1233 MEMB     129      SAPS     H2X      HAL2     0.900000E-01   1.00800           0
      1234 MEMB     129      SAPS     H2Y      HAL2     0.900000E-01   1.00800           0
      1235 MEMB     129      SAPS     C23      CTL2    -0.180000       12.0110           0
      1236 MEMB     129      SAPS     H3R      HAL2     0.900000E-01   1.00800           0
      1237 MEMB     129      SAPS     H3S      HAL2     0.900000E-01   1.00800           0
      1238 MEMB     129      SAPS     C24      CTL2    -0.180000       12.0110           0
      1239 MEMB     129      SAPS     H4R      HAL2     0.900000E-01   1.00800           0
      1240 MEMB     129      SAPS     H4S      HAL2     0.900000E-01   1.00800           0
      1241 MEMB     129      SAPS     C25      CEL1    -0.150000       12.0110           0
      1242 MEMB     129      SAPS     H5R      HEL1     0.150000       1.00800           0
      1243 MEMB     129      SAPS     C26      CEL1    -0.150000       12.0110           0
      1244 MEMB     129      SAPS     H6R      HEL1     0.150000       1.00800           0
      1245 MEMB     129      SAPS     C27      CTL2    -0.180000       12.0110           0
      1246 MEMB     129      SAPS     H7R      HAL2     0.900000E-01   1.00800           0
      1247 MEMB     129      SAPS     H7S      HAL2     0.900000E-01   1.00800           0
      1248 MEMB     129      SAPS     C28      CEL1    -0.150000       12.0110           0
      1249 MEMB     129      SAPS     H8R      HEL1     0.150000       1.00800           0
      1250 MEMB     129      SAPS     C29      CEL1    -0.150000       12.0110           0
      1251 MEMB     129      SAPS     H9R      HEL1     0.150000       1.00800           0
      1252 MEMB     129      SAPS     C210     CTL2    -0.180000       12.0110           0
      1253 MEMB     129      SAPS     H10R     HAL2     0.900000E-01   1.00800           0
      1254 MEMB     129      SAPS     H10S     HAL2     0.900000E-01   1.00800           0
      1255 MEMB     129      SAPS     C211     CEL1    -0.150000       12.0110           0
      1256 MEMB     129      SAPS     H11R     HEL1     0.150000       1.00800           0
      1257 MEMB     129      SAPS     C212     CEL1    -0.150000       12.0110           0
      1258 MEMB     129      SAPS     H12R     HEL1     0.150000       1.00800           0
      1259 MEMB     129      SAPS     C213     CTL2    -0.180000       12.0110           0
      1260 MEMB     129      SAPS     H13R     HAL2     0.900000E-01   1.00800           0
      1261 MEMB     129      SAPS     H13S     HAL2     0.900000E-01   1.00800           0
      1262 MEMB     129      SAPS     C214     CEL1    -0.150000       12.0110           0
      1263 MEMB     129      SAPS     H14R     HEL1     0.150000       1.00800           0
      1264 MEMB     129      SAPS     C215     CEL1    -0.150000       12.0110           0
      1265 MEMB     129      SAPS     H15R     HEL1     0.150000       1.00800           0
      1266 MEMB     129      SAPS     C216     CTL2    -0.180000       12.0110           0
      1267 MEMB     129      SAPS     H16R     HAL2     0.900000E-01   1.00800           0
      1268 MEMB     129      SAPS     H16S     HAL2     0.900000E-01   1.00800           0
      1269 MEMB     129      SAPS     C217     CTL2    -0.180000       12.0110           0
      1270 MEMB     129      SAPS     H17R     HAL2     0.900000E-01   1.00800           0
      1271 MEMB     129      SAPS     H17S     HAL2     0.900000E-01   1.00800           0
      1272 MEMB     129      SAPS     C218     CTL2    -0.180000       12.0110           0
      1273 MEMB     129      SAPS     H18R     HAL2     0.900000E-01   1.00800           0
      1274 MEMB     129      SAPS     H18S     HAL2     0.900000E-01   1.00800           0
      1275 MEMB     129      SAPS     C219     CTL2    -0.180000       12.0110           0
      1276 MEMB     129      SAPS     H19R     HAL2     0.900000E-01   1.00800           0
      1277 MEMB     129      SAPS     H19S     HAL2     0.900000E-01   1.00800           0
      1278 MEMB     129      SAPS     C220     CTL3    -0.270000       12.0110           0
      1279 MEMB     129      SAPS     H20R     HAL3     0.900000E-01   1.00800           0
      1280 MEMB     129      SAPS     H20S     HAL3     0.900000E-01   1.00800           0
      1281 MEMB     129      SAPS     H20T     HAL3     0.900000E-01   1.00800           0
      1282 MEMB     129      SAPS     C33      CTL2    -0.180000       12.0110           0
      1283 MEMB     129      SAPS     H3X      HAL2     0.900000E-01   1.00800           0
      1284 MEMB     129      SAPS     H3Y      HAL2     0.900000E-01   1.00800           0
      1285 MEMB     129      SAPS     C34      CTL2    -0.180000       12.0110           0
      1286 MEMB     129      SAPS     H4X      HAL2     0.900000E-01   1.00800           0
      1287 MEMB     129      SAPS     H4Y      HAL2     0.900000E-01   1.00800           0
      1288 MEMB     129      SAPS     C35      CTL2    -0.180000       12.0110           0
      1289 MEMB     129      SAPS     H5X      HAL2     0.900000E-01   1.00800           0
      1290 MEMB     129      SAPS     H5Y      HAL2     0.900000E-01   1.00800           0
      1291 MEMB     129      SAPS     C36      CTL2    -0.180000       12.0110           0
      1292 MEMB     129      SAPS     H6X      HAL2     0.900000E-01   1.00800           0
      1293 MEMB     129      SAPS     H6Y      HAL2     0.900000E-01   1.00800           0
      1294 MEMB     129      SAPS     C37      CTL2    -0.180000       12.0110           0
      1295 MEMB     129      SAPS     H7X      HAL2     0.900000E-01   1.00800           0
      1296 MEMB     129      SAPS     H7Y      HAL2     0.900000E-01   1.00800           0
      1297 MEMB     129      SAPS     C38      CTL2    -0.180000       12.0110           0
      1298 MEMB     129      SAPS     H8X      HAL2     0.900000E-01   1.00800           0
      1299 MEMB     129      SAPS     H8Y      HAL2     0.900000E-01   1.00800           0
      1300 MEMB     129      SAPS     C39      CTL2    -0.180000       12.0110           0
      1301 MEMB     129      SAPS     H9X      HAL2     0.900000E-01   1.00800           0
      1302 MEMB     129      SAPS     H9Y      HAL2     0.900000E-01   1.00800           0
      1303 MEMB     129      SAPS     C310     CTL2    -0.180000       12.0110           0
      1304 MEMB     129      SAPS     H10X     HAL2     0.900000E-01   1.00800           0
      1305 MEMB     129      SAPS     H10Y     HAL2     0.900000E-01   1.00800           0
      1306 MEMB     129      SAPS     C311     CTL2    -0.180000       12.0110           0
      1307 MEMB     129      SAPS     H11X     HAL2     0.900000E-01   1.00800           0
      1308 MEMB     129      SAPS     H11Y     HAL2     0.900000E-01   1.00800           0
      1309 MEMB     129      SAPS     C312     CTL2    -0.180000       12.0110           0
      1310 MEMB     129      SAPS     H12X     HAL2     0.900000E-01   1.00800           0
      1311 MEMB     129      SAPS     H12Y     HAL2     0.900000E-01   1.00800           0
      1312 MEMB     129      SAPS     C313     CTL2    -0.180000       12.0110           0
      1313 MEMB     129      SAPS     H13X     HAL2     0.900000E-01   1.00800           0
      1314 MEMB     129      SAPS     H13Y     HAL2     0.900000E-01   1.00800           0
      1315 MEMB     129      SAPS     C314     CTL2    -0.180000       12.0110           0
      1316 MEMB     129      SAPS     H14X     HAL2     0.900000E-01   1.00800           0
      1317 MEMB     129      SAPS     H14Y     HAL2     0.900000E-01   1.00800           0
      1318 MEMB     129      SAPS     C315     CTL2    -0.180000       12.0110           0
      1319 MEMB     129      SAPS     H15X     HAL2     0.900000E-01   1.00800           0
      1320 MEMB     129      SAPS     H15Y     HAL2     0.900000E-01   1.00800           0
      1321 MEMB     129      SAPS     C316     CTL2    -0.180000       12.0110           0
      1322 MEMB     129      SAPS     H16X     HAL2     0.900000E-01   1.00800           0
      1323 MEMB     129      SAPS     H16Y     HAL2     0.900000E-01   1.00800           0
      1324 MEMB     129      SAPS     C317     CTL2    -0.180000       12.0110           0
      1325 MEMB     129      SAPS     H17X     HAL2     0.900000E-01   1.00800           0
      1326 MEMB     129      SAPS     H17Y     HAL2     0.900000E-01   1.00800           0
      1327 MEMB     129      SAPS     C318     CTL3    -0.270000       12.0110           0
      1328 MEMB     129      SAPS     H18X     HAL3     0.900000E-01   1.00800           0
      1329 MEMB     129      SAPS     H18Y     HAL3     0.900000E-01   1.00800           0
      1330 MEMB     129      SAPS     H18Z     HAL3     0.900000E-01   1.00800           0
      1331 MEMB     140      SAPS     N        NH3L    -0.300000       14.0070           0
      1332 MEMB     140      SAPS     HN1      HCL      0.330000       1.00800           0
      1333 MEMB     140      SAPS     HN2      HCL      0.330000       1.00800           0
      1334 MEMB     140      SAPS     HN3      HCL      0.330000       1.00800           0
      1335 MEMB     140      SAPS     C12      CTL1     0.210000       12.0110           0
      1336 MEMB     140      SAPS     H12A     HBL      0.100000       1.00800           0
      1337 MEMB     140      SAPS     C13      CCL      0.340000       12.0110           0
      1338 MEMB     140      SAPS     O13A     OCL     -0.670000       15.9994           0
      1339 MEMB     140      SAPS     O13B     OCL     -0.670000       15.9994           0
      1340 MEMB     140      SAPS     C11      CTL2    -0.800000E-01   12.0110           0
      1341 MEMB     140      SAPS     H11A     HAL2     0.900000E-01   1.00800           0
      1342 MEMB     140      SAPS     H11B     HAL2     0.900000E-01   1.00800           0
      1343 MEMB     140      SAPS     P        PL       1.500000       30.9740           0
      1344 MEMB     140      SAPS     O13      O2L     -0.780000       15.9994           0
      1345 MEMB     140      SAPS     O14      O2L     -0.780000       15.9994           0
      1346 MEMB     140      SAPS     O12      OSLP    -0.570000       15.9994           0
      1347 MEMB     140      SAPS     O11      OSLP    -0.570000       15.9994           0
      1348 MEMB     140      SAPS     C1       CTL2    -0.800000E-01   12.0110           0
      1349 MEMB     140      SAPS     HA       HAL2     0.900000E-01   1.00800           0
      1350 MEMB     140      SAPS     HB       HAL2     0.900000E-01   1.00800           0
      1351 MEMB     140      SAPS     C2       CTL1     0.170000       12.0110           0
      1352 MEMB     140      SAPS     HS       HAL1     0.900000E-01   1.00800           0
      1353 MEMB     140      SAPS     O21      OSL     -0.490000       15.9994           0
      1354 MEMB     140      SAPS     C21      CL       0.900000       12.0110           0
      1355 MEMB     140      SAPS     O22      OBL     -0.630000       15.9994           0
      1356 MEMB     140      SAPS     C22      CTL2    -0.220000       12.0110           0
      1357 MEMB     140      SAPS     H2R      HAL2     0.900000E-01   1.00800           0
      1358 MEMB     140      SAPS     H2S      HAL2     0.900000E-01   1.00800           0
      1359 MEMB     140      SAPS     C3       CTL2     0.800000E-01   12.0110           0
      1360 MEMB     140      SAPS     HX       HAL2     0.900000E-01   1.00800           0
      1361 MEMB     140      SAPS     HY       HAL2     0.900000E-01   1.00800           0
      1362 MEMB     140      SAPS     O31      OSL     -0.490000       15.9994           0
      1363 MEMB     140      SAPS     C31      CL       0.900000       12.0110           0
      1364 MEMB     140      SAPS     O32      OBL     -0.630000       15.9994           0
      1365 MEMB     140      SAPS     C32      CTL2    -0.220000       12.0110           0
      1366 MEMB     140      SAPS     H2X      HAL2     0.900000E-01   1.00800           0
      1367 MEMB     140      SAPS     H2Y      HAL2     0.900000E-01   1.00800           0
      1368 MEMB     140      SAPS     C23      CTL2    -0.180000       12.0110           0
      1369 MEMB     140      SAPS     H3R      HAL2     0.900000E-01   1.00800           0
      1370 MEMB     140      SAPS     H3S      HAL2     0.900000E-01   1.00800           0
      1371 MEMB     140      SAPS     C24      CTL2    -0.180000       12.0110           0
      1372 MEMB     140      SAPS     H4R      HAL2     0.900000E-01   1.00800           0
      1373 MEMB     140      SAPS     H4S      HAL2     0.900000E-01   1.00800           0
      1374 MEMB     140      SAPS     C25      CEL1    -0.150000       12.0110           0
      1375 MEMB     140      SAPS     H5R      HEL1     0.150000       1.00800           0
      1376 MEMB     140      SAPS     C26      CEL1    -0.150000       12.0110           0
      1377 MEMB     140      SAPS     H6R      HEL1     0.150000       1.00800           0
      1378 MEMB     140      SAPS     C27      CTL2    -0.180000       12.0110           0
      1379 MEMB     140      SAPS     H7R      HAL2     0.900000E-01   1.00800           0
      1380 MEMB     140      SAPS     H7S      HAL2     0.900000E-01   1.00800           0
      1381 MEMB     140      SAPS     C28      CEL1    -0.150000       12.0110           0
      1382 MEMB     140      SAPS     H8R      HEL1     0.150000       1.00800           0
      1383 MEMB     140      SAPS     C29      CEL1    -0.150000       12.0110           0
      1384 MEMB     140      SAPS     H9R      HEL1     0.150000       1.00800           0
      1385 MEMB     140      SAPS     C210     CTL2    -0.180000       12.0110           0
      1386 MEMB     140      SAPS     H10R     HAL2     0.900000E-01   1.00800           0
      1387 MEMB     140      SAPS     H10S     HAL2     0.900000E-01   1.00800           0
      1388 MEMB     140      SAPS     C211     CEL1    -0.150000       12.0110           0
      1389 MEMB     140      SAPS     H11R     HEL1     0.150000       1.00800           0
      1390 MEMB     140      SAPS     C212     CEL1    -0.150000       12.0110           0
      1391 MEMB     140      SAPS     H12R     HEL1     0.150000       1.00800           0
      1392 MEMB     140      SAPS     C213     CTL2    -0.180000       12.0110           0
      1393 MEMB     140      SAPS     H13R     HAL2     0.900000E-01   1.00800           0
      1394 MEMB     140      SAPS     H13S     HAL2     0.900000E-01   1.00800           0
      1395 MEMB     140      SAPS     C214     CEL1    -0.150000       12.0110           0
      1396 MEMB     140      SAPS     H14R     HEL1     0.150000       1.00800           0
      1397 MEMB     140      SAPS     C215     CEL1    -0.150000       12.0110           0
      1398 MEMB     140      SAPS     H15R     HEL1     0.150000       1.00800           0
      1399 MEMB     140      SAPS     C216     CTL2    -0.180000       12.0110           0
      1400 MEMB     140      SAPS     H16R     HAL2     0.900000E-01   1.00800           0
      1401 MEMB     140      SAPS     H16S     HAL2     0.900000E-01   1.00800           0
      1402 MEMB     140      SAPS     C217     CTL2    -0.180000       12.0110           0
      1403 MEMB     140      SAPS     H17R     HAL2     0.900000E-01   1.00800           0
      1404 MEMB     140      SAPS     H17S     HAL2     0.900000E-01   1.00800           0
      1405 MEMB     140      SAPS     C218     CTL2    -0.180000       12.0110           0
      1406 MEMB     140      SAPS     H18R     HAL2     0.900000E-01   1.00800           0
      1407 MEMB     140      SAPS     H18S     HAL2     0.900000E-01   1.00800           0
      1408 MEMB     140      SAPS     C219     CTL2    -0.180000       12.0110           0
      1409 MEMB     140      SAPS     H19R     HAL2     0.900000E-01   1.00800           0
      1410 MEMB     140      SAPS     H19S     HAL2     0.900000E-01   1.00800           0
      1411 MEMB     140      SAPS     C220     CTL3    -0.270000       12.0110           0
      1412 MEMB     140      SAPS     H20R     HAL3     0.900000E-01   1.00800           0
      1413 MEMB     140      SAPS     H20S     HAL3     0.900000E-01   1.00800           0
      1414 MEMB     140      SAPS     H20T     HAL3     0.900000E-01   1.00800           0
      1415 MEMB     140      SAPS     C33      CTL2    -0.180000       12.0110           0
      1416 MEMB     140      SAPS     H3X      HAL2     0.900000E-01   1.00800           0
      1417 MEMB     140      SAPS     H3Y      HAL2     0.900000E-01   1.00800           0
      1418 MEMB     140      SAPS     C34      CTL2    -0.180000       12.0110           0
      1419 MEMB     140      SAPS     H4X      HAL2     0.900000E-01   1.00800           0
      1420 MEMB     140      SAPS     H4Y      HAL2     0.900000E-01   1.00800           0
      1421 MEMB     140      SAPS     C35      CTL2    -0.180000       12.0110           0
      1422 MEMB     140      SAPS     H5X      HAL2     0.900000E-01   1.00800           0
      1423 MEMB     140      SAPS     H5Y      HAL2     0.900000E-01   1.00800           0
      1424 MEMB     140      SAPS     C36      CTL2    -0.180000       12.0110           0
      1425 MEMB     140      SAPS     H6X      HAL2     0.900000E-01   1.00800           0
      1426 MEMB     140      SAPS     H6Y      HAL2     0.900000E-01   1.00800           0
      1427 MEMB     140      SAPS     C37      CTL2    -0.180000       12.0110           0
      1428 MEMB     140      SAPS     H7X      HAL2     0.900000E-01   1.00800           0
      1429 MEMB     140      SAPS     H7Y      HAL2     0.900000E-01   1.00800           0
      1430 MEMB     140      SAPS     C38      CTL2    -0.180000       12.0110           0
      1431 MEMB     140      SAPS     H8X      HAL2     0.900000E-01   1.00800           0
      1432 MEMB     140      SAPS     H8Y      HAL2     0.900000E-01   1.00800           0
      1433 MEMB     140      SAPS     C39      CTL2    -0.180000       12.0110           0
      1434 MEMB     140      SAPS     H9X      HAL2     0.900000E-01   1.00800           0
      1435 MEMB     140      SAPS     H9Y      HAL2     0.900000E-01   1.00800           0
      1436 MEMB     140      SAPS     C310     CTL2    -0.180000       12.0110           0
      1437 MEMB     140      SAPS     H10X     HAL2     0.900000E-01   1.00800           0
      1438 MEMB     140      SAPS     H10Y     HAL2     0.900000E-01   1.00800           0
      1439 MEMB     140      SAPS     C311     CTL2    -0.180000       12.0110           0
      1440 MEMB     140      SAPS     H11X     HAL2     0.900000E-01   1.00800           0
      1441 MEMB     140      SAPS     H11Y     HAL2     0.900000E-01   1.00800           0
      1442 MEMB     140      SAPS     C312     CTL2    -0.180000       12.0110           0
      1443 MEMB     140      SAPS     H12X     HAL2     0.900000E-01   1.00800           0
      1444 MEMB     140      SAPS     H12Y     HAL2     0.900000E-01   1.00800           0
      1445 MEMB     140      SAPS     C313     CTL2    -0.180000       12.0110           0
      1446 MEMB     140      SAPS     H13X     HAL2     0.900000E-01   1.00800           0
      1447 MEMB     140      SAPS     H13Y     HAL2     0.900000E-01   1.00800           0
      1448 MEMB     140      SAPS     C314     CTL2    -0.180000       12.0110           0
      1449 MEMB     140      SAPS     H14X     HAL2     0.900000E-01   1.00800           0
      1450 MEMB     140      SAPS     H14Y     HAL2     0.900000E-01   1.00800           0
      1451 MEMB     140      SAPS     C315     CTL2    -0.180000       12.0110           0
      1452 MEMB     140      SAPS     H15X     HAL2     0.900000E-01   1.00800           0
      1453 MEMB     140      SAPS     H15Y     HAL2     0.900000E-01   1.00800           0
      1454 MEMB     140      SAPS     C316     CTL2    -0.180000       12.0110           0
      1455 MEMB     140      SAPS     H16X     HAL2     0.900000E-01   1.00800           0
      1456 MEMB     140      SAPS     H16Y     HAL2     0.900000E-01   1.00800           0
      1457 MEMB     140      SAPS     C317     CTL2    -0.180000       12.0110           0
      1458 MEMB     140      SAPS     H17X     HAL2     0.900000E-01   1.00800           0
      1459 MEMB     140      SAPS     H17Y     HAL2     0.900000E-01   1.00800           0
      1460 MEMB     140      SAPS     C318     CTL3    -0.270000       12.0110           0
      1461 MEMB     140      SAPS     H18X     HAL3     0.900000E-01   1.00800           0
      1462 MEMB     140      SAPS     H18Y     HAL3     0.900000E-01   1.00800           0
      1463 MEMB     140      SAPS     H18Z     HAL3     0.900000E-01   1.00800           0
      1464 MEMB     166      SAPS     N        NH3L    -0.300000       14.0070           0
      1465 MEMB     166      SAPS     HN1      HCL      0.330000       1.00800           0
      1466 MEMB     166      SAPS     HN2      HCL      0.330000       1.00800           0
      1467 MEMB     166      SAPS     HN3      HCL      0.330000       1.00800           0
      1468 MEMB     166      SAPS     C12      CTL1     0.210000       12.0110           0
      1469 MEMB     166      SAPS     H12A     HBL      0.100000       1.00800           0
      1470 MEMB     166      SAPS     C13      CCL      0.340000       12.0110           0
      1471 MEMB     166      SAPS     O13A     OCL     -0.670000       15.9994           0
      1472 MEMB     166      SAPS     O13B     OCL     -0.670000       15.9994           0
      1473 MEMB     166      SAPS     C11      CTL2    -0.800000E-01   12.0110           0
      1474 MEMB     166      SAPS     H11A     HAL2     0.900000E-01   1.00800           0
      1475 MEMB     166      SAPS     H11B     HAL2     0.900000E-01   1.00800           0
      1476 MEMB     166      SAPS     P        PL       1.500000       30.9740           0
      1477 MEMB     166      SAPS     O13      O2L     -0.780000       15.9994           0
      1478 MEMB     166      SAPS     O14      O2L     -0.780000       15.9994           0
      1479 MEMB     166      SAPS     O12      OSLP    -0.570000       15.9994           0
      1480 MEMB     166      SAPS     O11      OSLP    -0.570000       15.9994           0
      1481 MEMB     166      SAPS     C1       CTL2    -0.800000E-01   12.0110           0
      1482 MEMB     166      SAPS     HA       HAL2     0.900000E-01   1.00800           0
      1483 MEMB     166      SAPS     HB       HAL2     0.900000E-01   1.00800           0
      1484 MEMB     166      SAPS     C2       CTL1     0.170000       12.0110           0
      1485 MEMB     166      SAPS     HS       HAL1     0.900000E-01   1.00800           0
      1486 MEMB     166      SAPS     O21      OSL     -0.490000       15.9994           0
      1487 MEMB     166      SAPS     C21      CL       0.900000       12.0110           0
      1488 MEMB     166      SAPS     O22      OBL     -0.630000       15.9994           0
      1489 MEMB     166      SAPS     C22      CTL2    -0.220000       12.0110           0
      1490 MEMB     166      SAPS     H2R      HAL2     0.900000E-01   1.00800           0
      1491 MEMB     166      SAPS     H2S      HAL2     0.900000E-01   1.00800           0
      1492 MEMB     166      SAPS     C3       CTL2     0.800000E-01   12.0110           0
      1493 MEMB     166      SAPS     HX       HAL2     0.900000E-01   1.00800           0
      1494 MEMB     166      SAPS     HY       HAL2     0.900000E-01   1.00800           0
      1495 MEMB     166      SAPS     O31      OSL     -0.490000       15.9994           0
      1496 MEMB     166      SAPS     C31      CL       0.900000       12.0110           0
      1497 MEMB     166      SAPS     O32      OBL     -0.630000       15.9994           0
      1498 MEMB     166      SAPS     C32      CTL2    -0.220000       12.0110           0
      1499 MEMB     166      SAPS     H2X      HAL2     0.900000E-01   1.00800           0
      1500 MEMB     166      SAPS     H2Y      HAL2     0.900000E-01   1.00800           0
      1501 MEMB     166      SAPS     C23      CTL2    -0.180000       12.0110           0
      1502 MEMB     166      SAPS     H3R      HAL2     0.900000E-01   1.00800           0
      1503 MEMB     166      SAPS     H3S      HAL2     0.900000E-01   1.00800           0
      1504 MEMB     166      SAPS     C24      CTL2    -0.180000       12.0110           0
      1505 MEMB     166      SAPS     H4R      HAL2     0.900000E-01   1.00800           0
      1506 MEMB     166      SAPS     H4S      HAL2     0.900000E-01   1.00800           0
      1507 MEMB     166      SAPS     C25      CEL1    -0.150000       12.0110           0
      1508 MEMB     166      SAPS     H5R      HEL1     0.150000       1.00800           0
      1509 MEMB     166      SAPS     C26      CEL1    -0.150000       12.0110           0
      1510 MEMB     166      SAPS     H6R      HEL1     0.150000       1.00800           0
      1511 MEMB     166      SAPS     C27      CTL2    -0.180000       12.0110           0
      1512 MEMB     166      SAPS     H7R      HAL2     0.900000E-01   1.00800           0
      1513 MEMB     166      SAPS     H7S      HAL2     0.900000E-01   1.00800           0
      1514 MEMB     166      SAPS     C28      CEL1    -0.150000       12.0110           0
      1515 MEMB     166      SAPS     H8R      HEL1     0.150000       1.00800           0
      1516 MEMB     166      SAPS     C29      CEL1    -0.150000       12.0110           0
      1517 MEMB     166      SAPS     H9R      HEL1     0.150000       1.00800           0
      1518 MEMB     166      SAPS     C210     CTL2    -0.180000       12.0110           0
      1519 MEMB     166      SAPS     H10R     HAL2     0.900000E-01   1.00800           0
      1520 MEMB     166      SAPS     H10S     HAL2     0.900000E-01   1.00800           0
      1521 MEMB     166      SAPS     C211     CEL1    -0.150000       12.0110           0
      1522 MEMB     166      SAPS     H11R     HEL1     0.150000       1.00800           0
      1523 MEMB     166      SAPS     C212     CEL1    -0.150000       12.0110           0
      1524 MEMB     166      SAPS     H12R     HEL1     0.150000       1.00800           0
      1525 MEMB     166      SAPS     C213     CTL2    -0.180000       12.0110           0
      1526 MEMB     166      SAPS     H13R     HAL2     0.900000E-01   1.00800           0
      1527 MEMB     166      SAPS     H13S     HAL2     0.900000E-01   1.00800           0
      1528 MEMB     166      SAPS     C214     CEL1    -0.150000       12.0110           0
      1529 MEMB     166      SAPS     H14R     HEL1     0.150000       1.00800           0
      1530 MEMB     166      SAPS     C215     CEL1    -0.150000       12.0110           0
      1531 MEMB     166      SAPS     H15R     HEL1     0.150000       1.00800           0
      1532 MEMB     166      SAPS     C216     CTL2    -0.180000       12.0110           0
      1533 MEMB     166      SAPS     H16R     HAL2     0.900000E-01   1.00800           0
      1534 MEMB     166      SAPS     H16S     HAL2     0.900000E-01   1.00800           0
      1535 MEMB     166      SAPS     C217     CTL2    -0.180000       12.0110           0
      1536 MEMB     166      SAPS     H17R     HAL2     0.900000E-01   1.00800           0
      1537 MEMB     166      SAPS     H17S     HAL2     0.900000E-01   1.00800           0
      1538 MEMB     166      SAPS     C218     CTL2    -0.180000       12.0110           0
      1539 MEMB     166      SAPS     H18R     HAL2     0.900000E-01   1.00800           0
      1540 MEMB     166      SAPS     H18S     HAL2     0.900000E-01   1.00800           0
      1541 MEMB     166      SAPS     C219     CTL2    -0.180000       12.0110           0
      1542 MEMB     166      SAPS     H19R     HAL2     0.900000E-01   1.00800           0
      1543 MEMB     166      SAPS     H19S     HAL2     0.900000E-01   1.00800           0
      1544 MEMB     166      SAPS     C220     CTL3    -0.270000       12.0110           0
      1545 MEMB     166      SAPS     H20R     HAL3     0.900000E-01   1.00800           0
      1546 MEMB     166      SAPS     H20S     HAL3     0.900000E-01   1.00800           0
      1547 MEMB     166      SAPS     H20T     HAL3     0.900000E-01   1.00800           0
      1548 MEMB     166      SAPS     C33      CTL2    -0.180000       12.0110           0
      1549 MEMB     166      SAPS     H3X      HAL2     0.900000E-01   1.00800           0
      1550 MEMB     166      SAPS     H3Y      HAL2     0.900000E-01   1.00800           0
      1551 MEMB     166      SAPS     C34      CTL2    -0.180000       12.0110           0
      1552 MEMB     166      SAPS     H4X      HAL2     0.900000E-01   1.00800           0
      1553 MEMB     166      SAPS     H4Y      HAL2     0.900000E-01   1.00800           0
      1554 MEMB     166      SAPS     C35      CTL2    -0.180000       12.0110           0
      1555 MEMB     166      SAPS     H5X      HAL2     0.900000E-01   1.00800           0
      1556 MEMB     166      SAPS     H5Y      HAL2     0.900000E-01   1.00800           0
      1557 MEMB     166      SAPS     C36      CTL2    -0.180000       12.0110           0
      1558 MEMB     166      SAPS     H6X      HAL2     0.900000E-01   1.00800           0
      1559 MEMB     166      SAPS     H6Y      HAL2     0.900000E-01   1.00800           0
      1560 MEMB     166      SAPS     C37      CTL2    -0.180000       12.0110           0
      1561 MEMB     166      SAPS     H7X      HAL2     0.900000E-01   1.00800           0
      1562 MEMB     166      SAPS     H7Y      HAL2     0.900000E-01   1.00800           0
      1563 MEMB     166      SAPS     C38      CTL2    -0.180000       12.0110           0
      1564 MEMB     166      SAPS     H8X      HAL2     0.900000E-01   1.00800           0
      1565 MEMB     166      SAPS     H8Y      HAL2     0.900000E-01   1.00800           0
      1566 MEMB     166      SAPS     C39      CTL2    -0.180000       12.0110           0
      1567 MEMB     166      SAPS     H9X      HAL2     0.900000E-01   1.00800           0
      1568 MEMB     166      SAPS     H9Y      HAL2     0.900000E-01   1.00800           0
      1569 MEMB     166      SAPS     C310     CTL2    -0.180000       12.0110           0
      1570 MEMB     166      SAPS     H10X     HAL2     0.900000E-01   1.00800           0
      1571 MEMB     166      SAPS     H10Y     HAL2     0.900000E-01   1.00800           0
      1572 MEMB     166      SAPS     C311     CTL2    -0.180000       12.0110           0
      1573 MEMB     166      SAPS     H11X     HAL2     0.900000E-01   1.00800           0
      1574 MEMB     166      SAPS     H11Y     HAL2     0.900000E-01   1.00800           0
      1575 MEMB     166      SAPS     C312     CTL2    -0.180000       12.0110           0
      1576 MEMB     166      SAPS     H12X     HAL2     0.900000E-01   1.00800           0
      1577 MEMB     166      SAPS     H12Y     HAL2     0.900000E-01   1.00800           0
      1578 MEMB     166      SAPS     C313     CTL2    -0.180000       12.0110           0
      1579 MEMB     166      SAPS     H13X     HAL2     0.900000E-01   1.00800           0
      1580 MEMB     166      SAPS     H13Y     HAL2     0.900000E-01   1.00800           0
      1581 MEMB     166      SAPS     C314     CTL2    -0.180000       12.0110           0
      1582 MEMB     166      SAPS     H14X     HAL2     0.900000E-01   1.00800           0
      1583 MEMB     166      SAPS     H14Y     HAL2     0.900000E-01   1.00800           0
      1584 MEMB     166      SAPS     C315     CTL2    -0.180000       12.0110           0
      1585 MEMB     166      SAPS     H15X     HAL2     0.900000E-01   1.00800           0
      1586 MEMB     166      SAPS     H15Y     HAL2     0.900000E-01   1.00800           0
      1587 MEMB     166      SAPS     C316     CTL2    -0.180000       12.0110           0
      1588 MEMB     166      SAPS     H16X     HAL2     0.900000E-01   1.00800           0
      1589 MEMB     166      SAPS     H16Y     HAL2     0.900000E-01   1.00800           0
      1590 MEMB     166      SAPS     C317     CTL2    -0.180000       12.0110           0
      1591 MEMB     166      SAPS     H17X     HAL2     0.900000E-01   1.00800           0
      1592 MEMB     166      SAPS     H17Y     HAL2     0.900000E-01   1.00800           0
      1593 MEMB     166      SAPS     C318     CTL3    -0.270000       12.0110           0
      1594 MEMB     166      SAPS     H18X     HAL3     0.900000E-01   1.00800           0
      1595 MEMB     166      SAPS     H18Y     HAL3     0.900000E-01   1.00800           0
      1596 MEMB     166      SAPS     H18Z     HAL3     0.900000E-01   1.00800           0
      1597 MEMB     169      SAPS     N        NH3L    -0.300000       14.0070           0
      1598 MEMB     169      SAPS     HN1      HCL      0.330000       1.00800           0
      1599 MEMB     169      SAPS     HN2      HCL      0.330000       1.00800           0
      1600 MEMB     169      SAPS     HN3      HCL      0.330000       1.00800           0
      1601 MEMB     169      SAPS     C12      CTL1     0.210000       12.0110           0
      1602 MEMB     169      SAPS     H12A     HBL      0.100000       1.00800           0
      1603 MEMB     169      SAPS     C13      CCL      0.340000       12.0110           0
      1604 MEMB     169      SAPS     O13A     OCL     -0.670000       15.9994           0
      1605 MEMB     169      SAPS     O13B     OCL     -0.670000       15.9994           0
      1606 MEMB     169      SAPS     C11      CTL2    -0.800000E-01   12.0110           0
      1607 MEMB     169      SAPS     H11A     HAL2     0.900000E-01   1.00800           0
      1608 MEMB     169      SAPS     H11B     HAL2     0.900000E-01   1.00800           0
      1609 MEMB     169      SAPS     P        PL       1.500000       30.9740           0
      1610 MEMB     169      SAPS     O13      O2L     -0.780000       15.9994           0
      1611 MEMB     169      SAPS     O14      O2L     -0.780000       15.9994           0
      1612 MEMB     169      SAPS     O12      OSLP    -0.570000       15.9994           0
      1613 MEMB     169      SAPS     O11      OSLP    -0.570000       15.9994           0
      1614 MEMB     169      SAPS     C1       CTL2    -0.800000E-01   12.0110           0
      1615 MEMB     169      SAPS     HA       HAL2     0.900000E-01   1.00800           0
      1616 MEMB     169      SAPS     HB       HAL2     0.900000E-01   1.00800           0
      1617 MEMB     169      SAPS     C2       CTL1     0.170000       12.0110           0
      1618 MEMB     169      SAPS     HS       HAL1     0.900000E-01   1.00800           0
      1619 MEMB     169      SAPS     O21      OSL     -0.490000       15.9994           0
      1620 MEMB     169      SAPS     C21      CL       0.900000       12.0110           0
      1621 MEMB     169      SAPS     O22      OBL     -0.630000       15.9994           0
      1622 MEMB     169      SAPS     C22      CTL2    -0.220000       12.0110           0
      1623 MEMB     169      SAPS     H2R      HAL2     0.900000E-01   1.00800           0
      1624 MEMB     169      SAPS     H2S      HAL2     0.900000E-01   1.00800           0
      1625 MEMB     169      SAPS     C3       CTL2     0.800000E-01   12.0110           0
      1626 MEMB     169      SAPS     HX       HAL2     0.900000E-01   1.00800           0
      1627 MEMB     169      SAPS     HY       HAL2     0.900000E-01   1.00800           0
      1628 MEMB     169      SAPS     O31      OSL     -0.490000       15.9994           0
      1629 MEMB     169      SAPS     C31      CL       0.900000       12.0110           0
      1630 MEMB     169      SAPS     O32      OBL     -0.630000       15.9994           0
      1631 MEMB     169      SAPS     C32      CTL2    -0.220000       12.0110           0
      1632 MEMB     169      SAPS     H2X      HAL2     0.900000E-01   1.00800           0
      1633 MEMB     169      SAPS     H2Y      HAL2     0.900000E-01   1.00800           0
      1634 MEMB     169      SAPS     C23      CTL2    -0.180000       12.0110           0
      1635 MEMB     169      SAPS     H3R      HAL2     0.900000E-01   1.00800           0
      1636 MEMB     169      SAPS     H3S      HAL2     0.900000E-01   1.00800           0
      1637 MEMB     169      SAPS     C24      CTL2    -0.180000       12.0110           0
      1638 MEMB     169      SAPS     H4R      HAL2     0.900000E-01   1.00800           0
      1639 MEMB     169      SAPS     H4S      HAL2     0.900000E-01   1.00800           0
      1640 MEMB     169      SAPS     C25      CEL1    -0.150000       12.0110           0
      1641 MEMB     169      SAPS     H5R      HEL1     0.150000       1.00800           0
      1642 MEMB     169      SAPS     C26      CEL1    -0.150000       12.0110           0
      1643 MEMB     169      SAPS     H6R      HEL1     0.150000       1.00800           0
      1644 MEMB     169      SAPS     C27      CTL2    -0.180000       12.0110           0
      1645 MEMB     169      SAPS     H7R      HAL2     0.900000E-01   1.00800           0
      1646 MEMB     169      SAPS     H7S      HAL2     0.900000E-01   1.00800           0
      1647 MEMB     169      SAPS     C28      CEL1    -0.150000       12.0110           0
      1648 MEMB     169      SAPS     H8R      HEL1     0.150000       1.00800           0
      1649 MEMB     169      SAPS     C29      CEL1    -0.150000       12.0110           0
      1650 MEMB     169      SAPS     H9R      HEL1     0.150000       1.00800           0
      1651 MEMB     169      SAPS     C210     CTL2    -0.180000       12.0110           0
      1652 MEMB     169      SAPS     H10R     HAL2     0.900000E-01   1.00800           0
      1653 MEMB     169      SAPS     H10S     HAL2     0.900000E-01   1.00800           0
      1654 MEMB     169      SAPS     C211     CEL1    -0.150000       12.0110           0
      1655 MEMB     169      SAPS     H11R     HEL1     0.150000       1.00800           0
      1656 MEMB     169      SAPS     C212     CEL1    -0.150000       12.0110           0
      1657 MEMB     169      SAPS     H12R     HEL1     0.150000       1.00800           0
      1658 MEMB     169      SAPS     C213     CTL2    -0.180000       12.0110           0
      1659 MEMB     169      SAPS     H13R     HAL2     0.900000E-01   1.00800           0
      1660 MEMB     169      SAPS     H13S     HAL2     0.900000E-01   1.00800           0
      1661 MEMB     169      SAPS     C214     CEL1    -0.150000       12.0110           0
      1662 MEMB     169      SAPS     H14R     HEL1     0.150000       1.00800           0
      1663 MEMB     169      SAPS     C215     CEL1    -0.150000       12.0110           0
      1664 MEMB     169      SAPS     H15R     HEL1     0.150000       1.00800           0
      1665 MEMB     169      SAPS     C216     CTL2    -0.180000       12.0110           0
      1666 MEMB     169      SAPS     H16R     HAL2     0.900000E-01   1.00800           0
      1667 MEMB     169      SAPS     H16S     HAL2     0.900000E-01   1.00800           0
      1668 MEMB     169      SAPS     C217     CTL2    -0.180000       12.0110           0
      1669 MEMB     169      SAPS     H17R     HAL2     0.900000E-01   1.00800           0
      1670 MEMB     169      SAPS     H17S     HAL2     0.900000E-01   1.00800           0
      1671 MEMB     169      SAPS     C218     CTL2    -0.180000       12.0110           0
      1672 MEMB     169      SAPS     H18R     HAL2     0.900000E-01   1.00800           0
      1673 MEMB     169      SAPS     H18S     HAL2     0.900000E-01   1.00800           0
      1674 MEMB     169      SAPS     C219     CTL2    -0.180000       12.0110           0
      1675 MEMB     169      SAPS     H19R     HAL2     0.900000E-01   1.00800           0
      1676 MEMB     169      SAPS     H19S     HAL2     0.900000E-01   1.00800           0
      1677 MEMB     169      SAPS     C220     CTL3    -0.270000       12.0110           0
      1678 MEMB     169      SAPS     H20R     HAL3     0.900000E-01   1.00800           0
      1679 MEMB     169      SAPS     H20S     HAL3     0.900000E-01   1.00800           0
      1680 MEMB     169      SAPS     H20T     HAL3     0.900000E-01   1.00800           0
      1681 MEMB     169      SAPS     C33      CTL2    -0.180000       12.0110           0
      1682 MEMB     169      SAPS     H3X      HAL2     0.900000E-01   1.00800           0
      1683 MEMB     169      SAPS     H3Y      HAL2     0.900000E-01   1.00800           0
      1684 MEMB     169      SAPS     C34      CTL2    -0.180000       12.0110           0
      1685 MEMB     169      SAPS     H4X      HAL2     0.900000E-01   1.00800           0
      1686 MEMB     169      SAPS     H4Y      HAL2     0.900000E-01   1.00800           0
      1687 MEMB     169      SAPS     C35      CTL2    -0.180000       12.0110           0
      1688 MEMB     169      SAPS     H5X      HAL2     0.900000E-01   1.00800           0
      1689 MEMB     169      SAPS     H5Y      HAL2     0.900000E-01   1.00800           0
      1690 MEMB     169      SAPS     C36      CTL2    -0.180000       12.0110           0
      1691 MEMB     169      SAPS     H6X      HAL2     0.900000E-01   1.00800           0
      1692 MEMB     169      SAPS     H6Y      HAL2     0.900000E-01   1.00800           0
      1693 MEMB     169      SAPS     C37      CTL2    -0.180000       12.0110           0
      1694 MEMB     169      SAPS     H7X      HAL2     0.900000E-01   1.00800           0
      1695 MEMB     169      SAPS     H7Y      HAL2     0.900000E-01   1.00800           0
      1696 MEMB     169      SAPS     C38      CTL2    -0.180000       12.0110           0
      1697 MEMB     169      SAPS     H8X      HAL2     0.900000E-01   1.00800           0
      1698 MEMB     169      SAPS     H8Y      HAL2     0.900000E-01   1.00800           0
      1699 MEMB     169      SAPS     C39      CTL2    -0.180000       12.0110           0
      1700 MEMB     169      SAPS     H9X      HAL2     0.900000E-01   1.00800           0
      1701 MEMB     169      SAPS     H9Y      HAL2     0.900000E-01   1.00800           0
      1702 MEMB     169      SAPS     C310     CTL2    -0.180000       12.0110           0
      1703 MEMB     169      SAPS     H10X     HAL2     0.900000E-01   1.00800           0
      1704 MEMB     169      SAPS     H10Y     HAL2     0.900000E-01   1.00800           0
      1705 MEMB     169      SAPS     C311     CTL2    -0.180000       12.0110           0
      1706 MEMB     169      SAPS     H11X     HAL2     0.900000E-01   1.00800           0
      1707 MEMB     169      SAPS     H11Y     HAL2     0.900000E-01   1.00800           0
      1708 MEMB     169      SAPS     C312     CTL2    -0.180000       12.0110           0
      1709 MEMB     169      SAPS     H12X     HAL2     0.900000E-01   1.00800           0
      1710 MEMB     169      SAPS     H12Y     HAL2     0.900000E-01   1.00800           0
      1711 MEMB     169      SAPS     C313     CTL2    -0.180000       12.0110           0
      1712 MEMB     169      SAPS     H13X     HAL2     0.900000E-01   1.00800           0
      1713 MEMB     169      SAPS     H13Y     HAL2     0.900000E-01   1.00800           0
      1714 MEMB     169      SAPS     C314     CTL2    -0.180000       12.0110           0
      1715 MEMB     169      SAPS     H14X     HAL2     0.900000E-01   1.00800           0
      1716 MEMB     169      SAPS     H14Y     HAL2     0.900000E-01   1.00800           0
      1717 MEMB     169      SAPS     C315     CTL2    -0.180000       12.0110           0
      1718 MEMB     169      SAPS     H15X     HAL2     0.900000E-01   1.00800           0
      1719 MEMB     169      SAPS     H15Y     HAL2     0.900000E-01   1.00800           0
      1720 MEMB     169      SAPS     C316     CTL2    -0.180000       12.0110           0
      1721 MEMB     169      SAPS     H16X     HAL2     0.900000E-01   1.00800           0
      1722 MEMB     169      SAPS     H16Y     HAL2     0.900000E-01   1.00800           0
      1723 MEMB     169      SAPS     C317     CTL2    -0.180000       12.0110           0
      1724 MEMB     169      SAPS     H17X     HAL2     0.900000E-01   1.00800           0
      1725 MEMB     169      SAPS     H17Y     HAL2     0.900000E-01   1.00800           0
      1726 MEMB     169      SAPS     C318     CTL3    -0.270000       12.0110           0
      1727 MEMB     169      SAPS     H18X     HAL3     0.900000E-01   1.00800           0
      1728 MEMB     169      SAPS     H18Y     HAL3     0.900000E-01   1.00800           0
      1729 MEMB     169      SAPS     H18Z     HAL3     0.900000E-01   1.00800           0
      1730 MEMB     179      SAPS     N        NH3L    -0.300000       14.0070           0
      1731 MEMB     179      SAPS     HN1      HCL      0.330000       1.00800           0
      1732 MEMB     179      SAPS     HN2      HCL      0.330000       1.00800           0
      1733 MEMB     179      SAPS     HN3      HCL      0.330000       1.00800           0
      1734 MEMB     179      SAPS     C12      CTL1     0.210000       12.0110           0
      1735 MEMB     179      SAPS     H12A     HBL      0.100000       1.00800           0
      1736 MEMB     179      SAPS     C13      CCL      0.340000       12.0110           0
      1737 MEMB     179      SAPS     O13A     OCL     -0.670000       15.9994           0
      1738 MEMB     179      SAPS     O13B     OCL     -0.670000       15.9994           0
      1739 MEMB     179      SAPS     C11      CTL2    -0.800000E-01   12.0110           0
      1740 MEMB     179      SAPS     H11A     HAL2     0.900000E-01   1.00800           0
      1741 MEMB     179      SAPS     H11B     HAL2     0.900000E-01   1.00800           0
      1742 MEMB     179      SAPS     P        PL       1.500000       30.9740           0
      1743 MEMB     179      SAPS     O13      O2L     -0.780000       15.9994           0
      1744 MEMB     179      SAPS     O14      O2L     -0.780000       15.9994           0
      1745 MEMB     179      SAPS     O12      OSLP    -0.570000       15.9994           0
      1746 MEMB     179      SAPS     O11      OSLP    -0.570000       15.9994           0
      1747 MEMB     179      SAPS     C1       CTL2    -0.800000E-01   12.0110           0
      1748 MEMB     179      SAPS     HA       HAL2     0.900000E-01   1.00800           0
      1749 MEMB     179      SAPS     HB       HAL2     0.900000E-01   1.00800           0
      1750 MEMB     179      SAPS     C2       CTL1     0.170000       12.0110           0
      1751 MEMB     179      SAPS     HS       HAL1     0.900000E-01   1.00800           0
      1752 MEMB     179      SAPS     O21      OSL     -0.490000       15.9994           0
      1753 MEMB     179      SAPS     C21      CL       0.900000       12.0110           0
      1754 MEMB     179      SAPS     O22      OBL     -0.630000       15.9994           0
      1755 MEMB     179      SAPS     C22      CTL2    -0.220000       12.0110           0
      1756 MEMB     179      SAPS     H2R      HAL2     0.900000E-01   1.00800           0
      1757 MEMB     179      SAPS     H2S      HAL2     0.900000E-01   1.00800           0
      1758 MEMB     179      SAPS     C3       CTL2     0.800000E-01   12.0110           0
      1759 MEMB     179      SAPS     HX       HAL2     0.900000E-01   1.00800           0
      1760 MEMB     179      SAPS     HY       HAL2     0.900000E-01   1.00800           0
      1761 MEMB     179      SAPS     O31      OSL     -0.490000       15.9994           0
      1762 MEMB     179      SAPS     C31      CL       0.900000       12.0110           0
      1763 MEMB     179      SAPS     O32      OBL     -0.630000       15.9994           0
      1764 MEMB     179      SAPS     C32      CTL2    -0.220000       12.0110           0
      1765 MEMB     179      SAPS     H2X      HAL2     0.900000E-01   1.00800           0
      1766 MEMB     179      SAPS     H2Y      HAL2     0.900000E-01   1.00800           0
      1767 MEMB     179      SAPS     C23      CTL2    -0.180000       12.0110           0
      1768 MEMB     179      SAPS     H3R      HAL2     0.900000E-01   1.00800           0
      1769 MEMB     179      SAPS     H3S      HAL2     0.900000E-01   1.00800           0
      1770 MEMB     179      SAPS     C24      CTL2    -0.180000       12.0110           0
      1771 MEMB     179      SAPS     H4R      HAL2     0.900000E-01   1.00800           0
      1772 MEMB     179      SAPS     H4S      HAL2     0.900000E-01   1.00800           0
      1773 MEMB     179      SAPS     C25      CEL1    -0.150000       12.0110           0
      1774 MEMB     179      SAPS     H5R      HEL1     0.150000       1.00800           0
      1775 MEMB     179      SAPS     C26      CEL1    -0.150000       12.0110           0
      1776 MEMB     179      SAPS     H6R      HEL1     0.150000       1.00800           0
      1777 MEMB     179      SAPS     C27      CTL2    -0.180000       12.0110           0
      1778 MEMB     179      SAPS     H7R      HAL2     0.900000E-01   1.00800           0
      1779 MEMB     179      SAPS     H7S      HAL2     0.900000E-01   1.00800           0
      1780 MEMB     179      SAPS     C28      CEL1    -0.150000       12.0110           0
      1781 MEMB     179      SAPS     H8R      HEL1     0.150000       1.00800           0
      1782 MEMB     179      SAPS     C29      CEL1    -0.150000       12.0110           0
      1783 MEMB     179      SAPS     H9R      HEL1     0.150000       1.00800           0
      1784 MEMB     179      SAPS     C210     CTL2    -0.180000       12.0110           0
      1785 MEMB     179      SAPS     H10R     HAL2     0.900000E-01   1.00800           0
      1786 MEMB     179      SAPS     H10S     HAL2     0.900000E-01   1.00800           0
      1787 MEMB     179      SAPS     C211     CEL1    -0.150000       12.0110           0
      1788 MEMB     179      SAPS     H11R     HEL1     0.150000       1.00800           0
      1789 MEMB     179      SAPS     C212     CEL1    -0.150000       12.0110           0
      1790 MEMB     179      SAPS     H12R     HEL1     0.150000       1.00800           0
      1791 MEMB     179      SAPS     C213     CTL2    -0.180000       12.0110           0
      1792 MEMB     179      SAPS     H13R     HAL2     0.900000E-01   1.00800           0
      1793 MEMB     179      SAPS     H13S     HAL2     0.900000E-01   1.00800           0
      1794 MEMB     179      SAPS     C214     CEL1    -0.150000       12.0110           0
      1795 MEMB     179      SAPS     H14R     HEL1     0.150000       1.00800           0
      1796 MEMB     179      SAPS     C215     CEL1    -0.150000       12.0110           0
      1797 MEMB     179      SAPS     H15R     HEL1     0.150000       1.00800           0
      1798 MEMB     179      SAPS     C216     CTL2    -0.180000       12.0110           0
      1799 MEMB     179      SAPS     H16R     HAL2     0.900000E-01   1.00800           0
      1800 MEMB     179      SAPS     H16S     HAL2     0.900000E-01   1.00800           0
      1801 MEMB     179      SAPS     C217     CTL2    -0.180000       12.0110           0
      1802 MEMB     179      SAPS     H17R     HAL2     0.900000E-01   1.00800           0
      1803 MEMB     179      SAPS     H17S     HAL2     0.900000E-01   1.00800           0
      1804 MEMB     179      SAPS     C218     CTL2    -0.180000       12.0110           0
      1805 MEMB     179      SAPS     H18R     HAL2     0.900000E-01   1.00800           0
      1806 MEMB     179      SAPS     H18S     HAL2     0.900000E-01   1.00800           0
      1807 MEMB     179      SAPS     C219     CTL2    -0.180000       12.0110           0
      1808 MEMB     179      SAPS     H19R     HAL2     0.900000E-01   1.00800           0
      1809 MEMB     179      SAPS     H19S     HAL2     0.900000E-01   1.00800           0
      1810 MEMB     179      SAPS     C220     CTL3    -0.270000       12.0110           0
      1811 MEMB     179      SAPS     H20R     HAL3     0.900000E-01   1.00800           0
      1812 MEMB     179      SAPS     H20S     HAL3     0.900000E-01   1.00800           0
      1813 MEMB     179      SAPS     H20T     HAL3     0.900000E-01   1.00800           0
      1814 MEMB     179      SAPS     C33      CTL2    -0.180000       12.0110           0
      1815 MEMB     179      SAPS     H3X      HAL2     0.900000E-01   1.00800           0
      1816 MEMB     179      SAPS     H3Y      HAL2     0.900000E-01   1.00800           0
      1817 MEMB     179      SAPS     C34      CTL2    -0.180000       12.0110           0
      1818 MEMB     179      SAPS     H4X      HAL2     0.900000E-01   1.00800           0
      1819 MEMB     179      SAPS     H4Y      HAL2     0.900000E-01   1.00800           0
      1820 MEMB     179      SAPS     C35      CTL2    -0.180000       12.0110           0
      1821 MEMB     179      SAPS     H5X      HAL2     0.900000E-01   1.00800           0
      1822 MEMB     179      SAPS     H5Y      HAL2     0.900000E-01   1.00800           0
      1823 MEMB     179      SAPS     C36      CTL2    -0.180000       12.0110           0
      1824 MEMB     179      SAPS     H6X      HAL2     0.900000E-01   1.00800           0
      1825 MEMB     179      SAPS     H6Y      HAL2     0.900000E-01   1.00800           0
      1826 MEMB     179      SAPS     C37      CTL2    -0.180000       12.0110           0
      1827 MEMB     179      SAPS     H7X      HAL2     0.900000E-01   1.00800           0
      1828 MEMB     179      SAPS     H7Y      HAL2     0.900000E-01   1.00800           0
      1829 MEMB     179      SAPS     C38      CTL2    -0.180000       12.0110           0
      1830 MEMB     179      SAPS     H8X      HAL2     0.900000E-01   1.00800           0
      1831 MEMB     179      SAPS     H8Y      HAL2     0.900000E-01   1.00800           0
      1832 MEMB     179      SAPS     C39      CTL2    -0.180000       12.0110           0
      1833 MEMB     179      SAPS     H9X      HAL2     0.900000E-01   1.00800           0
      1834 MEMB     179      SAPS     H9Y      HAL2     0.900000E-01   1.00800           0
      1835 MEMB     179      SAPS     C310     CTL2    -0.180000       12.0110           0
      1836 MEMB     179      SAPS     H10X     HAL2     0.900000E-01   1.00800           0
      1837 MEMB     179      SAPS     H10Y     HAL2     0.900000E-01   1.00800           0
      1838 MEMB     179      SAPS     C311     CTL2    -0.180000       12.0110           0
      1839 MEMB     179      SAPS     H11X     HAL2     0.900000E-01   1.00800           0
      1840 MEMB     179      SAPS     H11Y     HAL2     0.900000E-01   1.00800           0
      1841 MEMB     179      SAPS     C312     CTL2    -0.180000       12.0110           0
      1842 MEMB     179      SAPS     H12X     HAL2     0.900000E-01   1.00800           0
      1843 MEMB     179      SAPS     H12Y     HAL2     0.900000E-01   1.00800           0
      1844 MEMB     179      SAPS     C313     CTL2    -0.180000       12.0110           0
      1845 MEMB     179      SAPS     H13X     HAL2     0.900000E-01   1.00800           0
      1846 MEMB     179      SAPS     H13Y     HAL2     0.900000E-01   1.00800           0
      1847 MEMB     179      SAPS     C314     CTL2    -0.180000       12.0110           0
      1848 MEMB     179      SAPS     H14X     HAL2     0.900000E-01   1.00800           0
      1849 MEMB     179      SAPS     H14Y     HAL2     0.900000E-01   1.00800           0
      1850 MEMB     179      SAPS     C315     CTL2    -0.180000       12.0110           0
      1851 MEMB     179      SAPS     H15X     HAL2     0.900000E-01   1.00800           0
      1852 MEMB     179      SAPS     H15Y     HAL2     0.900000E-01   1.00800           0
      1853 MEMB     179      SAPS     C316     CTL2    -0.180000       12.0110           0
      1854 MEMB     179      SAPS     H16X     HAL2     0.900000E-01   1.00800           0
      1855 MEMB     179      SAPS     H16Y     HAL2     0.900000E-01   1.00800           0
      1856 MEMB     179      SAPS     C317     CTL2    -0.180000       12.0110           0
      1857 MEMB     179      SAPS     H17X     HAL2     0.900000E-01   1.00800           0
      1858 MEMB     179      SAPS     H17Y     HAL2     0.900000E-01   1.00800           0
      1859 MEMB     179      SAPS     C318     CTL3    -0.270000       12.0110           0
      1860 MEMB     179      SAPS     H18X     HAL3     0.900000E-01   1.00800           0
      1861 MEMB     179      SAPS     H18Y     HAL3     0.900000E-01   1.00800           0
      1862 MEMB     179      SAPS     H18Z     HAL3     0.900000E-01   1.00800           0
      1863 MEMB     183      SAPS     N        NH3L    -0.300000       14.0070           0
      1864 MEMB     183      SAPS     HN1      HCL      0.330000       1.00800           0
      1865 MEMB     183      SAPS     HN2      HCL      0.330000       1.00800           0
      1866 MEMB     183      SAPS     HN3      HCL      0.330000       1.00800           0
      1867 MEMB     183      SAPS     C12      CTL1     0.210000       12.0110           0
      1868 MEMB     183      SAPS     H12A     HBL      0.100000       1.00800           0
      1869 MEMB     183      SAPS     C13      CCL      0.340000       12.0110           0
      1870 MEMB     183      SAPS     O13A     OCL     -0.670000       15.9994           0
      1871 MEMB     183      SAPS     O13B     OCL     -0.670000       15.9994           0
      1872 MEMB     183      SAPS     C11      CTL2    -0.800000E-01   12.0110           0
      1873 MEMB     183      SAPS     H11A     HAL2     0.900000E-01   1.00800           0
      1874 MEMB     183      SAPS     H11B     HAL2     0.900000E-01   1.00800           0
      1875 MEMB     183      SAPS     P        PL       1.500000       30.9740           0
      1876 MEMB     183      SAPS     O13      O2L     -0.780000       15.9994           0
      1877 MEMB     183      SAPS     O14      O2L     -0.780000       15.9994           0
      1878 MEMB     183      SAPS     O12      OSLP    -0.570000       15.9994           0
      1879 MEMB     183      SAPS     O11      OSLP    -0.570000       15.9994           0
      1880 MEMB     183      SAPS     C1       CTL2    -0.800000E-01   12.0110           0
      1881 MEMB     183      SAPS     HA       HAL2     0.900000E-01   1.00800           0
      1882 MEMB     183      SAPS     HB       HAL2     0.900000E-01   1.00800           0
      1883 MEMB     183      SAPS     C2       CTL1     0.170000       12.0110           0
      1884 MEMB     183      SAPS     HS       HAL1     0.900000E-01   1.00800           0
      1885 MEMB     183      SAPS     O21      OSL     -0.490000       15.9994           0
      1886 MEMB     183      SAPS     C21      CL       0.900000       12.0110           0
      1887 MEMB     183      SAPS     O22      OBL     -0.630000       15.9994           0
      1888 MEMB     183      SAPS     C22      CTL2    -0.220000       12.0110           0
      1889 MEMB     183      SAPS     H2R      HAL2     0.900000E-01   1.00800           0
      1890 MEMB     183      SAPS     H2S      HAL2     0.900000E-01   1.00800           0
      1891 MEMB     183      SAPS     C3       CTL2     0.800000E-01   12.0110           0
      1892 MEMB     183      SAPS     HX       HAL2     0.900000E-01   1.00800           0
      1893 MEMB     183      SAPS     HY       HAL2     0.900000E-01   1.00800           0
      1894 MEMB     183      SAPS     O31      OSL     -0.490000       15.9994           0
      1895 MEMB     183      SAPS     C31      CL       0.900000       12.0110           0
      1896 MEMB     183      SAPS     O32      OBL     -0.630000       15.9994           0
      1897 MEMB     183      SAPS     C32      CTL2    -0.220000       12.0110           0
      1898 MEMB     183      SAPS     H2X      HAL2     0.900000E-01   1.00800           0
      1899 MEMB     183      SAPS     H2Y      HAL2     0.900000E-01   1.00800           0
      1900 MEMB     183      SAPS     C23      CTL2    -0.180000       12.0110           0
      1901 MEMB     183      SAPS     H3R      HAL2     0.900000E-01   1.00800           0
      1902 MEMB     183      SAPS     H3S      HAL2     0.900000E-01   1.00800           0
      1903 MEMB     183      SAPS     C24      CTL2    -0.180000       12.0110           0
      1904 MEMB     183      SAPS     H4R      HAL2     0.900000E-01   1.00800           0
      1905 MEMB     183      SAPS     H4S      HAL2     0.900000E-01   1.00800           0
      1906 MEMB     183      SAPS     C25      CEL1    -0.150000       12.0110           0
      1907 MEMB     183      SAPS     H5R      HEL1     0.150000       1.00800           0
      1908 MEMB     183      SAPS     C26      CEL1    -0.150000       12.0110           0
      1909 MEMB     183      SAPS     H6R      HEL1     0.150000       1.00800           0
      1910 MEMB     183      SAPS     C27      CTL2    -0.180000       12.0110           0
      1911 MEMB     183      SAPS     H7R      HAL2     0.900000E-01   1.00800           0
      1912 MEMB     183      SAPS     H7S      HAL2     0.900000E-01   1.00800           0
      1913 MEMB     183      SAPS     C28      CEL1    -0.150000       12.0110           0
      1914 MEMB     183      SAPS     H8R      HEL1     0.150000       1.00800           0
      1915 MEMB     183      SAPS     C29      CEL1    -0.150000       12.0110           0
      1916 MEMB     183      SAPS     H9R      HEL1     0.150000       1.00800           0
      1917 MEMB     183      SAPS     C210     CTL2    -0.180000       12.0110           0
      1918 MEMB     183      SAPS     H10R     HAL2     0.900000E-01   1.00800           0
      1919 MEMB     183      SAPS     H10S     HAL2     0.900000E-01   1.00800           0
      1920 MEMB     183      SAPS     C211     CEL1    -0.150000       12.0110           0
      1921 MEMB     183      SAPS     H11R     HEL1     0.150000       1.00800           0
      1922 MEMB     183      SAPS     C212     CEL1    -0.150000       12.0110           0
      1923 MEMB     183      SAPS     H12R     HEL1     0.150000       1.00800           0
      1924 MEMB     183      SAPS     C213     CTL2    -0.180000       12.0110           0
      1925 MEMB     183      SAPS     H13R     HAL2     0.900000E-01   1.00800           0
      1926 MEMB     183      SAPS     H13S     HAL2     0.900000E-01   1.00800           0
      1927 MEMB     183      SAPS     C214     CEL1    -0.150000       12.0110           0
      1928 MEMB     183      SAPS     H14R     HEL1     0.150000       1.00800           0
      1929 MEMB     183      SAPS     C215     CEL1    -0.150000       12.0110           0
      1930 MEMB     183      SAPS     H15R     HEL1     0.150000       1.00800           0
      1931 MEMB     183      SAPS     C216     CTL2    -0.180000       12.0110           0
      1932 MEMB     183      SAPS     H16R     HAL2     0.900000E-01   1.00800           0
      1933 MEMB     183      SAPS     H16S     HAL2     0.900000E-01   1.00800           0
      1934 MEMB     183      SAPS     C217     CTL2    -0.180000       12.0110           0
      1935 MEMB     183      SAPS     H17R     HAL2     0.900000E-01   1.00800           0
      1936 MEMB     183      SAPS     H17S     HAL2     0.900000E-01   1.00800           0
      1937 MEMB     183      SAPS     C218     CTL2    -0.180000       12.0110           0
      1938 MEMB     183      SAPS     H18R     HAL2     0.900000E-01   1.00800           0
      1939 MEMB     183      SAPS     H18S     HAL2     0.900000E-01   1.00800           0
      1940 MEMB     183      SAPS     C219     CTL2    -0.180000       12.0110           0
      1941 MEMB     183      SAPS     H19R     HAL2     0.900000E-01   1.00800           0
      1942 MEMB     183      SAPS     H19S     HAL2     0.900000E-01   1.00800           0
      1943 MEMB     183      SAPS     C220     CTL3    -0.270000       12.0110           0
      1944 MEMB     183      SAPS     H20R     HAL3     0.900000E-01   1.00800           0
      1945 MEMB     183      SAPS     H20S     HAL3     0.900000E-01   1.00800           0
      1946 MEMB     183      SAPS     H20T     HAL3     0.900000E-01   1.00800           0
      1947 MEMB     183      SAPS     C33      CTL2    -0.180000       12.0110           0
      1948 MEMB     183      SAPS     H3X      HAL2     0.900000E-01   1.00800           0
      1949 MEMB     183      SAPS     H3Y      HAL2     0.900000E-01   1.00800           0
      1950 MEMB     183      SAPS     C34      CTL2    -0.180000       12.0110           0
      1951 MEMB     183      SAPS     H4X      HAL2     0.900000E-01   1.00800           0
      1952 MEMB     183      SAPS     H4Y      HAL2     0.900000E-01   1.00800           0
      1953 MEMB     183      SAPS     C35      CTL2    -0.180000       12.0110           0
      1954 MEMB     183      SAPS     H5X      HAL2     0.900000E-01   1.00800           0
      1955 MEMB     183      SAPS     H5Y      HAL2     0.900000E-01   1.00800           0
      1956 MEMB     183      SAPS     C36      CTL2    -0.180000       12.0110           0
      1957 MEMB     183      SAPS     H6X      HAL2     0.900000E-01   1.00800           0
      1958 MEMB     183      SAPS     H6Y      HAL2     0.900000E-01   1.00800           0
      1959 MEMB     183      SAPS     C37      CTL2    -0.180000       12.0110           0
      1960 MEMB     183      SAPS     H7X      HAL2     0.900000E-01   1.00800           0
      1961 MEMB     183      SAPS     H7Y      HAL2     0.900000E-01   1.00800           0
      1962 MEMB     183      SAPS     C38      CTL2    -0.180000       12.0110           0
      1963 MEMB     183      SAPS     H8X      HAL2     0.900000E-01   1.00800           0
      1964 MEMB     183      SAPS     H8Y      HAL2     0.900000E-01   1.00800           0
      1965 MEMB     183      SAPS     C39      CTL2    -0.180000       12.0110           0
      1966 MEMB     183      SAPS     H9X      HAL2     0.900000E-01   1.00800           0
      1967 MEMB     183      SAPS     H9Y      HAL2     0.900000E-01   1.00800           0
      1968 MEMB     183      SAPS     C310     CTL2    -0.180000       12.0110           0
      1969 MEMB     183      SAPS     H10X     HAL2     0.900000E-01   1.00800           0
      1970 MEMB     183      SAPS     H10Y     HAL2     0.900000E-01   1.00800           0
      1971 MEMB     183      SAPS     C311     CTL2    -0.180000       12.0110           0
      1972 MEMB     183      SAPS     H11X     HAL2     0.900000E-01   1.00800           0
      1973 MEMB     183      SAPS     H11Y     HAL2     0.900000E-01   1.00800           0
      1974 MEMB     183      SAPS     C312     CTL2    -0.180000       12.0110           0
      1975 MEMB     183      SAPS     H12X     HAL2     0.900000E-01   1.00800           0
      1976 MEMB     183      SAPS     H12Y     HAL2     0.900000E-01   1.00800           0
      1977 MEMB     183      SAPS     C313     CTL2    -0.180000       12.0110           0
      1978 MEMB     183      SAPS     H13X     HAL2     0.900000E-01   1.00800           0
      1979 MEMB     183      SAPS     H13Y     HAL2     0.900000E-01   1.00800           0
      1980 MEMB     183      SAPS     C314     CTL2    -0.180000       12.0110           0
      1981 MEMB     183      SAPS     H14X     HAL2     0.900000E-01   1.00800           0
      1982 MEMB     183      SAPS     H14Y     HAL2     0.900000E-01   1.00800           0
      1983 MEMB     183      SAPS     C315     CTL2    -0.180000       12.0110           0
      1984 MEMB     183      SAPS     H15X     HAL2     0.900000E-01   1.00800           0
      1985 MEMB     183      SAPS     H15Y     HAL2     0.900000E-01   1.00800           0
      1986 MEMB     183      SAPS     C316     CTL2    -0.180000       12.0110           0
      1987 MEMB     183      SAPS     H16X     HAL2     0.900000E-01   1.00800           0
      1988 MEMB     183      SAPS     H16Y     HAL2     0.900000E-01   1.00800           0
      1989 MEMB     183      SAPS     C317     CTL2    -0.180000       12.0110           0
      1990 MEMB     183      SAPS     H17X     HAL2     0.900000E-01   1.00800           0
      1991 MEMB     183      SAPS     H17Y     HAL2     0.900000E-01   1.00800           0
      1992 MEMB     183      SAPS     C318     CTL3    -0.270000       12.0110           0
      1993 MEMB     183      SAPS     H18X     HAL3     0.900000E-01   1.00800           0
      1994 MEMB     183      SAPS     H18Y     HAL3     0.900000E-01   1.00800           0
      1995 MEMB     183      SAPS     H18Z     HAL3     0.900000E-01   1.00800           0
      1996 MEMB     192      SAPS     N        NH3L    -0.300000       14.0070           0
      1997 MEMB     192      SAPS     HN1      HCL      0.330000       1.00800           0
      1998 MEMB     192      SAPS     HN2      HCL      0.330000       1.00800           0
      1999 MEMB     192      SAPS     HN3      HCL      0.330000       1.00800           0
      2000 MEMB     192      SAPS     C12      CTL1     0.210000       12.0110           0
      2001 MEMB     192      SAPS     H12A     HBL      0.100000       1.00800           0
      2002 MEMB     192      SAPS     C13      CCL      0.340000       12.0110           0
      2003 MEMB     192      SAPS     O13A     OCL     -0.670000       15.9994           0
      2004 MEMB     192      SAPS     O13B     OCL     -0.670000       15.9994           0
      2005 MEMB     192      SAPS     C11      CTL2    -0.800000E-01   12.0110           0
      2006 MEMB     192      SAPS     H11A     HAL2     0.900000E-01   1.00800           0
      2007 MEMB     192      SAPS     H11B     HAL2     0.900000E-01   1.00800           0
      2008 MEMB     192      SAPS     P        PL       1.500000       30.9740           0
      2009 MEMB     192      SAPS     O13      O2L     -0.780000       15.9994           0
      2010 MEMB     192      SAPS     O14      O2L     -0.780000       15.9994           0
      2011 MEMB     192      SAPS     O12      OSLP    -0.570000       15.9994           0
      2012 MEMB     192      SAPS     O11      OSLP    -0.570000       15.9994           0
      2013 MEMB     192      SAPS     C1       CTL2    -0.800000E-01   12.0110           0
      2014 MEMB     192      SAPS     HA       HAL2     0.900000E-01   1.00800           0
      2015 MEMB     192      SAPS     HB       HAL2     0.900000E-01   1.00800           0
      2016 MEMB     192      SAPS     C2       CTL1     0.170000       12.0110           0
      2017 MEMB     192      SAPS     HS       HAL1     0.900000E-01   1.00800           0
      2018 MEMB     192      SAPS     O21      OSL     -0.490000       15.9994           0
      2019 MEMB     192      SAPS     C21      CL       0.900000       12.0110           0
      2020 MEMB     192      SAPS     O22      OBL     -0.630000       15.9994           0
      2021 MEMB     192      SAPS     C22      CTL2    -0.220000       12.0110           0
      2022 MEMB     192      SAPS     H2R      HAL2     0.900000E-01   1.00800           0
      2023 MEMB     192      SAPS     H2S      HAL2     0.900000E-01   1.00800           0
      2024 MEMB     192      SAPS     C3       CTL2     0.800000E-01   12.0110           0
      2025 MEMB     192      SAPS     HX       HAL2     0.900000E-01   1.00800           0
      2026 MEMB     192      SAPS     HY       HAL2     0.900000E-01   1.00800           0
      2027 MEMB     192      SAPS     O31      OSL     -0.490000       15.9994           0
      2028 MEMB     192      SAPS     C31      CL       0.900000       12.0110           0
      2029 MEMB     192      SAPS     O32      OBL     -0.630000       15.9994           0
      2030 MEMB     192      SAPS     C32      CTL2    -0.220000       12.0110           0
      2031 MEMB     192      SAPS     H2X      HAL2     0.900000E-01   1.00800           0
      2032 MEMB     192      SAPS     H2Y      HAL2     0.900000E-01   1.00800           0
      2033 MEMB     192      SAPS     C23      CTL2    -0.180000       12.0110           0
      2034 MEMB     192      SAPS     H3R      HAL2     0.900000E-01   1.00800           0
      2035 MEMB     192      SAPS     H3S      HAL2     0.900000E-01   1.00800           0
      2036 MEMB     192      SAPS     C24      CTL2    -0.180000       12.0110           0
      2037 MEMB     192      SAPS     H4R      HAL2     0.900000E-01   1.00800           0
      2038 MEMB     192      SAPS     H4S      HAL2     0.900000E-01   1.00800           0
      2039 MEMB     192      SAPS     C25      CEL1    -0.150000       12.0110           0
      2040 MEMB     192      SAPS     H5R      HEL1     0.150000       1.00800           0
      2041 MEMB     192      SAPS     C26      CEL1    -0.150000       12.0110           0
      2042 MEMB     192      SAPS     H6R      HEL1     0.150000       1.00800           0
      2043 MEMB     192      SAPS     C27      CTL2    -0.180000       12.0110           0
      2044 MEMB     192      SAPS     H7R      HAL2     0.900000E-01   1.00800           0
      2045 MEMB     192      SAPS     H7S      HAL2     0.900000E-01   1.00800           0
      2046 MEMB     192      SAPS     C28      CEL1    -0.150000       12.0110           0
      2047 MEMB     192      SAPS     H8R      HEL1     0.150000       1.00800           0
      2048 MEMB     192      SAPS     C29      CEL1    -0.150000       12.0110           0
      2049 MEMB     192      SAPS     H9R      HEL1     0.150000       1.00800           0
      2050 MEMB     192      SAPS     C210     CTL2    -0.180000       12.0110           0
      2051 MEMB     192      SAPS     H10R     HAL2     0.900000E-01   1.00800           0
      2052 MEMB     192      SAPS     H10S     HAL2     0.900000E-01   1.00800           0
      2053 MEMB     192      SAPS     C211     CEL1    -0.150000       12.0110           0
      2054 MEMB     192      SAPS     H11R     HEL1     0.150000       1.00800           0
      2055 MEMB     192      SAPS     C212     CEL1    -0.150000       12.0110           0
      2056 MEMB     192      SAPS     H12R     HEL1     0.150000       1.00800           0
      2057 MEMB     192      SAPS     C213     CTL2    -0.180000       12.0110           0
      2058 MEMB     192      SAPS     H13R     HAL2     0.900000E-01   1.00800           0
      2059 MEMB     192      SAPS     H13S     HAL2     0.900000E-01   1.00800           0
      2060 MEMB     192      SAPS     C214     CEL1    -0.150000       12.0110           0
      2061 MEMB     192      SAPS     H14R     HEL1     0.150000       1.00800           0
      2062 MEMB     192      SAPS     C215     CEL1    -0.150000       12.0110           0
      2063 MEMB     192      SAPS     H15R     HEL1     0.150000       1.00800           0
      2064 MEMB     192      SAPS     C216     CTL2    -0.180000       12.0110           0
      2065 MEMB     192      SAPS     H16R     HAL2     0.900000E-01   1.00800           0
      2066 MEMB     192      SAPS     H16S     HAL2     0.900000E-01   1.00800           0
      2067 MEMB     192      SAPS     C217     CTL2    -0.180000       12.0110           0
      2068 MEMB     192      SAPS     H17R     HAL2     0.900000E-01   1.00800           0
      2069 MEMB     192      SAPS     H17S     HAL2     0.900000E-01   1.00800           0
      2070 MEMB     192      SAPS     C218     CTL2    -0.180000       12.0110           0
      2071 MEMB     192      SAPS     H18R     HAL2     0.900000E-01   1.00800           0
      2072 MEMB     192      SAPS     H18S     HAL2     0.900000E-01   1.00800           0
      2073 MEMB     192      SAPS     C219     CTL2    -0.180000       12.0110           0
      2074 MEMB     192      SAPS     H19R     HAL2     0.900000E-01   1.00800           0
      2075 MEMB     192      SAPS     H19S     HAL2     0.900000E-01   1.00800           0
      2076 MEMB     192      SAPS     C220     CTL3    -0.270000       12.0110           0
      2077 MEMB     192      SAPS     H20R     HAL3     0.900000E-01   1.00800           0
      2078 MEMB     192      SAPS     H20S     HAL3     0.900000E-01   1.00800           0
      2079 MEMB     192      SAPS     H20T     HAL3     0.900000E-01   1.00800           0
      2080 MEMB     192      SAPS     C33      CTL2    -0.180000       12.0110           0
      2081 MEMB     192      SAPS     H3X      HAL2     0.900000E-01   1.00800           0
      2082 MEMB     192      SAPS     H3Y      HAL2     0.900000E-01   1.00800           0
      2083 MEMB     192      SAPS     C34      CTL2    -0.180000       12.0110           0
      2084 MEMB     192      SAPS     H4X      HAL2     0.900000E-01   1.00800           0
      2085 MEMB     192      SAPS     H4Y      HAL2     0.900000E-01   1.00800           0
      2086 MEMB     192      SAPS     C35      CTL2    -0.180000       12.0110           0
      2087 MEMB     192      SAPS     H5X      HAL2     0.900000E-01   1.00800           0
      2088 MEMB     192      SAPS     H5Y      HAL2     0.900000E-01   1.00800           0
      2089 MEMB     192      SAPS     C36      CTL2    -0.180000       12.0110           0
      2090 MEMB     192      SAPS     H6X      HAL2     0.900000E-01   1.00800           0
      2091 MEMB     192      SAPS     H6Y      HAL2     0.900000E-01   1.00800           0
      2092 MEMB     192      SAPS     C37      CTL2    -0.180000       12.0110           0
      2093 MEMB     192      SAPS     H7X      HAL2     0.900000E-01   1.00800           0
      2094 MEMB     192      SAPS     H7Y      HAL2     0.900000E-01   1.00800           0
      2095 MEMB     192      SAPS     C38      CTL2    -0.180000       12.0110           0
      2096 MEMB     192      SAPS     H8X      HAL2     0.900000E-01   1.00800           0
      2097 MEMB     192      SAPS     H8Y      HAL2     0.900000E-01   1.00800           0
      2098 MEMB     192      SAPS     C39      CTL2    -0.180000       12.0110           0
      2099 MEMB     192      SAPS     H9X      HAL2     0.900000E-01   1.00800           0
      2100 MEMB     192      SAPS     H9Y      HAL2     0.900000E-01   1.00800           0
      2101 MEMB     192      SAPS     C310     CTL2    -0.180000       12.0110           0
      2102 MEMB     192      SAPS     H10X     HAL2     0.900000E-01   1.00800           0
      2103 MEMB     192      SAPS     H10Y     HAL2     0.900000E-01   1.00800           0
      2104 MEMB     192      SAPS     C311     CTL2    -0.180000       12.0110           0
      2105 MEMB     192      SAPS     H11X     HAL2     0.900000E-01   1.00800           0
      2106 MEMB     192      SAPS     H11Y     HAL2     0.900000E-01   1.00800           0
      2107 MEMB     192      SAPS     C312     CTL2    -0.180000       12.0110           0
      2108 MEMB     192      SAPS     H12X     HAL2     0.900000E-01   1.00800           0
      2109 MEMB     192      SAPS     H12Y     HAL2     0.900000E-01   1.00800           0
      2110 MEMB     192      SAPS     C313     CTL2    -0.180000       12.0110           0
      2111 MEMB     192      SAPS     H13X     HAL2     0.900000E-01   1.00800           0
      2112 MEMB     192      SAPS     H13Y     HAL2     0.900000E-01   1.00800           0
      2113 MEMB     192      SAPS     C314     CTL2    -0.180000       12.0110           0
      2114 MEMB     192      SAPS     H14X     HAL2     0.900000E-01   1.00800           0
      2115 MEMB     192      SAPS     H14Y     HAL2     0.900000E-01   1.00800           0
      2116 MEMB     192      SAPS     C315     CTL2    -0.180000       12.0110           0
      2117 MEMB     192      SAPS     H15X     HAL2     0.900000E-01   1.00800           0
      2118 MEMB     192      SAPS     H15Y     HAL2     0.900000E-01   1.00800           0
      2119 MEMB     192      SAPS     C316     CTL2    -0.180000       12.0110           0
      2120 MEMB     192      SAPS     H16X     HAL2     0.900000E-01   1.00800           0
      2121 MEMB     192      SAPS     H16Y     HAL2     0.900000E-01   1.00800           0
      2122 MEMB     192      SAPS     C317     CTL2    -0.180000       12.0110           0
      2123 MEMB     192      SAPS     H17X     HAL2     0.900000E-01   1.00800           0
      2124 MEMB     192      SAPS     H17Y     HAL2     0.900000E-01   1.00800           0
      2125 MEMB     192      SAPS     C318     CTL3    -0.270000       12.0110           0
      2126 MEMB     192      SAPS     H18X     HAL3     0.900000E-01   1.00800           0
      2127 MEMB     192      SAPS     H18Y     HAL3     0.900000E-01   1.00800           0
      2128 MEMB     192      SAPS     H18Z     HAL3     0.900000E-01   1.00800           0
      2129 MEMB     2        SAPC     N        NTL     -0.600000       14.0070           0
      2130 MEMB     2        SAPC     C12      CTL2    -0.100000       12.0110           0
      2131 MEMB     2        SAPC     H12A     HL       0.250000       1.00800           0
      2132 MEMB     2        SAPC     H12B     HL       0.250000       1.00800           0
      2133 MEMB     2        SAPC     C13      CTL5    -0.350000       12.0110           0
      2134 MEMB     2        SAPC     H13A     HL       0.250000       1.00800           0
      2135 MEMB     2        SAPC     H13B     HL       0.250000       1.00800           0
      2136 MEMB     2        SAPC     H13C     HL       0.250000       1.00800           0
      2137 MEMB     2        SAPC     C14      CTL5    -0.350000       12.0110           0
      2138 MEMB     2        SAPC     H14A     HL       0.250000       1.00800           0
      2139 MEMB     2        SAPC     H14B     HL       0.250000       1.00800           0
      2140 MEMB     2        SAPC     H14C     HL       0.250000       1.00800           0
      2141 MEMB     2        SAPC     C15      CTL5    -0.350000       12.0110           0
      2142 MEMB     2        SAPC     H15A     HL       0.250000       1.00800           0
      2143 MEMB     2        SAPC     H15B     HL       0.250000       1.00800           0
      2144 MEMB     2        SAPC     H15C     HL       0.250000       1.00800           0
      2145 MEMB     2        SAPC     C11      CTL2    -0.800000E-01   12.0110           0
      2146 MEMB     2        SAPC     H11A     HAL2     0.900000E-01   1.00800           0
      2147 MEMB     2        SAPC     H11B     HAL2     0.900000E-01   1.00800           0
      2148 MEMB     2        SAPC     P        PL       1.500000       30.9740           0
      2149 MEMB     2        SAPC     O13      O2L     -0.780000       15.9994           0
      2150 MEMB     2        SAPC     O14      O2L     -0.780000       15.9994           0
      2151 MEMB     2        SAPC     O12      OSLP    -0.570000       15.9994           0
      2152 MEMB     2        SAPC     O11      OSLP    -0.570000       15.9994           0
      2153 MEMB     2        SAPC     C1       CTL2    -0.800000E-01   12.0110           0
      2154 MEMB     2        SAPC     HA       HAL2     0.900000E-01   1.00800           0
      2155 MEMB     2        SAPC     HB       HAL2     0.900000E-01   1.00800           0
      2156 MEMB     2        SAPC     C2       CTL1     0.170000       12.0110           0
      2157 MEMB     2        SAPC     HS       HAL1     0.900000E-01   1.00800           0
      2158 MEMB     2        SAPC     O21      OSL     -0.490000       15.9994           0
      2159 MEMB     2        SAPC     C21      CL       0.900000       12.0110           0
      2160 MEMB     2        SAPC     O22      OBL     -0.630000       15.9994           0
      2161 MEMB     2        SAPC     C22      CTL2    -0.220000       12.0110           0
      2162 MEMB     2        SAPC     H2R      HAL2     0.900000E-01   1.00800           0
      2163 MEMB     2        SAPC     H2S      HAL2     0.900000E-01   1.00800           0
      2164 MEMB     2        SAPC     C3       CTL2     0.800000E-01   12.0110           0
      2165 MEMB     2        SAPC     HX       HAL2     0.900000E-01   1.00800           0
      2166 MEMB     2        SAPC     HY       HAL2     0.900000E-01   1.00800           0
      2167 MEMB     2        SAPC     O31      OSL     -0.490000       15.9994           0
      2168 MEMB     2        SAPC     C31      CL       0.900000       12.0110           0
      2169 MEMB     2        SAPC     O32      OBL     -0.630000       15.9994           0
      2170 MEMB     2        SAPC     C32      CTL2    -0.220000       12.0110           0
      2171 MEMB     2        SAPC     H2X      HAL2     0.900000E-01   1.00800           0
      2172 MEMB     2        SAPC     H2Y      HAL2     0.900000E-01   1.00800           0
      2173 MEMB     2        SAPC     C23      CTL2    -0.180000       12.0110           0
      2174 MEMB     2        SAPC     H3R      HAL2     0.900000E-01   1.00800           0
      2175 MEMB     2        SAPC     H3S      HAL2     0.900000E-01   1.00800           0
      2176 MEMB     2        SAPC     C24      CTL2    -0.180000       12.0110           0
      2177 MEMB     2        SAPC     H4R      HAL2     0.900000E-01   1.00800           0
      2178 MEMB     2        SAPC     H4S      HAL2     0.900000E-01   1.00800           0
      2179 MEMB     2        SAPC     C25      CEL1    -0.150000       12.0110           0
      2180 MEMB     2        SAPC     H5R      HEL1     0.150000       1.00800           0
      2181 MEMB     2        SAPC     C26      CEL1    -0.150000       12.0110           0
      2182 MEMB     2        SAPC     H6R      HEL1     0.150000       1.00800           0
      2183 MEMB     2        SAPC     C27      CTL2    -0.180000       12.0110           0
      2184 MEMB     2        SAPC     H7R      HAL2     0.900000E-01   1.00800           0
      2185 MEMB     2        SAPC     H7S      HAL2     0.900000E-01   1.00800           0
      2186 MEMB     2        SAPC     C28      CEL1    -0.150000       12.0110           0
      2187 MEMB     2        SAPC     H8R      HEL1     0.150000       1.00800           0
      2188 MEMB     2        SAPC     C29      CEL1    -0.150000       12.0110           0
      2189 MEMB     2        SAPC     H9R      HEL1     0.150000       1.00800           0
      2190 MEMB     2        SAPC     C210     CTL2    -0.180000       12.0110           0
      2191 MEMB     2        SAPC     H10R     HAL2     0.900000E-01   1.00800           0
      2192 MEMB     2        SAPC     H10S     HAL2     0.900000E-01   1.00800           0
      2193 MEMB     2        SAPC     C211     CEL1    -0.150000       12.0110           0
      2194 MEMB     2        SAPC     H11R     HEL1     0.150000       1.00800           0
      2195 MEMB     2        SAPC     C212     CEL1    -0.150000       12.0110           0
      2196 MEMB     2        SAPC     H12R     HEL1     0.150000       1.00800           0
      2197 MEMB     2        SAPC     C213     CTL2    -0.180000       12.0110           0
      2198 MEMB     2        SAPC     H13R     HAL2     0.900000E-01   1.00800           0
      2199 MEMB     2        SAPC     H13S     HAL2     0.900000E-01   1.00800           0
      2200 MEMB     2        SAPC     C214     CEL1    -0.150000       12.0110           0
      2201 MEMB     2        SAPC     H14R     HEL1     0.150000       1.00800           0
      2202 MEMB     2        SAPC     C215     CEL1    -0.150000       12.0110           0
      2203 MEMB     2        SAPC     H15R     HEL1     0.150000       1.00800           0
      2204 MEMB     2        SAPC     C216     CTL2    -0.180000       12.0110           0
      2205 MEMB     2        SAPC     H16R     HAL2     0.900000E-01   1.00800           0
      2206 MEMB     2        SAPC     H16S     HAL2     0.900000E-01   1.00800           0
      2207 MEMB     2        SAPC     C217     CTL2    -0.180000       12.0110           0
      2208 MEMB     2        SAPC     H17R     HAL2     0.900000E-01   1.00800           0
      2209 MEMB     2        SAPC     H17S     HAL2     0.900000E-01   1.00800           0
      2210 MEMB     2        SAPC     C218     CTL2    -0.270000       12.0110           0
      2211 MEMB     2        SAPC     H18R     HAL2     0.900000E-01   1.00800           0
      2212 MEMB     2        SAPC     H18S     HAL2     0.900000E-01   1.00800           0
      2213 MEMB     2        SAPC     C219     CTL2    -0.180000       12.0110           0
      2214 MEMB     2        SAPC     H19R     HAL2     0.900000E-01   1.00800           0
      2215 MEMB     2        SAPC     H19S     HAL2     0.900000E-01   1.00800           0
      2216 MEMB     2        SAPC     C220     CTL3    -0.180000       12.0110           0
      2217 MEMB     2        SAPC     H20R     HAL3     0.900000E-01   1.00800           0
      2218 MEMB     2        SAPC     H20S     HAL3     0.900000E-01   1.00800           0
      2219 MEMB     2        SAPC     H20T     HAL3     0.900000E-01   1.00800           0
      2220 MEMB     2        SAPC     C33      CTL2    -0.180000       12.0110           0
      2221 MEMB     2        SAPC     H3X      HAL2     0.900000E-01   1.00800           0
      2222 MEMB     2        SAPC     H3Y      HAL2     0.900000E-01   1.00800           0
      2223 MEMB     2        SAPC     C34      CTL2    -0.180000       12.0110           0
      2224 MEMB     2        SAPC     H4X      HAL2     0.900000E-01   1.00800           0
      2225 MEMB     2        SAPC     H4Y      HAL2     0.900000E-01   1.00800           0
      2226 MEMB     2        SAPC     C35      CTL2    -0.180000       12.0110           0
      2227 MEMB     2        SAPC     H5X      HAL2     0.900000E-01   1.00800           0
      2228 MEMB     2        SAPC     H5Y      HAL2     0.900000E-01   1.00800           0
      2229 MEMB     2        SAPC     C36      CTL2    -0.180000       12.0110           0
      2230 MEMB     2        SAPC     H6X      HAL2     0.900000E-01   1.00800           0
      2231 MEMB     2        SAPC     H6Y      HAL2     0.900000E-01   1.00800           0
      2232 MEMB     2        SAPC     C37      CTL2    -0.180000       12.0110           0
      2233 MEMB     2        SAPC     H7X      HAL2     0.900000E-01   1.00800           0
      2234 MEMB     2        SAPC     H7Y      HAL2     0.900000E-01   1.00800           0
      2235 MEMB     2        SAPC     C38      CTL2    -0.180000       12.0110           0
      2236 MEMB     2        SAPC     H8X      HAL2     0.900000E-01   1.00800           0
      2237 MEMB     2        SAPC     H8Y      HAL2     0.900000E-01   1.00800           0
      2238 MEMB     2        SAPC     C39      CTL2    -0.180000       12.0110           0
      2239 MEMB     2        SAPC     H9X      HAL2     0.900000E-01   1.00800           0
      2240 MEMB     2        SAPC     H9Y      HAL2     0.900000E-01   1.00800           0
      2241 MEMB     2        SAPC     C310     CTL2    -0.180000       12.0110           0
      2242 MEMB     2        SAPC     H10X     HAL2     0.900000E-01   1.00800           0
      2243 MEMB     2        SAPC     H10Y     HAL2     0.900000E-01   1.00800           0
      2244 MEMB     2        SAPC     C311     CTL2    -0.180000       12.0110           0
      2245 MEMB     2        SAPC     H11X     HAL2     0.900000E-01   1.00800           0
      2246 MEMB     2        SAPC     H11Y     HAL2     0.900000E-01   1.00800           0
      2247 MEMB     2        SAPC     C312     CTL2    -0.180000       12.0110           0
      2248 MEMB     2        SAPC     H12X     HAL2     0.900000E-01   1.00800           0
      2249 MEMB     2        SAPC     H12Y     HAL2     0.900000E-01   1.00800           0
      2250 MEMB     2        SAPC     C313     CTL2    -0.180000       12.0110           0
      2251 MEMB     2        SAPC     H13X     HAL2     0.900000E-01   1.00800           0
      2252 MEMB     2        SAPC     H13Y     HAL2     0.900000E-01   1.00800           0
      2253 MEMB     2        SAPC     C314     CTL2    -0.180000       12.0110           0
      2254 MEMB     2        SAPC     H14X     HAL2     0.900000E-01   1.00800           0
      2255 MEMB     2        SAPC     H14Y     HAL2     0.900000E-01   1.00800           0
      2256 MEMB     2        SAPC     C315     CTL2    -0.180000       12.0110           0
      2257 MEMB     2        SAPC     H15X     HAL2     0.900000E-01   1.00800           0
      2258 MEMB     2        SAPC     H15Y     HAL2     0.900000E-01   1.00800           0
      2259 MEMB     2        SAPC     C316     CTL2    -0.180000       12.0110           0
      2260 MEMB     2        SAPC     H16X     HAL2     0.900000E-01   1.00800           0
      2261 MEMB     2        SAPC     H16Y     HAL2     0.900000E-01   1.00800           0
      2262 MEMB     2        SAPC     C317     CTL2    -0.180000       12.0110           0
      2263 MEMB     2        SAPC     H17X     HAL2     0.900000E-01   1.00800           0
      2264 MEMB     2        SAPC     H17Y     HAL2     0.900000E-01   1.00800           0
      2265 MEMB     2        SAPC     C318     CTL3    -0.270000       12.0110           0
      2266 MEMB     2        SAPC     H18X     HAL3     0.900000E-01   1.00800           0
      2267 MEMB     2        SAPC     H18Y     HAL3     0.900000E-01   1.00800           0
      2268 MEMB     2        SAPC     H18Z     HAL3     0.900000E-01   1.00800           0
      2269 MEMB     8        SAPC     N        NTL     -0.600000       14.0070           0
      2270 MEMB     8        SAPC     C12      CTL2    -0.100000       12.0110           0
      2271 MEMB     8        SAPC     H12A     HL       0.250000       1.00800           0
      2272 MEMB     8        SAPC     H12B     HL       0.250000       1.00800           0
      2273 MEMB     8        SAPC     C13      CTL5    -0.350000       12.0110           0
      2274 MEMB     8        SAPC     H13A     HL       0.250000       1.00800           0
      2275 MEMB     8        SAPC     H13B     HL       0.250000       1.00800           0
      2276 MEMB     8        SAPC     H13C     HL       0.250000       1.00800           0
      2277 MEMB     8        SAPC     C14      CTL5    -0.350000       12.0110           0
      2278 MEMB     8        SAPC     H14A     HL       0.250000       1.00800           0
      2279 MEMB     8        SAPC     H14B     HL       0.250000       1.00800           0
      2280 MEMB     8        SAPC     H14C     HL       0.250000       1.00800           0
      2281 MEMB     8        SAPC     C15      CTL5    -0.350000       12.0110           0
      2282 MEMB     8        SAPC     H15A     HL       0.250000       1.00800           0
      2283 MEMB     8        SAPC     H15B     HL       0.250000       1.00800           0
      2284 MEMB     8        SAPC     H15C     HL       0.250000       1.00800           0
      2285 MEMB     8        SAPC     C11      CTL2    -0.800000E-01   12.0110           0
      2286 MEMB     8        SAPC     H11A     HAL2     0.900000E-01   1.00800           0
      2287 MEMB     8        SAPC     H11B     HAL2     0.900000E-01   1.00800           0
      2288 MEMB     8        SAPC     P        PL       1.500000       30.9740           0
      2289 MEMB     8        SAPC     O13      O2L     -0.780000       15.9994           0
      2290 MEMB     8        SAPC     O14      O2L     -0.780000       15.9994           0
      2291 MEMB     8        SAPC     O12      OSLP    -0.570000       15.9994           0
      2292 MEMB     8        SAPC     O11      OSLP    -0.570000       15.9994           0
      2293 MEMB     8        SAPC     C1       CTL2    -0.800000E-01   12.0110           0
      2294 MEMB     8        SAPC     HA       HAL2     0.900000E-01   1.00800           0
      2295 MEMB     8        SAPC     HB       HAL2     0.900000E-01   1.00800           0
      2296 MEMB     8        SAPC     C2       CTL1     0.170000       12.0110           0
      2297 MEMB     8        SAPC     HS       HAL1     0.900000E-01   1.00800           0
      2298 MEMB     8        SAPC     O21      OSL     -0.490000       15.9994           0
      2299 MEMB     8        SAPC     C21      CL       0.900000       12.0110           0
      2300 MEMB     8        SAPC     O22      OBL     -0.630000       15.9994           0
      2301 MEMB     8        SAPC     C22      CTL2    -0.220000       12.0110           0
      2302 MEMB     8        SAPC     H2R      HAL2     0.900000E-01   1.00800           0
      2303 MEMB     8        SAPC     H2S      HAL2     0.900000E-01   1.00800           0
      2304 MEMB     8        SAPC     C3       CTL2     0.800000E-01   12.0110           0
      2305 MEMB     8        SAPC     HX       HAL2     0.900000E-01   1.00800           0
      2306 MEMB     8        SAPC     HY       HAL2     0.900000E-01   1.00800           0
      2307 MEMB     8        SAPC     O31      OSL     -0.490000       15.9994           0
      2308 MEMB     8        SAPC     C31      CL       0.900000       12.0110           0
      2309 MEMB     8        SAPC     O32      OBL     -0.630000       15.9994           0
      2310 MEMB     8        SAPC     C32      CTL2    -0.220000       12.0110           0
      2311 MEMB     8        SAPC     H2X      HAL2     0.900000E-01   1.00800           0
      2312 MEMB     8        SAPC     H2Y      HAL2     0.900000E-01   1.00800           0
      2313 MEMB     8        SAPC     C23      CTL2    -0.180000       12.0110           0
      2314 MEMB     8        SAPC     H3R      HAL2     0.900000E-01   1.00800           0
      2315 MEMB     8        SAPC     H3S      HAL2     0.900000E-01   1.00800           0
      2316 MEMB     8        SAPC     C24      CTL2    -0.180000       12.0110           0
      2317 MEMB     8        SAPC     H4R      HAL2     0.900000E-01   1.00800           0
      2318 MEMB     8        SAPC     H4S      HAL2     0.900000E-01   1.00800           0
      2319 MEMB     8        SAPC     C25      CEL1    -0.150000       12.0110           0
      2320 MEMB     8        SAPC     H5R      HEL1     0.150000       1.00800           0
      2321 MEMB     8        SAPC     C26      CEL1    -0.150000       12.0110           0
      2322 MEMB     8        SAPC     H6R      HEL1     0.150000       1.00800           0
      2323 MEMB     8        SAPC     C27      CTL2    -0.180000       12.0110           0
      2324 MEMB     8        SAPC     H7R      HAL2     0.900000E-01   1.00800           0
      2325 MEMB     8        SAPC     H7S      HAL2     0.900000E-01   1.00800           0
      2326 MEMB     8        SAPC     C28      CEL1    -0.150000       12.0110           0
      2327 MEMB     8        SAPC     H8R      HEL1     0.150000       1.00800           0
      2328 MEMB     8        SAPC     C29      CEL1    -0.150000       12.0110           0
      2329 MEMB     8        SAPC     H9R      HEL1     0.150000       1.00800           0
      2330 MEMB     8        SAPC     C210     CTL2    -0.180000       12.0110           0
      2331 MEMB     8        SAPC     H10R     HAL2     0.900000E-01   1.00800           0
      2332 MEMB     8        SAPC     H10S     HAL2     0.900000E-01   1.00800           0
      2333 MEMB     8        SAPC     C211     CEL1    -0.150000       12.0110           0
      2334 MEMB     8        SAPC     H11R     HEL1     0.150000       1.00800           0
      2335 MEMB     8        SAPC     C212     CEL1    -0.150000       12.0110           0
      2336 MEMB     8        SAPC     H12R     HEL1     0.150000       1.00800           0
      2337 MEMB     8        SAPC     C213     CTL2    -0.180000       12.0110           0
      2338 MEMB     8        SAPC     H13R     HAL2     0.900000E-01   1.00800           0
      2339 MEMB     8        SAPC     H13S     HAL2     0.900000E-01   1.00800           0
      2340 MEMB     8        SAPC     C214     CEL1    -0.150000       12.0110           0
      2341 MEMB     8        SAPC     H14R     HEL1     0.150000       1.00800           0
      2342 MEMB     8        SAPC     C215     CEL1    -0.150000       12.0110           0
      2343 MEMB     8        SAPC     H15R     HEL1     0.150000       1.00800           0
      2344 MEMB     8        SAPC     C216     CTL2    -0.180000       12.0110           0
      2345 MEMB     8        SAPC     H16R     HAL2     0.900000E-01   1.00800           0
      2346 MEMB     8        SAPC     H16S     HAL2     0.900000E-01   1.00800           0
      2347 MEMB     8        SAPC     C217     CTL2    -0.180000       12.0110           0
      2348 MEMB     8        SAPC     H17R     HAL2     0.900000E-01   1.00800           0
      2349 MEMB     8        SAPC     H17S     HAL2     0.900000E-01   1.00800           0
      2350 MEMB     8        SAPC     C218     CTL2    -0.270000       12.0110           0
      2351 MEMB     8        SAPC     H18R     HAL2     0.900000E-01   1.00800           0
      2352 MEMB     8        SAPC     H18S     HAL2     0.900000E-01   1.00800           0
      2353 MEMB     8        SAPC     C219     CTL2    -0.180000       12.0110           0
      2354 MEMB     8        SAPC     H19R     HAL2     0.900000E-01   1.00800           0
      2355 MEMB     8        SAPC     H19S     HAL2     0.900000E-01   1.00800           0
      2356 MEMB     8        SAPC     C220     CTL3    -0.180000       12.0110           0
      2357 MEMB     8        SAPC     H20R     HAL3     0.900000E-01   1.00800           0
      2358 MEMB     8        SAPC     H20S     HAL3     0.900000E-01   1.00800           0
      2359 MEMB     8        SAPC     H20T     HAL3     0.900000E-01   1.00800           0
      2360 MEMB     8        SAPC     C33      CTL2    -0.180000       12.0110           0
      2361 MEMB     8        SAPC     H3X      HAL2     0.900000E-01   1.00800           0
      2362 MEMB     8        SAPC     H3Y      HAL2     0.900000E-01   1.00800           0
      2363 MEMB     8        SAPC     C34      CTL2    -0.180000       12.0110           0
      2364 MEMB     8        SAPC     H4X      HAL2     0.900000E-01   1.00800           0
      2365 MEMB     8        SAPC     H4Y      HAL2     0.900000E-01   1.00800           0
      2366 MEMB     8        SAPC     C35      CTL2    -0.180000       12.0110           0
      2367 MEMB     8        SAPC     H5X      HAL2     0.900000E-01   1.00800           0
      2368 MEMB     8        SAPC     H5Y      HAL2     0.900000E-01   1.00800           0
      2369 MEMB     8        SAPC     C36      CTL2    -0.180000       12.0110           0
      2370 MEMB     8        SAPC     H6X      HAL2     0.900000E-01   1.00800           0
      2371 MEMB     8        SAPC     H6Y      HAL2     0.900000E-01   1.00800           0
      2372 MEMB     8        SAPC     C37      CTL2    -0.180000       12.0110           0
      2373 MEMB     8        SAPC     H7X      HAL2     0.900000E-01   1.00800           0
      2374 MEMB     8        SAPC     H7Y      HAL2     0.900000E-01   1.00800           0
      2375 MEMB     8        SAPC     C38      CTL2    -0.180000       12.0110           0
      2376 MEMB     8        SAPC     H8X      HAL2     0.900000E-01   1.00800           0
      2377 MEMB     8        SAPC     H8Y      HAL2     0.900000E-01   1.00800           0
      2378 MEMB     8        SAPC     C39      CTL2    -0.180000       12.0110           0
      2379 MEMB     8        SAPC     H9X      HAL2     0.900000E-01   1.00800           0
      2380 MEMB     8        SAPC     H9Y      HAL2     0.900000E-01   1.00800           0
      2381 MEMB     8        SAPC     C310     CTL2    -0.180000       12.0110           0
      2382 MEMB     8        SAPC     H10X     HAL2     0.900000E-01   1.00800           0
      2383 MEMB     8        SAPC     H10Y     HAL2     0.900000E-01   1.00800           0
      2384 MEMB     8        SAPC     C311     CTL2    -0.180000       12.0110           0
      2385 MEMB     8        SAPC     H11X     HAL2     0.900000E-01   1.00800           0
      2386 MEMB     8        SAPC     H11Y     HAL2     0.900000E-01   1.00800           0
      2387 MEMB     8        SAPC     C312     CTL2    -0.180000       12.0110           0
      2388 MEMB     8        SAPC     H12X     HAL2     0.900000E-01   1.00800           0
      2389 MEMB     8        SAPC     H12Y     HAL2     0.900000E-01   1.00800           0
      2390 MEMB     8        SAPC     C313     CTL2    -0.180000       12.0110           0
      2391 MEMB     8        SAPC     H13X     HAL2     0.900000E-01   1.00800           0
      2392 MEMB     8        SAPC     H13Y     HAL2     0.900000E-01   1.00800           0
      2393 MEMB     8        SAPC     C314     CTL2    -0.180000       12.0110           0
      2394 MEMB     8        SAPC     H14X     HAL2     0.900000E-01   1.00800           0
      2395 MEMB     8        SAPC     H14Y     HAL2     0.900000E-01   1.00800           0
      2396 MEMB     8        SAPC     C315     CTL2    -0.180000       12.0110           0
      2397 MEMB     8        SAPC     H15X     HAL2     0.900000E-01   1.00800           0
      2398 MEMB     8        SAPC     H15Y     HAL2     0.900000E-01   1.00800           0
      2399 MEMB     8        SAPC     C316     CTL2    -0.180000       12.0110           0
      2400 MEMB     8        SAPC     H16X     HAL2     0.900000E-01   1.00800           0
      2401 MEMB     8        SAPC     H16Y     HAL2     0.900000E-01   1.00800           0
      2402 MEMB     8        SAPC     C317     CTL2    -0.180000       12.0110           0
      2403 MEMB     8        SAPC     H17X     HAL2     0.900000E-01   1.00800           0
      2404 MEMB     8        SAPC     H17Y     HAL2     0.900000E-01   1.00800           0
      2405 MEMB     8        SAPC     C318     CTL3    -0.270000       12.0110           0
      2406 MEMB     8        SAPC     H18X     HAL3     0.900000E-01   1.00800           0
      2407 MEMB     8        SAPC     H18Y     HAL3     0.900000E-01   1.00800           0
      2408 MEMB     8        SAPC     H18Z     HAL3     0.900000E-01   1.00800           0
      2409 MEMB     60       SAPC     N        NTL     -0.600000       14.0070           0
      2410 MEMB     60       SAPC     C12      CTL2    -0.100000       12.0110           0
      2411 MEMB     60       SAPC     H12A     HL       0.250000       1.00800           0
      2412 MEMB     60       SAPC     H12B     HL       0.250000       1.00800           0
      2413 MEMB     60       SAPC     C13      CTL5    -0.350000       12.0110           0
      2414 MEMB     60       SAPC     H13A     HL       0.250000       1.00800           0
      2415 MEMB     60       SAPC     H13B     HL       0.250000       1.00800           0
      2416 MEMB     60       SAPC     H13C     HL       0.250000       1.00800           0
      2417 MEMB     60       SAPC     C14      CTL5    -0.350000       12.0110           0
      2418 MEMB     60       SAPC     H14A     HL       0.250000       1.00800           0
      2419 MEMB     60       SAPC     H14B     HL       0.250000       1.00800           0
      2420 MEMB     60       SAPC     H14C     HL       0.250000       1.00800           0
      2421 MEMB     60       SAPC     C15      CTL5    -0.350000       12.0110           0
      2422 MEMB     60       SAPC     H15A     HL       0.250000       1.00800           0
      2423 MEMB     60       SAPC     H15B     HL       0.250000       1.00800           0
      2424 MEMB     60       SAPC     H15C     HL       0.250000       1.00800           0
      2425 MEMB     60       SAPC     C11      CTL2    -0.800000E-01   12.0110           0
      2426 MEMB     60       SAPC     H11A     HAL2     0.900000E-01   1.00800           0
      2427 MEMB     60       SAPC     H11B     HAL2     0.900000E-01   1.00800           0
      2428 MEMB     60       SAPC     P        PL       1.500000       30.9740           0
      2429 MEMB     60       SAPC     O13      O2L     -0.780000       15.9994           0
      2430 MEMB     60       SAPC     O14      O2L     -0.780000       15.9994           0
      2431 MEMB     60       SAPC     O12      OSLP    -0.570000       15.9994           0
      2432 MEMB     60       SAPC     O11      OSLP    -0.570000       15.9994           0
      2433 MEMB     60       SAPC     C1       CTL2    -0.800000E-01   12.0110           0
      2434 MEMB     60       SAPC     HA       HAL2     0.900000E-01   1.00800           0
      2435 MEMB     60       SAPC     HB       HAL2     0.900000E-01   1.00800           0
      2436 MEMB     60       SAPC     C2       CTL1     0.170000       12.0110           0
      2437 MEMB     60       SAPC     HS       HAL1     0.900000E-01   1.00800           0
      2438 MEMB     60       SAPC     O21      OSL     -0.490000       15.9994           0
      2439 MEMB     60       SAPC     C21      CL       0.900000       12.0110           0
      2440 MEMB     60       SAPC     O22      OBL     -0.630000       15.9994           0
      2441 MEMB     60       SAPC     C22      CTL2    -0.220000       12.0110           0
      2442 MEMB     60       SAPC     H2R      HAL2     0.900000E-01   1.00800           0
      2443 MEMB     60       SAPC     H2S      HAL2     0.900000E-01   1.00800           0
      2444 MEMB     60       SAPC     C3       CTL2     0.800000E-01   12.0110           0
      2445 MEMB     60       SAPC     HX       HAL2     0.900000E-01   1.00800           0
      2446 MEMB     60       SAPC     HY       HAL2     0.900000E-01   1.00800           0
      2447 MEMB     60       SAPC     O31      OSL     -0.490000       15.9994           0
      2448 MEMB     60       SAPC     C31      CL       0.900000       12.0110           0
      2449 MEMB     60       SAPC     O32      OBL     -0.630000       15.9994           0
      2450 MEMB     60       SAPC     C32      CTL2    -0.220000       12.0110           0
      2451 MEMB     60       SAPC     H2X      HAL2     0.900000E-01   1.00800           0
      2452 MEMB     60       SAPC     H2Y      HAL2     0.900000E-01   1.00800           0
      2453 MEMB     60       SAPC     C23      CTL2    -0.180000       12.0110           0
      2454 MEMB     60       SAPC     H3R      HAL2     0.900000E-01   1.00800           0
      2455 MEMB     60       SAPC     H3S      HAL2     0.900000E-01   1.00800           0
      2456 MEMB     60       SAPC     C24      CTL2    -0.180000       12.0110           0
      2457 MEMB     60       SAPC     H4R      HAL2     0.900000E-01   1.00800           0
      2458 MEMB     60       SAPC     H4S      HAL2     0.900000E-01   1.00800           0
      2459 MEMB     60       SAPC     C25      CEL1    -0.150000       12.0110           0
      2460 MEMB     60       SAPC     H5R      HEL1     0.150000       1.00800           0
      2461 MEMB     60       SAPC     C26      CEL1    -0.150000       12.0110           0
      2462 MEMB     60       SAPC     H6R      HEL1     0.150000       1.00800           0
      2463 MEMB     60       SAPC     C27      CTL2    -0.180000       12.0110           0
      2464 MEMB     60       SAPC     H7R      HAL2     0.900000E-01   1.00800           0
      2465 MEMB     60       SAPC     H7S      HAL2     0.900000E-01   1.00800           0
      2466 MEMB     60       SAPC     C28      CEL1    -0.150000       12.0110           0
      2467 MEMB     60       SAPC     H8R      HEL1     0.150000       1.00800           0
      2468 MEMB     60       SAPC     C29      CEL1    -0.150000       12.0110           0
      2469 MEMB     60       SAPC     H9R      HEL1     0.150000       1.00800           0
      2470 MEMB     60       SAPC     C210     CTL2    -0.180000       12.0110           0
      2471 MEMB     60       SAPC     H10R     HAL2     0.900000E-01   1.00800           0
      2472 MEMB     60       SAPC     H10S     HAL2     0.900000E-01   1.00800           0
      2473 MEMB     60       SAPC     C211     CEL1    -0.150000       12.0110           0
      2474 MEMB     60       SAPC     H11R     HEL1     0.150000       1.00800           0
      2475 MEMB     60       SAPC     C212     CEL1    -0.150000       12.0110           0
      2476 MEMB     60       SAPC     H12R     HEL1     0.150000       1.00800           0
      2477 MEMB     60       SAPC     C213     CTL2    -0.180000       12.0110           0
      2478 MEMB     60       SAPC     H13R     HAL2     0.900000E-01   1.00800           0
      2479 MEMB     60       SAPC     H13S     HAL2     0.900000E-01   1.00800           0
      2480 MEMB     60       SAPC     C214     CEL1    -0.150000       12.0110           0
      2481 MEMB     60       SAPC     H14R     HEL1     0.150000       1.00800           0
      2482 MEMB     60       SAPC     C215     CEL1    -0.150000       12.0110           0
      2483 MEMB     60       SAPC     H15R     HEL1     0.150000       1.00800           0
      2484 MEMB     60       SAPC     C216     CTL2    -0.180000       12.0110           0
      2485 MEMB     60       SAPC     H16R     HAL2     0.900000E-01   1.00800           0
      2486 MEMB     60       SAPC     H16S     HAL2     0.900000E-01   1.00800           0
      2487 MEMB     60       SAPC     C217     CTL2    -0.180000       12.0110           0
      2488 MEMB     60       SAPC     H17R     HAL2     0.900000E-01   1.00800           0
      2489 MEMB     60       SAPC     H17S     HAL2     0.900000E-01   1.00800           0
      2490 MEMB     60       SAPC     C218     CTL2    -0.270000       12.0110           0
      2491 MEMB     60       SAPC     H18R     HAL2     0.900000E-01   1.00800           0
      2492 MEMB     60       SAPC     H18S     HAL2     0.900000E-01   1.00800           0
      2493 MEMB     60       SAPC     C219     CTL2    -0.180000       12.0110           0
      2494 MEMB     60       SAPC     H19R     HAL2     0.900000E-01   1.00800           0
      2495 MEMB     60       SAPC     H19S     HAL2     0.900000E-01   1.00800           0
      2496 MEMB     60       SAPC     C220     CTL3    -0.180000       12.0110           0
      2497 MEMB     60       SAPC     H20R     HAL3     0.900000E-01   1.00800           0
      2498 MEMB     60       SAPC     H20S     HAL3     0.900000E-01   1.00800           0
      2499 MEMB     60       SAPC     H20T     HAL3     0.900000E-01   1.00800           0
      2500 MEMB     60       SAPC     C33      CTL2    -0.180000       12.0110           0
      2501 MEMB     60       SAPC     H3X      HAL2     0.900000E-01   1.00800           0
      2502 MEMB     60       SAPC     H3Y      HAL2     0.900000E-01   1.00800           0
      2503 MEMB     60       SAPC     C34      CTL2    -0.180000       12.0110           0
      2504 MEMB     60       SAPC     H4X      HAL2     0.900000E-01   1.00800           0
      2505 MEMB     60       SAPC     H4Y      HAL2     0.900000E-01   1.00800           0
      2506 MEMB     60       SAPC     C35      CTL2    -0.180000       12.0110           0
      2507 MEMB     60       SAPC     H5X      HAL2     0.900000E-01   1.00800           0
      2508 MEMB     60       SAPC     H5Y      HAL2     0.900000E-01   1.00800           0
      2509 MEMB     60       SAPC     C36      CTL2    -0.180000       12.0110           0
      2510 MEMB     60       SAPC     H6X      HAL2     0.900000E-01   1.00800           0
      2511 MEMB     60       SAPC     H6Y      HAL2     0.900000E-01   1.00800           0
      2512 MEMB     60       SAPC     C37      CTL2    -0.180000       12.0110           0
      2513 MEMB     60       SAPC     H7X      HAL2     0.900000E-01   1.00800           0
      2514 MEMB     60       SAPC     H7Y      HAL2     0.900000E-01   1.00800           0
      2515 MEMB     60       SAPC     C38      CTL2    -0.180000       12.0110           0
      2516 MEMB     60       SAPC     H8X      HAL2     0.900000E-01   1.00800           0
      2517 MEMB     60       SAPC     H8Y      HAL2     0.900000E-01   1.00800           0
      2518 MEMB     60       SAPC     C39      CTL2    -0.180000       12.0110           0
      2519 MEMB     60       SAPC     H9X      HAL2     0.900000E-01   1.00800           0
      2520 MEMB     60       SAPC     H9Y      HAL2     0.900000E-01   1.00800           0
      2521 MEMB     60       SAPC     C310     CTL2    -0.180000       12.0110           0
      2522 MEMB     60       SAPC     H10X     HAL2     0.900000E-01   1.00800           0
      2523 MEMB     60       SAPC     H10Y     HAL2     0.900000E-01   1.00800           0
      2524 MEMB     60       SAPC     C311     CTL2    -0.180000       12.0110           0
      2525 MEMB     60       SAPC     H11X     HAL2     0.900000E-01   1.00800           0
      2526 MEMB     60       SAPC     H11Y     HAL2     0.900000E-01   1.00800           0
      2527 MEMB     60       SAPC     C312     CTL2    -0.180000       12.0110           0
      2528 MEMB     60       SAPC     H12X     HAL2     0.900000E-01   1.00800           0
      2529 MEMB     60       SAPC     H12Y     HAL2     0.900000E-01   1.00800           0
      2530 MEMB     60       SAPC     C313     CTL2    -0.180000       12.0110           0
      2531 MEMB     60       SAPC     H13X     HAL2     0.900000E-01   1.00800           0
      2532 MEMB     60       SAPC     H13Y     HAL2     0.900000E-01   1.00800           0
      2533 MEMB     60       SAPC     C314     CTL2    -0.180000       12.0110           0
      2534 MEMB     60       SAPC     H14X     HAL2     0.900000E-01   1.00800           0
      2535 MEMB     60       SAPC     H14Y     HAL2     0.900000E-01   1.00800           0
      2536 MEMB     60       SAPC     C315     CTL2    -0.180000       12.0110           0
      2537 MEMB     60       SAPC     H15X     HAL2     0.900000E-01   1.00800           0
      2538 MEMB     60       SAPC     H15Y     HAL2     0.900000E-01   1.00800           0
      2539 MEMB     60       SAPC     C316     CTL2    -0.180000       12.0110           0
      2540 MEMB     60       SAPC     H16X     HAL2     0.900000E-01   1.00800           0
      2541 MEMB     60       SAPC     H16Y     HAL2     0.900000E-01   1.00800           0
      2542 MEMB     60       SAPC     C317     CTL2    -0.180000       12.0110           0
      2543 MEMB     60       SAPC     H17X     HAL2     0.900000E-01   1.00800           0
      2544 MEMB     60       SAPC     H17Y     HAL2     0.900000E-01   1.00800           0
      2545 MEMB     60       SAPC     C318     CTL3    -0.270000       12.0110           0
      2546 MEMB     60       SAPC     H18X     HAL3     0.900000E-01   1.00800           0
      2547 MEMB     60       SAPC     H18Y     HAL3     0.900000E-01   1.00800           0
      2548 MEMB     60       SAPC     H18Z     HAL3     0.900000E-01   1.00800           0
      2549 MEMB     71       SAPC     N        NTL     -0.600000       14.0070           0
      2550 MEMB     71       SAPC     C12      CTL2    -0.100000       12.0110           0
      2551 MEMB     71       SAPC     H12A     HL       0.250000       1.00800           0
      2552 MEMB     71       SAPC     H12B     HL       0.250000       1.00800           0
      2553 MEMB     71       SAPC     C13      CTL5    -0.350000       12.0110           0
      2554 MEMB     71       SAPC     H13A     HL       0.250000       1.00800           0
      2555 MEMB     71       SAPC     H13B     HL       0.250000       1.00800           0
      2556 MEMB     71       SAPC     H13C     HL       0.250000       1.00800           0
      2557 MEMB     71       SAPC     C14      CTL5    -0.350000       12.0110           0
      2558 MEMB     71       SAPC     H14A     HL       0.250000       1.00800           0
      2559 MEMB     71       SAPC     H14B     HL       0.250000       1.00800           0
      2560 MEMB     71       SAPC     H14C     HL       0.250000       1.00800           0
      2561 MEMB     71       SAPC     C15      CTL5    -0.350000       12.0110           0
      2562 MEMB     71       SAPC     H15A     HL       0.250000       1.00800           0
      2563 MEMB     71       SAPC     H15B     HL       0.250000       1.00800           0
      2564 MEMB     71       SAPC     H15C     HL       0.250000       1.00800           0
      2565 MEMB     71       SAPC     C11      CTL2    -0.800000E-01   12.0110           0
      2566 MEMB     71       SAPC     H11A     HAL2     0.900000E-01   1.00800           0
      2567 MEMB     71       SAPC     H11B     HAL2     0.900000E-01   1.00800           0
      2568 MEMB     71       SAPC     P        PL       1.500000       30.9740           0
      2569 MEMB     71       SAPC     O13      O2L     -0.780000       15.9994           0
      2570 MEMB     71       SAPC     O14      O2L     -0.780000       15.9994           0
      2571 MEMB     71       SAPC     O12      OSLP    -0.570000       15.9994           0
      2572 MEMB     71       SAPC     O11      OSLP    -0.570000       15.9994           0
      2573 MEMB     71       SAPC     C1       CTL2    -0.800000E-01   12.0110           0
      2574 MEMB     71       SAPC     HA       HAL2     0.900000E-01   1.00800           0
      2575 MEMB     71       SAPC     HB       HAL2     0.900000E-01   1.00800           0
      2576 MEMB     71       SAPC     C2       CTL1     0.170000       12.0110           0
      2577 MEMB     71       SAPC     HS       HAL1     0.900000E-01   1.00800           0
      2578 MEMB     71       SAPC     O21      OSL     -0.490000       15.9994           0
      2579 MEMB     71       SAPC     C21      CL       0.900000       12.0110           0
      2580 MEMB     71       SAPC     O22      OBL     -0.630000       15.9994           0
      2581 MEMB     71       SAPC     C22      CTL2    -0.220000       12.0110           0
      2582 MEMB     71       SAPC     H2R      HAL2     0.900000E-01   1.00800           0
      2583 MEMB     71       SAPC     H2S      HAL2     0.900000E-01   1.00800           0
      2584 MEMB     71       SAPC     C3       CTL2     0.800000E-01   12.0110           0
      2585 MEMB     71       SAPC     HX       HAL2     0.900000E-01   1.00800           0
      2586 MEMB     71       SAPC     HY       HAL2     0.900000E-01   1.00800           0
      2587 MEMB     71       SAPC     O31      OSL     -0.490000       15.9994           0
      2588 MEMB     71       SAPC     C31      CL       0.900000       12.0110           0
      2589 MEMB     71       SAPC     O32      OBL     -0.630000       15.9994           0
      2590 MEMB     71       SAPC     C32      CTL2    -0.220000       12.0110           0
      2591 MEMB     71       SAPC     H2X      HAL2     0.900000E-01   1.00800           0
      2592 MEMB     71       SAPC     H2Y      HAL2     0.900000E-01   1.00800           0
      2593 MEMB     71       SAPC     C23      CTL2    -0.180000       12.0110           0
      2594 MEMB     71       SAPC     H3R      HAL2     0.900000E-01   1.00800           0
      2595 MEMB     71       SAPC     H3S      HAL2     0.900000E-01   1.00800           0
      2596 MEMB     71       SAPC     C24      CTL2    -0.180000       12.0110           0
      2597 MEMB     71       SAPC     H4R      HAL2     0.900000E-01   1.00800           0
      2598 MEMB     71       SAPC     H4S      HAL2     0.900000E-01   1.00800           0
      2599 MEMB     71       SAPC     C25      CEL1    -0.150000       12.0110           0
      2600 MEMB     71       SAPC     H5R      HEL1     0.150000       1.00800           0
      2601 MEMB     71       SAPC     C26      CEL1    -0.150000       12.0110           0
      2602 MEMB     71       SAPC     H6R      HEL1     0.150000       1.00800           0
      2603 MEMB     71       SAPC     C27      CTL2    -0.180000       12.0110           0
      2604 MEMB     71       SAPC     H7R      HAL2     0.900000E-01   1.00800           0
      2605 MEMB     71       SAPC     H7S      HAL2     0.900000E-01   1.00800           0
      2606 MEMB     71       SAPC     C28      CEL1    -0.150000       12.0110           0
      2607 MEMB     71       SAPC     H8R      HEL1     0.150000       1.00800           0
      2608 MEMB     71       SAPC     C29      CEL1    -0.150000       12.0110           0
      2609 MEMB     71       SAPC     H9R      HEL1     0.150000       1.00800           0
      2610 MEMB     71       SAPC     C210     CTL2    -0.180000       12.0110           0
      2611 MEMB     71       SAPC     H10R     HAL2     0.900000E-01   1.00800           0
      2612 MEMB     71       SAPC     H10S     HAL2     0.900000E-01   1.00800           0
      2613 MEMB     71       SAPC     C211     CEL1    -0.150000       12.0110           0
      2614 MEMB     71       SAPC     H11R     HEL1     0.150000       1.00800           0
      2615 MEMB     71       SAPC     C212     CEL1    -0.150000       12.0110           0
      2616 MEMB     71       SAPC     H12R     HEL1     0.150000       1.00800           0
      2617 MEMB     71       SAPC     C213     CTL2    -0.180000       12.0110           0
      2618 MEMB     71       SAPC     H13R     HAL2     0.900000E-01   1.00800           0
      2619 MEMB     71       SAPC     H13S     HAL2     0.900000E-01   1.00800           0
      2620 MEMB     71       SAPC     C214     CEL1    -0.150000       12.0110           0
      2621 MEMB     71       SAPC     H14R     HEL1     0.150000       1.00800           0
      2622 MEMB     71       SAPC     C215     CEL1    -0.150000       12.0110           0
      2623 MEMB     71       SAPC     H15R     HEL1     0.150000       1.00800           0
      2624 MEMB     71       SAPC     C216     CTL2    -0.180000       12.0110           0
      2625 MEMB     71       SAPC     H16R     HAL2     0.900000E-01   1.00800           0
      2626 MEMB     71       SAPC     H16S     HAL2     0.900000E-01   1.00800           0
      2627 MEMB     71       SAPC     C217     CTL2    -0.180000       12.0110           0
      2628 MEMB     71       SAPC     H17R     HAL2     0.900000E-01   1.00800           0
      2629 MEMB     71       SAPC     H17S     HAL2     0.900000E-01   1.00800           0
      2630 MEMB     71       SAPC     C218     CTL2    -0.270000       12.0110           0
      2631 MEMB     71       SAPC     H18R     HAL2     0.900000E-01   1.00800           0
      2632 MEMB     71       SAPC     H18S     HAL2     0.900000E-01   1.00800           0
      2633 MEMB     71       SAPC     C219     CTL2    -0.180000       12.0110           0
      2634 MEMB     71       SAPC     H19R     HAL2     0.900000E-01   1.00800           0
      2635 MEMB     71       SAPC     H19S     HAL2     0.900000E-01   1.00800           0
      2636 MEMB     71       SAPC     C220     CTL3    -0.180000       12.0110           0
      2637 MEMB     71       SAPC     H20R     HAL3     0.900000E-01   1.00800           0
      2638 MEMB     71       SAPC     H20S     HAL3     0.900000E-01   1.00800           0
      2639 MEMB     71       SAPC     H20T     HAL3     0.900000E-01   1.00800           0
      2640 MEMB     71       SAPC     C33      CTL2    -0.180000       12.0110           0
      2641 MEMB     71       SAPC     H3X      HAL2     0.900000E-01   1.00800           0
      2642 MEMB     71       SAPC     H3Y      HAL2     0.900000E-01   1.00800           0
      2643 MEMB     71       SAPC     C34      CTL2    -0.180000       12.0110           0
      2644 MEMB     71       SAPC     H4X      HAL2     0.900000E-01   1.00800           0
      2645 MEMB     71       SAPC     H4Y      HAL2     0.900000E-01   1.00800           0
      2646 MEMB     71       SAPC     C35      CTL2    -0.180000       12.0110           0
      2647 MEMB     71       SAPC     H5X      HAL2     0.900000E-01   1.00800           0
      2648 MEMB     71       SAPC     H5Y      HAL2     0.900000E-01   1.00800           0
      2649 MEMB     71       SAPC     C36      CTL2    -0.180000       12.0110           0
      2650 MEMB     71       SAPC     H6X      HAL2     0.900000E-01   1.00800           0
      2651 MEMB     71       SAPC     H6Y      HAL2     0.900000E-01   1.00800           0
      2652 MEMB     71       SAPC     C37      CTL2    -0.180000       12.0110           0
      2653 MEMB     71       SAPC     H7X      HAL2     0.900000E-01   1.00800           0
      2654 MEMB     71       SAPC     H7Y      HAL2     0.900000E-01   1.00800           0
      2655 MEMB     71       SAPC     C38      CTL2    -0.180000       12.0110           0
      2656 MEMB     71       SAPC     H8X      HAL2     0.900000E-01   1.00800           0
      2657 MEMB     71       SAPC     H8Y      HAL2     0.900000E-01   1.00800           0
      2658 MEMB     71       SAPC     C39      CTL2    -0.180000       12.0110           0
      2659 MEMB     71       SAPC     H9X      HAL2     0.900000E-01   1.00800           0
      2660 MEMB     71       SAPC     H9Y      HAL2     0.900000E-01   1.00800           0
      2661 MEMB     71       SAPC     C310     CTL2    -0.180000       12.0110           0
      2662 MEMB     71       SAPC     H10X     HAL2     0.900000E-01   1.00800           0
      2663 MEMB     71       SAPC     H10Y     HAL2     0.900000E-01   1.00800           0
      2664 MEMB     71       SAPC     C311     CTL2    -0.180000       12.0110           0
      2665 MEMB     71       SAPC     H11X     HAL2     0.900000E-01   1.00800           0
      2666 MEMB     71       SAPC     H11Y     HAL2     0.900000E-01   1.00800           0
      2667 MEMB     71       SAPC     C312     CTL2    -0.180000       12.0110           0
      2668 MEMB     71       SAPC     H12X     HAL2     0.900000E-01   1.00800           0
      2669 MEMB     71       SAPC     H12Y     HAL2     0.900000E-01   1.00800           0
      2670 MEMB     71       SAPC     C313     CTL2    -0.180000       12.0110           0
      2671 MEMB     71       SAPC     H13X     HAL2     0.900000E-01   1.00800           0
      2672 MEMB     71       SAPC     H13Y     HAL2     0.900000E-01   1.00800           0
      2673 MEMB     71       SAPC     C314     CTL2    -0.180000       12.0110           0
      2674 MEMB     71       SAPC     H14X     HAL2     0.900000E-01   1.00800           0
      2675 MEMB     71       SAPC     H14Y     HAL2     0.900000E-01   1.00800           0
      2676 MEMB     71       SAPC     C315     CTL2    -0.180000       12.0110           0
      2677 MEMB     71       SAPC     H15X     HAL2     0.900000E-01   1.00800           0
      2678 MEMB     71       SAPC     H15Y     HAL2     0.900000E-01   1.00800           0
      2679 MEMB     71       SAPC     C316     CTL2    -0.180000       12.0110           0
      2680 MEMB     71       SAPC     H16X     HAL2     0.900000E-01   1.00800           0
      2681 MEMB     71       SAPC     H16Y     HAL2     0.900000E-01   1.00800           0
      2682 MEMB     71       SAPC     C317     CTL2    -0.180000       12.0110           0
      2683 MEMB     71       SAPC     H17X     HAL2     0.900000E-01   1.00800           0
      2684 MEMB     71       SAPC     H17Y     HAL2     0.900000E-01   1.00800           0
      2685 MEMB     71       SAPC     C318     CTL3    -0.270000       12.0110           0
      2686 MEMB     71       SAPC     H18X     HAL3     0.900000E-01   1.00800           0
      2687 MEMB     71       SAPC     H18Y     HAL3     0.900000E-01   1.00800           0
      2688 MEMB     71       SAPC     H18Z     HAL3     0.900000E-01   1.00800           0
      2689 MEMB     75       SAPC     N        NTL     -0.600000       14.0070           0
      2690 MEMB     75       SAPC     C12      CTL2    -0.100000       12.0110           0
      2691 MEMB     75       SAPC     H12A     HL       0.250000       1.00800           0
      2692 MEMB     75       SAPC     H12B     HL       0.250000       1.00800           0
      2693 MEMB     75       SAPC     C13      CTL5    -0.350000       12.0110           0
      2694 MEMB     75       SAPC     H13A     HL       0.250000       1.00800           0
      2695 MEMB     75       SAPC     H13B     HL       0.250000       1.00800           0
      2696 MEMB     75       SAPC     H13C     HL       0.250000       1.00800           0
      2697 MEMB     75       SAPC     C14      CTL5    -0.350000       12.0110           0
      2698 MEMB     75       SAPC     H14A     HL       0.250000       1.00800           0
      2699 MEMB     75       SAPC     H14B     HL       0.250000       1.00800           0
      2700 MEMB     75       SAPC     H14C     HL       0.250000       1.00800           0
      2701 MEMB     75       SAPC     C15      CTL5    -0.350000       12.0110           0
      2702 MEMB     75       SAPC     H15A     HL       0.250000       1.00800           0
      2703 MEMB     75       SAPC     H15B     HL       0.250000       1.00800           0
      2704 MEMB     75       SAPC     H15C     HL       0.250000       1.00800           0
      2705 MEMB     75       SAPC     C11      CTL2    -0.800000E-01   12.0110           0
      2706 MEMB     75       SAPC     H11A     HAL2     0.900000E-01   1.00800           0
      2707 MEMB     75       SAPC     H11B     HAL2     0.900000E-01   1.00800           0
      2708 MEMB     75       SAPC     P        PL       1.500000       30.9740           0
      2709 MEMB     75       SAPC     O13      O2L     -0.780000       15.9994           0
      2710 MEMB     75       SAPC     O14      O2L     -0.780000       15.9994           0
      2711 MEMB     75       SAPC     O12      OSLP    -0.570000       15.9994           0
      2712 MEMB     75       SAPC     O11      OSLP    -0.570000       15.9994           0
      2713 MEMB     75       SAPC     C1       CTL2    -0.800000E-01   12.0110           0
      2714 MEMB     75       SAPC     HA       HAL2     0.900000E-01   1.00800           0
      2715 MEMB     75       SAPC     HB       HAL2     0.900000E-01   1.00800           0
      2716 MEMB     75       SAPC     C2       CTL1     0.170000       12.0110           0
      2717 MEMB     75       SAPC     HS       HAL1     0.900000E-01   1.00800           0
      2718 MEMB     75       SAPC     O21      OSL     -0.490000       15.9994           0
      2719 MEMB     75       SAPC     C21      CL       0.900000       12.0110           0
      2720 MEMB     75       SAPC     O22      OBL     -0.630000       15.9994           0
      2721 MEMB     75       SAPC     C22      CTL2    -0.220000       12.0110           0
      2722 MEMB     75       SAPC     H2R      HAL2     0.900000E-01   1.00800           0
      2723 MEMB     75       SAPC     H2S      HAL2     0.900000E-01   1.00800           0
      2724 MEMB     75       SAPC     C3       CTL2     0.800000E-01   12.0110           0
      2725 MEMB     75       SAPC     HX       HAL2     0.900000E-01   1.00800           0
      2726 MEMB     75       SAPC     HY       HAL2     0.900000E-01   1.00800           0
      2727 MEMB     75       SAPC     O31      OSL     -0.490000       15.9994           0
      2728 MEMB     75       SAPC     C31      CL       0.900000       12.0110           0
      2729 MEMB     75       SAPC     O32      OBL     -0.630000       15.9994           0
      2730 MEMB     75       SAPC     C32      CTL2    -0.220000       12.0110           0
      2731 MEMB     75       SAPC     H2X      HAL2     0.900000E-01   1.00800           0
      2732 MEMB     75       SAPC     H2Y      HAL2     0.900000E-01   1.00800           0
      2733 MEMB     75       SAPC     C23      CTL2    -0.180000       12.0110           0
      2734 MEMB     75       SAPC     H3R      HAL2     0.900000E-01   1.00800           0
      2735 MEMB     75       SAPC     H3S      HAL2     0.900000E-01   1.00800           0
      2736 MEMB     75       SAPC     C24      CTL2    -0.180000       12.0110           0
      2737 MEMB     75       SAPC     H4R      HAL2     0.900000E-01   1.00800           0
      2738 MEMB     75       SAPC     H4S      HAL2     0.900000E-01   1.00800           0
      2739 MEMB     75       SAPC     C25      CEL1    -0.150000       12.0110           0
      2740 MEMB     75       SAPC     H5R      HEL1     0.150000       1.00800           0
      2741 MEMB     75       SAPC     C26      CEL1    -0.150000       12.0110           0
      2742 MEMB     75       SAPC     H6R      HEL1     0.150000       1.00800           0
      2743 MEMB     75       SAPC     C27      CTL2    -0.180000       12.0110           0
      2744 MEMB     75       SAPC     H7R      HAL2     0.900000E-01   1.00800           0
      2745 MEMB     75       SAPC     H7S      HAL2     0.900000E-01   1.00800           0
      2746 MEMB     75       SAPC     C28      CEL1    -0.150000       12.0110           0
      2747 MEMB     75       SAPC     H8R      HEL1     0.150000       1.00800           0
      2748 MEMB     75       SAPC     C29      CEL1    -0.150000       12.0110           0
      2749 MEMB     75       SAPC     H9R      HEL1     0.150000       1.00800           0
      2750 MEMB     75       SAPC     C210     CTL2    -0.180000       12.0110           0
      2751 MEMB     75       SAPC     H10R     HAL2     0.900000E-01   1.00800           0
      2752 MEMB     75       SAPC     H10S     HAL2     0.900000E-01   1.00800           0
      2753 MEMB     75       SAPC     C211     CEL1    -0.150000       12.0110           0
      2754 MEMB     75       SAPC     H11R     HEL1     0.150000       1.00800           0
      2755 MEMB     75       SAPC     C212     CEL1    -0.150000       12.0110           0
      2756 MEMB     75       SAPC     H12R     HEL1     0.150000       1.00800           0
      2757 MEMB     75       SAPC     C213     CTL2    -0.180000       12.0110           0
      2758 MEMB     75       SAPC     H13R     HAL2     0.900000E-01   1.00800           0
      2759 MEMB     75       SAPC     H13S     HAL2     0.900000E-01   1.00800           0
      2760 MEMB     75       SAPC     C214     CEL1    -0.150000       12.0110           0
      2761 MEMB     75       SAPC     H14R     HEL1     0.150000       1.00800           0
      2762 MEMB     75       SAPC     C215     CEL1    -0.150000       12.0110           0
      2763 MEMB     75       SAPC     H15R     HEL1     0.150000       1.00800           0
      2764 MEMB     75       SAPC     C216     CTL2    -0.180000       12.0110           0
      2765 MEMB     75       SAPC     H16R     HAL2     0.900000E-01   1.00800           0
      2766 MEMB     75       SAPC     H16S     HAL2     0.900000E-01   1.00800           0
      2767 MEMB     75       SAPC     C217     CTL2    -0.180000       12.0110           0
      2768 MEMB     75       SAPC     H17R     HAL2     0.900000E-01   1.00800           0
      2769 MEMB     75       SAPC     H17S     HAL2     0.900000E-01   1.00800           0
      2770 MEMB     75       SAPC     C218     CTL2    -0.270000       12.0110           0
      2771 MEMB     75       SAPC     H18R     HAL2     0.900000E-01   1.00800           0
      2772 MEMB     75       SAPC     H18S     HAL2     0.900000E-01   1.00800           0
      2773 MEMB     75       SAPC     C219     CTL2    -0.180000       12.0110           0
      2774 MEMB     75       SAPC     H19R     HAL2     0.900000E-01   1.00800           0
      2775 MEMB     75       SAPC     H19S     HAL2     0.900000E-01   1.00800           0
      2776 MEMB     75       SAPC     C220     CTL3    -0.180000       12.0110           0
      2777 MEMB     75       SAPC     H20R     HAL3     0.900000E-01   1.00800           0
      2778 MEMB     75       SAPC     H20S     HAL3     0.900000E-01   1.00800           0
      2779 MEMB     75       SAPC     H20T     HAL3     0.900000E-01   1.00800           0
      2780 MEMB     75       SAPC     C33      CTL2    -0.180000       12.0110           0
      2781 MEMB     75       SAPC     H3X      HAL2     0.900000E-01   1.00800           0
      2782 MEMB     75       SAPC     H3Y      HAL2     0.900000E-01   1.00800           0
      2783 MEMB     75       SAPC     C34      CTL2    -0.180000       12.0110           0
      2784 MEMB     75       SAPC     H4X      HAL2     0.900000E-01   1.00800           0
      2785 MEMB     75       SAPC     H4Y      HAL2     0.900000E-01   1.00800           0
      2786 MEMB     75       SAPC     C35      CTL2    -0.180000       12.0110           0
      2787 MEMB     75       SAPC     H5X      HAL2     0.900000E-01   1.00800           0
      2788 MEMB     75       SAPC     H5Y      HAL2     0.900000E-01   1.00800           0
      2789 MEMB     75       SAPC     C36      CTL2    -0.180000       12.0110           0
      2790 MEMB     75       SAPC     H6X      HAL2     0.900000E-01   1.00800           0
      2791 MEMB     75       SAPC     H6Y      HAL2     0.900000E-01   1.00800           0
      2792 MEMB     75       SAPC     C37      CTL2    -0.180000       12.0110           0
      2793 MEMB     75       SAPC     H7X      HAL2     0.900000E-01   1.00800           0
      2794 MEMB     75       SAPC     H7Y      HAL2     0.900000E-01   1.00800           0
      2795 MEMB     75       SAPC     C38      CTL2    -0.180000       12.0110           0
      2796 MEMB     75       SAPC     H8X      HAL2     0.900000E-01   1.00800           0
      2797 MEMB     75       SAPC     H8Y      HAL2     0.900000E-01   1.00800           0
      2798 MEMB     75       SAPC     C39      CTL2    -0.180000       12.0110           0
      2799 MEMB     75       SAPC     H9X      HAL2     0.900000E-01   1.00800           0
      2800 MEMB     75       SAPC     H9Y      HAL2     0.900000E-01   1.00800           0
      2801 MEMB     75       SAPC     C310     CTL2    -0.180000       12.0110           0
      2802 MEMB     75       SAPC     H10X     HAL2     0.900000E-01   1.00800           0
      2803 MEMB     75       SAPC     H10Y     HAL2     0.900000E-01   1.00800           0
      2804 MEMB     75       SAPC     C311     CTL2    -0.180000       12.0110           0
      2805 MEMB     75       SAPC     H11X     HAL2     0.900000E-01   1.00800           0
      2806 MEMB     75       SAPC     H11Y     HAL2     0.900000E-01   1.00800           0
      2807 MEMB     75       SAPC     C312     CTL2    -0.180000       12.0110           0
      2808 MEMB     75       SAPC     H12X     HAL2     0.900000E-01   1.00800           0
      2809 MEMB     75       SAPC     H12Y     HAL2     0.900000E-01   1.00800           0
      2810 MEMB     75       SAPC     C313     CTL2    -0.180000       12.0110           0
      2811 MEMB     75       SAPC     H13X     HAL2     0.900000E-01   1.00800           0
      2812 MEMB     75       SAPC     H13Y     HAL2     0.900000E-01   1.00800           0
      2813 MEMB     75       SAPC     C314     CTL2    -0.180000       12.0110           0
      2814 MEMB     75       SAPC     H14X     HAL2     0.900000E-01   1.00800           0
      2815 MEMB     75       SAPC     H14Y     HAL2     0.900000E-01   1.00800           0
      2816 MEMB     75       SAPC     C315     CTL2    -0.180000       12.0110           0
      2817 MEMB     75       SAPC     H15X     HAL2     0.900000E-01   1.00800           0
      2818 MEMB     75       SAPC     H15Y     HAL2     0.900000E-01   1.00800           0
      2819 MEMB     75       SAPC     C316     CTL2    -0.180000       12.0110           0
      2820 MEMB     75       SAPC     H16X     HAL2     0.900000E-01   1.00800           0
      2821 MEMB     75       SAPC     H16Y     HAL2     0.900000E-01   1.00800           0
      2822 MEMB     75       SAPC     C317     CTL2    -0.180000       12.0110           0
      2823 MEMB     75       SAPC     H17X     HAL2     0.900000E-01   1.00800           0
      2824 MEMB     75       SAPC     H17Y     HAL2     0.900000E-01   1.00800           0
      2825 MEMB     75       SAPC     C318     CTL3    -0.270000       12.0110           0
      2826 MEMB     75       SAPC     H18X     HAL3     0.900000E-01   1.00800           0
      2827 MEMB     75       SAPC     H18Y     HAL3     0.900000E-01   1.00800           0
      2828 MEMB     75       SAPC     H18Z     HAL3     0.900000E-01   1.00800           0
      2829 MEMB     81       SAPC     N        NTL     -0.600000       14.0070           0
      2830 MEMB     81       SAPC     C12      CTL2    -0.100000       12.0110           0
      2831 MEMB     81       SAPC     H12A     HL       0.250000       1.00800           0
      2832 MEMB     81       SAPC     H12B     HL       0.250000       1.00800           0
      2833 MEMB     81       SAPC     C13      CTL5    -0.350000       12.0110           0
      2834 MEMB     81       SAPC     H13A     HL       0.250000       1.00800           0
      2835 MEMB     81       SAPC     H13B     HL       0.250000       1.00800           0
      2836 MEMB     81       SAPC     H13C     HL       0.250000       1.00800           0
      2837 MEMB     81       SAPC     C14      CTL5    -0.350000       12.0110           0
      2838 MEMB     81       SAPC     H14A     HL       0.250000       1.00800           0
      2839 MEMB     81       SAPC     H14B     HL       0.250000       1.00800           0
      2840 MEMB     81       SAPC     H14C     HL       0.250000       1.00800           0
      2841 MEMB     81       SAPC     C15      CTL5    -0.350000       12.0110           0
      2842 MEMB     81       SAPC     H15A     HL       0.250000       1.00800           0
      2843 MEMB     81       SAPC     H15B     HL       0.250000       1.00800           0
      2844 MEMB     81       SAPC     H15C     HL       0.250000       1.00800           0
      2845 MEMB     81       SAPC     C11      CTL2    -0.800000E-01   12.0110           0
      2846 MEMB     81       SAPC     H11A     HAL2     0.900000E-01   1.00800           0
      2847 MEMB     81       SAPC     H11B     HAL2     0.900000E-01   1.00800           0
      2848 MEMB     81       SAPC     P        PL       1.500000       30.9740           0
      2849 MEMB     81       SAPC     O13      O2L     -0.780000       15.9994           0
      2850 MEMB     81       SAPC     O14      O2L     -0.780000       15.9994           0
      2851 MEMB     81       SAPC     O12      OSLP    -0.570000       15.9994           0
      2852 MEMB     81       SAPC     O11      OSLP    -0.570000       15.9994           0
      2853 MEMB     81       SAPC     C1       CTL2    -0.800000E-01   12.0110           0
      2854 MEMB     81       SAPC     HA       HAL2     0.900000E-01   1.00800           0
      2855 MEMB     81       SAPC     HB       HAL2     0.900000E-01   1.00800           0
      2856 MEMB     81       SAPC     C2       CTL1     0.170000       12.0110           0
      2857 MEMB     81       SAPC     HS       HAL1     0.900000E-01   1.00800           0
      2858 MEMB     81       SAPC     O21      OSL     -0.490000       15.9994           0
      2859 MEMB     81       SAPC     C21      CL       0.900000       12.0110           0
      2860 MEMB     81       SAPC     O22      OBL     -0.630000       15.9994           0
      2861 MEMB     81       SAPC     C22      CTL2    -0.220000       12.0110           0
      2862 MEMB     81       SAPC     H2R      HAL2     0.900000E-01   1.00800           0
      2863 MEMB     81       SAPC     H2S      HAL2     0.900000E-01   1.00800           0
      2864 MEMB     81       SAPC     C3       CTL2     0.800000E-01   12.0110           0
      2865 MEMB     81       SAPC     HX       HAL2     0.900000E-01   1.00800           0
      2866 MEMB     81       SAPC     HY       HAL2     0.900000E-01   1.00800           0
      2867 MEMB     81       SAPC     O31      OSL     -0.490000       15.9994           0
      2868 MEMB     81       SAPC     C31      CL       0.900000       12.0110           0
      2869 MEMB     81       SAPC     O32      OBL     -0.630000       15.9994           0
      2870 MEMB     81       SAPC     C32      CTL2    -0.220000       12.0110           0
      2871 MEMB     81       SAPC     H2X      HAL2     0.900000E-01   1.00800           0
      2872 MEMB     81       SAPC     H2Y      HAL2     0.900000E-01   1.00800           0
      2873 MEMB     81       SAPC     C23      CTL2    -0.180000       12.0110           0
      2874 MEMB     81       SAPC     H3R      HAL2     0.900000E-01   1.00800           0
      2875 MEMB     81       SAPC     H3S      HAL2     0.900000E-01   1.00800           0
      2876 MEMB     81       SAPC     C24      CTL2    -0.180000       12.0110           0
      2877 MEMB     81       SAPC     H4R      HAL2     0.900000E-01   1.00800           0
      2878 MEMB     81       SAPC     H4S      HAL2     0.900000E-01   1.00800           0
      2879 MEMB     81       SAPC     C25      CEL1    -0.150000       12.0110           0
      2880 MEMB     81       SAPC     H5R      HEL1     0.150000       1.00800           0
      2881 MEMB     81       SAPC     C26      CEL1    -0.150000       12.0110           0
      2882 MEMB     81       SAPC     H6R      HEL1     0.150000       1.00800           0
      2883 MEMB     81       SAPC     C27      CTL2    -0.180000       12.0110           0
      2884 MEMB     81       SAPC     H7R      HAL2     0.900000E-01   1.00800           0
      2885 MEMB     81       SAPC     H7S      HAL2     0.900000E-01   1.00800           0
      2886 MEMB     81       SAPC     C28      CEL1    -0.150000       12.0110           0
      2887 MEMB     81       SAPC     H8R      HEL1     0.150000       1.00800           0
      2888 MEMB     81       SAPC     C29      CEL1    -0.150000       12.0110           0
      2889 MEMB     81       SAPC     H9R      HEL1     0.150000       1.00800           0
      2890 MEMB     81       SAPC     C210     CTL2    -0.180000       12.0110           0
      2891 MEMB     81       SAPC     H10R     HAL2     0.900000E-01   1.00800           0
      2892 MEMB     81       SAPC     H10S     HAL2     0.900000E-01   1.00800           0
      2893 MEMB     81       SAPC     C211     CEL1    -0.150000       12.0110           0
      2894 MEMB     81       SAPC     H11R     HEL1     0.150000       1.00800           0
      2895 MEMB     81       SAPC     C212     CEL1    -0.150000       12.0110           0
      2896 MEMB     81       SAPC     H12R     HEL1     0.150000       1.00800           0
      2897 MEMB     81       SAPC     C213     CTL2    -0.180000       12.0110           0
      2898 MEMB     81       SAPC     H13R     HAL2     0.900000E-01   1.00800           0
      2899 MEMB     81       SAPC     H13S     HAL2     0.900000E-01   1.00800           0
      2900 MEMB     81       SAPC     C214     CEL1    -0.150000       12.0110           0
      2901 MEMB     81       SAPC     H14R     HEL1     0.150000       1.00800           0
      2902 MEMB     81       SAPC     C215     CEL1    -0.150000       12.0110           0
      2903 MEMB     81       SAPC     H15R     HEL1     0.150000       1.00800           0
      2904 MEMB     81       SAPC     C216     CTL2    -0.180000       12.0110           0
      2905 MEMB     81       SAPC     H16R     HAL2     0.900000E-01   1.00800           0
      2906 MEMB     81       SAPC     H16S     HAL2     0.900000E-01   1.00800           0
      2907 MEMB     81       SAPC     C217     CTL2    -0.180000       12.0110           0
      2908 MEMB     81       SAPC     H17R     HAL2     0.900000E-01   1.00800           0
      2909 MEMB     81       SAPC     H17S     HAL2     0.900000E-01   1.00800           0
      2910 MEMB     81       SAPC     C218     CTL2    -0.270000       12.0110           0
      2911 MEMB     81       SAPC     H18R     HAL2     0.900000E-01   1.00800           0
      2912 MEMB     81       SAPC     H18S     HAL2     0.900000E-01   1.00800           0
      2913 MEMB     81       SAPC     C219     CTL2    -0.180000       12.0110           0
      2914 MEMB     81       SAPC     H19R     HAL2     0.900000E-01   1.00800           0
      2915 MEMB     81       SAPC     H19S     HAL2     0.900000E-01   1.00800           0
      2916 MEMB     81       SAPC     C220     CTL3    -0.180000       12.0110           0
      2917 MEMB     81       SAPC     H20R     HAL3     0.900000E-01   1.00800           0
      2918 MEMB     81       SAPC     H20S     HAL3     0.900000E-01   1.00800           0
      2919 MEMB     81       SAPC     H20T     HAL3     0.900000E-01   1.00800           0
      2920 MEMB     81       SAPC     C33      CTL2    -0.180000       12.0110           0
      2921 MEMB     81       SAPC     H3X      HAL2     0.900000E-01   1.00800           0
      2922 MEMB     81       SAPC     H3Y      HAL2     0.900000E-01   1.00800           0
      2923 MEMB     81       SAPC     C34      CTL2    -0.180000       12.0110           0
      2924 MEMB     81       SAPC     H4X      HAL2     0.900000E-01   1.00800           0
      2925 MEMB     81       SAPC     H4Y      HAL2     0.900000E-01   1.00800           0
      2926 MEMB     81       SAPC     C35      CTL2    -0.180000       12.0110           0
      2927 MEMB     81       SAPC     H5X      HAL2     0.900000E-01   1.00800           0
      2928 MEMB     81       SAPC     H5Y      HAL2     0.900000E-01   1.00800           0
      2929 MEMB     81       SAPC     C36      CTL2    -0.180000       12.0110           0
      2930 MEMB     81       SAPC     H6X      HAL2     0.900000E-01   1.00800           0
      2931 MEMB     81       SAPC     H6Y      HAL2     0.900000E-01   1.00800           0
      2932 MEMB     81       SAPC     C37      CTL2    -0.180000       12.0110           0
      2933 MEMB     81       SAPC     H7X      HAL2     0.900000E-01   1.00800           0
      2934 MEMB     81       SAPC     H7Y      HAL2     0.900000E-01   1.00800           0
      2935 MEMB     81       SAPC     C38      CTL2    -0.180000       12.0110           0
      2936 MEMB     81       SAPC     H8X      HAL2     0.900000E-01   1.00800           0
      2937 MEMB     81       SAPC     H8Y      HAL2     0.900000E-01   1.00800           0
      2938 MEMB     81       SAPC     C39      CTL2    -0.180000       12.0110           0
      2939 MEMB     81       SAPC     H9X      HAL2     0.900000E-01   1.00800           0
      2940 MEMB     81       SAPC     H9Y      HAL2     0.900000E-01   1.00800           0
      2941 MEMB     81       SAPC     C310     CTL2    -0.180000       12.0110           0
      2942 MEMB     81       SAPC     H10X     HAL2     0.900000E-01   1.00800           0
      2943 MEMB     81       SAPC     H10Y     HAL2     0.900000E-01   1.00800           0
      2944 MEMB     81       SAPC     C311     CTL2    -0.180000       12.0110           0
      2945 MEMB     81       SAPC     H11X     HAL2     0.900000E-01   1.00800           0
      2946 MEMB     81       SAPC     H11Y     HAL2     0.900000E-01   1.00800           0
      2947 MEMB     81       SAPC     C312     CTL2    -0.180000       12.0110           0
      2948 MEMB     81       SAPC     H12X     HAL2     0.900000E-01   1.00800           0
      2949 MEMB     81       SAPC     H12Y     HAL2     0.900000E-01   1.00800           0
      2950 MEMB     81       SAPC     C313     CTL2    -0.180000       12.0110           0
      2951 MEMB     81       SAPC     H13X     HAL2     0.900000E-01   1.00800           0
      2952 MEMB     81       SAPC     H13Y     HAL2     0.900000E-01   1.00800           0
      2953 MEMB     81       SAPC     C314     CTL2    -0.180000       12.0110           0
      2954 MEMB     81       SAPC     H14X     HAL2     0.900000E-01   1.00800           0
      2955 MEMB     81       SAPC     H14Y     HAL2     0.900000E-01   1.00800           0
      2956 MEMB     81       SAPC     C315     CTL2    -0.180000       12.0110           0
      2957 MEMB     81       SAPC     H15X     HAL2     0.900000E-01   1.00800           0
      2958 MEMB     81       SAPC     H15Y     HAL2     0.900000E-01   1.00800           0
      2959 MEMB     81       SAPC     C316     CTL2    -0.180000       12.0110           0
      2960 MEMB     81       SAPC     H16X     HAL2     0.900000E-01   1.00800           0
      2961 MEMB     81       SAPC     H16Y     HAL2     0.900000E-01   1.00800           0
      2962 MEMB     81       SAPC     C317     CTL2    -0.180000       12.0110           0
      2963 MEMB     81       SAPC     H17X     HAL2     0.900000E-01   1.00800           0
      2964 MEMB     81       SAPC     H17Y     HAL2     0.900000E-01   1.00800           0
      2965 MEMB     81       SAPC     C318     CTL3    -0.270000       12.0110           0
      2966 MEMB     81       SAPC     H18X     HAL3     0.900000E-01   1.00800           0
      2967 MEMB     81       SAPC     H18Y     HAL3     0.900000E-01   1.00800           0
      2968 MEMB     81       SAPC     H18Z     HAL3     0.900000E-01   1.00800           0
      2969 MEMB     86       SAPC     N        NTL     -0.600000       14.0070           0
      2970 MEMB     86       SAPC     C12      CTL2    -0.100000       12.0110           0
      2971 MEMB     86       SAPC     H12A     HL       0.250000       1.00800           0
      2972 MEMB     86       SAPC     H12B     HL       0.250000       1.00800           0
      2973 MEMB     86       SAPC     C13      CTL5    -0.350000       12.0110           0
      2974 MEMB     86       SAPC     H13A     HL       0.250000       1.00800           0
      2975 MEMB     86       SAPC     H13B     HL       0.250000       1.00800           0
      2976 MEMB     86       SAPC     H13C     HL       0.250000       1.00800           0
      2977 MEMB     86       SAPC     C14      CTL5    -0.350000       12.0110           0
      2978 MEMB     86       SAPC     H14A     HL       0.250000       1.00800           0
      2979 MEMB     86       SAPC     H14B     HL       0.250000       1.00800           0
      2980 MEMB     86       SAPC     H14C     HL       0.250000       1.00800           0
      2981 MEMB     86       SAPC     C15      CTL5    -0.350000       12.0110           0
      2982 MEMB     86       SAPC     H15A     HL       0.250000       1.00800           0
      2983 MEMB     86       SAPC     H15B     HL       0.250000       1.00800           0
      2984 MEMB     86       SAPC     H15C     HL       0.250000       1.00800           0
      2985 MEMB     86       SAPC     C11      CTL2    -0.800000E-01   12.0110           0
      2986 MEMB     86       SAPC     H11A     HAL2     0.900000E-01   1.00800           0
      2987 MEMB     86       SAPC     H11B     HAL2     0.900000E-01   1.00800           0
      2988 MEMB     86       SAPC     P        PL       1.500000       30.9740           0
      2989 MEMB     86       SAPC     O13      O2L     -0.780000       15.9994           0
      2990 MEMB     86       SAPC     O14      O2L     -0.780000       15.9994           0
      2991 MEMB     86       SAPC     O12      OSLP    -0.570000       15.9994           0
      2992 MEMB     86       SAPC     O11      OSLP    -0.570000       15.9994           0
      2993 MEMB     86       SAPC     C1       CTL2    -0.800000E-01   12.0110           0
      2994 MEMB     86       SAPC     HA       HAL2     0.900000E-01   1.00800           0
      2995 MEMB     86       SAPC     HB       HAL2     0.900000E-01   1.00800           0
      2996 MEMB     86       SAPC     C2       CTL1     0.170000       12.0110           0
      2997 MEMB     86       SAPC     HS       HAL1     0.900000E-01   1.00800           0
      2998 MEMB     86       SAPC     O21      OSL     -0.490000       15.9994           0
      2999 MEMB     86       SAPC     C21      CL       0.900000       12.0110           0
      3000 MEMB     86       SAPC     O22      OBL     -0.630000       15.9994           0
      3001 MEMB     86       SAPC     C22      CTL2    -0.220000       12.0110           0
      3002 MEMB     86       SAPC     H2R      HAL2     0.900000E-01   1.00800           0
      3003 MEMB     86       SAPC     H2S      HAL2     0.900000E-01   1.00800           0
      3004 MEMB     86       SAPC     C3       CTL2     0.800000E-01   12.0110           0
      3005 MEMB     86       SAPC     HX       HAL2     0.900000E-01   1.00800           0
      3006 MEMB     86       SAPC     HY       HAL2     0.900000E-01   1.00800           0
      3007 MEMB     86       SAPC     O31      OSL     -0.490000       15.9994           0
      3008 MEMB     86       SAPC     C31      CL       0.900000       12.0110           0
      3009 MEMB     86       SAPC     O32      OBL     -0.630000       15.9994           0
      3010 MEMB     86       SAPC     C32      CTL2    -0.220000       12.0110           0
      3011 MEMB     86       SAPC     H2X      HAL2     0.900000E-01   1.00800           0
      3012 MEMB     86       SAPC     H2Y      HAL2     0.900000E-01   1.00800           0
      3013 MEMB     86       SAPC     C23      CTL2    -0.180000       12.0110           0
      3014 MEMB     86       SAPC     H3R      HAL2     0.900000E-01   1.00800           0
      3015 MEMB     86       SAPC     H3S      HAL2     0.900000E-01   1.00800           0
      3016 MEMB     86       SAPC     C24      CTL2    -0.180000       12.0110           0
      3017 MEMB     86       SAPC     H4R      HAL2     0.900000E-01   1.00800           0
      3018 MEMB     86       SAPC     H4S      HAL2     0.900000E-01   1.00800           0
      3019 MEMB     86       SAPC     C25      CEL1    -0.150000       12.0110           0
      3020 MEMB     86       SAPC     H5R      HEL1     0.150000       1.00800           0
      3021 MEMB     86       SAPC     C26      CEL1    -0.150000       12.0110           0
      3022 MEMB     86       SAPC     H6R      HEL1     0.150000       1.00800           0
      3023 MEMB     86       SAPC     C27      CTL2    -0.180000       12.0110           0
      3024 MEMB     86       SAPC     H7R      HAL2     0.900000E-01   1.00800           0
      3025 MEMB     86       SAPC     H7S      HAL2     0.900000E-01   1.00800           0
      3026 MEMB     86       SAPC     C28      CEL1    -0.150000       12.0110           0
      3027 MEMB     86       SAPC     H8R      HEL1     0.150000       1.00800           0
      3028 MEMB     86       SAPC     C29      CEL1    -0.150000       12.0110           0
      3029 MEMB     86       SAPC     H9R      HEL1     0.150000       1.00800           0
      3030 MEMB     86       SAPC     C210     CTL2    -0.180000       12.0110           0
      3031 MEMB     86       SAPC     H10R     HAL2     0.900000E-01   1.00800           0
      3032 MEMB     86       SAPC     H10S     HAL2     0.900000E-01   1.00800           0
      3033 MEMB     86       SAPC     C211     CEL1    -0.150000       12.0110           0
      3034 MEMB     86       SAPC     H11R     HEL1     0.150000       1.00800           0
      3035 MEMB     86       SAPC     C212     CEL1    -0.150000       12.0110           0
      3036 MEMB     86       SAPC     H12R     HEL1     0.150000       1.00800           0
      3037 MEMB     86       SAPC     C213     CTL2    -0.180000       12.0110           0
      3038 MEMB     86       SAPC     H13R     HAL2     0.900000E-01   1.00800           0
      3039 MEMB     86       SAPC     H13S     HAL2     0.900000E-01   1.00800           0
      3040 MEMB     86       SAPC     C214     CEL1    -0.150000       12.0110           0
      3041 MEMB     86       SAPC     H14R     HEL1     0.150000       1.00800           0
      3042 MEMB     86       SAPC     C215     CEL1    -0.150000       12.0110           0
      3043 MEMB     86       SAPC     H15R     HEL1     0.150000       1.00800           0
      3044 MEMB     86       SAPC     C216     CTL2    -0.180000       12.0110           0
      3045 MEMB     86       SAPC     H16R     HAL2     0.900000E-01   1.00800           0
      3046 MEMB     86       SAPC     H16S     HAL2     0.900000E-01   1.00800           0
      3047 MEMB     86       SAPC     C217     CTL2    -0.180000       12.0110           0
      3048 MEMB     86       SAPC     H17R     HAL2     0.900000E-01   1.00800           0
      3049 MEMB     86       SAPC     H17S     HAL2     0.900000E-01   1.00800           0
      3050 MEMB     86       SAPC     C218     CTL2    -0.270000       12.0110           0
      3051 MEMB     86       SAPC     H18R     HAL2     0.900000E-01   1.00800           0
      3052 MEMB     86       SAPC     H18S     HAL2     0.900000E-01   1.00800           0
      3053 MEMB     86       SAPC     C219     CTL2    -0.180000       12.0110           0
      3054 MEMB     86       SAPC     H19R     HAL2     0.900000E-01   1.00800           0
      3055 MEMB     86       SAPC     H19S     HAL2     0.900000E-01   1.00800           0
      3056 MEMB     86       SAPC     C220     CTL3    -0.180000       12.0110           0
      3057 MEMB     86       SAPC     H20R     HAL3     0.900000E-01   1.00800           0
      3058 MEMB     86       SAPC     H20S     HAL3     0.900000E-01   1.00800           0
      3059 MEMB     86       SAPC     H20T     HAL3     0.900000E-01   1.00800           0
      3060 MEMB     86       SAPC     C33      CTL2    -0.180000       12.0110           0
      3061 MEMB     86       SAPC     H3X      HAL2     0.900000E-01   1.00800           0
      3062 MEMB     86       SAPC     H3Y      HAL2     0.900000E-01   1.00800           0
      3063 MEMB     86       SAPC     C34      CTL2    -0.180000       12.0110           0
      3064 MEMB     86       SAPC     H4X      HAL2     0.900000E-01   1.00800           0
      3065 MEMB     86       SAPC     H4Y      HAL2     0.900000E-01   1.00800           0
      3066 MEMB     86       SAPC     C35      CTL2    -0.180000       12.0110           0
      3067 MEMB     86       SAPC     H5X      HAL2     0.900000E-01   1.00800           0
      3068 MEMB     86       SAPC     H5Y      HAL2     0.900000E-01   1.00800           0
      3069 MEMB     86       SAPC     C36      CTL2    -0.180000       12.0110           0
      3070 MEMB     86       SAPC     H6X      HAL2     0.900000E-01   1.00800           0
      3071 MEMB     86       SAPC     H6Y      HAL2     0.900000E-01   1.00800           0
      3072 MEMB     86       SAPC     C37      CTL2    -0.180000       12.0110           0
      3073 MEMB     86       SAPC     H7X      HAL2     0.900000E-01   1.00800           0
      3074 MEMB     86       SAPC     H7Y      HAL2     0.900000E-01   1.00800           0
      3075 MEMB     86       SAPC     C38      CTL2    -0.180000       12.0110           0
      3076 MEMB     86       SAPC     H8X      HAL2     0.900000E-01   1.00800           0
      3077 MEMB     86       SAPC     H8Y      HAL2     0.900000E-01   1.00800           0
      3078 MEMB     86       SAPC     C39      CTL2    -0.180000       12.0110           0
      3079 MEMB     86       SAPC     H9X      HAL2     0.900000E-01   1.00800           0
      3080 MEMB     86       SAPC     H9Y      HAL2     0.900000E-01   1.00800           0
      3081 MEMB     86       SAPC     C310     CTL2    -0.180000       12.0110           0
      3082 MEMB     86       SAPC     H10X     HAL2     0.900000E-01   1.00800           0
      3083 MEMB     86       SAPC     H10Y     HAL2     0.900000E-01   1.00800           0
      3084 MEMB     86       SAPC     C311     CTL2    -0.180000       12.0110           0
      3085 MEMB     86       SAPC     H11X     HAL2     0.900000E-01   1.00800           0
      3086 MEMB     86       SAPC     H11Y     HAL2     0.900000E-01   1.00800           0
      3087 MEMB     86       SAPC     C312     CTL2    -0.180000       12.0110           0
      3088 MEMB     86       SAPC     H12X     HAL2     0.900000E-01   1.00800           0
      3089 MEMB     86       SAPC     H12Y     HAL2     0.900000E-01   1.00800           0
      3090 MEMB     86       SAPC     C313     CTL2    -0.180000       12.0110           0
      3091 MEMB     86       SAPC     H13X     HAL2     0.900000E-01   1.00800           0
      3092 MEMB     86       SAPC     H13Y     HAL2     0.900000E-01   1.00800           0
      3093 MEMB     86       SAPC     C314     CTL2    -0.180000       12.0110           0
      3094 MEMB     86       SAPC     H14X     HAL2     0.900000E-01   1.00800           0
      3095 MEMB     86       SAPC     H14Y     HAL2     0.900000E-01   1.00800           0
      3096 MEMB     86       SAPC     C315     CTL2    -0.180000       12.0110           0
      3097 MEMB     86       SAPC     H15X     HAL2     0.900000E-01   1.00800           0
      3098 MEMB     86       SAPC     H15Y     HAL2     0.900000E-01   1.00800           0
      3099 MEMB     86       SAPC     C316     CTL2    -0.180000       12.0110           0
      3100 MEMB     86       SAPC     H16X     HAL2     0.900000E-01   1.00800           0
      3101 MEMB     86       SAPC     H16Y     HAL2     0.900000E-01   1.00800           0
      3102 MEMB     86       SAPC     C317     CTL2    -0.180000       12.0110           0
      3103 MEMB     86       SAPC     H17X     HAL2     0.900000E-01   1.00800           0
      3104 MEMB     86       SAPC     H17Y     HAL2     0.900000E-01   1.00800           0
      3105 MEMB     86       SAPC     C318     CTL3    -0.270000       12.0110           0
      3106 MEMB     86       SAPC     H18X     HAL3     0.900000E-01   1.00800           0
      3107 MEMB     86       SAPC     H18Y     HAL3     0.900000E-01   1.00800           0
      3108 MEMB     86       SAPC     H18Z     HAL3     0.900000E-01   1.00800           0
      3109 MEMB     95       SAPC     N        NTL     -0.600000       14.0070           0
      3110 MEMB     95       SAPC     C12      CTL2    -0.100000       12.0110           0
      3111 MEMB     95       SAPC     H12A     HL       0.250000       1.00800           0
      3112 MEMB     95       SAPC     H12B     HL       0.250000       1.00800           0
      3113 MEMB     95       SAPC     C13      CTL5    -0.350000       12.0110           0
      3114 MEMB     95       SAPC     H13A     HL       0.250000       1.00800           0
      3115 MEMB     95       SAPC     H13B     HL       0.250000       1.00800           0
      3116 MEMB     95       SAPC     H13C     HL       0.250000       1.00800           0
      3117 MEMB     95       SAPC     C14      CTL5    -0.350000       12.0110           0
      3118 MEMB     95       SAPC     H14A     HL       0.250000       1.00800           0
      3119 MEMB     95       SAPC     H14B     HL       0.250000       1.00800           0
      3120 MEMB     95       SAPC     H14C     HL       0.250000       1.00800           0
      3121 MEMB     95       SAPC     C15      CTL5    -0.350000       12.0110           0
      3122 MEMB     95       SAPC     H15A     HL       0.250000       1.00800           0
      3123 MEMB     95       SAPC     H15B     HL       0.250000       1.00800           0
      3124 MEMB     95       SAPC     H15C     HL       0.250000       1.00800           0
      3125 MEMB     95       SAPC     C11      CTL2    -0.800000E-01   12.0110           0
      3126 MEMB     95       SAPC     H11A     HAL2     0.900000E-01   1.00800           0
      3127 MEMB     95       SAPC     H11B     HAL2     0.900000E-01   1.00800           0
      3128 MEMB     95       SAPC     P        PL       1.500000       30.9740           0
      3129 MEMB     95       SAPC     O13      O2L     -0.780000       15.9994           0
      3130 MEMB     95       SAPC     O14      O2L     -0.780000       15.9994           0
      3131 MEMB     95       SAPC     O12      OSLP    -0.570000       15.9994           0
      3132 MEMB     95       SAPC     O11      OSLP    -0.570000       15.9994           0
      3133 MEMB     95       SAPC     C1       CTL2    -0.800000E-01   12.0110           0
      3134 MEMB     95       SAPC     HA       HAL2     0.900000E-01   1.00800           0
      3135 MEMB     95       SAPC     HB       HAL2     0.900000E-01   1.00800           0
      3136 MEMB     95       SAPC     C2       CTL1     0.170000       12.0110           0
      3137 MEMB     95       SAPC     HS       HAL1     0.900000E-01   1.00800           0
      3138 MEMB     95       SAPC     O21      OSL     -0.490000       15.9994           0
      3139 MEMB     95       SAPC     C21      CL       0.900000       12.0110           0
      3140 MEMB     95       SAPC     O22      OBL     -0.630000       15.9994           0
      3141 MEMB     95       SAPC     C22      CTL2    -0.220000       12.0110           0
      3142 MEMB     95       SAPC     H2R      HAL2     0.900000E-01   1.00800           0
      3143 MEMB     95       SAPC     H2S      HAL2     0.900000E-01   1.00800           0
      3144 MEMB     95       SAPC     C3       CTL2     0.800000E-01   12.0110           0
      3145 MEMB     95       SAPC     HX       HAL2     0.900000E-01   1.00800           0
      3146 MEMB     95       SAPC     HY       HAL2     0.900000E-01   1.00800           0
      3147 MEMB     95       SAPC     O31      OSL     -0.490000       15.9994           0
      3148 MEMB     95       SAPC     C31      CL       0.900000       12.0110           0
      3149 MEMB     95       SAPC     O32      OBL     -0.630000       15.9994           0
      3150 MEMB     95       SAPC     C32      CTL2    -0.220000       12.0110           0
      3151 MEMB     95       SAPC     H2X      HAL2     0.900000E-01   1.00800           0
      3152 MEMB     95       SAPC     H2Y      HAL2     0.900000E-01   1.00800           0
      3153 MEMB     95       SAPC     C23      CTL2    -0.180000       12.0110           0
      3154 MEMB     95       SAPC     H3R      HAL2     0.900000E-01   1.00800           0
      3155 MEMB     95       SAPC     H3S      HAL2     0.900000E-01   1.00800           0
      3156 MEMB     95       SAPC     C24      CTL2    -0.180000       12.0110           0
      3157 MEMB     95       SAPC     H4R      HAL2     0.900000E-01   1.00800           0
      3158 MEMB     95       SAPC     H4S      HAL2     0.900000E-01   1.00800           0
      3159 MEMB     95       SAPC     C25      CEL1    -0.150000       12.0110           0
      3160 MEMB     95       SAPC     H5R      HEL1     0.150000       1.00800           0
      3161 MEMB     95       SAPC     C26      CEL1    -0.150000       12.0110           0
      3162 MEMB     95       SAPC     H6R      HEL1     0.150000       1.00800           0
      3163 MEMB     95       SAPC     C27      CTL2    -0.180000       12.0110           0
      3164 MEMB     95       SAPC     H7R      HAL2     0.900000E-01   1.00800           0
      3165 MEMB     95       SAPC     H7S      HAL2     0.900000E-01   1.00800           0
      3166 MEMB     95       SAPC     C28      CEL1    -0.150000       12.0110           0
      3167 MEMB     95       SAPC     H8R      HEL1     0.150000       1.00800           0
      3168 MEMB     95       SAPC     C29      CEL1    -0.150000       12.0110           0
      3169 MEMB     95       SAPC     H9R      HEL1     0.150000       1.00800           0
      3170 MEMB     95       SAPC     C210     CTL2    -0.180000       12.0110           0
      3171 MEMB     95       SAPC     H10R     HAL2     0.900000E-01   1.00800           0
      3172 MEMB     95       SAPC     H10S     HAL2     0.900000E-01   1.00800           0
      3173 MEMB     95       SAPC     C211     CEL1    -0.150000       12.0110           0
      3174 MEMB     95       SAPC     H11R     HEL1     0.150000       1.00800           0
      3175 MEMB     95       SAPC     C212     CEL1    -0.150000       12.0110           0
      3176 MEMB     95       SAPC     H12R     HEL1     0.150000       1.00800           0
      3177 MEMB     95       SAPC     C213     CTL2    -0.180000       12.0110           0
      3178 MEMB     95       SAPC     H13R     HAL2     0.900000E-01   1.00800           0
      3179 MEMB     95       SAPC     H13S     HAL2     0.900000E-01   1.00800           0
      3180 MEMB     95       SAPC     C214     CEL1    -0.150000       12.0110           0
      3181 MEMB     95       SAPC     H14R     HEL1     0.150000       1.00800           0
      3182 MEMB     95       SAPC     C215     CEL1    -0.150000       12.0110           0
      3183 MEMB     95       SAPC     H15R     HEL1     0.150000       1.00800           0
      3184 MEMB     95       SAPC     C216     CTL2    -0.180000       12.0110           0
      3185 MEMB     95       SAPC     H16R     HAL2     0.900000E-01   1.00800           0
      3186 MEMB     95       SAPC     H16S     HAL2     0.900000E-01   1.00800           0
      3187 MEMB     95       SAPC     C217     CTL2    -0.180000       12.0110           0
      3188 MEMB     95       SAPC     H17R     HAL2     0.900000E-01   1.00800           0
      3189 MEMB     95       SAPC     H17S     HAL2     0.900000E-01   1.00800           0
      3190 MEMB     95       SAPC     C218     CTL2    -0.270000       12.0110           0
      3191 MEMB     95       SAPC     H18R     HAL2     0.900000E-01   1.00800           0
      3192 MEMB     95       SAPC     H18S     HAL2     0.900000E-01   1.00800           0
      3193 MEMB     95       SAPC     C219     CTL2    -0.180000       12.0110           0
      3194 MEMB     95       SAPC     H19R     HAL2     0.900000E-01   1.00800           0
      3195 MEMB     95       SAPC     H19S     HAL2     0.900000E-01   1.00800           0
      3196 MEMB     95       SAPC     C220     CTL3    -0.180000       12.0110           0
      3197 MEMB     95       SAPC     H20R     HAL3     0.900000E-01   1.00800           0
      3198 MEMB     95       SAPC     H20S     HAL3     0.900000E-01   1.00800           0
      3199 MEMB     95       SAPC     H20T     HAL3     0.900000E-01   1.00800           0
      3200 MEMB     95       SAPC     C33      CTL2    -0.180000       12.0110           0
      3201 MEMB     95       SAPC     H3X      HAL2     0.900000E-01   1.00800           0
      3202 MEMB     95       SAPC     H3Y      HAL2     0.900000E-01   1.00800           0
      3203 MEMB     95       SAPC     C34      CTL2    -0.180000       12.0110           0
      3204 MEMB     95       SAPC     H4X      HAL2     0.900000E-01   1.00800           0
      3205 MEMB     95       SAPC     H4Y      HAL2     0.900000E-01   1.00800           0
      3206 MEMB     95       SAPC     C35      CTL2    -0.180000       12.0110           0
      3207 MEMB     95       SAPC     H5X      HAL2     0.900000E-01   1.00800           0
      3208 MEMB     95       SAPC     H5Y      HAL2     0.900000E-01   1.00800           0
      3209 MEMB     95       SAPC     C36      CTL2    -0.180000       12.0110           0
      3210 MEMB     95       SAPC     H6X      HAL2     0.900000E-01   1.00800           0
      3211 MEMB     95       SAPC     H6Y      HAL2     0.900000E-01   1.00800           0
      3212 MEMB     95       SAPC     C37      CTL2    -0.180000       12.0110           0
      3213 MEMB     95       SAPC     H7X      HAL2     0.900000E-01   1.00800           0
      3214 MEMB     95       SAPC     H7Y      HAL2     0.900000E-01   1.00800           0
      3215 MEMB     95       SAPC     C38      CTL2    -0.180000       12.0110           0
      3216 MEMB     95       SAPC     H8X      HAL2     0.900000E-01   1.00800           0
      3217 MEMB     95       SAPC     H8Y      HAL2     0.900000E-01   1.00800           0
      3218 MEMB     95       SAPC     C39      CTL2    -0.180000       12.0110           0
      3219 MEMB     95       SAPC     H9X      HAL2     0.900000E-01   1.00800           0
      3220 MEMB     95       SAPC     H9Y      HAL2     0.900000E-01   1.00800           0
      3221 MEMB     95       SAPC     C310     CTL2    -0.180000       12.0110           0
      3222 MEMB     95       SAPC     H10X     HAL2     0.900000E-01   1.00800           0
      3223 MEMB     95       SAPC     H10Y     HAL2     0.900000E-01   1.00800           0
      3224 MEMB     95       SAPC     C311     CTL2    -0.180000       12.0110           0
      3225 MEMB     95       SAPC     H11X     HAL2     0.900000E-01   1.00800           0
      3226 MEMB     95       SAPC     H11Y     HAL2     0.900000E-01   1.00800           0
      3227 MEMB     95       SAPC     C312     CTL2    -0.180000       12.0110           0
      3228 MEMB     95       SAPC     H12X     HAL2     0.900000E-01   1.00800           0
      3229 MEMB     95       SAPC     H12Y     HAL2     0.900000E-01   1.00800           0
      3230 MEMB     95       SAPC     C313     CTL2    -0.180000       12.0110           0
      3231 MEMB     95       SAPC     H13X     HAL2     0.900000E-01   1.00800           0
      3232 MEMB     95       SAPC     H13Y     HAL2     0.900000E-01   1.00800           0
      3233 MEMB     95       SAPC     C314     CTL2    -0.180000       12.0110           0
      3234 MEMB     95       SAPC     H14X     HAL2     0.900000E-01   1.00800           0
      3235 MEMB     95       SAPC     H14Y     HAL2     0.900000E-01   1.00800           0
      3236 MEMB     95       SAPC     C315     CTL2    -0.180000       12.0110           0
      3237 MEMB     95       SAPC     H15X     HAL2     0.900000E-01   1.00800           0
      3238 MEMB     95       SAPC     H15Y     HAL2     0.900000E-01   1.00800           0
      3239 MEMB     95       SAPC     C316     CTL2    -0.180000       12.0110           0
      3240 MEMB     95       SAPC     H16X     HAL2     0.900000E-01   1.00800           0
      3241 MEMB     95       SAPC     H16Y     HAL2     0.900000E-01   1.00800           0
      3242 MEMB     95       SAPC     C317     CTL2    -0.180000       12.0110           0
      3243 MEMB     95       SAPC     H17X     HAL2     0.900000E-01   1.00800           0
      3244 MEMB     95       SAPC     H17Y     HAL2     0.900000E-01   1.00800           0
      3245 MEMB     95       SAPC     C318     CTL3    -0.270000       12.0110           0
      3246 MEMB     95       SAPC     H18X     HAL3     0.900000E-01   1.00800           0
      3247 MEMB     95       SAPC     H18Y     HAL3     0.900000E-01   1.00800           0
      3248 MEMB     95       SAPC     H18Z     HAL3     0.900000E-01   1.00800           0
      3249 MEMB     103      SAPC     N        NTL     -0.600000       14.0070           0
      3250 MEMB     103      SAPC     C12      CTL2    -0.100000       12.0110           0
      3251 MEMB     103      SAPC     H12A     HL       0.250000       1.00800           0
      3252 MEMB     103      SAPC     H12B     HL       0.250000       1.00800           0
      3253 MEMB     103      SAPC     C13      CTL5    -0.350000       12.0110           0
      3254 MEMB     103      SAPC     H13A     HL       0.250000       1.00800           0
      3255 MEMB     103      SAPC     H13B     HL       0.250000       1.00800           0
      3256 MEMB     103      SAPC     H13C     HL       0.250000       1.00800           0
      3257 MEMB     103      SAPC     C14      CTL5    -0.350000       12.0110           0
      3258 MEMB     103      SAPC     H14A     HL       0.250000       1.00800           0
      3259 MEMB     103      SAPC     H14B     HL       0.250000       1.00800           0
      3260 MEMB     103      SAPC     H14C     HL       0.250000       1.00800           0
      3261 MEMB     103      SAPC     C15      CTL5    -0.350000       12.0110           0
      3262 MEMB     103      SAPC     H15A     HL       0.250000       1.00800           0
      3263 MEMB     103      SAPC     H15B     HL       0.250000       1.00800           0
      3264 MEMB     103      SAPC     H15C     HL       0.250000       1.00800           0
      3265 MEMB     103      SAPC     C11      CTL2    -0.800000E-01   12.0110           0
      3266 MEMB     103      SAPC     H11A     HAL2     0.900000E-01   1.00800           0
      3267 MEMB     103      SAPC     H11B     HAL2     0.900000E-01   1.00800           0
      3268 MEMB     103      SAPC     P        PL       1.500000       30.9740           0
      3269 MEMB     103      SAPC     O13      O2L     -0.780000       15.9994           0
      3270 MEMB     103      SAPC     O14      O2L     -0.780000       15.9994           0
      3271 MEMB     103      SAPC     O12      OSLP    -0.570000       15.9994           0
      3272 MEMB     103      SAPC     O11      OSLP    -0.570000       15.9994           0
      3273 MEMB     103      SAPC     C1       CTL2    -0.800000E-01   12.0110           0
      3274 MEMB     103      SAPC     HA       HAL2     0.900000E-01   1.00800           0
      3275 MEMB     103      SAPC     HB       HAL2     0.900000E-01   1.00800           0
      3276 MEMB     103      SAPC     C2       CTL1     0.170000       12.0110           0
      3277 MEMB     103      SAPC     HS       HAL1     0.900000E-01   1.00800           0
      3278 MEMB     103      SAPC     O21      OSL     -0.490000       15.9994           0
      3279 MEMB     103      SAPC     C21      CL       0.900000       12.0110           0
      3280 MEMB     103      SAPC     O22      OBL     -0.630000       15.9994           0
      3281 MEMB     103      SAPC     C22      CTL2    -0.220000       12.0110           0
      3282 MEMB     103      SAPC     H2R      HAL2     0.900000E-01   1.00800           0
      3283 MEMB     103      SAPC     H2S      HAL2     0.900000E-01   1.00800           0
      3284 MEMB     103      SAPC     C3       CTL2     0.800000E-01   12.0110           0
      3285 MEMB     103      SAPC     HX       HAL2     0.900000E-01   1.00800           0
      3286 MEMB     103      SAPC     HY       HAL2     0.900000E-01   1.00800           0
      3287 MEMB     103      SAPC     O31      OSL     -0.490000       15.9994           0
      3288 MEMB     103      SAPC     C31      CL       0.900000       12.0110           0
      3289 MEMB     103      SAPC     O32      OBL     -0.630000       15.9994           0
      3290 MEMB     103      SAPC     C32      CTL2    -0.220000       12.0110           0
      3291 MEMB     103      SAPC     H2X      HAL2     0.900000E-01   1.00800           0
      3292 MEMB     103      SAPC     H2Y      HAL2     0.900000E-01   1.00800           0
      3293 MEMB     103      SAPC     C23      CTL2    -0.180000       12.0110           0
      3294 MEMB     103      SAPC     H3R      HAL2     0.900000E-01   1.00800           0
      3295 MEMB     103      SAPC     H3S      HAL2     0.900000E-01   1.00800           0
      3296 MEMB     103      SAPC     C24      CTL2    -0.180000       12.0110           0
      3297 MEMB     103      SAPC     H4R      HAL2     0.900000E-01   1.00800           0
      3298 MEMB     103      SAPC     H4S      HAL2     0.900000E-01   1.00800           0
      3299 MEMB     103      SAPC     C25      CEL1    -0.150000       12.0110           0
      3300 MEMB     103      SAPC     H5R      HEL1     0.150000       1.00800           0
      3301 MEMB     103      SAPC     C26      CEL1    -0.150000       12.0110           0
      3302 MEMB     103      SAPC     H6R      HEL1     0.150000       1.00800           0
      3303 MEMB     103      SAPC     C27      CTL2    -0.180000       12.0110           0
      3304 MEMB     103      SAPC     H7R      HAL2     0.900000E-01   1.00800           0
      3305 MEMB     103      SAPC     H7S      HAL2     0.900000E-01   1.00800           0
      3306 MEMB     103      SAPC     C28      CEL1    -0.150000       12.0110           0
      3307 MEMB     103      SAPC     H8R      HEL1     0.150000       1.00800           0
      3308 MEMB     103      SAPC     C29      CEL1    -0.150000       12.0110           0
      3309 MEMB     103      SAPC     H9R      HEL1     0.150000       1.00800           0
      3310 MEMB     103      SAPC     C210     CTL2    -0.180000       12.0110           0
      3311 MEMB     103      SAPC     H10R     HAL2     0.900000E-01   1.00800           0
      3312 MEMB     103      SAPC     H10S     HAL2     0.900000E-01   1.00800           0
      3313 MEMB     103      SAPC     C211     CEL1    -0.150000       12.0110           0
      3314 MEMB     103      SAPC     H11R     HEL1     0.150000       1.00800           0
      3315 MEMB     103      SAPC     C212     CEL1    -0.150000       12.0110           0
      3316 MEMB     103      SAPC     H12R     HEL1     0.150000       1.00800           0
      3317 MEMB     103      SAPC     C213     CTL2    -0.180000       12.0110           0
      3318 MEMB     103      SAPC     H13R     HAL2     0.900000E-01   1.00800           0
      3319 MEMB     103      SAPC     H13S     HAL2     0.900000E-01   1.00800           0
      3320 MEMB     103      SAPC     C214     CEL1    -0.150000       12.0110           0
      3321 MEMB     103      SAPC     H14R     HEL1     0.150000       1.00800           0
      3322 MEMB     103      SAPC     C215     CEL1    -0.150000       12.0110           0
      3323 MEMB     103      SAPC     H15R     HEL1     0.150000       1.00800           0
      3324 MEMB     103      SAPC     C216     CTL2    -0.180000       12.0110           0
      3325 MEMB     103      SAPC     H16R     HAL2     0.900000E-01   1.00800           0
      3326 MEMB     103      SAPC     H16S     HAL2     0.900000E-01   1.00800           0
      3327 MEMB     103      SAPC     C217     CTL2    -0.180000       12.0110           0
      3328 MEMB     103      SAPC     H17R     HAL2     0.900000E-01   1.00800           0
      3329 MEMB     103      SAPC     H17S     HAL2     0.900000E-01   1.00800           0
      3330 MEMB     103      SAPC     C218     CTL2    -0.270000       12.0110           0
      3331 MEMB     103      SAPC     H18R     HAL2     0.900000E-01   1.00800           0
      3332 MEMB     103      SAPC     H18S     HAL2     0.900000E-01   1.00800           0
      3333 MEMB     103      SAPC     C219     CTL2    -0.180000       12.0110           0
      3334 MEMB     103      SAPC     H19R     HAL2     0.900000E-01   1.00800           0
      3335 MEMB     103      SAPC     H19S     HAL2     0.900000E-01   1.00800           0
      3336 MEMB     103      SAPC     C220     CTL3    -0.180000       12.0110           0
      3337 MEMB     103      SAPC     H20R     HAL3     0.900000E-01   1.00800           0
      3338 MEMB     103      SAPC     H20S     HAL3     0.900000E-01   1.00800           0
      3339 MEMB     103      SAPC     H20T     HAL3     0.900000E-01   1.00800           0
      3340 MEMB     103      SAPC     C33      CTL2    -0.180000       12.0110           0
      3341 MEMB     103      SAPC     H3X      HAL2     0.900000E-01   1.00800           0
      3342 MEMB     103      SAPC     H3Y      HAL2     0.900000E-01   1.00800           0
      3343 MEMB     103      SAPC     C34      CTL2    -0.180000       12.0110           0
      3344 MEMB     103      SAPC     H4X      HAL2     0.900000E-01   1.00800           0
      3345 MEMB     103      SAPC     H4Y      HAL2     0.900000E-01   1.00800           0
      3346 MEMB     103      SAPC     C35      CTL2    -0.180000       12.0110           0
      3347 MEMB     103      SAPC     H5X      HAL2     0.900000E-01   1.00800           0
      3348 MEMB     103      SAPC     H5Y      HAL2     0.900000E-01   1.00800           0
      3349 MEMB     103      SAPC     C36      CTL2    -0.180000       12.0110           0
      3350 MEMB     103      SAPC     H6X      HAL2     0.900000E-01   1.00800           0
      3351 MEMB     103      SAPC     H6Y      HAL2     0.900000E-01   1.00800           0
      3352 MEMB     103      SAPC     C37      CTL2    -0.180000       12.0110           0
      3353 MEMB     103      SAPC     H7X      HAL2     0.900000E-01   1.00800           0
      3354 MEMB     103      SAPC     H7Y      HAL2     0.900000E-01   1.00800           0
      3355 MEMB     103      SAPC     C38      CTL2    -0.180000       12.0110           0
      3356 MEMB     103      SAPC     H8X      HAL2     0.900000E-01   1.00800           0
      3357 MEMB     103      SAPC     H8Y      HAL2     0.900000E-01   1.00800           0
      3358 MEMB     103      SAPC     C39      CTL2    -0.180000       12.0110           0
      3359 MEMB     103      SAPC     H9X      HAL2     0.900000E-01   1.00800           0
      3360 MEMB     103      SAPC     H9Y      HAL2     0.900000E-01   1.00800           0
      3361 MEMB     103      SAPC     C310     CTL2    -0.180000       12.0110           0
      3362 MEMB     103      SAPC     H10X     HAL2     0.900000E-01   1.00800           0
      3363 MEMB     103      SAPC     H10Y     HAL2     0.900000E-01   1.00800           0
      3364 MEMB     103      SAPC     C311     CTL2    -0.180000       12.0110           0
      3365 MEMB     103      SAPC     H11X     HAL2     0.900000E-01   1.00800           0
      3366 MEMB     103      SAPC     H11Y     HAL2     0.900000E-01   1.00800           0
      3367 MEMB     103      SAPC     C312     CTL2    -0.180000       12.0110           0
      3368 MEMB     103      SAPC     H12X     HAL2     0.900000E-01   1.00800           0
      3369 MEMB     103      SAPC     H12Y     HAL2     0.900000E-01   1.00800           0
      3370 MEMB     103      SAPC     C313     CTL2    -0.180000       12.0110           0
      3371 MEMB     103      SAPC     H13X     HAL2     0.900000E-01   1.00800           0
      3372 MEMB     103      SAPC     H13Y     HAL2     0.900000E-01   1.00800           0
      3373 MEMB     103      SAPC     C314     CTL2    -0.180000       12.0110           0
      3374 MEMB     103      SAPC     H14X     HAL2     0.900000E-01   1.00800           0
      3375 MEMB     103      SAPC     H14Y     HAL2     0.900000E-01   1.00800           0
      3376 MEMB     103      SAPC     C315     CTL2    -0.180000       12.0110           0
      3377 MEMB     103      SAPC     H15X     HAL2     0.900000E-01   1.00800           0
      3378 MEMB     103      SAPC     H15Y     HAL2     0.900000E-01   1.00800           0
      3379 MEMB     103      SAPC     C316     CTL2    -0.180000       12.0110           0
      3380 MEMB     103      SAPC     H16X     HAL2     0.900000E-01   1.00800           0
      3381 MEMB     103      SAPC     H16Y     HAL2     0.900000E-01   1.00800           0
      3382 MEMB     103      SAPC     C317     CTL2    -0.180000       12.0110           0
      3383 MEMB     103      SAPC     H17X     HAL2     0.900000E-01   1.00800           0
      3384 MEMB     103      SAPC     H17Y     HAL2     0.900000E-01   1.00800           0
      3385 MEMB     103      SAPC     C318     CTL3    -0.270000       12.0110           0
      3386 MEMB     103      SAPC     H18X     HAL3     0.900000E-01   1.00800           0
      3387 MEMB     103      SAPC     H18Y     HAL3     0.900000E-01   1.00800           0
      3388 MEMB     103      SAPC     H18Z     HAL3     0.900000E-01   1.00800           0
      3389 MEMB     118      SAPC     N        NTL     -0.600000       14.0070           0
      3390 MEMB     118      SAPC     C12      CTL2    -0.100000       12.0110           0
      3391 MEMB     118      SAPC     H12A     HL       0.250000       1.00800           0
      3392 MEMB     118      SAPC     H12B     HL       0.250000       1.00800           0
      3393 MEMB     118      SAPC     C13      CTL5    -0.350000       12.0110           0
      3394 MEMB     118      SAPC     H13A     HL       0.250000       1.00800           0
      3395 MEMB     118      SAPC     H13B     HL       0.250000       1.00800           0
      3396 MEMB     118      SAPC     H13C     HL       0.250000       1.00800           0
      3397 MEMB     118      SAPC     C14      CTL5    -0.350000       12.0110           0
      3398 MEMB     118      SAPC     H14A     HL       0.250000       1.00800           0
      3399 MEMB     118      SAPC     H14B     HL       0.250000       1.00800           0
      3400 MEMB     118      SAPC     H14C     HL       0.250000       1.00800           0
      3401 MEMB     118      SAPC     C15      CTL5    -0.350000       12.0110           0
      3402 MEMB     118      SAPC     H15A     HL       0.250000       1.00800           0
      3403 MEMB     118      SAPC     H15B     HL       0.250000       1.00800           0
      3404 MEMB     118      SAPC     H15C     HL       0.250000       1.00800           0
      3405 MEMB     118      SAPC     C11      CTL2    -0.800000E-01   12.0110           0
      3406 MEMB     118      SAPC     H11A     HAL2     0.900000E-01   1.00800           0
      3407 MEMB     118      SAPC     H11B     HAL2     0.900000E-01   1.00800           0
      3408 MEMB     118      SAPC     P        PL       1.500000       30.9740           0
      3409 MEMB     118      SAPC     O13      O2L     -0.780000       15.9994           0
      3410 MEMB     118      SAPC     O14      O2L     -0.780000       15.9994           0
      3411 MEMB     118      SAPC     O12      OSLP    -0.570000       15.9994           0
      3412 MEMB     118      SAPC     O11      OSLP    -0.570000       15.9994           0
      3413 MEMB     118      SAPC     C1       CTL2    -0.800000E-01   12.0110           0
      3414 MEMB     118      SAPC     HA       HAL2     0.900000E-01   1.00800           0
      3415 MEMB     118      SAPC     HB       HAL2     0.900000E-01   1.00800           0
      3416 MEMB     118      SAPC     C2       CTL1     0.170000       12.0110           0
      3417 MEMB     118      SAPC     HS       HAL1     0.900000E-01   1.00800           0
      3418 MEMB     118      SAPC     O21      OSL     -0.490000       15.9994           0
      3419 MEMB     118      SAPC     C21      CL       0.900000       12.0110           0
      3420 MEMB     118      SAPC     O22      OBL     -0.630000       15.9994           0
      3421 MEMB     118      SAPC     C22      CTL2    -0.220000       12.0110           0
      3422 MEMB     118      SAPC     H2R      HAL2     0.900000E-01   1.00800           0
      3423 MEMB     118      SAPC     H2S      HAL2     0.900000E-01   1.00800           0
      3424 MEMB     118      SAPC     C3       CTL2     0.800000E-01   12.0110           0
      3425 MEMB     118      SAPC     HX       HAL2     0.900000E-01   1.00800           0
      3426 MEMB     118      SAPC     HY       HAL2     0.900000E-01   1.00800           0
      3427 MEMB     118      SAPC     O31      OSL     -0.490000       15.9994           0
      3428 MEMB     118      SAPC     C31      CL       0.900000       12.0110           0
      3429 MEMB     118      SAPC     O32      OBL     -0.630000       15.9994           0
      3430 MEMB     118      SAPC     C32      CTL2    -0.220000       12.0110           0
      3431 MEMB     118      SAPC     H2X      HAL2     0.900000E-01   1.00800           0
      3432 MEMB     118      SAPC     H2Y      HAL2     0.900000E-01   1.00800           0
      3433 MEMB     118      SAPC     C23      CTL2    -0.180000       12.0110           0
      3434 MEMB     118      SAPC     H3R      HAL2     0.900000E-01   1.00800           0
      3435 MEMB     118      SAPC     H3S      HAL2     0.900000E-01   1.00800           0
      3436 MEMB     118      SAPC     C24      CTL2    -0.180000       12.0110           0
      3437 MEMB     118      SAPC     H4R      HAL2     0.900000E-01   1.00800           0
      3438 MEMB     118      SAPC     H4S      HAL2     0.900000E-01   1.00800           0
      3439 MEMB     118      SAPC     C25      CEL1    -0.150000       12.0110           0
      3440 MEMB     118      SAPC     H5R      HEL1     0.150000       1.00800           0
      3441 MEMB     118      SAPC     C26      CEL1    -0.150000       12.0110           0
      3442 MEMB     118      SAPC     H6R      HEL1     0.150000       1.00800           0
      3443 MEMB     118      SAPC     C27      CTL2    -0.180000       12.0110           0
      3444 MEMB     118      SAPC     H7R      HAL2     0.900000E-01   1.00800           0
      3445 MEMB     118      SAPC     H7S      HAL2     0.900000E-01   1.00800           0
      3446 MEMB     118      SAPC     C28      CEL1    -0.150000       12.0110           0
      3447 MEMB     118      SAPC     H8R      HEL1     0.150000       1.00800           0
      3448 MEMB     118      SAPC     C29      CEL1    -0.150000       12.0110           0
      3449 MEMB     118      SAPC     H9R      HEL1     0.150000       1.00800           0
      3450 MEMB     118      SAPC     C210     CTL2    -0.180000       12.0110           0
      3451 MEMB     118      SAPC     H10R     HAL2     0.900000E-01   1.00800           0
      3452 MEMB     118      SAPC     H10S     HAL2     0.900000E-01   1.00800           0
      3453 MEMB     118      SAPC     C211     CEL1    -0.150000       12.0110           0
      3454 MEMB     118      SAPC     H11R     HEL1     0.150000       1.00800           0
      3455 MEMB     118      SAPC     C212     CEL1    -0.150000       12.0110           0
      3456 MEMB     118      SAPC     H12R     HEL1     0.150000       1.00800           0
      3457 MEMB     118      SAPC     C213     CTL2    -0.180000       12.0110           0
      3458 MEMB     118      SAPC     H13R     HAL2     0.900000E-01   1.00800           0
      3459 MEMB     118      SAPC     H13S     HAL2     0.900000E-01   1.00800           0
      3460 MEMB     118      SAPC     C214     CEL1    -0.150000       12.0110           0
      3461 MEMB     118      SAPC     H14R     HEL1     0.150000       1.00800           0
      3462 MEMB     118      SAPC     C215     CEL1    -0.150000       12.0110           0
      3463 MEMB     118      SAPC     H15R     HEL1     0.150000       1.00800           0
      3464 MEMB     118      SAPC     C216     CTL2    -0.180000       12.0110           0
      3465 MEMB     118      SAPC     H16R     HAL2     0.900000E-01   1.00800           0
      3466 MEMB     118      SAPC     H16S     HAL2     0.900000E-01   1.00800           0
      3467 MEMB     118      SAPC     C217     CTL2    -0.180000       12.0110           0
      3468 MEMB     118      SAPC     H17R     HAL2     0.900000E-01   1.00800           0
      3469 MEMB     118      SAPC     H17S     HAL2     0.900000E-01   1.00800           0
      3470 MEMB     118      SAPC     C218     CTL2    -0.270000       12.0110           0
      3471 MEMB     118      SAPC     H18R     HAL2     0.900000E-01   1.00800           0
      3472 MEMB     118      SAPC     H18S     HAL2     0.900000E-01   1.00800           0
      3473 MEMB     118      SAPC     C219     CTL2    -0.180000       12.0110           0
      3474 MEMB     118      SAPC     H19R     HAL2     0.900000E-01   1.00800           0
      3475 MEMB     118      SAPC     H19S     HAL2     0.900000E-01   1.00800           0
      3476 MEMB     118      SAPC     C220     CTL3    -0.180000       12.0110           0
      3477 MEMB     118      SAPC     H20R     HAL3     0.900000E-01   1.00800           0
      3478 MEMB     118      SAPC     H20S     HAL3     0.900000E-01   1.00800           0
      3479 MEMB     118      SAPC     H20T     HAL3     0.900000E-01   1.00800           0
      3480 MEMB     118      SAPC     C33      CTL2    -0.180000       12.0110           0
      3481 MEMB     118      SAPC     H3X      HAL2     0.900000E-01   1.00800           0
      3482 MEMB     118      SAPC     H3Y      HAL2     0.900000E-01   1.00800           0
      3483 MEMB     118      SAPC     C34      CTL2    -0.180000       12.0110           0
      3484 MEMB     118      SAPC     H4X      HAL2     0.900000E-01   1.00800           0
      3485 MEMB     118      SAPC     H4Y      HAL2     0.900000E-01   1.00800           0
      3486 MEMB     118      SAPC     C35      CTL2    -0.180000       12.0110           0
      3487 MEMB     118      SAPC     H5X      HAL2     0.900000E-01   1.00800           0
      3488 MEMB     118      SAPC     H5Y      HAL2     0.900000E-01   1.00800           0
      3489 MEMB     118      SAPC     C36      CTL2    -0.180000       12.0110           0
      3490 MEMB     118      SAPC     H6X      HAL2     0.900000E-01   1.00800           0
      3491 MEMB     118      SAPC     H6Y      HAL2     0.900000E-01   1.00800           0
      3492 MEMB     118      SAPC     C37      CTL2    -0.180000       12.0110           0
      3493 MEMB     118      SAPC     H7X      HAL2     0.900000E-01   1.00800           0
      3494 MEMB     118      SAPC     H7Y      HAL2     0.900000E-01   1.00800           0
      3495 MEMB     118      SAPC     C38      CTL2    -0.180000       12.0110           0
      3496 MEMB     118      SAPC     H8X      HAL2     0.900000E-01   1.00800           0
      3497 MEMB     118      SAPC     H8Y      HAL2     0.900000E-01   1.00800           0
      3498 MEMB     118      SAPC     C39      CTL2    -0.180000       12.0110           0
      3499 MEMB     118      SAPC     H9X      HAL2     0.900000E-01   1.00800           0
      3500 MEMB     118      SAPC     H9Y      HAL2     0.900000E-01   1.00800           0
      3501 MEMB     118      SAPC     C310     CTL2    -0.180000       12.0110           0
      3502 MEMB     118      SAPC     H10X     HAL2     0.900000E-01   1.00800           0
      3503 MEMB     118      SAPC     H10Y     HAL2     0.900000E-01   1.00800           0
      3504 MEMB     118      SAPC     C311     CTL2    -0.180000       12.0110           0
      3505 MEMB     118      SAPC     H11X     HAL2     0.900000E-01   1.00800           0
      3506 MEMB     118      SAPC     H11Y     HAL2     0.900000E-01   1.00800           0
      3507 MEMB     118      SAPC     C312     CTL2    -0.180000       12.0110           0
      3508 MEMB     118      SAPC     H12X     HAL2     0.900000E-01   1.00800           0
      3509 MEMB     118      SAPC     H12Y     HAL2     0.900000E-01   1.00800           0
      3510 MEMB     118      SAPC     C313     CTL2    -0.180000       12.0110           0
      3511 MEMB     118      SAPC     H13X     HAL2     0.900000E-01   1.00800           0
      3512 MEMB     118      SAPC     H13Y     HAL2     0.900000E-01   1.00800           0
      3513 MEMB     118      SAPC     C314     CTL2    -0.180000       12.0110           0
      3514 MEMB     118      SAPC     H14X     HAL2     0.900000E-01   1.00800           0
      3515 MEMB     118      SAPC     H14Y     HAL2     0.900000E-01   1.00800           0
      3516 MEMB     118      SAPC     C315     CTL2    -0.180000       12.0110           0
      3517 MEMB     118      SAPC     H15X     HAL2     0.900000E-01   1.00800           0
      3518 MEMB     118      SAPC     H15Y     HAL2     0.900000E-01   1.00800           0
      3519 MEMB     118      SAPC     C316     CTL2    -0.180000       12.0110           0
      3520 MEMB     118      SAPC     H16X     HAL2     0.900000E-01   1.00800           0
      3521 MEMB     118      SAPC     H16Y     HAL2     0.900000E-01   1.00800           0
      3522 MEMB     118      SAPC     C317     CTL2    -0.180000       12.0110           0
      3523 MEMB     118      SAPC     H17X     HAL2     0.900000E-01   1.00800           0
      3524 MEMB     118      SAPC     H17Y     HAL2     0.900000E-01   1.00800           0
      3525 MEMB     118      SAPC     C318     CTL3    -0.270000       12.0110           0
      3526 MEMB     118      SAPC     H18X     HAL3     0.900000E-01   1.00800           0
      3527 MEMB     118      SAPC     H18Y     HAL3     0.900000E-01   1.00800           0
      3528 MEMB     118      SAPC     H18Z     HAL3     0.900000E-01   1.00800           0
      3529 MEMB     158      SAPC     N        NTL     -0.600000       14.0070           0
      3530 MEMB     158      SAPC     C12      CTL2    -0.100000       12.0110           0
      3531 MEMB     158      SAPC     H12A     HL       0.250000       1.00800           0
      3532 MEMB     158      SAPC     H12B     HL       0.250000       1.00800           0
      3533 MEMB     158      SAPC     C13      CTL5    -0.350000       12.0110           0
      3534 MEMB     158      SAPC     H13A     HL       0.250000       1.00800           0
      3535 MEMB     158      SAPC     H13B     HL       0.250000       1.00800           0
      3536 MEMB     158      SAPC     H13C     HL       0.250000       1.00800           0
      3537 MEMB     158      SAPC     C14      CTL5    -0.350000       12.0110           0
      3538 MEMB     158      SAPC     H14A     HL       0.250000       1.00800           0
      3539 MEMB     158      SAPC     H14B     HL       0.250000       1.00800           0
      3540 MEMB     158      SAPC     H14C     HL       0.250000       1.00800           0
      3541 MEMB     158      SAPC     C15      CTL5    -0.350000       12.0110           0
      3542 MEMB     158      SAPC     H15A     HL       0.250000       1.00800           0
      3543 MEMB     158      SAPC     H15B     HL       0.250000       1.00800           0
      3544 MEMB     158      SAPC     H15C     HL       0.250000       1.00800           0
      3545 MEMB     158      SAPC     C11      CTL2    -0.800000E-01   12.0110           0
      3546 MEMB     158      SAPC     H11A     HAL2     0.900000E-01   1.00800           0
      3547 MEMB     158      SAPC     H11B     HAL2     0.900000E-01   1.00800           0
      3548 MEMB     158      SAPC     P        PL       1.500000       30.9740           0
      3549 MEMB     158      SAPC     O13      O2L     -0.780000       15.9994           0
      3550 MEMB     158      SAPC     O14      O2L     -0.780000       15.9994           0
      3551 MEMB     158      SAPC     O12      OSLP    -0.570000       15.9994           0
      3552 MEMB     158      SAPC     O11      OSLP    -0.570000       15.9994           0
      3553 MEMB     158      SAPC     C1       CTL2    -0.800000E-01   12.0110           0
      3554 MEMB     158      SAPC     HA       HAL2     0.900000E-01   1.00800           0
      3555 MEMB     158      SAPC     HB       HAL2     0.900000E-01   1.00800           0
      3556 MEMB     158      SAPC     C2       CTL1     0.170000       12.0110           0
      3557 MEMB     158      SAPC     HS       HAL1     0.900000E-01   1.00800           0
      3558 MEMB     158      SAPC     O21      OSL     -0.490000       15.9994           0
      3559 MEMB     158      SAPC     C21      CL       0.900000       12.0110           0
      3560 MEMB     158      SAPC     O22      OBL     -0.630000       15.9994           0
      3561 MEMB     158      SAPC     C22      CTL2    -0.220000       12.0110           0
      3562 MEMB     158      SAPC     H2R      HAL2     0.900000E-01   1.00800           0
      3563 MEMB     158      SAPC     H2S      HAL2     0.900000E-01   1.00800           0
      3564 MEMB     158      SAPC     C3       CTL2     0.800000E-01   12.0110           0
      3565 MEMB     158      SAPC     HX       HAL2     0.900000E-01   1.00800           0
      3566 MEMB     158      SAPC     HY       HAL2     0.900000E-01   1.00800           0
      3567 MEMB     158      SAPC     O31      OSL     -0.490000       15.9994           0
      3568 MEMB     158      SAPC     C31      CL       0.900000       12.0110           0
      3569 MEMB     158      SAPC     O32      OBL     -0.630000       15.9994           0
      3570 MEMB     158      SAPC     C32      CTL2    -0.220000       12.0110           0
      3571 MEMB     158      SAPC     H2X      HAL2     0.900000E-01   1.00800           0
      3572 MEMB     158      SAPC     H2Y      HAL2     0.900000E-01   1.00800           0
      3573 MEMB     158      SAPC     C23      CTL2    -0.180000       12.0110           0
      3574 MEMB     158      SAPC     H3R      HAL2     0.900000E-01   1.00800           0
      3575 MEMB     158      SAPC     H3S      HAL2     0.900000E-01   1.00800           0
      3576 MEMB     158      SAPC     C24      CTL2    -0.180000       12.0110           0
      3577 MEMB     158      SAPC     H4R      HAL2     0.900000E-01   1.00800           0
      3578 MEMB     158      SAPC     H4S      HAL2     0.900000E-01   1.00800           0
      3579 MEMB     158      SAPC     C25      CEL1    -0.150000       12.0110           0
      3580 MEMB     158      SAPC     H5R      HEL1     0.150000       1.00800           0
      3581 MEMB     158      SAPC     C26      CEL1    -0.150000       12.0110           0
      3582 MEMB     158      SAPC     H6R      HEL1     0.150000       1.00800           0
      3583 MEMB     158      SAPC     C27      CTL2    -0.180000       12.0110           0
      3584 MEMB     158      SAPC     H7R      HAL2     0.900000E-01   1.00800           0
      3585 MEMB     158      SAPC     H7S      HAL2     0.900000E-01   1.00800           0
      3586 MEMB     158      SAPC     C28      CEL1    -0.150000       12.0110           0
      3587 MEMB     158      SAPC     H8R      HEL1     0.150000       1.00800           0
      3588 MEMB     158      SAPC     C29      CEL1    -0.150000       12.0110           0
      3589 MEMB     158      SAPC     H9R      HEL1     0.150000       1.00800           0
      3590 MEMB     158      SAPC     C210     CTL2    -0.180000       12.0110           0
      3591 MEMB     158      SAPC     H10R     HAL2     0.900000E-01   1.00800           0
      3592 MEMB     158      SAPC     H10S     HAL2     0.900000E-01   1.00800           0
      3593 MEMB     158      SAPC     C211     CEL1    -0.150000       12.0110           0
      3594 MEMB     158      SAPC     H11R     HEL1     0.150000       1.00800           0
      3595 MEMB     158      SAPC     C212     CEL1    -0.150000       12.0110           0
      3596 MEMB     158      SAPC     H12R     HEL1     0.150000       1.00800           0
      3597 MEMB     158      SAPC     C213     CTL2    -0.180000       12.0110           0
      3598 MEMB     158      SAPC     H13R     HAL2     0.900000E-01   1.00800           0
      3599 MEMB     158      SAPC     H13S     HAL2     0.900000E-01   1.00800           0
      3600 MEMB     158      SAPC     C214     CEL1    -0.150000       12.0110           0
      3601 MEMB     158      SAPC     H14R     HEL1     0.150000       1.00800           0
      3602 MEMB     158      SAPC     C215     CEL1    -0.150000       12.0110           0
      3603 MEMB     158      SAPC     H15R     HEL1     0.150000       1.00800           0
      3604 MEMB     158      SAPC     C216     CTL2    -0.180000       12.0110           0
      3605 MEMB     158      SAPC     H16R     HAL2     0.900000E-01   1.00800           0
      3606 MEMB     158      SAPC     H16S     HAL2     0.900000E-01   1.00800           0
      3607 MEMB     158      SAPC     C217     CTL2    -0.180000       12.0110           0
      3608 MEMB     158      SAPC     H17R     HAL2     0.900000E-01   1.00800           0
      3609 MEMB     158      SAPC     H17S     HAL2     0.900000E-01   1.00800           0
      3610 MEMB     158      SAPC     C218     CTL2    -0.270000       12.0110           0
      3611 MEMB     158      SAPC     H18R     HAL2     0.900000E-01   1.00800           0
      3612 MEMB     158      SAPC     H18S     HAL2     0.900000E-01   1.00800           0
      3613 MEMB     158      SAPC     C219     CTL2    -0.180000       12.0110           0
      3614 MEMB     158      SAPC     H19R     HAL2     0.900000E-01   1.00800           0
      3615 MEMB     158      SAPC     H19S     HAL2     0.900000E-01   1.00800           0
      3616 MEMB     158      SAPC     C220     CTL3    -0.180000       12.0110           0
      3617 MEMB     158      SAPC     H20R     HAL3     0.900000E-01   1.00800           0
      3618 MEMB     158      SAPC     H20S     HAL3     0.900000E-01   1.00800           0
      3619 MEMB     158      SAPC     H20T     HAL3     0.900000E-01   1.00800           0
      3620 MEMB     158      SAPC     C33      CTL2    -0.180000       12.0110           0
      3621 MEMB     158      SAPC     H3X      HAL2     0.900000E-01   1.00800           0
      3622 MEMB     158      SAPC     H3Y      HAL2     0.900000E-01   1.00800           0
      3623 MEMB     158      SAPC     C34      CTL2    -0.180000       12.0110           0
      3624 MEMB     158      SAPC     H4X      HAL2     0.900000E-01   1.00800           0
      3625 MEMB     158      SAPC     H4Y      HAL2     0.900000E-01   1.00800           0
      3626 MEMB     158      SAPC     C35      CTL2    -0.180000       12.0110           0
      3627 MEMB     158      SAPC     H5X      HAL2     0.900000E-01   1.00800           0
      3628 MEMB     158      SAPC     H5Y      HAL2     0.900000E-01   1.00800           0
      3629 MEMB     158      SAPC     C36      CTL2    -0.180000       12.0110           0
      3630 MEMB     158      SAPC     H6X      HAL2     0.900000E-01   1.00800           0
      3631 MEMB     158      SAPC     H6Y      HAL2     0.900000E-01   1.00800           0
      3632 MEMB     158      SAPC     C37      CTL2    -0.180000       12.0110           0
      3633 MEMB     158      SAPC     H7X      HAL2     0.900000E-01   1.00800           0
      3634 MEMB     158      SAPC     H7Y      HAL2     0.900000E-01   1.00800           0
      3635 MEMB     158      SAPC     C38      CTL2    -0.180000       12.0110           0
      3636 MEMB     158      SAPC     H8X      HAL2     0.900000E-01   1.00800           0
      3637 MEMB     158      SAPC     H8Y      HAL2     0.900000E-01   1.00800           0
      3638 MEMB     158      SAPC     C39      CTL2    -0.180000       12.0110           0
      3639 MEMB     158      SAPC     H9X      HAL2     0.900000E-01   1.00800           0
      3640 MEMB     158      SAPC     H9Y      HAL2     0.900000E-01   1.00800           0
      3641 MEMB     158      SAPC     C310     CTL2    -0.180000       12.0110           0
      3642 MEMB     158      SAPC     H10X     HAL2     0.900000E-01   1.00800           0
      3643 MEMB     158      SAPC     H10Y     HAL2     0.900000E-01   1.00800           0
      3644 MEMB     158      SAPC     C311     CTL2    -0.180000       12.0110           0
      3645 MEMB     158      SAPC     H11X     HAL2     0.900000E-01   1.00800           0
      3646 MEMB     158      SAPC     H11Y     HAL2     0.900000E-01   1.00800           0
      3647 MEMB     158      SAPC     C312     CTL2    -0.180000       12.0110           0
      3648 MEMB     158      SAPC     H12X     HAL2     0.900000E-01   1.00800           0
      3649 MEMB     158      SAPC     H12Y     HAL2     0.900000E-01   1.00800           0
      3650 MEMB     158      SAPC     C313     CTL2    -0.180000       12.0110           0
      3651 MEMB     158      SAPC     H13X     HAL2     0.900000E-01   1.00800           0
      3652 MEMB     158      SAPC     H13Y     HAL2     0.900000E-01   1.00800           0
      3653 MEMB     158      SAPC     C314     CTL2    -0.180000       12.0110           0
      3654 MEMB     158      SAPC     H14X     HAL2     0.900000E-01   1.00800           0
      3655 MEMB     158      SAPC     H14Y     HAL2     0.900000E-01   1.00800           0
      3656 MEMB     158      SAPC     C315     CTL2    -0.180000       12.0110           0
      3657 MEMB     158      SAPC     H15X     HAL2     0.900000E-01   1.00800           0
      3658 MEMB     158      SAPC     H15Y     HAL2     0.900000E-01   1.00800           0
      3659 MEMB     158      SAPC     C316     CTL2    -0.180000       12.0110           0
      3660 MEMB     158      SAPC     H16X     HAL2     0.900000E-01   1.00800           0
      3661 MEMB     158      SAPC     H16Y     HAL2     0.900000E-01   1.00800           0
      3662 MEMB     158      SAPC     C317     CTL2    -0.180000       12.0110           0
      3663 MEMB     158      SAPC     H17X     HAL2     0.900000E-01   1.00800           0
      3664 MEMB     158      SAPC     H17Y     HAL2     0.900000E-01   1.00800           0
      3665 MEMB     158      SAPC     C318     CTL3    -0.270000       12.0110           0
      3666 MEMB     158      SAPC     H18X     HAL3     0.900000E-01   1.00800           0
      3667 MEMB     158      SAPC     H18Y     HAL3     0.900000E-01   1.00800           0
      3668 MEMB     158      SAPC     H18Z     HAL3     0.900000E-01   1.00800           0
      3669 MEMB     165      SAPC     N        NTL     -0.600000       14.0070           0
      3670 MEMB     165      SAPC     C12      CTL2    -0.100000       12.0110           0
      3671 MEMB     165      SAPC     H12A     HL       0.250000       1.00800           0
      3672 MEMB     165      SAPC     H12B     HL       0.250000       1.00800           0
      3673 MEMB     165      SAPC     C13      CTL5    -0.350000       12.0110           0
      3674 MEMB     165      SAPC     H13A     HL       0.250000       1.00800           0
      3675 MEMB     165      SAPC     H13B     HL       0.250000       1.00800           0
      3676 MEMB     165      SAPC     H13C     HL       0.250000       1.00800           0
      3677 MEMB     165      SAPC     C14      CTL5    -0.350000       12.0110           0
      3678 MEMB     165      SAPC     H14A     HL       0.250000       1.00800           0
      3679 MEMB     165      SAPC     H14B     HL       0.250000       1.00800           0
      3680 MEMB     165      SAPC     H14C     HL       0.250000       1.00800           0
      3681 MEMB     165      SAPC     C15      CTL5    -0.350000       12.0110           0
      3682 MEMB     165      SAPC     H15A     HL       0.250000       1.00800           0
      3683 MEMB     165      SAPC     H15B     HL       0.250000       1.00800           0
      3684 MEMB     165      SAPC     H15C     HL       0.250000       1.00800           0
      3685 MEMB     165      SAPC     C11      CTL2    -0.800000E-01   12.0110           0
      3686 MEMB     165      SAPC     H11A     HAL2     0.900000E-01   1.00800           0
      3687 MEMB     165      SAPC     H11B     HAL2     0.900000E-01   1.00800           0
      3688 MEMB     165      SAPC     P        PL       1.500000       30.9740           0
      3689 MEMB     165      SAPC     O13      O2L     -0.780000       15.9994           0
      3690 MEMB     165      SAPC     O14      O2L     -0.780000       15.9994           0
      3691 MEMB     165      SAPC     O12      OSLP    -0.570000       15.9994           0
      3692 MEMB     165      SAPC     O11      OSLP    -0.570000       15.9994           0
      3693 MEMB     165      SAPC     C1       CTL2    -0.800000E-01   12.0110           0
      3694 MEMB     165      SAPC     HA       HAL2     0.900000E-01   1.00800           0
      3695 MEMB     165      SAPC     HB       HAL2     0.900000E-01   1.00800           0
      3696 MEMB     165      SAPC     C2       CTL1     0.170000       12.0110           0
      3697 MEMB     165      SAPC     HS       HAL1     0.900000E-01   1.00800           0
      3698 MEMB     165      SAPC     O21      OSL     -0.490000       15.9994           0
      3699 MEMB     165      SAPC     C21      CL       0.900000       12.0110           0
      3700 MEMB     165      SAPC     O22      OBL     -0.630000       15.9994           0
      3701 MEMB     165      SAPC     C22      CTL2    -0.220000       12.0110           0
      3702 MEMB     165      SAPC     H2R      HAL2     0.900000E-01   1.00800           0
      3703 MEMB     165      SAPC     H2S      HAL2     0.900000E-01   1.00800           0
      3704 MEMB     165      SAPC     C3       CTL2     0.800000E-01   12.0110           0
      3705 MEMB     165      SAPC     HX       HAL2     0.900000E-01   1.00800           0
      3706 MEMB     165      SAPC     HY       HAL2     0.900000E-01   1.00800           0
      3707 MEMB     165      SAPC     O31      OSL     -0.490000       15.9994           0
      3708 MEMB     165      SAPC     C31      CL       0.900000       12.0110           0
      3709 MEMB     165      SAPC     O32      OBL     -0.630000       15.9994           0
      3710 MEMB     165      SAPC     C32      CTL2    -0.220000       12.0110           0
      3711 MEMB     165      SAPC     H2X      HAL2     0.900000E-01   1.00800           0
      3712 MEMB     165      SAPC     H2Y      HAL2     0.900000E-01   1.00800           0
      3713 MEMB     165      SAPC     C23      CTL2    -0.180000       12.0110           0
      3714 MEMB     165      SAPC     H3R      HAL2     0.900000E-01   1.00800           0
      3715 MEMB     165      SAPC     H3S      HAL2     0.900000E-01   1.00800           0
      3716 MEMB     165      SAPC     C24      CTL2    -0.180000       12.0110           0
      3717 MEMB     165      SAPC     H4R      HAL2     0.900000E-01   1.00800           0
      3718 MEMB     165      SAPC     H4S      HAL2     0.900000E-01   1.00800           0
      3719 MEMB     165      SAPC     C25      CEL1    -0.150000       12.0110           0
      3720 MEMB     165      SAPC     H5R      HEL1     0.150000       1.00800           0
      3721 MEMB     165      SAPC     C26      CEL1    -0.150000       12.0110           0
      3722 MEMB     165      SAPC     H6R      HEL1     0.150000       1.00800           0
      3723 MEMB     165      SAPC     C27      CTL2    -0.180000       12.0110           0
      3724 MEMB     165      SAPC     H7R      HAL2     0.900000E-01   1.00800           0
      3725 MEMB     165      SAPC     H7S      HAL2     0.900000E-01   1.00800           0
      3726 MEMB     165      SAPC     C28      CEL1    -0.150000       12.0110           0
      3727 MEMB     165      SAPC     H8R      HEL1     0.150000       1.00800           0
      3728 MEMB     165      SAPC     C29      CEL1    -0.150000       12.0110           0
      3729 MEMB     165      SAPC     H9R      HEL1     0.150000       1.00800           0
      3730 MEMB     165      SAPC     C210     CTL2    -0.180000       12.0110           0
      3731 MEMB     165      SAPC     H10R     HAL2     0.900000E-01   1.00800           0
      3732 MEMB     165      SAPC     H10S     HAL2     0.900000E-01   1.00800           0
      3733 MEMB     165      SAPC     C211     CEL1    -0.150000       12.0110           0
      3734 MEMB     165      SAPC     H11R     HEL1     0.150000       1.00800           0
      3735 MEMB     165      SAPC     C212     CEL1    -0.150000       12.0110           0
      3736 MEMB     165      SAPC     H12R     HEL1     0.150000       1.00800           0
      3737 MEMB     165      SAPC     C213     CTL2    -0.180000       12.0110           0
      3738 MEMB     165      SAPC     H13R     HAL2     0.900000E-01   1.00800           0
      3739 MEMB     165      SAPC     H13S     HAL2     0.900000E-01   1.00800           0
      3740 MEMB     165      SAPC     C214     CEL1    -0.150000       12.0110           0
      3741 MEMB     165      SAPC     H14R     HEL1     0.150000       1.00800           0
      3742 MEMB     165      SAPC     C215     CEL1    -0.150000       12.0110           0
      3743 MEMB     165      SAPC     H15R     HEL1     0.150000       1.00800           0
      3744 MEMB     165      SAPC     C216     CTL2    -0.180000       12.0110           0
      3745 MEMB     165      SAPC     H16R     HAL2     0.900000E-01   1.00800           0
      3746 MEMB     165      SAPC     H16S     HAL2     0.900000E-01   1.00800           0
      3747 MEMB     165      SAPC     C217     CTL2    -0.180000       12.0110           0
      3748 MEMB     165      SAPC     H17R     HAL2     0.900000E-01   1.00800           0
      3749 MEMB     165      SAPC     H17S     HAL2     0.900000E-01   1.00800           0
      3750 MEMB     165      SAPC     C218     CTL2    -0.270000       12.0110           0
      3751 MEMB     165      SAPC     H18R     HAL2     0.900000E-01   1.00800           0
      3752 MEMB     165      SAPC     H18S     HAL2     0.900000E-01   1.00800           0
      3753 MEMB     165      SAPC     C219     CTL2    -0.180000       12.0110           0
      3754 MEMB     165      SAPC     H19R     HAL2     0.900000E-01   1.00800           0
      3755 MEMB     165      SAPC     H19S     HAL2     0.900000E-01   1.00800           0
      3756 MEMB     165      SAPC     C220     CTL3    -0.180000       12.0110           0
      3757 MEMB     165      SAPC     H20R     HAL3     0.900000E-01   1.00800           0
      3758 MEMB     165      SAPC     H20S     HAL3     0.900000E-01   1.00800           0
      3759 MEMB     165      SAPC     H20T     HAL3     0.900000E-01   1.00800           0
      3760 MEMB     165      SAPC     C33      CTL2    -0.180000       12.0110           0
      3761 MEMB     165      SAPC     H3X      HAL2     0.900000E-01   1.00800           0
      3762 MEMB     165      SAPC     H3Y      HAL2     0.900000E-01   1.00800           0
      3763 MEMB     165      SAPC     C34      CTL2    -0.180000       12.0110           0
      3764 MEMB     165      SAPC     H4X      HAL2     0.900000E-01   1.00800           0
      3765 MEMB     165      SAPC     H4Y      HAL2     0.900000E-01   1.00800           0
      3766 MEMB     165      SAPC     C35      CTL2    -0.180000       12.0110           0
      3767 MEMB     165      SAPC     H5X      HAL2     0.900000E-01   1.00800           0
      3768 MEMB     165      SAPC     H5Y      HAL2     0.900000E-01   1.00800           0
      3769 MEMB     165      SAPC     C36      CTL2    -0.180000       12.0110           0
      3770 MEMB     165      SAPC     H6X      HAL2     0.900000E-01   1.00800           0
      3771 MEMB     165      SAPC     H6Y      HAL2     0.900000E-01   1.00800           0
      3772 MEMB     165      SAPC     C37      CTL2    -0.180000       12.0110           0
      3773 MEMB     165      SAPC     H7X      HAL2     0.900000E-01   1.00800           0
      3774 MEMB     165      SAPC     H7Y      HAL2     0.900000E-01   1.00800           0
      3775 MEMB     165      SAPC     C38      CTL2    -0.180000       12.0110           0
      3776 MEMB     165      SAPC     H8X      HAL2     0.900000E-01   1.00800           0
      3777 MEMB     165      SAPC     H8Y      HAL2     0.900000E-01   1.00800           0
      3778 MEMB     165      SAPC     C39      CTL2    -0.180000       12.0110           0
      3779 MEMB     165      SAPC     H9X      HAL2     0.900000E-01   1.00800           0
      3780 MEMB     165      SAPC     H9Y      HAL2     0.900000E-01   1.00800           0
      3781 MEMB     165      SAPC     C310     CTL2    -0.180000       12.0110           0
      3782 MEMB     165      SAPC     H10X     HAL2     0.900000E-01   1.00800           0
      3783 MEMB     165      SAPC     H10Y     HAL2     0.900000E-01   1.00800           0
      3784 MEMB     165      SAPC     C311     CTL2    -0.180000       12.0110           0
      3785 MEMB     165      SAPC     H11X     HAL2     0.900000E-01   1.00800           0
      3786 MEMB     165      SAPC     H11Y     HAL2     0.900000E-01   1.00800           0
      3787 MEMB     165      SAPC     C312     CTL2    -0.180000       12.0110           0
      3788 MEMB     165      SAPC     H12X     HAL2     0.900000E-01   1.00800           0
      3789 MEMB     165      SAPC     H12Y     HAL2     0.900000E-01   1.00800           0
      3790 MEMB     165      SAPC     C313     CTL2    -0.180000       12.0110           0
      3791 MEMB     165      SAPC     H13X     HAL2     0.900000E-01   1.00800           0
      3792 MEMB     165      SAPC     H13Y     HAL2     0.900000E-01   1.00800           0
      3793 MEMB     165      SAPC     C314     CTL2    -0.180000       12.0110           0
      3794 MEMB     165      SAPC     H14X     HAL2     0.900000E-01   1.00800           0
      3795 MEMB     165      SAPC     H14Y     HAL2     0.900000E-01   1.00800           0
      3796 MEMB     165      SAPC     C315     CTL2    -0.180000       12.0110           0
      3797 MEMB     165      SAPC     H15X     HAL2     0.900000E-01   1.00800           0
      3798 MEMB     165      SAPC     H15Y     HAL2     0.900000E-01   1.00800           0
      3799 MEMB     165      SAPC     C316     CTL2    -0.180000       12.0110           0
      3800 MEMB     165      SAPC     H16X     HAL2     0.900000E-01   1.00800           0
      3801 MEMB     165      SAPC     H16Y     HAL2     0.900000E-01   1.00800           0
      3802 MEMB     165      SAPC     C317     CTL2    -0.180000       12.0110           0
      3803 MEMB     165      SAPC     H17X     HAL2     0.900000E-01   1.00800           0
      3804 MEMB     165      SAPC     H17Y     HAL2     0.900000E-01   1.00800           0
      3805 MEMB     165      SAPC     C318     CTL3    -0.270000       12.0110           0
      3806 MEMB     165      SAPC     H18X     HAL3     0.900000E-01   1.00800           0
      3807 MEMB     165      SAPC     H18Y     HAL3     0.900000E-01   1.00800           0
      3808 MEMB     165      SAPC     H18Z     HAL3     0.900000E-01   1.00800           0
      3809 MEMB     173      SAPC     N        NTL     -0.600000       14.0070           0
      3810 MEMB     173      SAPC     C12      CTL2    -0.100000       12.0110           0
      3811 MEMB     173      SAPC     H12A     HL       0.250000       1.00800           0
      3812 MEMB     173      SAPC     H12B     HL       0.250000       1.00800           0
      3813 MEMB     173      SAPC     C13      CTL5    -0.350000       12.0110           0
      3814 MEMB     173      SAPC     H13A     HL       0.250000       1.00800           0
      3815 MEMB     173      SAPC     H13B     HL       0.250000       1.00800           0
      3816 MEMB     173      SAPC     H13C     HL       0.250000       1.00800           0
      3817 MEMB     173      SAPC     C14      CTL5    -0.350000       12.0110           0
      3818 MEMB     173      SAPC     H14A     HL       0.250000       1.00800           0
      3819 MEMB     173      SAPC     H14B     HL       0.250000       1.00800           0
      3820 MEMB     173      SAPC     H14C     HL       0.250000       1.00800           0
      3821 MEMB     173      SAPC     C15      CTL5    -0.350000       12.0110           0
      3822 MEMB     173      SAPC     H15A     HL       0.250000       1.00800           0
      3823 MEMB     173      SAPC     H15B     HL       0.250000       1.00800           0
      3824 MEMB     173      SAPC     H15C     HL       0.250000       1.00800           0
      3825 MEMB     173      SAPC     C11      CTL2    -0.800000E-01   12.0110           0
      3826 MEMB     173      SAPC     H11A     HAL2     0.900000E-01   1.00800           0
      3827 MEMB     173      SAPC     H11B     HAL2     0.900000E-01   1.00800           0
      3828 MEMB     173      SAPC     P        PL       1.500000       30.9740           0
      3829 MEMB     173      SAPC     O13      O2L     -0.780000       15.9994           0
      3830 MEMB     173      SAPC     O14      O2L     -0.780000       15.9994           0
      3831 MEMB     173      SAPC     O12      OSLP    -0.570000       15.9994           0
      3832 MEMB     173      SAPC     O11      OSLP    -0.570000       15.9994           0
      3833 MEMB     173      SAPC     C1       CTL2    -0.800000E-01   12.0110           0
      3834 MEMB     173      SAPC     HA       HAL2     0.900000E-01   1.00800           0
      3835 MEMB     173      SAPC     HB       HAL2     0.900000E-01   1.00800           0
      3836 MEMB     173      SAPC     C2       CTL1     0.170000       12.0110           0
      3837 MEMB     173      SAPC     HS       HAL1     0.900000E-01   1.00800           0
      3838 MEMB     173      SAPC     O21      OSL     -0.490000       15.9994           0
      3839 MEMB     173      SAPC     C21      CL       0.900000       12.0110           0
      3840 MEMB     173      SAPC     O22      OBL     -0.630000       15.9994           0
      3841 MEMB     173      SAPC     C22      CTL2    -0.220000       12.0110           0
      3842 MEMB     173      SAPC     H2R      HAL2     0.900000E-01   1.00800           0
      3843 MEMB     173      SAPC     H2S      HAL2     0.900000E-01   1.00800           0
      3844 MEMB     173      SAPC     C3       CTL2     0.800000E-01   12.0110           0
      3845 MEMB     173      SAPC     HX       HAL2     0.900000E-01   1.00800           0
      3846 MEMB     173      SAPC     HY       HAL2     0.900000E-01   1.00800           0
      3847 MEMB     173      SAPC     O31      OSL     -0.490000       15.9994           0
      3848 MEMB     173      SAPC     C31      CL       0.900000       12.0110           0
      3849 MEMB     173      SAPC     O32      OBL     -0.630000       15.9994           0
      3850 MEMB     173      SAPC     C32      CTL2    -0.220000       12.0110           0
      3851 MEMB     173      SAPC     H2X      HAL2     0.900000E-01   1.00800           0
      3852 MEMB     173      SAPC     H2Y      HAL2     0.900000E-01   1.00800           0
      3853 MEMB     173      SAPC     C23      CTL2    -0.180000       12.0110           0
      3854 MEMB     173      SAPC     H3R      HAL2     0.900000E-01   1.00800           0
      3855 MEMB     173      SAPC     H3S      HAL2     0.900000E-01   1.00800           0
      3856 MEMB     173      SAPC     C24      CTL2    -0.180000       12.0110           0
      3857 MEMB     173      SAPC     H4R      HAL2     0.900000E-01   1.00800           0
      3858 MEMB     173      SAPC     H4S      HAL2     0.900000E-01   1.00800           0
      3859 MEMB     173      SAPC     C25      CEL1    -0.150000       12.0110           0
      3860 MEMB     173      SAPC     H5R      HEL1     0.150000       1.00800           0
      3861 MEMB     173      SAPC     C26      CEL1    -0.150000       12.0110           0
      3862 MEMB     173      SAPC     H6R      HEL1     0.150000       1.00800           0
      3863 MEMB     173      SAPC     C27      CTL2    -0.180000       12.0110           0
      3864 MEMB     173      SAPC     H7R      HAL2     0.900000E-01   1.00800           0
      3865 MEMB     173      SAPC     H7S      HAL2     0.900000E-01   1.00800           0
      3866 MEMB     173      SAPC     C28      CEL1    -0.150000       12.0110           0
      3867 MEMB     173      SAPC     H8R      HEL1     0.150000       1.00800           0
      3868 MEMB     173      SAPC     C29      CEL1    -0.150000       12.0110           0
      3869 MEMB     173      SAPC     H9R      HEL1     0.150000       1.00800           0
      3870 MEMB     173      SAPC     C210     CTL2    -0.180000       12.0110           0
      3871 MEMB     173      SAPC     H10R     HAL2     0.900000E-01   1.00800           0
      3872 MEMB     173      SAPC     H10S     HAL2     0.900000E-01   1.00800           0
      3873 MEMB     173      SAPC     C211     CEL1    -0.150000       12.0110           0
      3874 MEMB     173      SAPC     H11R     HEL1     0.150000       1.00800           0
      3875 MEMB     173      SAPC     C212     CEL1    -0.150000       12.0110           0
      3876 MEMB     173      SAPC     H12R     HEL1     0.150000       1.00800           0
      3877 MEMB     173      SAPC     C213     CTL2    -0.180000       12.0110           0
      3878 MEMB     173      SAPC     H13R     HAL2     0.900000E-01   1.00800           0
      3879 MEMB     173      SAPC     H13S     HAL2     0.900000E-01   1.00800           0
      3880 MEMB     173      SAPC     C214     CEL1    -0.150000       12.0110           0
      3881 MEMB     173      SAPC     H14R     HEL1     0.150000       1.00800           0
      3882 MEMB     173      SAPC     C215     CEL1    -0.150000       12.0110           0
      3883 MEMB     173      SAPC     H15R     HEL1     0.150000       1.00800           0
      3884 MEMB     173      SAPC     C216     CTL2    -0.180000       12.0110           0
      3885 MEMB     173      SAPC     H16R     HAL2     0.900000E-01   1.00800           0
      3886 MEMB     173      SAPC     H16S     HAL2     0.900000E-01   1.00800           0
      3887 MEMB     173      SAPC     C217     CTL2    -0.180000       12.0110           0
      3888 MEMB     173      SAPC     H17R     HAL2     0.900000E-01   1.00800           0
      3889 MEMB     173      SAPC     H17S     HAL2     0.900000E-01   1.00800           0
      3890 MEMB     173      SAPC     C218     CTL2    -0.270000       12.0110           0
      3891 MEMB     173      SAPC     H18R     HAL2     0.900000E-01   1.00800           0
      3892 MEMB     173      SAPC     H18S     HAL2     0.900000E-01   1.00800           0
      3893 MEMB     173      SAPC     C219     CTL2    -0.180000       12.0110           0
      3894 MEMB     173      SAPC     H19R     HAL2     0.900000E-01   1.00800           0
      3895 MEMB     173      SAPC     H19S     HAL2     0.900000E-01   1.00800           0
      3896 MEMB     173      SAPC     C220     CTL3    -0.180000       12.0110           0
      3897 MEMB     173      SAPC     H20R     HAL3     0.900000E-01   1.00800           0
      3898 MEMB     173      SAPC     H20S     HAL3     0.900000E-01   1.00800           0
      3899 MEMB     173      SAPC     H20T     HAL3     0.900000E-01   1.00800           0
      3900 MEMB     173      SAPC     C33      CTL2    -0.180000       12.0110           0
      3901 MEMB     173      SAPC     H3X      HAL2     0.900000E-01   1.00800           0
      3902 MEMB     173      SAPC     H3Y      HAL2     0.900000E-01   1.00800           0
      3903 MEMB     173      SAPC     C34      CTL2    -0.180000       12.0110           0
      3904 MEMB     173      SAPC     H4X      HAL2     0.900000E-01   1.00800           0
      3905 MEMB     173      SAPC     H4Y      HAL2     0.900000E-01   1.00800           0
      3906 MEMB     173      SAPC     C35      CTL2    -0.180000       12.0110           0
      3907 MEMB     173      SAPC     H5X      HAL2     0.900000E-01   1.00800           0
      3908 MEMB     173      SAPC     H5Y      HAL2     0.900000E-01   1.00800           0
      3909 MEMB     173      SAPC     C36      CTL2    -0.180000       12.0110           0
      3910 MEMB     173      SAPC     H6X      HAL2     0.900000E-01   1.00800           0
      3911 MEMB     173      SAPC     H6Y      HAL2     0.900000E-01   1.00800           0
      3912 MEMB     173      SAPC     C37      CTL2    -0.180000       12.0110           0
      3913 MEMB     173      SAPC     H7X      HAL2     0.900000E-01   1.00800           0
      3914 MEMB     173      SAPC     H7Y      HAL2     0.900000E-01   1.00800           0
      3915 MEMB     173      SAPC     C38      CTL2    -0.180000       12.0110           0
      3916 MEMB     173      SAPC     H8X      HAL2     0.900000E-01   1.00800           0
      3917 MEMB     173      SAPC     H8Y      HAL2     0.900000E-01   1.00800           0
      3918 MEMB     173      SAPC     C39      CTL2    -0.180000       12.0110           0
      3919 MEMB     173      SAPC     H9X      HAL2     0.900000E-01   1.00800           0
      3920 MEMB     173      SAPC     H9Y      HAL2     0.900000E-01   1.00800           0
      3921 MEMB     173      SAPC     C310     CTL2    -0.180000       12.0110           0
      3922 MEMB     173      SAPC     H10X     HAL2     0.900000E-01   1.00800           0
      3923 MEMB     173      SAPC     H10Y     HAL2     0.900000E-01   1.00800           0
      3924 MEMB     173      SAPC     C311     CTL2    -0.180000       12.0110           0
      3925 MEMB     173      SAPC     H11X     HAL2     0.900000E-01   1.00800           0
      3926 MEMB     173      SAPC     H11Y     HAL2     0.900000E-01   1.00800           0
      3927 MEMB     173      SAPC     C312     CTL2    -0.180000       12.0110           0
      3928 MEMB     173      SAPC     H12X     HAL2     0.900000E-01   1.00800           0
      3929 MEMB     173      SAPC     H12Y     HAL2     0.900000E-01   1.00800           0
      3930 MEMB     173      SAPC     C313     CTL2    -0.180000       12.0110           0
      3931 MEMB     173      SAPC     H13X     HAL2     0.900000E-01   1.00800           0
      3932 MEMB     173      SAPC     H13Y     HAL2     0.900000E-01   1.00800           0
      3933 MEMB     173      SAPC     C314     CTL2    -0.180000       12.0110           0
      3934 MEMB     173      SAPC     H14X     HAL2     0.900000E-01   1.00800           0
      3935 MEMB     173      SAPC     H14Y     HAL2     0.900000E-01   1.00800           0
      3936 MEMB     173      SAPC     C315     CTL2    -0.180000       12.0110           0
      3937 MEMB     173      SAPC     H15X     HAL2     0.900000E-01   1.00800           0
      3938 MEMB     173      SAPC     H15Y     HAL2     0.900000E-01   1.00800           0
      3939 MEMB     173      SAPC     C316     CTL2    -0.180000       12.0110           0
      3940 MEMB     173      SAPC     H16X     HAL2     0.900000E-01   1.00800           0
      3941 MEMB     173      SAPC     H16Y     HAL2     0.900000E-01   1.00800           0
      3942 MEMB     173      SAPC     C317     CTL2    -0.180000       12.0110           0
      3943 MEMB     173      SAPC     H17X     HAL2     0.900000E-01   1.00800           0
      3944 MEMB     173      SAPC     H17Y     HAL2     0.900000E-01   1.00800           0
      3945 MEMB     173      SAPC     C318     CTL3    -0.270000       12.0110           0
      3946 MEMB     173      SAPC     H18X     HAL3     0.900000E-01   1.00800           0
      3947 MEMB     173      SAPC     H18Y     HAL3     0.900000E-01   1.00800           0
      3948 MEMB     173      SAPC     H18Z     HAL3     0.900000E-01   1.00800           0
      3949 MEMB     181      SAPC     N        NTL     -0.600000       14.0070           0
      3950 MEMB     181      SAPC     C12      CTL2    -0.100000       12.0110           0
      3951 MEMB     181      SAPC     H12A     HL       0.250000       1.00800           0
      3952 MEMB     181      SAPC     H12B     HL       0.250000       1.00800           0
      3953 MEMB     181      SAPC     C13      CTL5    -0.350000       12.0110           0
      3954 MEMB     181      SAPC     H13A     HL       0.250000       1.00800           0
      3955 MEMB     181      SAPC     H13B     HL       0.250000       1.00800           0
      3956 MEMB     181      SAPC     H13C     HL       0.250000       1.00800           0
      3957 MEMB     181      SAPC     C14      CTL5    -0.350000       12.0110           0
      3958 MEMB     181      SAPC     H14A     HL       0.250000       1.00800           0
      3959 MEMB     181      SAPC     H14B     HL       0.250000       1.00800           0
      3960 MEMB     181      SAPC     H14C     HL       0.250000       1.00800           0
      3961 MEMB     181      SAPC     C15      CTL5    -0.350000       12.0110           0
      3962 MEMB     181      SAPC     H15A     HL       0.250000       1.00800           0
      3963 MEMB     181      SAPC     H15B     HL       0.250000       1.00800           0
      3964 MEMB     181      SAPC     H15C     HL       0.250000       1.00800           0
      3965 MEMB     181      SAPC     C11      CTL2    -0.800000E-01   12.0110           0
      3966 MEMB     181      SAPC     H11A     HAL2     0.900000E-01   1.00800           0
      3967 MEMB     181      SAPC     H11B     HAL2     0.900000E-01   1.00800           0
      3968 MEMB     181      SAPC     P        PL       1.500000       30.9740           0
      3969 MEMB     181      SAPC     O13      O2L     -0.780000       15.9994           0
      3970 MEMB     181      SAPC     O14      O2L     -0.780000       15.9994           0
      3971 MEMB     181      SAPC     O12      OSLP    -0.570000       15.9994           0
      3972 MEMB     181      SAPC     O11      OSLP    -0.570000       15.9994           0
      3973 MEMB     181      SAPC     C1       CTL2    -0.800000E-01   12.0110           0
      3974 MEMB     181      SAPC     HA       HAL2     0.900000E-01   1.00800           0
      3975 MEMB     181      SAPC     HB       HAL2     0.900000E-01   1.00800           0
      3976 MEMB     181      SAPC     C2       CTL1     0.170000       12.0110           0
      3977 MEMB     181      SAPC     HS       HAL1     0.900000E-01   1.00800           0
      3978 MEMB     181      SAPC     O21      OSL     -0.490000       15.9994           0
      3979 MEMB     181      SAPC     C21      CL       0.900000       12.0110           0
      3980 MEMB     181      SAPC     O22      OBL     -0.630000       15.9994           0
      3981 MEMB     181      SAPC     C22      CTL2    -0.220000       12.0110           0
      3982 MEMB     181      SAPC     H2R      HAL2     0.900000E-01   1.00800           0
      3983 MEMB     181      SAPC     H2S      HAL2     0.900000E-01   1.00800           0
      3984 MEMB     181      SAPC     C3       CTL2     0.800000E-01   12.0110           0
      3985 MEMB     181      SAPC     HX       HAL2     0.900000E-01   1.00800           0
      3986 MEMB     181      SAPC     HY       HAL2     0.900000E-01   1.00800           0
      3987 MEMB     181      SAPC     O31      OSL     -0.490000       15.9994           0
      3988 MEMB     181      SAPC     C31      CL       0.900000       12.0110           0
      3989 MEMB     181      SAPC     O32      OBL     -0.630000       15.9994           0
      3990 MEMB     181      SAPC     C32      CTL2    -0.220000       12.0110           0
      3991 MEMB     181      SAPC     H2X      HAL2     0.900000E-01   1.00800           0
      3992 MEMB     181      SAPC     H2Y      HAL2     0.900000E-01   1.00800           0
      3993 MEMB     181      SAPC     C23      CTL2    -0.180000       12.0110           0
      3994 MEMB     181      SAPC     H3R      HAL2     0.900000E-01   1.00800           0
      3995 MEMB     181      SAPC     H3S      HAL2     0.900000E-01   1.00800           0
      3996 MEMB     181      SAPC     C24      CTL2    -0.180000       12.0110           0
      3997 MEMB     181      SAPC     H4R      HAL2     0.900000E-01   1.00800           0
      3998 MEMB     181      SAPC     H4S      HAL2     0.900000E-01   1.00800           0
      3999 MEMB     181      SAPC     C25      CEL1    -0.150000       12.0110           0
      4000 MEMB     181      SAPC     H5R      HEL1     0.150000       1.00800           0
      4001 MEMB     181      SAPC     C26      CEL1    -0.150000       12.0110           0
      4002 MEMB     181      SAPC     H6R      HEL1     0.150000       1.00800           0
      4003 MEMB     181      SAPC     C27      CTL2    -0.180000       12.0110           0
      4004 MEMB     181      SAPC     H7R      HAL2     0.900000E-01   1.00800           0
      4005 MEMB     181      SAPC     H7S      HAL2     0.900000E-01   1.00800           0
      4006 MEMB     181      SAPC     C28      CEL1    -0.150000       12.0110           0
      4007 MEMB     181      SAPC     H8R      HEL1     0.150000       1.00800           0
      4008 MEMB     181      SAPC     C29      CEL1    -0.150000       12.0110           0
      4009 MEMB     181      SAPC     H9R      HEL1     0.150000       1.00800           0
      4010 MEMB     181      SAPC     C210     CTL2    -0.180000       12.0110           0
      4011 MEMB     181      SAPC     H10R     HAL2     0.900000E-01   1.00800           0
      4012 MEMB     181      SAPC     H10S     HAL2     0.900000E-01   1.00800           0
      4013 MEMB     181      SAPC     C211     CEL1    -0.150000       12.0110           0
      4014 MEMB     181      SAPC     H11R     HEL1     0.150000       1.00800           0
      4015 MEMB     181      SAPC     C212     CEL1    -0.150000       12.0110           0
      4016 MEMB     181      SAPC     H12R     HEL1     0.150000       1.00800           0
      4017 MEMB     181      SAPC     C213     CTL2    -0.180000       12.0110           0
      4018 MEMB     181      SAPC     H13R     HAL2     0.900000E-01   1.00800           0
      4019 MEMB     181      SAPC     H13S     HAL2     0.900000E-01   1.00800           0
      4020 MEMB     181      SAPC     C214     CEL1    -0.150000       12.0110           0
      4021 MEMB     181      SAPC     H14R     HEL1     0.150000       1.00800           0
      4022 MEMB     181      SAPC     C215     CEL1    -0.150000       12.0110           0
      4023 MEMB     181      SAPC     H15R     HEL1     0.150000       1.00800           0
      4024 MEMB     181      SAPC     C216     CTL2    -0.180000       12.0110           0
      4025 MEMB     181      SAPC     H16R     HAL2     0.900000E-01   1.00800           0
      4026 MEMB     181      SAPC     H16S     HAL2     0.900000E-01   1.00800           0
      4027 MEMB     181      SAPC     C217     CTL2    -0.180000       12.0110           0
      4028 MEMB     181      SAPC     H17R     HAL2     0.900000E-01   1.00800           0
      4029 MEMB     181      SAPC     H17S     HAL2     0.900000E-01   1.00800           0
      4030 MEMB     181      SAPC     C218     CTL2    -0.270000       12.0110           0
      4031 MEMB     181      SAPC     H18R     HAL2     0.900000E-01   1.00800           0
      4032 MEMB     181      SAPC     H18S     HAL2     0.900000E-01   1.00800           0
      4033 MEMB     181      SAPC     C219     CTL2    -0.180000       12.0110           0
      4034 MEMB     181      SAPC     H19R     HAL2     0.900000E-01   1.00800           0
      4035 MEMB     181      SAPC     H19S     HAL2     0.900000E-01   1.00800           0
      4036 MEMB     181      SAPC     C220     CTL3    -0.180000       12.0110           0
      4037 MEMB     181      SAPC     H20R     HAL3     0.900000E-01   1.00800           0
      4038 MEMB     181      SAPC     H20S     HAL3     0.900000E-01   1.00800           0
      4039 MEMB     181      SAPC     H20T     HAL3     0.900000E-01   1.00800           0
      4040 MEMB     181      SAPC     C33      CTL2    -0.180000       12.0110           0
      4041 MEMB     181      SAPC     H3X      HAL2     0.900000E-01   1.00800           0
      4042 MEMB     181      SAPC     H3Y      HAL2     0.900000E-01   1.00800           0
      4043 MEMB     181      SAPC     C34      CTL2    -0.180000       12.0110           0
      4044 MEMB     181      SAPC     H4X      HAL2     0.900000E-01   1.00800           0
      4045 MEMB     181      SAPC     H4Y      HAL2     0.900000E-01   1.00800           0
      4046 MEMB     181      SAPC     C35      CTL2    -0.180000       12.0110           0
      4047 MEMB     181      SAPC     H5X      HAL2     0.900000E-01   1.00800           0
      4048 MEMB     181      SAPC     H5Y      HAL2     0.900000E-01   1.00800           0
      4049 MEMB     181      SAPC     C36      CTL2    -0.180000       12.0110           0
      4050 MEMB     181      SAPC     H6X      HAL2     0.900000E-01   1.00800           0
      4051 MEMB     181      SAPC     H6Y      HAL2     0.900000E-01   1.00800           0
      4052 MEMB     181      SAPC     C37      CTL2    -0.180000       12.0110           0
      4053 MEMB     181      SAPC     H7X      HAL2     0.900000E-01   1.00800           0
      4054 MEMB     181      SAPC     H7Y      HAL2     0.900000E-01   1.00800           0
      4055 MEMB     181      SAPC     C38      CTL2    -0.180000       12.0110           0
      4056 MEMB     181      SAPC     H8X      HAL2     0.900000E-01   1.00800           0
      4057 MEMB     181      SAPC     H8Y      HAL2     0.900000E-01   1.00800           0
      4058 MEMB     181      SAPC     C39      CTL2    -0.180000       12.0110           0
      4059 MEMB     181      SAPC     H9X      HAL2     0.900000E-01   1.00800           0
      4060 MEMB     181      SAPC     H9Y      HAL2     0.900000E-01   1.00800           0
      4061 MEMB     181      SAPC     C310     CTL2    -0.180000       12.0110           0
      4062 MEMB     181      SAPC     H10X     HAL2     0.900000E-01   1.00800           0
      4063 MEMB     181      SAPC     H10Y     HAL2     0.900000E-01   1.00800           0
      4064 MEMB     181      SAPC     C311     CTL2    -0.180000       12.0110           0
      4065 MEMB     181      SAPC     H11X     HAL2     0.900000E-01   1.00800           0
      4066 MEMB     181      SAPC     H11Y     HAL2     0.900000E-01   1.00800           0
      4067 MEMB     181      SAPC     C312     CTL2    -0.180000       12.0110           0
      4068 MEMB     181      SAPC     H12X     HAL2     0.900000E-01   1.00800           0
      4069 MEMB     181      SAPC     H12Y     HAL2     0.900000E-01   1.00800           0
      4070 MEMB     181      SAPC     C313     CTL2    -0.180000       12.0110           0
      4071 MEMB     181      SAPC     H13X     HAL2     0.900000E-01   1.00800           0
      4072 MEMB     181      SAPC     H13Y     HAL2     0.900000E-01   1.00800           0
      4073 MEMB     181      SAPC     C314     CTL2    -0.180000       12.0110           0
      4074 MEMB     181      SAPC     H14X     HAL2     0.900000E-01   1.00800           0
      4075 MEMB     181      SAPC     H14Y     HAL2     0.900000E-01   1.00800           0
      4076 MEMB     181      SAPC     C315     CTL2    -0.180000       12.0110           0
      4077 MEMB     181      SAPC     H15X     HAL2     0.900000E-01   1.00800           0
      4078 MEMB     181      SAPC     H15Y     HAL2     0.900000E-01   1.00800           0
      4079 MEMB     181      SAPC     C316     CTL2    -0.180000       12.0110           0
      4080 MEMB     181      SAPC     H16X     HAL2     0.900000E-01   1.00800           0
      4081 MEMB     181      SAPC     H16Y     HAL2     0.900000E-01   1.00800           0
      4082 MEMB     181      SAPC     C317     CTL2    -0.180000       12.0110           0
      4083 MEMB     181      SAPC     H17X     HAL2     0.900000E-01   1.00800           0
      4084 MEMB     181      SAPC     H17Y     HAL2     0.900000E-01   1.00800           0
      4085 MEMB     181      SAPC     C318     CTL3    -0.270000       12.0110           0
      4086 MEMB     181      SAPC     H18X     HAL3     0.900000E-01   1.00800           0
      4087 MEMB     181      SAPC     H18Y     HAL3     0.900000E-01   1.00800           0
      4088 MEMB     181      SAPC     H18Z     HAL3     0.900000E-01   1.00800           0
      4089 MEMB     184      SAPC     N        NTL     -0.600000       14.0070           0
      4090 MEMB     184      SAPC     C12      CTL2    -0.100000       12.0110           0
      4091 MEMB     184      SAPC     H12A     HL       0.250000       1.00800           0
      4092 MEMB     184      SAPC     H12B     HL       0.250000       1.00800           0
      4093 MEMB     184      SAPC     C13      CTL5    -0.350000       12.0110           0
      4094 MEMB     184      SAPC     H13A     HL       0.250000       1.00800           0
      4095 MEMB     184      SAPC     H13B     HL       0.250000       1.00800           0
      4096 MEMB     184      SAPC     H13C     HL       0.250000       1.00800           0
      4097 MEMB     184      SAPC     C14      CTL5    -0.350000       12.0110           0
      4098 MEMB     184      SAPC     H14A     HL       0.250000       1.00800           0
      4099 MEMB     184      SAPC     H14B     HL       0.250000       1.00800           0
      4100 MEMB     184      SAPC     H14C     HL       0.250000       1.00800           0
      4101 MEMB     184      SAPC     C15      CTL5    -0.350000       12.0110           0
      4102 MEMB     184      SAPC     H15A     HL       0.250000       1.00800           0
      4103 MEMB     184      SAPC     H15B     HL       0.250000       1.00800           0
      4104 MEMB     184      SAPC     H15C     HL       0.250000       1.00800           0
      4105 MEMB     184      SAPC     C11      CTL2    -0.800000E-01   12.0110           0
      4106 MEMB     184      SAPC     H11A     HAL2     0.900000E-01   1.00800           0
      4107 MEMB     184      SAPC     H11B     HAL2     0.900000E-01   1.00800           0
      4108 MEMB     184      SAPC     P        PL       1.500000       30.9740           0
      4109 MEMB     184      SAPC     O13      O2L     -0.780000       15.9994           0
      4110 MEMB     184      SAPC     O14      O2L     -0.780000       15.9994           0
      4111 MEMB     184      SAPC     O12      OSLP    -0.570000       15.9994           0
      4112 MEMB     184      SAPC     O11      OSLP    -0.570000       15.9994           0
      4113 MEMB     184      SAPC     C1       CTL2    -0.800000E-01   12.0110           0
      4114 MEMB     184      SAPC     HA       HAL2     0.900000E-01   1.00800           0
      4115 MEMB     184      SAPC     HB       HAL2     0.900000E-01   1.00800           0
      4116 MEMB     184      SAPC     C2       CTL1     0.170000       12.0110           0
      4117 MEMB     184      SAPC     HS       HAL1     0.900000E-01   1.00800           0
      4118 MEMB     184      SAPC     O21      OSL     -0.490000       15.9994           0
      4119 MEMB     184      SAPC     C21      CL       0.900000       12.0110           0
      4120 MEMB     184      SAPC     O22      OBL     -0.630000       15.9994           0
      4121 MEMB     184      SAPC     C22      CTL2    -0.220000       12.0110           0
      4122 MEMB     184      SAPC     H2R      HAL2     0.900000E-01   1.00800           0
      4123 MEMB     184      SAPC     H2S      HAL2     0.900000E-01   1.00800           0
      4124 MEMB     184      SAPC     C3       CTL2     0.800000E-01   12.0110           0
      4125 MEMB     184      SAPC     HX       HAL2     0.900000E-01   1.00800           0
      4126 MEMB     184      SAPC     HY       HAL2     0.900000E-01   1.00800           0
      4127 MEMB     184      SAPC     O31      OSL     -0.490000       15.9994           0
      4128 MEMB     184      SAPC     C31      CL       0.900000       12.0110           0
      4129 MEMB     184      SAPC     O32      OBL     -0.630000       15.9994           0
      4130 MEMB     184      SAPC     C32      CTL2    -0.220000       12.0110           0
      4131 MEMB     184      SAPC     H2X      HAL2     0.900000E-01   1.00800           0
      4132 MEMB     184      SAPC     H2Y      HAL2     0.900000E-01   1.00800           0
      4133 MEMB     184      SAPC     C23      CTL2    -0.180000       12.0110           0
      4134 MEMB     184      SAPC     H3R      HAL2     0.900000E-01   1.00800           0
      4135 MEMB     184      SAPC     H3S      HAL2     0.900000E-01   1.00800           0
      4136 MEMB     184      SAPC     C24      CTL2    -0.180000       12.0110           0
      4137 MEMB     184      SAPC     H4R      HAL2     0.900000E-01   1.00800           0
      4138 MEMB     184      SAPC     H4S      HAL2     0.900000E-01   1.00800           0
      4139 MEMB     184      SAPC     C25      CEL1    -0.150000       12.0110           0
      4140 MEMB     184      SAPC     H5R      HEL1     0.150000       1.00800           0
      4141 MEMB     184      SAPC     C26      CEL1    -0.150000       12.0110           0
      4142 MEMB     184      SAPC     H6R      HEL1     0.150000       1.00800           0
      4143 MEMB     184      SAPC     C27      CTL2    -0.180000       12.0110           0
      4144 MEMB     184      SAPC     H7R      HAL2     0.900000E-01   1.00800           0
      4145 MEMB     184      SAPC     H7S      HAL2     0.900000E-01   1.00800           0
      4146 MEMB     184      SAPC     C28      CEL1    -0.150000       12.0110           0
      4147 MEMB     184      SAPC     H8R      HEL1     0.150000       1.00800           0
      4148 MEMB     184      SAPC     C29      CEL1    -0.150000       12.0110           0
      4149 MEMB     184      SAPC     H9R      HEL1     0.150000       1.00800           0
      4150 MEMB     184      SAPC     C210     CTL2    -0.180000       12.0110           0
      4151 MEMB     184      SAPC     H10R     HAL2     0.900000E-01   1.00800           0
      4152 MEMB     184      SAPC     H10S     HAL2     0.900000E-01   1.00800           0
      4153 MEMB     184      SAPC     C211     CEL1    -0.150000       12.0110           0
      4154 MEMB     184      SAPC     H11R     HEL1     0.150000       1.00800           0
      4155 MEMB     184      SAPC     C212     CEL1    -0.150000       12.0110           0
      4156 MEMB     184      SAPC     H12R     HEL1     0.150000       1.00800           0
      4157 MEMB     184      SAPC     C213     CTL2    -0.180000       12.0110           0
      4158 MEMB     184      SAPC     H13R     HAL2     0.900000E-01   1.00800           0
      4159 MEMB     184      SAPC     H13S     HAL2     0.900000E-01   1.00800           0
      4160 MEMB     184      SAPC     C214     CEL1    -0.150000       12.0110           0
      4161 MEMB     184      SAPC     H14R     HEL1     0.150000       1.00800           0
      4162 MEMB     184      SAPC     C215     CEL1    -0.150000       12.0110           0
      4163 MEMB     184      SAPC     H15R     HEL1     0.150000       1.00800           0
      4164 MEMB     184      SAPC     C216     CTL2    -0.180000       12.0110           0
      4165 MEMB     184      SAPC     H16R     HAL2     0.900000E-01   1.00800           0
      4166 MEMB     184      SAPC     H16S     HAL2     0.900000E-01   1.00800           0
      4167 MEMB     184      SAPC     C217     CTL2    -0.180000       12.0110           0
      4168 MEMB     184      SAPC     H17R     HAL2     0.900000E-01   1.00800           0
      4169 MEMB     184      SAPC     H17S     HAL2     0.900000E-01   1.00800           0
      4170 MEMB     184      SAPC     C218     CTL2    -0.270000       12.0110           0
      4171 MEMB     184      SAPC     H18R     HAL2     0.900000E-01   1.00800           0
      4172 MEMB     184      SAPC     H18S     HAL2     0.900000E-01   1.00800           0
      4173 MEMB     184      SAPC     C219     CTL2    -0.180000       12.0110           0
      4174 MEMB     184      SAPC     H19R     HAL2     0.900000E-01   1.00800           0
      4175 MEMB     184      SAPC     H19S     HAL2     0.900000E-01   1.00800           0
      4176 MEMB     184      SAPC     C220     CTL3    -0.180000       12.0110           0
      4177 MEMB     184      SAPC     H20R     HAL3     0.900000E-01   1.00800           0
      4178 MEMB     184      SAPC     H20S     HAL3     0.900000E-01   1.00800           0
      4179 MEMB     184      SAPC     H20T     HAL3     0.900000E-01   1.00800           0
      4180 MEMB     184      SAPC     C33      CTL2    -0.180000       12.0110           0
      4181 MEMB     184      SAPC     H3X      HAL2     0.900000E-01   1.00800           0
      4182 MEMB     184      SAPC     H3Y      HAL2     0.900000E-01   1.00800           0
      4183 MEMB     184      SAPC     C34      CTL2    -0.180000       12.0110           0
      4184 MEMB     184      SAPC     H4X      HAL2     0.900000E-01   1.00800           0
      4185 MEMB     184      SAPC     H4Y      HAL2     0.900000E-01   1.00800           0
      4186 MEMB     184      SAPC     C35      CTL2    -0.180000       12.0110           0
      4187 MEMB     184      SAPC     H5X      HAL2     0.900000E-01   1.00800           0
      4188 MEMB     184      SAPC     H5Y      HAL2     0.900000E-01   1.00800           0
      4189 MEMB     184      SAPC     C36      CTL2    -0.180000       12.0110           0
      4190 MEMB     184      SAPC     H6X      HAL2     0.900000E-01   1.00800           0
      4191 MEMB     184      SAPC     H6Y      HAL2     0.900000E-01   1.00800           0
      4192 MEMB     184      SAPC     C37      CTL2    -0.180000       12.0110           0
      4193 MEMB     184      SAPC     H7X      HAL2     0.900000E-01   1.00800           0
      4194 MEMB     184      SAPC     H7Y      HAL2     0.900000E-01   1.00800           0
      4195 MEMB     184      SAPC     C38      CTL2    -0.180000       12.0110           0
      4196 MEMB     184      SAPC     H8X      HAL2     0.900000E-01   1.00800           0
      4197 MEMB     184      SAPC     H8Y      HAL2     0.900000E-01   1.00800           0
      4198 MEMB     184      SAPC     C39      CTL2    -0.180000       12.0110           0
      4199 MEMB     184      SAPC     H9X      HAL2     0.900000E-01   1.00800           0
      4200 MEMB     184      SAPC     H9Y      HAL2     0.900000E-01   1.00800           0
      4201 MEMB     184      SAPC     C310     CTL2    -0.180000       12.0110           0
      4202 MEMB     184      SAPC     H10X     HAL2     0.900000E-01   1.00800           0
      4203 MEMB     184      SAPC     H10Y     HAL2     0.900000E-01   1.00800           0
      4204 MEMB     184      SAPC     C311     CTL2    -0.180000       12.0110           0
      4205 MEMB     184      SAPC     H11X     HAL2     0.900000E-01   1.00800           0
      4206 MEMB     184      SAPC     H11Y     HAL2     0.900000E-01   1.00800           0
      4207 MEMB     184      SAPC     C312     CTL2    -0.180000       12.0110           0
      4208 MEMB     184      SAPC     H12X     HAL2     0.900000E-01   1.00800           0
      4209 MEMB     184      SAPC     H12Y     HAL2     0.900000E-01   1.00800           0
      4210 MEMB     184      SAPC     C313     CTL2    -0.180000       12.0110           0
      4211 MEMB     184      SAPC     H13X     HAL2     0.900000E-01   1.00800           0
      4212 MEMB     184      SAPC     H13Y     HAL2     0.900000E-01   1.00800           0
      4213 MEMB     184      SAPC     C314     CTL2    -0.180000       12.0110           0
      4214 MEMB     184      SAPC     H14X     HAL2     0.900000E-01   1.00800           0
      4215 MEMB     184      SAPC     H14Y     HAL2     0.900000E-01   1.00800           0
      4216 MEMB     184      SAPC     C315     CTL2    -0.180000       12.0110           0
      4217 MEMB     184      SAPC     H15X     HAL2     0.900000E-01   1.00800           0
      4218 MEMB     184      SAPC     H15Y     HAL2     0.900000E-01   1.00800           0
      4219 MEMB     184      SAPC     C316     CTL2    -0.180000       12.0110           0
      4220 MEMB     184      SAPC     H16X     HAL2     0.900000E-01   1.00800           0
      4221 MEMB     184      SAPC     H16Y     HAL2     0.900000E-01   1.00800           0
      4222 MEMB     184      SAPC     C317     CTL2    -0.180000       12.0110           0
      4223 MEMB     184      SAPC     H17X     HAL2     0.900000E-01   1.00800           0
      4224 MEMB     184      SAPC     H17Y     HAL2     0.900000E-01   1.00800           0
      4225 MEMB     184      SAPC     C318     CTL3    -0.270000       12.0110           0
      4226 MEMB     184      SAPC     H18X     HAL3     0.900000E-01   1.00800           0
      4227 MEMB     184      SAPC     H18Y     HAL3     0.900000E-01   1.00800           0
      4228 MEMB     184      SAPC     H18Z     HAL3     0.900000E-01   1.00800           0
      4229 MEMB     190      SAPC     N        NTL     -0.600000       14.0070           0
      4230 MEMB     190      SAPC     C12      CTL2    -0.100000       12.0110           0
      4231 MEMB     190      SAPC     H12A     HL       0.250000       1.00800           0
      4232 MEMB     190      SAPC     H12B     HL       0.250000       1.00800           0
      4233 MEMB     190      SAPC     C13      CTL5    -0.350000       12.0110           0
      4234 MEMB     190      SAPC     H13A     HL       0.250000       1.00800           0
      4235 MEMB     190      SAPC     H13B     HL       0.250000       1.00800           0
      4236 MEMB     190      SAPC     H13C     HL       0.250000       1.00800           0
      4237 MEMB     190      SAPC     C14      CTL5    -0.350000       12.0110           0
      4238 MEMB     190      SAPC     H14A     HL       0.250000       1.00800           0
      4239 MEMB     190      SAPC     H14B     HL       0.250000       1.00800           0
      4240 MEMB     190      SAPC     H14C     HL       0.250000       1.00800           0
      4241 MEMB     190      SAPC     C15      CTL5    -0.350000       12.0110           0
      4242 MEMB     190      SAPC     H15A     HL       0.250000       1.00800           0
      4243 MEMB     190      SAPC     H15B     HL       0.250000       1.00800           0
      4244 MEMB     190      SAPC     H15C     HL       0.250000       1.00800           0
      4245 MEMB     190      SAPC     C11      CTL2    -0.800000E-01   12.0110           0
      4246 MEMB     190      SAPC     H11A     HAL2     0.900000E-01   1.00800           0
      4247 MEMB     190      SAPC     H11B     HAL2     0.900000E-01   1.00800           0
      4248 MEMB     190      SAPC     P        PL       1.500000       30.9740           0
      4249 MEMB     190      SAPC     O13      O2L     -0.780000       15.9994           0
      4250 MEMB     190      SAPC     O14      O2L     -0.780000       15.9994           0
      4251 MEMB     190      SAPC     O12      OSLP    -0.570000       15.9994           0
      4252 MEMB     190      SAPC     O11      OSLP    -0.570000       15.9994           0
      4253 MEMB     190      SAPC     C1       CTL2    -0.800000E-01   12.0110           0
      4254 MEMB     190      SAPC     HA       HAL2     0.900000E-01   1.00800           0
      4255 MEMB     190      SAPC     HB       HAL2     0.900000E-01   1.00800           0
      4256 MEMB     190      SAPC     C2       CTL1     0.170000       12.0110           0
      4257 MEMB     190      SAPC     HS       HAL1     0.900000E-01   1.00800           0
      4258 MEMB     190      SAPC     O21      OSL     -0.490000       15.9994           0
      4259 MEMB     190      SAPC     C21      CL       0.900000       12.0110           0
      4260 MEMB     190      SAPC     O22      OBL     -0.630000       15.9994           0
      4261 MEMB     190      SAPC     C22      CTL2    -0.220000       12.0110           0
      4262 MEMB     190      SAPC     H2R      HAL2     0.900000E-01   1.00800           0
      4263 MEMB     190      SAPC     H2S      HAL2     0.900000E-01   1.00800           0
      4264 MEMB     190      SAPC     C3       CTL2     0.800000E-01   12.0110           0
      4265 MEMB     190      SAPC     HX       HAL2     0.900000E-01   1.00800           0
      4266 MEMB     190      SAPC     HY       HAL2     0.900000E-01   1.00800           0
      4267 MEMB     190      SAPC     O31      OSL     -0.490000       15.9994           0
      4268 MEMB     190      SAPC     C31      CL       0.900000       12.0110           0
      4269 MEMB     190      SAPC     O32      OBL     -0.630000       15.9994           0
      4270 MEMB     190      SAPC     C32      CTL2    -0.220000       12.0110           0
      4271 MEMB     190      SAPC     H2X      HAL2     0.900000E-01   1.00800           0
      4272 MEMB     190      SAPC     H2Y      HAL2     0.900000E-01   1.00800           0
      4273 MEMB     190      SAPC     C23      CTL2    -0.180000       12.0110           0
      4274 MEMB     190      SAPC     H3R      HAL2     0.900000E-01   1.00800           0
      4275 MEMB     190      SAPC     H3S      HAL2     0.900000E-01   1.00800           0
      4276 MEMB     190      SAPC     C24      CTL2    -0.180000       12.0110           0
      4277 MEMB     190      SAPC     H4R      HAL2     0.900000E-01   1.00800           0
      4278 MEMB     190      SAPC     H4S      HAL2     0.900000E-01   1.00800           0
      4279 MEMB     190      SAPC     C25      CEL1    -0.150000       12.0110           0
      4280 MEMB     190      SAPC     H5R      HEL1     0.150000       1.00800           0
      4281 MEMB     190      SAPC     C26      CEL1    -0.150000       12.0110           0
      4282 MEMB     190      SAPC     H6R      HEL1     0.150000       1.00800           0
      4283 MEMB     190      SAPC     C27      CTL2    -0.180000       12.0110           0
      4284 MEMB     190      SAPC     H7R      HAL2     0.900000E-01   1.00800           0
      4285 MEMB     190      SAPC     H7S      HAL2     0.900000E-01   1.00800           0
      4286 MEMB     190      SAPC     C28      CEL1    -0.150000       12.0110           0
      4287 MEMB     190      SAPC     H8R      HEL1     0.150000       1.00800           0
      4288 MEMB     190      SAPC     C29      CEL1    -0.150000       12.0110           0
      4289 MEMB     190      SAPC     H9R      HEL1     0.150000       1.00800           0
      4290 MEMB     190      SAPC     C210     CTL2    -0.180000       12.0110           0
      4291 MEMB     190      SAPC     H10R     HAL2     0.900000E-01   1.00800           0
      4292 MEMB     190      SAPC     H10S     HAL2     0.900000E-01   1.00800           0
      4293 MEMB     190      SAPC     C211     CEL1    -0.150000       12.0110           0
      4294 MEMB     190      SAPC     H11R     HEL1     0.150000       1.00800           0
      4295 MEMB     190      SAPC     C212     CEL1    -0.150000       12.0110           0
      4296 MEMB     190      SAPC     H12R     HEL1     0.150000       1.00800           0
      4297 MEMB     190      SAPC     C213     CTL2    -0.180000       12.0110           0
      4298 MEMB     190      SAPC     H13R     HAL2     0.900000E-01   1.00800           0
      4299 MEMB     190      SAPC     H13S     HAL2     0.900000E-01   1.00800           0
      4300 MEMB     190      SAPC     C214     CEL1    -0.150000       12.0110           0
      4301 MEMB     190      SAPC     H14R     HEL1     0.150000       1.00800           0
      4302 MEMB     190      SAPC     C215     CEL1    -0.150000       12.0110           0
      4303 MEMB     190      SAPC     H15R     HEL1     0.150000       1.00800           0
      4304 MEMB     190      SAPC     C216     CTL2    -0.180000       12.0110           0
      4305 MEMB     190      SAPC     H16R     HAL2     0.900000E-01   1.00800           0
      4306 MEMB     190      SAPC     H16S     HAL2     0.900000E-01   1.00800           0
      4307 MEMB     190      SAPC     C217     CTL2    -0.180000       12.0110           0
      4308 MEMB     190      SAPC     H17R     HAL2     0.900000E-01   1.00800           0
      4309 MEMB     190      SAPC     H17S     HAL2     0.900000E-01   1.00800           0
      4310 MEMB     190      SAPC     C218     CTL2    -0.270000       12.0110           0
      4311 MEMB     190      SAPC     H18R     HAL2     0.900000E-01   1.00800           0
      4312 MEMB     190      SAPC     H18S     HAL2     0.900000E-01   1.00800           0
      4313 MEMB     190      SAPC     C219     CTL2    -0.180000       12.0110           0
      4314 MEMB     190      SAPC     H19R     HAL2     0.900000E-01   1.00800           0
      4315 MEMB     190      SAPC     H19S     HAL2     0.900000E-01   1.00800           0
      4316 MEMB     190      SAPC     C220     CTL3    -0.180000       12.0110           0
      4317 MEMB     190      SAPC     H20R     HAL3     0.900000E-01   1.00800           0
      4318 MEMB     190      SAPC     H20S     HAL3     0.900000E-01   1.00800           0
      4319 MEMB     190      SAPC     H20T     HAL3     0.900000E-01   1.00800           0
      4320 MEMB     190      SAPC     C33      CTL2    -0.180000       12.0110           0
      4321 MEMB     190      SAPC     H3X      HAL2     0.900000E-01   1.00800           0
      4322 MEMB     190      SAPC     H3Y      HAL2     0.900000E-01   1.00800           0
      4323 MEMB     190      SAPC     C34      CTL2    -0.180000       12.0110           0
      4324 MEMB     190      SAPC     H4X      HAL2     0.900000E-01   1.00800           0
      4325 MEMB     190      SAPC     H4Y      HAL2     0.900000E-01   1.00800           0
      4326 MEMB     190      SAPC     C35      CTL2    -0.180000       12.0110           0
      4327 MEMB     190      SAPC     H5X      HAL2     0.900000E-01   1.00800           0
      4328 MEMB     190      SAPC     H5Y      HAL2     0.900000E-01   1.00800           0
      4329 MEMB     190      SAPC     C36      CTL2    -0.180000       12.0110           0
      4330 MEMB     190      SAPC     H6X      HAL2     0.900000E-01   1.00800           0
      4331 MEMB     190      SAPC     H6Y      HAL2     0.900000E-01   1.00800           0
      4332 MEMB     190      SAPC     C37      CTL2    -0.180000       12.0110           0
      4333 MEMB     190      SAPC     H7X      HAL2     0.900000E-01   1.00800           0
      4334 MEMB     190      SAPC     H7Y      HAL2     0.900000E-01   1.00800           0
      4335 MEMB     190      SAPC     C38      CTL2    -0.180000       12.0110           0
      4336 MEMB     190      SAPC     H8X      HAL2     0.900000E-01   1.00800           0
      4337 MEMB     190      SAPC     H8Y      HAL2     0.900000E-01   1.00800           0
      4338 MEMB     190      SAPC     C39      CTL2    -0.180000       12.0110           0
      4339 MEMB     190      SAPC     H9X      HAL2     0.900000E-01   1.00800           0
      4340 MEMB     190      SAPC     H9Y      HAL2     0.900000E-01   1.00800           0
      4341 MEMB     190      SAPC     C310     CTL2    -0.180000       12.0110           0
      4342 MEMB     190      SAPC     H10X     HAL2     0.900000E-01   1.00800           0
      4343 MEMB     190      SAPC     H10Y     HAL2     0.900000E-01   1.00800           0
      4344 MEMB     190      SAPC     C311     CTL2    -0.180000       12.0110           0
      4345 MEMB     190      SAPC     H11X     HAL2     0.900000E-01   1.00800           0
      4346 MEMB     190      SAPC     H11Y     HAL2     0.900000E-01   1.00800           0
      4347 MEMB     190      SAPC     C312     CTL2    -0.180000       12.0110           0
      4348 MEMB     190      SAPC     H12X     HAL2     0.900000E-01   1.00800           0
      4349 MEMB     190      SAPC     H12Y     HAL2     0.900000E-01   1.00800           0
      4350 MEMB     190      SAPC     C313     CTL2    -0.180000       12.0110           0
      4351 MEMB     190      SAPC     H13X     HAL2     0.900000E-01   1.00800           0
      4352 MEMB     190      SAPC     H13Y     HAL2     0.900000E-01   1.00800           0
      4353 MEMB     190      SAPC     C314     CTL2    -0.180000       12.0110           0
      4354 MEMB     190      SAPC     H14X     HAL2     0.900000E-01   1.00800           0
      4355 MEMB     190      SAPC     H14Y     HAL2     0.900000E-01   1.00800           0
      4356 MEMB     190      SAPC     C315     CTL2    -0.180000       12.0110           0
      4357 MEMB     190      SAPC     H15X     HAL2     0.900000E-01   1.00800           0
      4358 MEMB     190      SAPC     H15Y     HAL2     0.900000E-01   1.00800           0
      4359 MEMB     190      SAPC     C316     CTL2    -0.180000       12.0110           0
      4360 MEMB     190      SAPC     H16X     HAL2     0.900000E-01   1.00800           0
      4361 MEMB     190      SAPC     H16Y     HAL2     0.900000E-01   1.00800           0
      4362 MEMB     190      SAPC     C317     CTL2    -0.180000       12.0110           0
      4363 MEMB     190      SAPC     H17X     HAL2     0.900000E-01   1.00800           0
      4364 MEMB     190      SAPC     H17Y     HAL2     0.900000E-01   1.00800           0
      4365 MEMB     190      SAPC     C318     CTL3    -0.270000       12.0110           0
      4366 MEMB     190      SAPC     H18X     HAL3     0.900000E-01   1.00800           0
      4367 MEMB     190      SAPC     H18Y     HAL3     0.900000E-01   1.00800           0
      4368 MEMB     190      SAPC     H18Z     HAL3     0.900000E-01   1.00800           0
      4369 MEMB     3        POPC     N        NTL     -0.600000       14.0070           0
      4370 MEMB     3        POPC     C12      CTL2    -0.100000       12.0110           0
      4371 MEMB     3        POPC     H12A     HL       0.250000       1.00800           0
      4372 MEMB     3        POPC     H12B     HL       0.250000       1.00800           0
      4373 MEMB     3        POPC     C13      CTL5    -0.350000       12.0110           0
      4374 MEMB     3        POPC     H13A     HL       0.250000       1.00800           0
      4375 MEMB     3        POPC     H13B     HL       0.250000       1.00800           0
      4376 MEMB     3        POPC     H13C     HL       0.250000       1.00800           0
      4377 MEMB     3        POPC     C14      CTL5    -0.350000       12.0110           0
      4378 MEMB     3        POPC     H14A     HL       0.250000       1.00800           0
      4379 MEMB     3        POPC     H14B     HL       0.250000       1.00800           0
      4380 MEMB     3        POPC     H14C     HL       0.250000       1.00800           0
      4381 MEMB     3        POPC     C15      CTL5    -0.350000       12.0110           0
      4382 MEMB     3        POPC     H15A     HL       0.250000       1.00800           0
      4383 MEMB     3        POPC     H15B     HL       0.250000       1.00800           0
      4384 MEMB     3        POPC     H15C     HL       0.250000       1.00800           0
      4385 MEMB     3        POPC     C11      CTL2    -0.800000E-01   12.0110           0
      4386 MEMB     3        POPC     H11A     HAL2     0.900000E-01   1.00800           0
      4387 MEMB     3        POPC     H11B     HAL2     0.900000E-01   1.00800           0
      4388 MEMB     3        POPC     P        PL       1.500000       30.9740           0
      4389 MEMB     3        POPC     O13      O2L     -0.780000       15.9994           0
      4390 MEMB     3        POPC     O14      O2L     -0.780000       15.9994           0
      4391 MEMB     3        POPC     O12      OSLP    -0.570000       15.9994           0
      4392 MEMB     3        POPC     O11      OSLP    -0.570000       15.9994           0
      4393 MEMB     3        POPC     C1       CTL2    -0.800000E-01   12.0110           0
      4394 MEMB     3        POPC     HA       HAL2     0.900000E-01   1.00800           0
      4395 MEMB     3        POPC     HB       HAL2     0.900000E-01   1.00800           0
      4396 MEMB     3        POPC     C2       CTL1     0.170000       12.0110           0
      4397 MEMB     3        POPC     HS       HAL1     0.900000E-01   1.00800           0
      4398 MEMB     3        POPC     O21      OSL     -0.490000       15.9994           0
      4399 MEMB     3        POPC     C21      CL       0.900000       12.0110           0
      4400 MEMB     3        POPC     O22      OBL     -0.630000       15.9994           0
      4401 MEMB     3        POPC     C22      CTL2    -0.220000       12.0110           0
      4402 MEMB     3        POPC     H2R      HAL2     0.900000E-01   1.00800           0
      4403 MEMB     3        POPC     H2S      HAL2     0.900000E-01   1.00800           0
      4404 MEMB     3        POPC     C3       CTL2     0.800000E-01   12.0110           0
      4405 MEMB     3        POPC     HX       HAL2     0.900000E-01   1.00800           0
      4406 MEMB     3        POPC     HY       HAL2     0.900000E-01   1.00800           0
      4407 MEMB     3        POPC     O31      OSL     -0.490000       15.9994           0
      4408 MEMB     3        POPC     C31      CL       0.900000       12.0110           0
      4409 MEMB     3        POPC     O32      OBL     -0.630000       15.9994           0
      4410 MEMB     3        POPC     C32      CTL2    -0.220000       12.0110           0
      4411 MEMB     3        POPC     H2X      HAL2     0.900000E-01   1.00800           0
      4412 MEMB     3        POPC     H2Y      HAL2     0.900000E-01   1.00800           0
      4413 MEMB     3        POPC     C23      CTL2    -0.180000       12.0110           0
      4414 MEMB     3        POPC     H3R      HAL2     0.900000E-01   1.00800           0
      4415 MEMB     3        POPC     H3S      HAL2     0.900000E-01   1.00800           0
      4416 MEMB     3        POPC     C24      CTL2    -0.180000       12.0110           0
      4417 MEMB     3        POPC     H4R      HAL2     0.900000E-01   1.00800           0
      4418 MEMB     3        POPC     H4S      HAL2     0.900000E-01   1.00800           0
      4419 MEMB     3        POPC     C25      CTL2    -0.180000       12.0110           0
      4420 MEMB     3        POPC     H5R      HAL2     0.900000E-01   1.00800           0
      4421 MEMB     3        POPC     H5S      HAL2     0.900000E-01   1.00800           0
      4422 MEMB     3        POPC     C26      CTL2    -0.180000       12.0110           0
      4423 MEMB     3        POPC     H6R      HAL2     0.900000E-01   1.00800           0
      4424 MEMB     3        POPC     H6S      HAL2     0.900000E-01   1.00800           0
      4425 MEMB     3        POPC     C27      CTL2    -0.180000       12.0110           0
      4426 MEMB     3        POPC     H7R      HAL2     0.900000E-01   1.00800           0
      4427 MEMB     3        POPC     H7S      HAL2     0.900000E-01   1.00800           0
      4428 MEMB     3        POPC     C28      CTL2    -0.180000       12.0110           0
      4429 MEMB     3        POPC     H8R      HAL2     0.900000E-01   1.00800           0
      4430 MEMB     3        POPC     H8S      HAL2     0.900000E-01   1.00800           0
      4431 MEMB     3        POPC     C29      CEL1    -0.150000       12.0110           0
      4432 MEMB     3        POPC     H91      HEL1     0.150000       1.00800           0
      4433 MEMB     3        POPC     C210     CEL1    -0.150000       12.0110           0
      4434 MEMB     3        POPC     H101     HEL1     0.150000       1.00800           0
      4435 MEMB     3        POPC     C211     CTL2    -0.180000       12.0110           0
      4436 MEMB     3        POPC     H11R     HAL2     0.900000E-01   1.00800           0
      4437 MEMB     3        POPC     H11S     HAL2     0.900000E-01   1.00800           0
      4438 MEMB     3        POPC     C212     CTL2    -0.180000       12.0110           0
      4439 MEMB     3        POPC     H12R     HAL2     0.900000E-01   1.00800           0
      4440 MEMB     3        POPC     H12S     HAL2     0.900000E-01   1.00800           0
      4441 MEMB     3        POPC     C213     CTL2    -0.180000       12.0110           0
      4442 MEMB     3        POPC     H13R     HAL2     0.900000E-01   1.00800           0
      4443 MEMB     3        POPC     H13S     HAL2     0.900000E-01   1.00800           0
      4444 MEMB     3        POPC     C214     CTL2    -0.180000       12.0110           0
      4445 MEMB     3        POPC     H14R     HAL2     0.900000E-01   1.00800           0
      4446 MEMB     3        POPC     H14S     HAL2     0.900000E-01   1.00800           0
      4447 MEMB     3        POPC     C215     CTL2    -0.180000       12.0110           0
      4448 MEMB     3        POPC     H15R     HAL2     0.900000E-01   1.00800           0
      4449 MEMB     3        POPC     H15S     HAL2     0.900000E-01   1.00800           0
      4450 MEMB     3        POPC     C216     CTL2    -0.180000       12.0110           0
      4451 MEMB     3        POPC     H16R     HAL2     0.900000E-01   1.00800           0
      4452 MEMB     3        POPC     H16S     HAL2     0.900000E-01   1.00800           0
      4453 MEMB     3        POPC     C217     CTL2    -0.180000       12.0110           0
      4454 MEMB     3        POPC     H17R     HAL2     0.900000E-01   1.00800           0
      4455 MEMB     3        POPC     H17S     HAL2     0.900000E-01   1.00800           0
      4456 MEMB     3        POPC     C218     CTL3    -0.270000       12.0110           0
      4457 MEMB     3        POPC     H18R     HAL3     0.900000E-01   1.00800           0
      4458 MEMB     3        POPC     H18S     HAL3     0.900000E-01   1.00800           0
      4459 MEMB     3        POPC     H18T     HAL3     0.900000E-01   1.00800           0
      4460 MEMB     3        POPC     C33      CTL2    -0.180000       12.0110           0
      4461 MEMB     3        POPC     H3X      HAL2     0.900000E-01   1.00800           0
      4462 MEMB     3        POPC     H3Y      HAL2     0.900000E-01   1.00800           0
      4463 MEMB     3        POPC     C34      CTL2    -0.180000       12.0110           0
      4464 MEMB     3        POPC     H4X      HAL2     0.900000E-01   1.00800           0
      4465 MEMB     3        POPC     H4Y      HAL2     0.900000E-01   1.00800           0
      4466 MEMB     3        POPC     C35      CTL2    -0.180000       12.0110           0
      4467 MEMB     3        POPC     H5X      HAL2     0.900000E-01   1.00800           0
      4468 MEMB     3        POPC     H5Y      HAL2     0.900000E-01   1.00800           0
      4469 MEMB     3        POPC     C36      CTL2    -0.180000       12.0110           0
      4470 MEMB     3        POPC     H6X      HAL2     0.900000E-01   1.00800           0
      4471 MEMB     3        POPC     H6Y      HAL2     0.900000E-01   1.00800           0
      4472 MEMB     3        POPC     C37      CTL2    -0.180000       12.0110           0
      4473 MEMB     3        POPC     H7X      HAL2     0.900000E-01   1.00800           0
      4474 MEMB     3        POPC     H7Y      HAL2     0.900000E-01   1.00800           0
      4475 MEMB     3        POPC     C38      CTL2    -0.180000       12.0110           0
      4476 MEMB     3        POPC     H8X      HAL2     0.900000E-01   1.00800           0
      4477 MEMB     3        POPC     H8Y      HAL2     0.900000E-01   1.00800           0
      4478 MEMB     3        POPC     C39      CTL2    -0.180000       12.0110           0
      4479 MEMB     3        POPC     H9X      HAL2     0.900000E-01   1.00800           0
      4480 MEMB     3        POPC     H9Y      HAL2     0.900000E-01   1.00800           0
      4481 MEMB     3        POPC     C310     CTL2    -0.180000       12.0110           0
      4482 MEMB     3        POPC     H10X     HAL2     0.900000E-01   1.00800           0
      4483 MEMB     3        POPC     H10Y     HAL2     0.900000E-01   1.00800           0
      4484 MEMB     3        POPC     C311     CTL2    -0.180000       12.0110           0
      4485 MEMB     3        POPC     H11X     HAL2     0.900000E-01   1.00800           0
      4486 MEMB     3        POPC     H11Y     HAL2     0.900000E-01   1.00800           0
      4487 MEMB     3        POPC     C312     CTL2    -0.180000       12.0110           0
      4488 MEMB     3        POPC     H12X     HAL2     0.900000E-01   1.00800           0
      4489 MEMB     3        POPC     H12Y     HAL2     0.900000E-01   1.00800           0
      4490 MEMB     3        POPC     C313     CTL2    -0.180000       12.0110           0
      4491 MEMB     3        POPC     H13X     HAL2     0.900000E-01   1.00800           0
      4492 MEMB     3        POPC     H13Y     HAL2     0.900000E-01   1.00800           0
      4493 MEMB     3        POPC     C314     CTL2    -0.180000       12.0110           0
      4494 MEMB     3        POPC     H14X     HAL2     0.900000E-01   1.00800           0
      4495 MEMB     3        POPC     H14Y     HAL2     0.900000E-01   1.00800           0
      4496 MEMB     3        POPC     C315     CTL2    -0.180000       12.0110           0
      4497 MEMB     3        POPC     H15X     HAL2     0.900000E-01   1.00800           0
      4498 MEMB     3        POPC     H15Y     HAL2     0.900000E-01   1.00800           0
      4499 MEMB     3        POPC     C316     CTL3    -0.270000       12.0110           0
      4500 MEMB     3        POPC     H16X     HAL3     0.900000E-01   1.00800           0
      4501 MEMB     3        POPC     H16Y     HAL3     0.900000E-01   1.00800           0
      4502 MEMB     3        POPC     H16Z     HAL3     0.900000E-01   1.00800           0
      4503 MEMB     13       POPC     N        NTL     -0.600000       14.0070           0
      4504 MEMB     13       POPC     C12      CTL2    -0.100000       12.0110           0
      4505 MEMB     13       POPC     H12A     HL       0.250000       1.00800           0
      4506 MEMB     13       POPC     H12B     HL       0.250000       1.00800           0
      4507 MEMB     13       POPC     C13      CTL5    -0.350000       12.0110           0
      4508 MEMB     13       POPC     H13A     HL       0.250000       1.00800           0
      4509 MEMB     13       POPC     H13B     HL       0.250000       1.00800           0
      4510 MEMB     13       POPC     H13C     HL       0.250000       1.00800           0
      4511 MEMB     13       POPC     C14      CTL5    -0.350000       12.0110           0
      4512 MEMB     13       POPC     H14A     HL       0.250000       1.00800           0
      4513 MEMB     13       POPC     H14B     HL       0.250000       1.00800           0
      4514 MEMB     13       POPC     H14C     HL       0.250000       1.00800           0
      4515 MEMB     13       POPC     C15      CTL5    -0.350000       12.0110           0
      4516 MEMB     13       POPC     H15A     HL       0.250000       1.00800           0
      4517 MEMB     13       POPC     H15B     HL       0.250000       1.00800           0
      4518 MEMB     13       POPC     H15C     HL       0.250000       1.00800           0
      4519 MEMB     13       POPC     C11      CTL2    -0.800000E-01   12.0110           0
      4520 MEMB     13       POPC     H11A     HAL2     0.900000E-01   1.00800           0
      4521 MEMB     13       POPC     H11B     HAL2     0.900000E-01   1.00800           0
      4522 MEMB     13       POPC     P        PL       1.500000       30.9740           0
      4523 MEMB     13       POPC     O13      O2L     -0.780000       15.9994           0
      4524 MEMB     13       POPC     O14      O2L     -0.780000       15.9994           0
      4525 MEMB     13       POPC     O12      OSLP    -0.570000       15.9994           0
      4526 MEMB     13       POPC     O11      OSLP    -0.570000       15.9994           0
      4527 MEMB     13       POPC     C1       CTL2    -0.800000E-01   12.0110           0
      4528 MEMB     13       POPC     HA       HAL2     0.900000E-01   1.00800           0
      4529 MEMB     13       POPC     HB       HAL2     0.900000E-01   1.00800           0
      4530 MEMB     13       POPC     C2       CTL1     0.170000       12.0110           0
      4531 MEMB     13       POPC     HS       HAL1     0.900000E-01   1.00800           0
      4532 MEMB     13       POPC     O21      OSL     -0.490000       15.9994           0
      4533 MEMB     13       POPC     C21      CL       0.900000       12.0110           0
      4534 MEMB     13       POPC     O22      OBL     -0.630000       15.9994           0
      4535 MEMB     13       POPC     C22      CTL2    -0.220000       12.0110           0
      4536 MEMB     13       POPC     H2R      HAL2     0.900000E-01   1.00800           0
      4537 MEMB     13       POPC     H2S      HAL2     0.900000E-01   1.00800           0
      4538 MEMB     13       POPC     C3       CTL2     0.800000E-01   12.0110           0
      4539 MEMB     13       POPC     HX       HAL2     0.900000E-01   1.00800           0
      4540 MEMB     13       POPC     HY       HAL2     0.900000E-01   1.00800           0
      4541 MEMB     13       POPC     O31      OSL     -0.490000       15.9994           0
      4542 MEMB     13       POPC     C31      CL       0.900000       12.0110           0
      4543 MEMB     13       POPC     O32      OBL     -0.630000       15.9994           0
      4544 MEMB     13       POPC     C32      CTL2    -0.220000       12.0110           0
      4545 MEMB     13       POPC     H2X      HAL2     0.900000E-01   1.00800           0
      4546 MEMB     13       POPC     H2Y      HAL2     0.900000E-01   1.00800           0
      4547 MEMB     13       POPC     C23      CTL2    -0.180000       12.0110           0
      4548 MEMB     13       POPC     H3R      HAL2     0.900000E-01   1.00800           0
      4549 MEMB     13       POPC     H3S      HAL2     0.900000E-01   1.00800           0
      4550 MEMB     13       POPC     C24      CTL2    -0.180000       12.0110           0
      4551 MEMB     13       POPC     H4R      HAL2     0.900000E-01   1.00800           0
      4552 MEMB     13       POPC     H4S      HAL2     0.900000E-01   1.00800           0
      4553 MEMB     13       POPC     C25      CTL2    -0.180000       12.0110           0
      4554 MEMB     13       POPC     H5R      HAL2     0.900000E-01   1.00800           0
      4555 MEMB     13       POPC     H5S      HAL2     0.900000E-01   1.00800           0
      4556 MEMB     13       POPC     C26      CTL2    -0.180000       12.0110           0
      4557 MEMB     13       POPC     H6R      HAL2     0.900000E-01   1.00800           0
      4558 MEMB     13       POPC     H6S      HAL2     0.900000E-01   1.00800           0
      4559 MEMB     13       POPC     C27      CTL2    -0.180000       12.0110           0
      4560 MEMB     13       POPC     H7R      HAL2     0.900000E-01   1.00800           0
      4561 MEMB     13       POPC     H7S      HAL2     0.900000E-01   1.00800           0
      4562 MEMB     13       POPC     C28      CTL2    -0.180000       12.0110           0
      4563 MEMB     13       POPC     H8R      HAL2     0.900000E-01   1.00800           0
      4564 MEMB     13       POPC     H8S      HAL2     0.900000E-01   1.00800           0
      4565 MEMB     13       POPC     C29      CEL1    -0.150000       12.0110           0
      4566 MEMB     13       POPC     H91      HEL1     0.150000       1.00800           0
      4567 MEMB     13       POPC     C210     CEL1    -0.150000       12.0110           0
      4568 MEMB     13       POPC     H101     HEL1     0.150000       1.00800           0
      4569 MEMB     13       POPC     C211     CTL2    -0.180000       12.0110           0
      4570 MEMB     13       POPC     H11R     HAL2     0.900000E-01   1.00800           0
      4571 MEMB     13       POPC     H11S     HAL2     0.900000E-01   1.00800           0
      4572 MEMB     13       POPC     C212     CTL2    -0.180000       12.0110           0
      4573 MEMB     13       POPC     H12R     HAL2     0.900000E-01   1.00800           0
      4574 MEMB     13       POPC     H12S     HAL2     0.900000E-01   1.00800           0
      4575 MEMB     13       POPC     C213     CTL2    -0.180000       12.0110           0
      4576 MEMB     13       POPC     H13R     HAL2     0.900000E-01   1.00800           0
      4577 MEMB     13       POPC     H13S     HAL2     0.900000E-01   1.00800           0
      4578 MEMB     13       POPC     C214     CTL2    -0.180000       12.0110           0
      4579 MEMB     13       POPC     H14R     HAL2     0.900000E-01   1.00800           0
      4580 MEMB     13       POPC     H14S     HAL2     0.900000E-01   1.00800           0
      4581 MEMB     13       POPC     C215     CTL2    -0.180000       12.0110           0
      4582 MEMB     13       POPC     H15R     HAL2     0.900000E-01   1.00800           0
      4583 MEMB     13       POPC     H15S     HAL2     0.900000E-01   1.00800           0
      4584 MEMB     13       POPC     C216     CTL2    -0.180000       12.0110           0
      4585 MEMB     13       POPC     H16R     HAL2     0.900000E-01   1.00800           0
      4586 MEMB     13       POPC     H16S     HAL2     0.900000E-01   1.00800           0
      4587 MEMB     13       POPC     C217     CTL2    -0.180000       12.0110           0
      4588 MEMB     13       POPC     H17R     HAL2     0.900000E-01   1.00800           0
      4589 MEMB     13       POPC     H17S     HAL2     0.900000E-01   1.00800           0
      4590 MEMB     13       POPC     C218     CTL3    -0.270000       12.0110           0
      4591 MEMB     13       POPC     H18R     HAL3     0.900000E-01   1.00800           0
      4592 MEMB     13       POPC     H18S     HAL3     0.900000E-01   1.00800           0
      4593 MEMB     13       POPC     H18T     HAL3     0.900000E-01   1.00800           0
      4594 MEMB     13       POPC     C33      CTL2    -0.180000       12.0110           0
      4595 MEMB     13       POPC     H3X      HAL2     0.900000E-01   1.00800           0
      4596 MEMB     13       POPC     H3Y      HAL2     0.900000E-01   1.00800           0
      4597 MEMB     13       POPC     C34      CTL2    -0.180000       12.0110           0
      4598 MEMB     13       POPC     H4X      HAL2     0.900000E-01   1.00800           0
      4599 MEMB     13       POPC     H4Y      HAL2     0.900000E-01   1.00800           0
      4600 MEMB     13       POPC     C35      CTL2    -0.180000       12.0110           0
      4601 MEMB     13       POPC     H5X      HAL2     0.900000E-01   1.00800           0
      4602 MEMB     13       POPC     H5Y      HAL2     0.900000E-01   1.00800           0
      4603 MEMB     13       POPC     C36      CTL2    -0.180000       12.0110           0
      4604 MEMB     13       POPC     H6X      HAL2     0.900000E-01   1.00800           0
      4605 MEMB     13       POPC     H6Y      HAL2     0.900000E-01   1.00800           0
      4606 MEMB     13       POPC     C37      CTL2    -0.180000       12.0110           0
      4607 MEMB     13       POPC     H7X      HAL2     0.900000E-01   1.00800           0
      4608 MEMB     13       POPC     H7Y      HAL2     0.900000E-01   1.00800           0
      4609 MEMB     13       POPC     C38      CTL2    -0.180000       12.0110           0
      4610 MEMB     13       POPC     H8X      HAL2     0.900000E-01   1.00800           0
      4611 MEMB     13       POPC     H8Y      HAL2     0.900000E-01   1.00800           0
      4612 MEMB     13       POPC     C39      CTL2    -0.180000       12.0110           0
      4613 MEMB     13       POPC     H9X      HAL2     0.900000E-01   1.00800           0
      4614 MEMB     13       POPC     H9Y      HAL2     0.900000E-01   1.00800           0
      4615 MEMB     13       POPC     C310     CTL2    -0.180000       12.0110           0
      4616 MEMB     13       POPC     H10X     HAL2     0.900000E-01   1.00800           0
      4617 MEMB     13       POPC     H10Y     HAL2     0.900000E-01   1.00800           0
      4618 MEMB     13       POPC     C311     CTL2    -0.180000       12.0110           0
      4619 MEMB     13       POPC     H11X     HAL2     0.900000E-01   1.00800           0
      4620 MEMB     13       POPC     H11Y     HAL2     0.900000E-01   1.00800           0
      4621 MEMB     13       POPC     C312     CTL2    -0.180000       12.0110           0
      4622 MEMB     13       POPC     H12X     HAL2     0.900000E-01   1.00800           0
      4623 MEMB     13       POPC     H12Y     HAL2     0.900000E-01   1.00800           0
      4624 MEMB     13       POPC     C313     CTL2    -0.180000       12.0110           0
      4625 MEMB     13       POPC     H13X     HAL2     0.900000E-01   1.00800           0
      4626 MEMB     13       POPC     H13Y     HAL2     0.900000E-01   1.00800           0
      4627 MEMB     13       POPC     C314     CTL2    -0.180000       12.0110           0
      4628 MEMB     13       POPC     H14X     HAL2     0.900000E-01   1.00800           0
      4629 MEMB     13       POPC     H14Y     HAL2     0.900000E-01   1.00800           0
      4630 MEMB     13       POPC     C315     CTL2    -0.180000       12.0110           0
      4631 MEMB     13       POPC     H15X     HAL2     0.900000E-01   1.00800           0
      4632 MEMB     13       POPC     H15Y     HAL2     0.900000E-01   1.00800           0
      4633 MEMB     13       POPC     C316     CTL3    -0.270000       12.0110           0
      4634 MEMB     13       POPC     H16X     HAL3     0.900000E-01   1.00800           0
      4635 MEMB     13       POPC     H16Y     HAL3     0.900000E-01   1.00800           0
      4636 MEMB     13       POPC     H16Z     HAL3     0.900000E-01   1.00800           0
      4637 MEMB     44       POPC     N        NTL     -0.600000       14.0070           0
      4638 MEMB     44       POPC     C12      CTL2    -0.100000       12.0110           0
      4639 MEMB     44       POPC     H12A     HL       0.250000       1.00800           0
      4640 MEMB     44       POPC     H12B     HL       0.250000       1.00800           0
      4641 MEMB     44       POPC     C13      CTL5    -0.350000       12.0110           0
      4642 MEMB     44       POPC     H13A     HL       0.250000       1.00800           0
      4643 MEMB     44       POPC     H13B     HL       0.250000       1.00800           0
      4644 MEMB     44       POPC     H13C     HL       0.250000       1.00800           0
      4645 MEMB     44       POPC     C14      CTL5    -0.350000       12.0110           0
      4646 MEMB     44       POPC     H14A     HL       0.250000       1.00800           0
      4647 MEMB     44       POPC     H14B     HL       0.250000       1.00800           0
      4648 MEMB     44       POPC     H14C     HL       0.250000       1.00800           0
      4649 MEMB     44       POPC     C15      CTL5    -0.350000       12.0110           0
      4650 MEMB     44       POPC     H15A     HL       0.250000       1.00800           0
      4651 MEMB     44       POPC     H15B     HL       0.250000       1.00800           0
      4652 MEMB     44       POPC     H15C     HL       0.250000       1.00800           0
      4653 MEMB     44       POPC     C11      CTL2    -0.800000E-01   12.0110           0
      4654 MEMB     44       POPC     H11A     HAL2     0.900000E-01   1.00800           0
      4655 MEMB     44       POPC     H11B     HAL2     0.900000E-01   1.00800           0
      4656 MEMB     44       POPC     P        PL       1.500000       30.9740           0
      4657 MEMB     44       POPC     O13      O2L     -0.780000       15.9994           0
      4658 MEMB     44       POPC     O14      O2L     -0.780000       15.9994           0
      4659 MEMB     44       POPC     O12      OSLP    -0.570000       15.9994           0
      4660 MEMB     44       POPC     O11      OSLP    -0.570000       15.9994           0
      4661 MEMB     44       POPC     C1       CTL2    -0.800000E-01   12.0110           0
      4662 MEMB     44       POPC     HA       HAL2     0.900000E-01   1.00800           0
      4663 MEMB     44       POPC     HB       HAL2     0.900000E-01   1.00800           0
      4664 MEMB     44       POPC     C2       CTL1     0.170000       12.0110           0
      4665 MEMB     44       POPC     HS       HAL1     0.900000E-01   1.00800           0
      4666 MEMB     44       POPC     O21      OSL     -0.490000       15.9994           0
      4667 MEMB     44       POPC     C21      CL       0.900000       12.0110           0
      4668 MEMB     44       POPC     O22      OBL     -0.630000       15.9994           0
      4669 MEMB     44       POPC     C22      CTL2    -0.220000       12.0110           0
      4670 MEMB     44       POPC     H2R      HAL2     0.900000E-01   1.00800           0
      4671 MEMB     44       POPC     H2S      HAL2     0.900000E-01   1.00800           0
      4672 MEMB     44       POPC     C3       CTL2     0.800000E-01   12.0110           0
      4673 MEMB     44       POPC     HX       HAL2     0.900000E-01   1.00800           0
      4674 MEMB     44       POPC     HY       HAL2     0.900000E-01   1.00800           0
      4675 MEMB     44       POPC     O31      OSL     -0.490000       15.9994           0
      4676 MEMB     44       POPC     C31      CL       0.900000       12.0110           0
      4677 MEMB     44       POPC     O32      OBL     -0.630000       15.9994           0
      4678 MEMB     44       POPC     C32      CTL2    -0.220000       12.0110           0
      4679 MEMB     44       POPC     H2X      HAL2     0.900000E-01   1.00800           0
      4680 MEMB     44       POPC     H2Y      HAL2     0.900000E-01   1.00800           0
      4681 MEMB     44       POPC     C23      CTL2    -0.180000       12.0110           0
      4682 MEMB     44       POPC     H3R      HAL2     0.900000E-01   1.00800           0
      4683 MEMB     44       POPC     H3S      HAL2     0.900000E-01   1.00800           0
      4684 MEMB     44       POPC     C24      CTL2    -0.180000       12.0110           0
      4685 MEMB     44       POPC     H4R      HAL2     0.900000E-01   1.00800           0
      4686 MEMB     44       POPC     H4S      HAL2     0.900000E-01   1.00800           0
      4687 MEMB     44       POPC     C25      CTL2    -0.180000       12.0110           0
      4688 MEMB     44       POPC     H5R      HAL2     0.900000E-01   1.00800           0
      4689 MEMB     44       POPC     H5S      HAL2     0.900000E-01   1.00800           0
      4690 MEMB     44       POPC     C26      CTL2    -0.180000       12.0110           0
      4691 MEMB     44       POPC     H6R      HAL2     0.900000E-01   1.00800           0
      4692 MEMB     44       POPC     H6S      HAL2     0.900000E-01   1.00800           0
      4693 MEMB     44       POPC     C27      CTL2    -0.180000       12.0110           0
      4694 MEMB     44       POPC     H7R      HAL2     0.900000E-01   1.00800           0
      4695 MEMB     44       POPC     H7S      HAL2     0.900000E-01   1.00800           0
      4696 MEMB     44       POPC     C28      CTL2    -0.180000       12.0110           0
      4697 MEMB     44       POPC     H8R      HAL2     0.900000E-01   1.00800           0
      4698 MEMB     44       POPC     H8S      HAL2     0.900000E-01   1.00800           0
      4699 MEMB     44       POPC     C29      CEL1    -0.150000       12.0110           0
      4700 MEMB     44       POPC     H91      HEL1     0.150000       1.00800           0
      4701 MEMB     44       POPC     C210     CEL1    -0.150000       12.0110           0
      4702 MEMB     44       POPC     H101     HEL1     0.150000       1.00800           0
      4703 MEMB     44       POPC     C211     CTL2    -0.180000       12.0110           0
      4704 MEMB     44       POPC     H11R     HAL2     0.900000E-01   1.00800           0
      4705 MEMB     44       POPC     H11S     HAL2     0.900000E-01   1.00800           0
      4706 MEMB     44       POPC     C212     CTL2    -0.180000       12.0110           0
      4707 MEMB     44       POPC     H12R     HAL2     0.900000E-01   1.00800           0
      4708 MEMB     44       POPC     H12S     HAL2     0.900000E-01   1.00800           0
      4709 MEMB     44       POPC     C213     CTL2    -0.180000       12.0110           0
      4710 MEMB     44       POPC     H13R     HAL2     0.900000E-01   1.00800           0
      4711 MEMB     44       POPC     H13S     HAL2     0.900000E-01   1.00800           0
      4712 MEMB     44       POPC     C214     CTL2    -0.180000       12.0110           0
      4713 MEMB     44       POPC     H14R     HAL2     0.900000E-01   1.00800           0
      4714 MEMB     44       POPC     H14S     HAL2     0.900000E-01   1.00800           0
      4715 MEMB     44       POPC     C215     CTL2    -0.180000       12.0110           0
      4716 MEMB     44       POPC     H15R     HAL2     0.900000E-01   1.00800           0
      4717 MEMB     44       POPC     H15S     HAL2     0.900000E-01   1.00800           0
      4718 MEMB     44       POPC     C216     CTL2    -0.180000       12.0110           0
      4719 MEMB     44       POPC     H16R     HAL2     0.900000E-01   1.00800           0
      4720 MEMB     44       POPC     H16S     HAL2     0.900000E-01   1.00800           0
      4721 MEMB     44       POPC     C217     CTL2    -0.180000       12.0110           0
      4722 MEMB     44       POPC     H17R     HAL2     0.900000E-01   1.00800           0
      4723 MEMB     44       POPC     H17S     HAL2     0.900000E-01   1.00800           0
      4724 MEMB     44       POPC     C218     CTL3    -0.270000       12.0110           0
      4725 MEMB     44       POPC     H18R     HAL3     0.900000E-01   1.00800           0
      4726 MEMB     44       POPC     H18S     HAL3     0.900000E-01   1.00800           0
      4727 MEMB     44       POPC     H18T     HAL3     0.900000E-01   1.00800           0
      4728 MEMB     44       POPC     C33      CTL2    -0.180000       12.0110           0
      4729 MEMB     44       POPC     H3X      HAL2     0.900000E-01   1.00800           0
      4730 MEMB     44       POPC     H3Y      HAL2     0.900000E-01   1.00800           0
      4731 MEMB     44       POPC     C34      CTL2    -0.180000       12.0110           0
      4732 MEMB     44       POPC     H4X      HAL2     0.900000E-01   1.00800           0
      4733 MEMB     44       POPC     H4Y      HAL2     0.900000E-01   1.00800           0
      4734 MEMB     44       POPC     C35      CTL2    -0.180000       12.0110           0
      4735 MEMB     44       POPC     H5X      HAL2     0.900000E-01   1.00800           0
      4736 MEMB     44       POPC     H5Y      HAL2     0.900000E-01   1.00800           0
      4737 MEMB     44       POPC     C36      CTL2    -0.180000       12.0110           0
      4738 MEMB     44       POPC     H6X      HAL2     0.900000E-01   1.00800           0
      4739 MEMB     44       POPC     H6Y      HAL2     0.900000E-01   1.00800           0
      4740 MEMB     44       POPC     C37      CTL2    -0.180000       12.0110           0
      4741 MEMB     44       POPC     H7X      HAL2     0.900000E-01   1.00800           0
      4742 MEMB     44       POPC     H7Y      HAL2     0.900000E-01   1.00800           0
      4743 MEMB     44       POPC     C38      CTL2    -0.180000       12.0110           0
      4744 MEMB     44       POPC     H8X      HAL2     0.900000E-01   1.00800           0
      4745 MEMB     44       POPC     H8Y      HAL2     0.900000E-01   1.00800           0
      4746 MEMB     44       POPC     C39      CTL2    -0.180000       12.0110           0
      4747 MEMB     44       POPC     H9X      HAL2     0.900000E-01   1.00800           0
      4748 MEMB     44       POPC     H9Y      HAL2     0.900000E-01   1.00800           0
      4749 MEMB     44       POPC     C310     CTL2    -0.180000       12.0110           0
      4750 MEMB     44       POPC     H10X     HAL2     0.900000E-01   1.00800           0
      4751 MEMB     44       POPC     H10Y     HAL2     0.900000E-01   1.00800           0
      4752 MEMB     44       POPC     C311     CTL2    -0.180000       12.0110           0
      4753 MEMB     44       POPC     H11X     HAL2     0.900000E-01   1.00800           0
      4754 MEMB     44       POPC     H11Y     HAL2     0.900000E-01   1.00800           0
      4755 MEMB     44       POPC     C312     CTL2    -0.180000       12.0110           0
      4756 MEMB     44       POPC     H12X     HAL2     0.900000E-01   1.00800           0
      4757 MEMB     44       POPC     H12Y     HAL2     0.900000E-01   1.00800           0
      4758 MEMB     44       POPC     C313     CTL2    -0.180000       12.0110           0
      4759 MEMB     44       POPC     H13X     HAL2     0.900000E-01   1.00800           0
      4760 MEMB     44       POPC     H13Y     HAL2     0.900000E-01   1.00800           0
      4761 MEMB     44       POPC     C314     CTL2    -0.180000       12.0110           0
      4762 MEMB     44       POPC     H14X     HAL2     0.900000E-01   1.00800           0
      4763 MEMB     44       POPC     H14Y     HAL2     0.900000E-01   1.00800           0
      4764 MEMB     44       POPC     C315     CTL2    -0.180000       12.0110           0
      4765 MEMB     44       POPC     H15X     HAL2     0.900000E-01   1.00800           0
      4766 MEMB     44       POPC     H15Y     HAL2     0.900000E-01   1.00800           0
      4767 MEMB     44       POPC     C316     CTL3    -0.270000       12.0110           0
      4768 MEMB     44       POPC     H16X     HAL3     0.900000E-01   1.00800           0
      4769 MEMB     44       POPC     H16Y     HAL3     0.900000E-01   1.00800           0
      4770 MEMB     44       POPC     H16Z     HAL3     0.900000E-01   1.00800           0
      4771 MEMB     90       POPC     N        NTL     -0.600000       14.0070           0
      4772 MEMB     90       POPC     C12      CTL2    -0.100000       12.0110           0
      4773 MEMB     90       POPC     H12A     HL       0.250000       1.00800           0
      4774 MEMB     90       POPC     H12B     HL       0.250000       1.00800           0
      4775 MEMB     90       POPC     C13      CTL5    -0.350000       12.0110           0
      4776 MEMB     90       POPC     H13A     HL       0.250000       1.00800           0
      4777 MEMB     90       POPC     H13B     HL       0.250000       1.00800           0
      4778 MEMB     90       POPC     H13C     HL       0.250000       1.00800           0
      4779 MEMB     90       POPC     C14      CTL5    -0.350000       12.0110           0
      4780 MEMB     90       POPC     H14A     HL       0.250000       1.00800           0
      4781 MEMB     90       POPC     H14B     HL       0.250000       1.00800           0
      4782 MEMB     90       POPC     H14C     HL       0.250000       1.00800           0
      4783 MEMB     90       POPC     C15      CTL5    -0.350000       12.0110           0
      4784 MEMB     90       POPC     H15A     HL       0.250000       1.00800           0
      4785 MEMB     90       POPC     H15B     HL       0.250000       1.00800           0
      4786 MEMB     90       POPC     H15C     HL       0.250000       1.00800           0
      4787 MEMB     90       POPC     C11      CTL2    -0.800000E-01   12.0110           0
      4788 MEMB     90       POPC     H11A     HAL2     0.900000E-01   1.00800           0
      4789 MEMB     90       POPC     H11B     HAL2     0.900000E-01   1.00800           0
      4790 MEMB     90       POPC     P        PL       1.500000       30.9740           0
      4791 MEMB     90       POPC     O13      O2L     -0.780000       15.9994           0
      4792 MEMB     90       POPC     O14      O2L     -0.780000       15.9994           0
      4793 MEMB     90       POPC     O12      OSLP    -0.570000       15.9994           0
      4794 MEMB     90       POPC     O11      OSLP    -0.570000       15.9994           0
      4795 MEMB     90       POPC     C1       CTL2    -0.800000E-01   12.0110           0
      4796 MEMB     90       POPC     HA       HAL2     0.900000E-01   1.00800           0
      4797 MEMB     90       POPC     HB       HAL2     0.900000E-01   1.00800           0
      4798 MEMB     90       POPC     C2       CTL1     0.170000       12.0110           0
      4799 MEMB     90       POPC     HS       HAL1     0.900000E-01   1.00800           0
      4800 MEMB     90       POPC     O21      OSL     -0.490000       15.9994           0
      4801 MEMB     90       POPC     C21      CL       0.900000       12.0110           0
      4802 MEMB     90       POPC     O22      OBL     -0.630000       15.9994           0
      4803 MEMB     90       POPC     C22      CTL2    -0.220000       12.0110           0
      4804 MEMB     90       POPC     H2R      HAL2     0.900000E-01   1.00800           0
      4805 MEMB     90       POPC     H2S      HAL2     0.900000E-01   1.00800           0
      4806 MEMB     90       POPC     C3       CTL2     0.800000E-01   12.0110           0
      4807 MEMB     90       POPC     HX       HAL2     0.900000E-01   1.00800           0
      4808 MEMB     90       POPC     HY       HAL2     0.900000E-01   1.00800           0
      4809 MEMB     90       POPC     O31      OSL     -0.490000       15.9994           0
      4810 MEMB     90       POPC     C31      CL       0.900000       12.0110           0
      4811 MEMB     90       POPC     O32      OBL     -0.630000       15.9994           0
      4812 MEMB     90       POPC     C32      CTL2    -0.220000       12.0110           0
      4813 MEMB     90       POPC     H2X      HAL2     0.900000E-01   1.00800           0
      4814 MEMB     90       POPC     H2Y      HAL2     0.900000E-01   1.00800           0
      4815 MEMB     90       POPC     C23      CTL2    -0.180000       12.0110           0
      4816 MEMB     90       POPC     H3R      HAL2     0.900000E-01   1.00800           0
      4817 MEMB     90       POPC     H3S      HAL2     0.900000E-01   1.00800           0
      4818 MEMB     90       POPC     C24      CTL2    -0.180000       12.0110           0
      4819 MEMB     90       POPC     H4R      HAL2     0.900000E-01   1.00800           0
      4820 MEMB     90       POPC     H4S      HAL2     0.900000E-01   1.00800           0
      4821 MEMB     90       POPC     C25      CTL2    -0.180000       12.0110           0
      4822 MEMB     90       POPC     H5R      HAL2     0.900000E-01   1.00800           0
      4823 MEMB     90       POPC     H5S      HAL2     0.900000E-01   1.00800           0
      4824 MEMB     90       POPC     C26      CTL2    -0.180000       12.0110           0
      4825 MEMB     90       POPC     H6R      HAL2     0.900000E-01   1.00800           0
      4826 MEMB     90       POPC     H6S      HAL2     0.900000E-01   1.00800           0
      4827 MEMB     90       POPC     C27      CTL2    -0.180000       12.0110           0
      4828 MEMB     90       POPC     H7R      HAL2     0.900000E-01   1.00800           0
      4829 MEMB     90       POPC     H7S      HAL2     0.900000E-01   1.00800           0
      4830 MEMB     90       POPC     C28      CTL2    -0.180000       12.0110           0
      4831 MEMB     90       POPC     H8R      HAL2     0.900000E-01   1.00800           0
      4832 MEMB     90       POPC     H8S      HAL2     0.900000E-01   1.00800           0
      4833 MEMB     90       POPC     C29      CEL1    -0.150000       12.0110           0
      4834 MEMB     90       POPC     H91      HEL1     0.150000       1.00800           0
      4835 MEMB     90       POPC     C210     CEL1    -0.150000       12.0110           0
      4836 MEMB     90       POPC     H101     HEL1     0.150000       1.00800           0
      4837 MEMB     90       POPC     C211     CTL2    -0.180000       12.0110           0
      4838 MEMB     90       POPC     H11R     HAL2     0.900000E-01   1.00800           0
      4839 MEMB     90       POPC     H11S     HAL2     0.900000E-01   1.00800           0
      4840 MEMB     90       POPC     C212     CTL2    -0.180000       12.0110           0
      4841 MEMB     90       POPC     H12R     HAL2     0.900000E-01   1.00800           0
      4842 MEMB     90       POPC     H12S     HAL2     0.900000E-01   1.00800           0
      4843 MEMB     90       POPC     C213     CTL2    -0.180000       12.0110           0
      4844 MEMB     90       POPC     H13R     HAL2     0.900000E-01   1.00800           0
      4845 MEMB     90       POPC     H13S     HAL2     0.900000E-01   1.00800           0
      4846 MEMB     90       POPC     C214     CTL2    -0.180000       12.0110           0
      4847 MEMB     90       POPC     H14R     HAL2     0.900000E-01   1.00800           0
      4848 MEMB     90       POPC     H14S     HAL2     0.900000E-01   1.00800           0
      4849 MEMB     90       POPC     C215     CTL2    -0.180000       12.0110           0
      4850 MEMB     90       POPC     H15R     HAL2     0.900000E-01   1.00800           0
      4851 MEMB     90       POPC     H15S     HAL2     0.900000E-01   1.00800           0
      4852 MEMB     90       POPC     C216     CTL2    -0.180000       12.0110           0
      4853 MEMB     90       POPC     H16R     HAL2     0.900000E-01   1.00800           0
      4854 MEMB     90       POPC     H16S     HAL2     0.900000E-01   1.00800           0
      4855 MEMB     90       POPC     C217     CTL2    -0.180000       12.0110           0
      4856 MEMB     90       POPC     H17R     HAL2     0.900000E-01   1.00800           0
      4857 MEMB     90       POPC     H17S     HAL2     0.900000E-01   1.00800           0
      4858 MEMB     90       POPC     C218     CTL3    -0.270000       12.0110           0
      4859 MEMB     90       POPC     H18R     HAL3     0.900000E-01   1.00800           0
      4860 MEMB     90       POPC     H18S     HAL3     0.900000E-01   1.00800           0
      4861 MEMB     90       POPC     H18T     HAL3     0.900000E-01   1.00800           0
      4862 MEMB     90       POPC     C33      CTL2    -0.180000       12.0110           0
      4863 MEMB     90       POPC     H3X      HAL2     0.900000E-01   1.00800           0
      4864 MEMB     90       POPC     H3Y      HAL2     0.900000E-01   1.00800           0
      4865 MEMB     90       POPC     C34      CTL2    -0.180000       12.0110           0
      4866 MEMB     90       POPC     H4X      HAL2     0.900000E-01   1.00800           0
      4867 MEMB     90       POPC     H4Y      HAL2     0.900000E-01   1.00800           0
      4868 MEMB     90       POPC     C35      CTL2    -0.180000       12.0110           0
      4869 MEMB     90       POPC     H5X      HAL2     0.900000E-01   1.00800           0
      4870 MEMB     90       POPC     H5Y      HAL2     0.900000E-01   1.00800           0
      4871 MEMB     90       POPC     C36      CTL2    -0.180000       12.0110           0
      4872 MEMB     90       POPC     H6X      HAL2     0.900000E-01   1.00800           0
      4873 MEMB     90       POPC     H6Y      HAL2     0.900000E-01   1.00800           0
      4874 MEMB     90       POPC     C37      CTL2    -0.180000       12.0110           0
      4875 MEMB     90       POPC     H7X      HAL2     0.900000E-01   1.00800           0
      4876 MEMB     90       POPC     H7Y      HAL2     0.900000E-01   1.00800           0
      4877 MEMB     90       POPC     C38      CTL2    -0.180000       12.0110           0
      4878 MEMB     90       POPC     H8X      HAL2     0.900000E-01   1.00800           0
      4879 MEMB     90       POPC     H8Y      HAL2     0.900000E-01   1.00800           0
      4880 MEMB     90       POPC     C39      CTL2    -0.180000       12.0110           0
      4881 MEMB     90       POPC     H9X      HAL2     0.900000E-01   1.00800           0
      4882 MEMB     90       POPC     H9Y      HAL2     0.900000E-01   1.00800           0
      4883 MEMB     90       POPC     C310     CTL2    -0.180000       12.0110           0
      4884 MEMB     90       POPC     H10X     HAL2     0.900000E-01   1.00800           0
      4885 MEMB     90       POPC     H10Y     HAL2     0.900000E-01   1.00800           0
      4886 MEMB     90       POPC     C311     CTL2    -0.180000       12.0110           0
      4887 MEMB     90       POPC     H11X     HAL2     0.900000E-01   1.00800           0
      4888 MEMB     90       POPC     H11Y     HAL2     0.900000E-01   1.00800           0
      4889 MEMB     90       POPC     C312     CTL2    -0.180000       12.0110           0
      4890 MEMB     90       POPC     H12X     HAL2     0.900000E-01   1.00800           0
      4891 MEMB     90       POPC     H12Y     HAL2     0.900000E-01   1.00800           0
      4892 MEMB     90       POPC     C313     CTL2    -0.180000       12.0110           0
      4893 MEMB     90       POPC     H13X     HAL2     0.900000E-01   1.00800           0
      4894 MEMB     90       POPC     H13Y     HAL2     0.900000E-01   1.00800           0
      4895 MEMB     90       POPC     C314     CTL2    -0.180000       12.0110           0
      4896 MEMB     90       POPC     H14X     HAL2     0.900000E-01   1.00800           0
      4897 MEMB     90       POPC     H14Y     HAL2     0.900000E-01   1.00800           0
      4898 MEMB     90       POPC     C315     CTL2    -0.180000       12.0110           0
      4899 MEMB     90       POPC     H15X     HAL2     0.900000E-01   1.00800           0
      4900 MEMB     90       POPC     H15Y     HAL2     0.900000E-01   1.00800           0
      4901 MEMB     90       POPC     C316     CTL3    -0.270000       12.0110           0
      4902 MEMB     90       POPC     H16X     HAL3     0.900000E-01   1.00800           0
      4903 MEMB     90       POPC     H16Y     HAL3     0.900000E-01   1.00800           0
      4904 MEMB     90       POPC     H16Z     HAL3     0.900000E-01   1.00800           0
      4905 MEMB     102      POPC     N        NTL     -0.600000       14.0070           0
      4906 MEMB     102      POPC     C12      CTL2    -0.100000       12.0110           0
      4907 MEMB     102      POPC     H12A     HL       0.250000       1.00800           0
      4908 MEMB     102      POPC     H12B     HL       0.250000       1.00800           0
      4909 MEMB     102      POPC     C13      CTL5    -0.350000       12.0110           0
      4910 MEMB     102      POPC     H13A     HL       0.250000       1.00800           0
      4911 MEMB     102      POPC     H13B     HL       0.250000       1.00800           0
      4912 MEMB     102      POPC     H13C     HL       0.250000       1.00800           0
      4913 MEMB     102      POPC     C14      CTL5    -0.350000       12.0110           0
      4914 MEMB     102      POPC     H14A     HL       0.250000       1.00800           0
      4915 MEMB     102      POPC     H14B     HL       0.250000       1.00800           0
      4916 MEMB     102      POPC     H14C     HL       0.250000       1.00800           0
      4917 MEMB     102      POPC     C15      CTL5    -0.350000       12.0110           0
      4918 MEMB     102      POPC     H15A     HL       0.250000       1.00800           0
      4919 MEMB     102      POPC     H15B     HL       0.250000       1.00800           0
      4920 MEMB     102      POPC     H15C     HL       0.250000       1.00800           0
      4921 MEMB     102      POPC     C11      CTL2    -0.800000E-01   12.0110           0
      4922 MEMB     102      POPC     H11A     HAL2     0.900000E-01   1.00800           0
      4923 MEMB     102      POPC     H11B     HAL2     0.900000E-01   1.00800           0
      4924 MEMB     102      POPC     P        PL       1.500000       30.9740           0
      4925 MEMB     102      POPC     O13      O2L     -0.780000       15.9994           0
      4926 MEMB     102      POPC     O14      O2L     -0.780000       15.9994           0
      4927 MEMB     102      POPC     O12      OSLP    -0.570000       15.9994           0
      4928 MEMB     102      POPC     O11      OSLP    -0.570000       15.9994           0
      4929 MEMB     102      POPC     C1       CTL2    -0.800000E-01   12.0110           0
      4930 MEMB     102      POPC     HA       HAL2     0.900000E-01   1.00800           0
      4931 MEMB     102      POPC     HB       HAL2     0.900000E-01   1.00800           0
      4932 MEMB     102      POPC     C2       CTL1     0.170000       12.0110           0
      4933 MEMB     102      POPC     HS       HAL1     0.900000E-01   1.00800           0
      4934 MEMB     102      POPC     O21      OSL     -0.490000       15.9994           0
      4935 MEMB     102      POPC     C21      CL       0.900000       12.0110           0
      4936 MEMB     102      POPC     O22      OBL     -0.630000       15.9994           0
      4937 MEMB     102      POPC     C22      CTL2    -0.220000       12.0110           0
      4938 MEMB     102      POPC     H2R      HAL2     0.900000E-01   1.00800           0
      4939 MEMB     102      POPC     H2S      HAL2     0.900000E-01   1.00800           0
      4940 MEMB     102      POPC     C3       CTL2     0.800000E-01   12.0110           0
      4941 MEMB     102      POPC     HX       HAL2     0.900000E-01   1.00800           0
      4942 MEMB     102      POPC     HY       HAL2     0.900000E-01   1.00800           0
      4943 MEMB     102      POPC     O31      OSL     -0.490000       15.9994           0
      4944 MEMB     102      POPC     C31      CL       0.900000       12.0110           0
      4945 MEMB     102      POPC     O32      OBL     -0.630000       15.9994           0
      4946 MEMB     102      POPC     C32      CTL2    -0.220000       12.0110           0
      4947 MEMB     102      POPC     H2X      HAL2     0.900000E-01   1.00800           0
      4948 MEMB     102      POPC     H2Y      HAL2     0.900000E-01   1.00800           0
      4949 MEMB     102      POPC     C23      CTL2    -0.180000       12.0110           0
      4950 MEMB     102      POPC     H3R      HAL2     0.900000E-01   1.00800           0
      4951 MEMB     102      POPC     H3S      HAL2     0.900000E-01   1.00800           0
      4952 MEMB     102      POPC     C24      CTL2    -0.180000       12.0110           0
      4953 MEMB     102      POPC     H4R      HAL2     0.900000E-01   1.00800           0
      4954 MEMB     102      POPC     H4S      HAL2     0.900000E-01   1.00800           0
      4955 MEMB     102      POPC     C25      CTL2    -0.180000       12.0110           0
      4956 MEMB     102      POPC     H5R      HAL2     0.900000E-01   1.00800           0
      4957 MEMB     102      POPC     H5S      HAL2     0.900000E-01   1.00800           0
      4958 MEMB     102      POPC     C26      CTL2    -0.180000       12.0110           0
      4959 MEMB     102      POPC     H6R      HAL2     0.900000E-01   1.00800           0
      4960 MEMB     102      POPC     H6S      HAL2     0.900000E-01   1.00800           0
      4961 MEMB     102      POPC     C27      CTL2    -0.180000       12.0110           0
      4962 MEMB     102      POPC     H7R      HAL2     0.900000E-01   1.00800           0
      4963 MEMB     102      POPC     H7S      HAL2     0.900000E-01   1.00800           0
      4964 MEMB     102      POPC     C28      CTL2    -0.180000       12.0110           0
      4965 MEMB     102      POPC     H8R      HAL2     0.900000E-01   1.00800           0
      4966 MEMB     102      POPC     H8S      HAL2     0.900000E-01   1.00800           0
      4967 MEMB     102      POPC     C29      CEL1    -0.150000       12.0110           0
      4968 MEMB     102      POPC     H91      HEL1     0.150000       1.00800           0
      4969 MEMB     102      POPC     C210     CEL1    -0.150000       12.0110           0
      4970 MEMB     102      POPC     H101     HEL1     0.150000       1.00800           0
      4971 MEMB     102      POPC     C211     CTL2    -0.180000       12.0110           0
      4972 MEMB     102      POPC     H11R     HAL2     0.900000E-01   1.00800           0
      4973 MEMB     102      POPC     H11S     HAL2     0.900000E-01   1.00800           0
      4974 MEMB     102      POPC     C212     CTL2    -0.180000       12.0110           0
      4975 MEMB     102      POPC     H12R     HAL2     0.900000E-01   1.00800           0
      4976 MEMB     102      POPC     H12S     HAL2     0.900000E-01   1.00800           0
      4977 MEMB     102      POPC     C213     CTL2    -0.180000       12.0110           0
      4978 MEMB     102      POPC     H13R     HAL2     0.900000E-01   1.00800           0
      4979 MEMB     102      POPC     H13S     HAL2     0.900000E-01   1.00800           0
      4980 MEMB     102      POPC     C214     CTL2    -0.180000       12.0110           0
      4981 MEMB     102      POPC     H14R     HAL2     0.900000E-01   1.00800           0
      4982 MEMB     102      POPC     H14S     HAL2     0.900000E-01   1.00800           0
      4983 MEMB     102      POPC     C215     CTL2    -0.180000       12.0110           0
      4984 MEMB     102      POPC     H15R     HAL2     0.900000E-01   1.00800           0
      4985 MEMB     102      POPC     H15S     HAL2     0.900000E-01   1.00800           0
      4986 MEMB     102      POPC     C216     CTL2    -0.180000       12.0110           0
      4987 MEMB     102      POPC     H16R     HAL2     0.900000E-01   1.00800           0
      4988 MEMB     102      POPC     H16S     HAL2     0.900000E-01   1.00800           0
      4989 MEMB     102      POPC     C217     CTL2    -0.180000       12.0110           0
      4990 MEMB     102      POPC     H17R     HAL2     0.900000E-01   1.00800           0
      4991 MEMB     102      POPC     H17S     HAL2     0.900000E-01   1.00800           0
      4992 MEMB     102      POPC     C218     CTL3    -0.270000       12.0110           0
      4993 MEMB     102      POPC     H18R     HAL3     0.900000E-01   1.00800           0
      4994 MEMB     102      POPC     H18S     HAL3     0.900000E-01   1.00800           0
      4995 MEMB     102      POPC     H18T     HAL3     0.900000E-01   1.00800           0
      4996 MEMB     102      POPC     C33      CTL2    -0.180000       12.0110           0
      4997 MEMB     102      POPC     H3X      HAL2     0.900000E-01   1.00800           0
      4998 MEMB     102      POPC     H3Y      HAL2     0.900000E-01   1.00800           0
      4999 MEMB     102      POPC     C34      CTL2    -0.180000       12.0110           0
      5000 MEMB     102      POPC     H4X      HAL2     0.900000E-01   1.00800           0
      5001 MEMB     102      POPC     H4Y      HAL2     0.900000E-01   1.00800           0
      5002 MEMB     102      POPC     C35      CTL2    -0.180000       12.0110           0
      5003 MEMB     102      POPC     H5X      HAL2     0.900000E-01   1.00800           0
      5004 MEMB     102      POPC     H5Y      HAL2     0.900000E-01   1.00800           0
      5005 MEMB     102      POPC     C36      CTL2    -0.180000       12.0110           0
      5006 MEMB     102      POPC     H6X      HAL2     0.900000E-01   1.00800           0
      5007 MEMB     102      POPC     H6Y      HAL2     0.900000E-01   1.00800           0
      5008 MEMB     102      POPC     C37      CTL2    -0.180000       12.0110           0
      5009 MEMB     102      POPC     H7X      HAL2     0.900000E-01   1.00800           0
      5010 MEMB     102      POPC     H7Y      HAL2     0.900000E-01   1.00800           0
      5011 MEMB     102      POPC     C38      CTL2    -0.180000       12.0110           0
      5012 MEMB     102      POPC     H8X      HAL2     0.900000E-01   1.00800           0
      5013 MEMB     102      POPC     H8Y      HAL2     0.900000E-01   1.00800           0
      5014 MEMB     102      POPC     C39      CTL2    -0.180000       12.0110           0
      5015 MEMB     102      POPC     H9X      HAL2     0.900000E-01   1.00800           0
      5016 MEMB     102      POPC     H9Y      HAL2     0.900000E-01   1.00800           0
      5017 MEMB     102      POPC     C310     CTL2    -0.180000       12.0110           0
      5018 MEMB     102      POPC     H10X     HAL2     0.900000E-01   1.00800           0
      5019 MEMB     102      POPC     H10Y     HAL2     0.900000E-01   1.00800           0
      5020 MEMB     102      POPC     C311     CTL2    -0.180000       12.0110           0
      5021 MEMB     102      POPC     H11X     HAL2     0.900000E-01   1.00800           0
      5022 MEMB     102      POPC     H11Y     HAL2     0.900000E-01   1.00800           0
      5023 MEMB     102      POPC     C312     CTL2    -0.180000       12.0110           0
      5024 MEMB     102      POPC     H12X     HAL2     0.900000E-01   1.00800           0
      5025 MEMB     102      POPC     H12Y     HAL2     0.900000E-01   1.00800           0
      5026 MEMB     102      POPC     C313     CTL2    -0.180000       12.0110           0
      5027 MEMB     102      POPC     H13X     HAL2     0.900000E-01   1.00800           0
      5028 MEMB     102      POPC     H13Y     HAL2     0.900000E-01   1.00800           0
      5029 MEMB     102      POPC     C314     CTL2    -0.180000       12.0110           0
      5030 MEMB     102      POPC     H14X     HAL2     0.900000E-01   1.00800           0
      5031 MEMB     102      POPC     H14Y     HAL2     0.900000E-01   1.00800           0
      5032 MEMB     102      POPC     C315     CTL2    -0.180000       12.0110           0
      5033 MEMB     102      POPC     H15X     HAL2     0.900000E-01   1.00800           0
      5034 MEMB     102      POPC     H15Y     HAL2     0.900000E-01   1.00800           0
      5035 MEMB     102      POPC     C316     CTL3    -0.270000       12.0110           0
      5036 MEMB     102      POPC     H16X     HAL3     0.900000E-01   1.00800           0
      5037 MEMB     102      POPC     H16Y     HAL3     0.900000E-01   1.00800           0
      5038 MEMB     102      POPC     H16Z     HAL3     0.900000E-01   1.00800           0
      5039 MEMB     128      POPC     N        NTL     -0.600000       14.0070           0
      5040 MEMB     128      POPC     C12      CTL2    -0.100000       12.0110           0
      5041 MEMB     128      POPC     H12A     HL       0.250000       1.00800           0
      5042 MEMB     128      POPC     H12B     HL       0.250000       1.00800           0
      5043 MEMB     128      POPC     C13      CTL5    -0.350000       12.0110           0
      5044 MEMB     128      POPC     H13A     HL       0.250000       1.00800           0
      5045 MEMB     128      POPC     H13B     HL       0.250000       1.00800           0
      5046 MEMB     128      POPC     H13C     HL       0.250000       1.00800           0
      5047 MEMB     128      POPC     C14      CTL5    -0.350000       12.0110           0
      5048 MEMB     128      POPC     H14A     HL       0.250000       1.00800           0
      5049 MEMB     128      POPC     H14B     HL       0.250000       1.00800           0
      5050 MEMB     128      POPC     H14C     HL       0.250000       1.00800           0
      5051 MEMB     128      POPC     C15      CTL5    -0.350000       12.0110           0
      5052 MEMB     128      POPC     H15A     HL       0.250000       1.00800           0
      5053 MEMB     128      POPC     H15B     HL       0.250000       1.00800           0
      5054 MEMB     128      POPC     H15C     HL       0.250000       1.00800           0
      5055 MEMB     128      POPC     C11      CTL2    -0.800000E-01   12.0110           0
      5056 MEMB     128      POPC     H11A     HAL2     0.900000E-01   1.00800           0
      5057 MEMB     128      POPC     H11B     HAL2     0.900000E-01   1.00800           0
      5058 MEMB     128      POPC     P        PL       1.500000       30.9740           0
      5059 MEMB     128      POPC     O13      O2L     -0.780000       15.9994           0
      5060 MEMB     128      POPC     O14      O2L     -0.780000       15.9994           0
      5061 MEMB     128      POPC     O12      OSLP    -0.570000       15.9994           0
      5062 MEMB     128      POPC     O11      OSLP    -0.570000       15.9994           0
      5063 MEMB     128      POPC     C1       CTL2    -0.800000E-01   12.0110           0
      5064 MEMB     128      POPC     HA       HAL2     0.900000E-01   1.00800           0
      5065 MEMB     128      POPC     HB       HAL2     0.900000E-01   1.00800           0
      5066 MEMB     128      POPC     C2       CTL1     0.170000       12.0110           0
      5067 MEMB     128      POPC     HS       HAL1     0.900000E-01   1.00800           0
      5068 MEMB     128      POPC     O21      OSL     -0.490000       15.9994           0
      5069 MEMB     128      POPC     C21      CL       0.900000       12.0110           0
      5070 MEMB     128      POPC     O22      OBL     -0.630000       15.9994           0
      5071 MEMB     128      POPC     C22      CTL2    -0.220000       12.0110           0
      5072 MEMB     128      POPC     H2R      HAL2     0.900000E-01   1.00800           0
      5073 MEMB     128      POPC     H2S      HAL2     0.900000E-01   1.00800           0
      5074 MEMB     128      POPC     C3       CTL2     0.800000E-01   12.0110           0
      5075 MEMB     128      POPC     HX       HAL2     0.900000E-01   1.00800           0
      5076 MEMB     128      POPC     HY       HAL2     0.900000E-01   1.00800           0
      5077 MEMB     128      POPC     O31      OSL     -0.490000       15.9994           0
      5078 MEMB     128      POPC     C31      CL       0.900000       12.0110           0
      5079 MEMB     128      POPC     O32      OBL     -0.630000       15.9994           0
      5080 MEMB     128      POPC     C32      CTL2    -0.220000       12.0110           0
      5081 MEMB     128      POPC     H2X      HAL2     0.900000E-01   1.00800           0
      5082 MEMB     128      POPC     H2Y      HAL2     0.900000E-01   1.00800           0
      5083 MEMB     128      POPC     C23      CTL2    -0.180000       12.0110           0
      5084 MEMB     128      POPC     H3R      HAL2     0.900000E-01   1.00800           0
      5085 MEMB     128      POPC     H3S      HAL2     0.900000E-01   1.00800           0
      5086 MEMB     128      POPC     C24      CTL2    -0.180000       12.0110           0
      5087 MEMB     128      POPC     H4R      HAL2     0.900000E-01   1.00800           0
      5088 MEMB     128      POPC     H4S      HAL2     0.900000E-01   1.00800           0
      5089 MEMB     128      POPC     C25      CTL2    -0.180000       12.0110           0
      5090 MEMB     128      POPC     H5R      HAL2     0.900000E-01   1.00800           0
      5091 MEMB     128      POPC     H5S      HAL2     0.900000E-01   1.00800           0
      5092 MEMB     128      POPC     C26      CTL2    -0.180000       12.0110           0
      5093 MEMB     128      POPC     H6R      HAL2     0.900000E-01   1.00800           0
      5094 MEMB     128      POPC     H6S      HAL2     0.900000E-01   1.00800           0
      5095 MEMB     128      POPC     C27      CTL2    -0.180000       12.0110           0
      5096 MEMB     128      POPC     H7R      HAL2     0.900000E-01   1.00800           0
      5097 MEMB     128      POPC     H7S      HAL2     0.900000E-01   1.00800           0
      5098 MEMB     128      POPC     C28      CTL2    -0.180000       12.0110           0
      5099 MEMB     128      POPC     H8R      HAL2     0.900000E-01   1.00800           0
      5100 MEMB     128      POPC     H8S      HAL2     0.900000E-01   1.00800           0
      5101 MEMB     128      POPC     C29      CEL1    -0.150000       12.0110           0
      5102 MEMB     128      POPC     H91      HEL1     0.150000       1.00800           0
      5103 MEMB     128      POPC     C210     CEL1    -0.150000       12.0110           0
      5104 MEMB     128      POPC     H101     HEL1     0.150000       1.00800           0
      5105 MEMB     128      POPC     C211     CTL2    -0.180000       12.0110           0
      5106 MEMB     128      POPC     H11R     HAL2     0.900000E-01   1.00800           0
      5107 MEMB     128      POPC     H11S     HAL2     0.900000E-01   1.00800           0
      5108 MEMB     128      POPC     C212     CTL2    -0.180000       12.0110           0
      5109 MEMB     128      POPC     H12R     HAL2     0.900000E-01   1.00800           0
      5110 MEMB     128      POPC     H12S     HAL2     0.900000E-01   1.00800           0
      5111 MEMB     128      POPC     C213     CTL2    -0.180000       12.0110           0
      5112 MEMB     128      POPC     H13R     HAL2     0.900000E-01   1.00800           0
      5113 MEMB     128      POPC     H13S     HAL2     0.900000E-01   1.00800           0
      5114 MEMB     128      POPC     C214     CTL2    -0.180000       12.0110           0
      5115 MEMB     128      POPC     H14R     HAL2     0.900000E-01   1.00800           0
      5116 MEMB     128      POPC     H14S     HAL2     0.900000E-01   1.00800           0
      5117 MEMB     128      POPC     C215     CTL2    -0.180000       12.0110           0
      5118 MEMB     128      POPC     H15R     HAL2     0.900000E-01   1.00800           0
      5119 MEMB     128      POPC     H15S     HAL2     0.900000E-01   1.00800           0
      5120 MEMB     128      POPC     C216     CTL2    -0.180000       12.0110           0
      5121 MEMB     128      POPC     H16R     HAL2     0.900000E-01   1.00800           0
      5122 MEMB     128      POPC     H16S     HAL2     0.900000E-01   1.00800           0
      5123 MEMB     128      POPC     C217     CTL2    -0.180000       12.0110           0
      5124 MEMB     128      POPC     H17R     HAL2     0.900000E-01   1.00800           0
      5125 MEMB     128      POPC     H17S     HAL2     0.900000E-01   1.00800           0
      5126 MEMB     128      POPC     C218     CTL3    -0.270000       12.0110           0
      5127 MEMB     128      POPC     H18R     HAL3     0.900000E-01   1.00800           0
      5128 MEMB     128      POPC     H18S     HAL3     0.900000E-01   1.00800           0
      5129 MEMB     128      POPC     H18T     HAL3     0.900000E-01   1.00800           0
      5130 MEMB     128      POPC     C33      CTL2    -0.180000       12.0110           0
      5131 MEMB     128      POPC     H3X      HAL2     0.900000E-01   1.00800           0
      5132 MEMB     128      POPC     H3Y      HAL2     0.900000E-01   1.00800           0
      5133 MEMB     128      POPC     C34      CTL2    -0.180000       12.0110           0
      5134 MEMB     128      POPC     H4X      HAL2     0.900000E-01   1.00800           0
      5135 MEMB     128      POPC     H4Y      HAL2     0.900000E-01   1.00800           0
      5136 MEMB     128      POPC     C35      CTL2    -0.180000       12.0110           0
      5137 MEMB     128      POPC     H5X      HAL2     0.900000E-01   1.00800           0
      5138 MEMB     128      POPC     H5Y      HAL2     0.900000E-01   1.00800           0
      5139 MEMB     128      POPC     C36      CTL2    -0.180000       12.0110           0
      5140 MEMB     128      POPC     H6X      HAL2     0.900000E-01   1.00800           0
      5141 MEMB     128      POPC     H6Y      HAL2     0.900000E-01   1.00800           0
      5142 MEMB     128      POPC     C37      CTL2    -0.180000       12.0110           0
      5143 MEMB     128      POPC     H7X      HAL2     0.900000E-01   1.00800           0
      5144 MEMB     128      POPC     H7Y      HAL2     0.900000E-01   1.00800           0
      5145 MEMB     128      POPC     C38      CTL2    -0.180000       12.0110           0
      5146 MEMB     128      POPC     H8X      HAL2     0.900000E-01   1.00800           0
      5147 MEMB     128      POPC     H8Y      HAL2     0.900000E-01   1.00800           0
      5148 MEMB     128      POPC     C39      CTL2    -0.180000       12.0110           0
      5149 MEMB     128      POPC     H9X      HAL2     0.900000E-01   1.00800           0
      5150 MEMB     128      POPC     H9Y      HAL2     0.900000E-01   1.00800           0
      5151 MEMB     128      POPC     C310     CTL2    -0.180000       12.0110           0
      5152 MEMB     128      POPC     H10X     HAL2     0.900000E-01   1.00800           0
      5153 MEMB     128      POPC     H10Y     HAL2     0.900000E-01   1.00800           0
      5154 MEMB     128      POPC     C311     CTL2    -0.180000       12.0110           0
      5155 MEMB     128      POPC     H11X     HAL2     0.900000E-01   1.00800           0
      5156 MEMB     128      POPC     H11Y     HAL2     0.900000E-01   1.00800           0
      5157 MEMB     128      POPC     C312     CTL2    -0.180000       12.0110           0
      5158 MEMB     128      POPC     H12X     HAL2     0.900000E-01   1.00800           0
      5159 MEMB     128      POPC     H12Y     HAL2     0.900000E-01   1.00800           0
      5160 MEMB     128      POPC     C313     CTL2    -0.180000       12.0110           0
      5161 MEMB     128      POPC     H13X     HAL2     0.900000E-01   1.00800           0
      5162 MEMB     128      POPC     H13Y     HAL2     0.900000E-01   1.00800           0
      5163 MEMB     128      POPC     C314     CTL2    -0.180000       12.0110           0
      5164 MEMB     128      POPC     H14X     HAL2     0.900000E-01   1.00800           0
      5165 MEMB     128      POPC     H14Y     HAL2     0.900000E-01   1.00800           0
      5166 MEMB     128      POPC     C315     CTL2    -0.180000       12.0110           0
      5167 MEMB     128      POPC     H15X     HAL2     0.900000E-01   1.00800           0
      5168 MEMB     128      POPC     H15Y     HAL2     0.900000E-01   1.00800           0
      5169 MEMB     128      POPC     C316     CTL3    -0.270000       12.0110           0
      5170 MEMB     128      POPC     H16X     HAL3     0.900000E-01   1.00800           0
      5171 MEMB     128      POPC     H16Y     HAL3     0.900000E-01   1.00800           0
      5172 MEMB     128      POPC     H16Z     HAL3     0.900000E-01   1.00800           0
      5173 MEMB     132      POPC     N        NTL     -0.600000       14.0070           0
      5174 MEMB     132      POPC     C12      CTL2    -0.100000       12.0110           0
      5175 MEMB     132      POPC     H12A     HL       0.250000       1.00800           0
      5176 MEMB     132      POPC     H12B     HL       0.250000       1.00800           0
      5177 MEMB     132      POPC     C13      CTL5    -0.350000       12.0110           0
      5178 MEMB     132      POPC     H13A     HL       0.250000       1.00800           0
      5179 MEMB     132      POPC     H13B     HL       0.250000       1.00800           0
      5180 MEMB     132      POPC     H13C     HL       0.250000       1.00800           0
      5181 MEMB     132      POPC     C14      CTL5    -0.350000       12.0110           0
      5182 MEMB     132      POPC     H14A     HL       0.250000       1.00800           0
      5183 MEMB     132      POPC     H14B     HL       0.250000       1.00800           0
      5184 MEMB     132      POPC     H14C     HL       0.250000       1.00800           0
      5185 MEMB     132      POPC     C15      CTL5    -0.350000       12.0110           0
      5186 MEMB     132      POPC     H15A     HL       0.250000       1.00800           0
      5187 MEMB     132      POPC     H15B     HL       0.250000       1.00800           0
      5188 MEMB     132      POPC     H15C     HL       0.250000       1.00800           0
      5189 MEMB     132      POPC     C11      CTL2    -0.800000E-01   12.0110           0
      5190 MEMB     132      POPC     H11A     HAL2     0.900000E-01   1.00800           0
      5191 MEMB     132      POPC     H11B     HAL2     0.900000E-01   1.00800           0
      5192 MEMB     132      POPC     P        PL       1.500000       30.9740           0
      5193 MEMB     132      POPC     O13      O2L     -0.780000       15.9994           0
      5194 MEMB     132      POPC     O14      O2L     -0.780000       15.9994           0
      5195 MEMB     132      POPC     O12      OSLP    -0.570000       15.9994           0
      5196 MEMB     132      POPC     O11      OSLP    -0.570000       15.9994           0
      5197 MEMB     132      POPC     C1       CTL2    -0.800000E-01   12.0110           0
      5198 MEMB     132      POPC     HA       HAL2     0.900000E-01   1.00800           0
      5199 MEMB     132      POPC     HB       HAL2     0.900000E-01   1.00800           0
      5200 MEMB     132      POPC     C2       CTL1     0.170000       12.0110           0
      5201 MEMB     132      POPC     HS       HAL1     0.900000E-01   1.00800           0
      5202 MEMB     132      POPC     O21      OSL     -0.490000       15.9994           0
      5203 MEMB     132      POPC     C21      CL       0.900000       12.0110           0
      5204 MEMB     132      POPC     O22      OBL     -0.630000       15.9994           0
      5205 MEMB     132      POPC     C22      CTL2    -0.220000       12.0110           0
      5206 MEMB     132      POPC     H2R      HAL2     0.900000E-01   1.00800           0
      5207 MEMB     132      POPC     H2S      HAL2     0.900000E-01   1.00800           0
      5208 MEMB     132      POPC     C3       CTL2     0.800000E-01   12.0110           0
      5209 MEMB     132      POPC     HX       HAL2     0.900000E-01   1.00800           0
      5210 MEMB     132      POPC     HY       HAL2     0.900000E-01   1.00800           0
      5211 MEMB     132      POPC     O31      OSL     -0.490000       15.9994           0
      5212 MEMB     132      POPC     C31      CL       0.900000       12.0110           0
      5213 MEMB     132      POPC     O32      OBL     -0.630000       15.9994           0
      5214 MEMB     132      POPC     C32      CTL2    -0.220000       12.0110           0
      5215 MEMB     132      POPC     H2X      HAL2     0.900000E-01   1.00800           0
      5216 MEMB     132      POPC     H2Y      HAL2     0.900000E-01   1.00800           0
      5217 MEMB     132      POPC     C23      CTL2    -0.180000       12.0110           0
      5218 MEMB     132      POPC     H3R      HAL2     0.900000E-01   1.00800           0
      5219 MEMB     132      POPC     H3S      HAL2     0.900000E-01   1.00800           0
      5220 MEMB     132      POPC     C24      CTL2    -0.180000       12.0110           0
      5221 MEMB     132      POPC     H4R      HAL2     0.900000E-01   1.00800           0
      5222 MEMB     132      POPC     H4S      HAL2     0.900000E-01   1.00800           0
      5223 MEMB     132      POPC     C25      CTL2    -0.180000       12.0110           0
      5224 MEMB     132      POPC     H5R      HAL2     0.900000E-01   1.00800           0
      5225 MEMB     132      POPC     H5S      HAL2     0.900000E-01   1.00800           0
      5226 MEMB     132      POPC     C26      CTL2    -0.180000       12.0110           0
      5227 MEMB     132      POPC     H6R      HAL2     0.900000E-01   1.00800           0
      5228 MEMB     132      POPC     H6S      HAL2     0.900000E-01   1.00800           0
      5229 MEMB     132      POPC     C27      CTL2    -0.180000       12.0110           0
      5230 MEMB     132      POPC     H7R      HAL2     0.900000E-01   1.00800           0
      5231 MEMB     132      POPC     H7S      HAL2     0.900000E-01   1.00800           0
      5232 MEMB     132      POPC     C28      CTL2    -0.180000       12.0110           0
      5233 MEMB     132      POPC     H8R      HAL2     0.900000E-01   1.00800           0
      5234 MEMB     132      POPC     H8S      HAL2     0.900000E-01   1.00800           0
      5235 MEMB     132      POPC     C29      CEL1    -0.150000       12.0110           0
      5236 MEMB     132      POPC     H91      HEL1     0.150000       1.00800           0
      5237 MEMB     132      POPC     C210     CEL1    -0.150000       12.0110           0
      5238 MEMB     132      POPC     H101     HEL1     0.150000       1.00800           0
      5239 MEMB     132      POPC     C211     CTL2    -0.180000       12.0110           0
      5240 MEMB     132      POPC     H11R     HAL2     0.900000E-01   1.00800           0
      5241 MEMB     132      POPC     H11S     HAL2     0.900000E-01   1.00800           0
      5242 MEMB     132      POPC     C212     CTL2    -0.180000       12.0110           0
      5243 MEMB     132      POPC     H12R     HAL2     0.900000E-01   1.00800           0
      5244 MEMB     132      POPC     H12S     HAL2     0.900000E-01   1.00800           0
      5245 MEMB     132      POPC     C213     CTL2    -0.180000       12.0110           0
      5246 MEMB     132      POPC     H13R     HAL2     0.900000E-01   1.00800           0
      5247 MEMB     132      POPC     H13S     HAL2     0.900000E-01   1.00800           0
      5248 MEMB     132      POPC     C214     CTL2    -0.180000       12.0110           0
      5249 MEMB     132      POPC     H14R     HAL2     0.900000E-01   1.00800           0
      5250 MEMB     132      POPC     H14S     HAL2     0.900000E-01   1.00800           0
      5251 MEMB     132      POPC     C215     CTL2    -0.180000       12.0110           0
      5252 MEMB     132      POPC     H15R     HAL2     0.900000E-01   1.00800           0
      5253 MEMB     132      POPC     H15S     HAL2     0.900000E-01   1.00800           0
      5254 MEMB     132      POPC     C216     CTL2    -0.180000       12.0110           0
      5255 MEMB     132      POPC     H16R     HAL2     0.900000E-01   1.00800           0
      5256 MEMB     132      POPC     H16S     HAL2     0.900000E-01   1.00800           0
      5257 MEMB     132      POPC     C217     CTL2    -0.180000       12.0110           0
      5258 MEMB     132      POPC     H17R     HAL2     0.900000E-01   1.00800           0
      5259 MEMB     132      POPC     H17S     HAL2     0.900000E-01   1.00800           0
      5260 MEMB     132      POPC     C218     CTL3    -0.270000       12.0110           0
      5261 MEMB     132      POPC     H18R     HAL3     0.900000E-01   1.00800           0
      5262 MEMB     132      POPC     H18S     HAL3     0.900000E-01   1.00800           0
      5263 MEMB     132      POPC     H18T     HAL3     0.900000E-01   1.00800           0
      5264 MEMB     132      POPC     C33      CTL2    -0.180000       12.0110           0
      5265 MEMB     132      POPC     H3X      HAL2     0.900000E-01   1.00800           0
      5266 MEMB     132      POPC     H3Y      HAL2     0.900000E-01   1.00800           0
      5267 MEMB     132      POPC     C34      CTL2    -0.180000       12.0110           0
      5268 MEMB     132      POPC     H4X      HAL2     0.900000E-01   1.00800           0
      5269 MEMB     132      POPC     H4Y      HAL2     0.900000E-01   1.00800           0
      5270 MEMB     132      POPC     C35      CTL2    -0.180000       12.0110           0
      5271 MEMB     132      POPC     H5X      HAL2     0.900000E-01   1.00800           0
      5272 MEMB     132      POPC     H5Y      HAL2     0.900000E-01   1.00800           0
      5273 MEMB     132      POPC     C36      CTL2    -0.180000       12.0110           0
      5274 MEMB     132      POPC     H6X      HAL2     0.900000E-01   1.00800           0
      5275 MEMB     132      POPC     H6Y      HAL2     0.900000E-01   1.00800           0
      5276 MEMB     132      POPC     C37      CTL2    -0.180000       12.0110           0
      5277 MEMB     132      POPC     H7X      HAL2     0.900000E-01   1.00800           0
      5278 MEMB     132      POPC     H7Y      HAL2     0.900000E-01   1.00800           0
      5279 MEMB     132      POPC     C38      CTL2    -0.180000       12.0110           0
      5280 MEMB     132      POPC     H8X      HAL2     0.900000E-01   1.00800           0
      5281 MEMB     132      POPC     H8Y      HAL2     0.900000E-01   1.00800           0
      5282 MEMB     132      POPC     C39      CTL2    -0.180000       12.0110           0
      5283 MEMB     132      POPC     H9X      HAL2     0.900000E-01   1.00800           0
      5284 MEMB     132      POPC     H9Y      HAL2     0.900000E-01   1.00800           0
      5285 MEMB     132      POPC     C310     CTL2    -0.180000       12.0110           0
      5286 MEMB     132      POPC     H10X     HAL2     0.900000E-01   1.00800           0
      5287 MEMB     132      POPC     H10Y     HAL2     0.900000E-01   1.00800           0
      5288 MEMB     132      POPC     C311     CTL2    -0.180000       12.0110           0
      5289 MEMB     132      POPC     H11X     HAL2     0.900000E-01   1.00800           0
      5290 MEMB     132      POPC     H11Y     HAL2     0.900000E-01   1.00800           0
      5291 MEMB     132      POPC     C312     CTL2    -0.180000       12.0110           0
      5292 MEMB     132      POPC     H12X     HAL2     0.900000E-01   1.00800           0
      5293 MEMB     132      POPC     H12Y     HAL2     0.900000E-01   1.00800           0
      5294 MEMB     132      POPC     C313     CTL2    -0.180000       12.0110           0
      5295 MEMB     132      POPC     H13X     HAL2     0.900000E-01   1.00800           0
      5296 MEMB     132      POPC     H13Y     HAL2     0.900000E-01   1.00800           0
      5297 MEMB     132      POPC     C314     CTL2    -0.180000       12.0110           0
      5298 MEMB     132      POPC     H14X     HAL2     0.900000E-01   1.00800           0
      5299 MEMB     132      POPC     H14Y     HAL2     0.900000E-01   1.00800           0
      5300 MEMB     132      POPC     C315     CTL2    -0.180000       12.0110           0
      5301 MEMB     132      POPC     H15X     HAL2     0.900000E-01   1.00800           0
      5302 MEMB     132      POPC     H15Y     HAL2     0.900000E-01   1.00800           0
      5303 MEMB     132      POPC     C316     CTL3    -0.270000       12.0110           0
      5304 MEMB     132      POPC     H16X     HAL3     0.900000E-01   1.00800           0
      5305 MEMB     132      POPC     H16Y     HAL3     0.900000E-01   1.00800           0
      5306 MEMB     132      POPC     H16Z     HAL3     0.900000E-01   1.00800           0
      5307 MEMB     188      POPC     N        NTL     -0.600000       14.0070           0
      5308 MEMB     188      POPC     C12      CTL2    -0.100000       12.0110           0
      5309 MEMB     188      POPC     H12A     HL       0.250000       1.00800           0
      5310 MEMB     188      POPC     H12B     HL       0.250000       1.00800           0
      5311 MEMB     188      POPC     C13      CTL5    -0.350000       12.0110           0
      5312 MEMB     188      POPC     H13A     HL       0.250000       1.00800           0
      5313 MEMB     188      POPC     H13B     HL       0.250000       1.00800           0
      5314 MEMB     188      POPC     H13C     HL       0.250000       1.00800           0
      5315 MEMB     188      POPC     C14      CTL5    -0.350000       12.0110           0
      5316 MEMB     188      POPC     H14A     HL       0.250000       1.00800           0
      5317 MEMB     188      POPC     H14B     HL       0.250000       1.00800           0
      5318 MEMB     188      POPC     H14C     HL       0.250000       1.00800           0
      5319 MEMB     188      POPC     C15      CTL5    -0.350000       12.0110           0
      5320 MEMB     188      POPC     H15A     HL       0.250000       1.00800           0
      5321 MEMB     188      POPC     H15B     HL       0.250000       1.00800           0
      5322 MEMB     188      POPC     H15C     HL       0.250000       1.00800           0
      5323 MEMB     188      POPC     C11      CTL2    -0.800000E-01   12.0110           0
      5324 MEMB     188      POPC     H11A     HAL2     0.900000E-01   1.00800           0
      5325 MEMB     188      POPC     H11B     HAL2     0.900000E-01   1.00800           0
      5326 MEMB     188      POPC     P        PL       1.500000       30.9740           0
      5327 MEMB     188      POPC     O13      O2L     -0.780000       15.9994           0
      5328 MEMB     188      POPC     O14      O2L     -0.780000       15.9994           0
      5329 MEMB     188      POPC     O12      OSLP    -0.570000       15.9994           0
      5330 MEMB     188      POPC     O11      OSLP    -0.570000       15.9994           0
      5331 MEMB     188      POPC     C1       CTL2    -0.800000E-01   12.0110           0
      5332 MEMB     188      POPC     HA       HAL2     0.900000E-01   1.00800           0
      5333 MEMB     188      POPC     HB       HAL2     0.900000E-01   1.00800           0
      5334 MEMB     188      POPC     C2       CTL1     0.170000       12.0110           0
      5335 MEMB     188      POPC     HS       HAL1     0.900000E-01   1.00800           0
      5336 MEMB     188      POPC     O21      OSL     -0.490000       15.9994           0
      5337 MEMB     188      POPC     C21      CL       0.900000       12.0110           0
      5338 MEMB     188      POPC     O22      OBL     -0.630000       15.9994           0
      5339 MEMB     188      POPC     C22      CTL2    -0.220000       12.0110           0
      5340 MEMB     188      POPC     H2R      HAL2     0.900000E-01   1.00800           0
      5341 MEMB     188      POPC     H2S      HAL2     0.900000E-01   1.00800           0
      5342 MEMB     188      POPC     C3       CTL2     0.800000E-01   12.0110           0
      5343 MEMB     188      POPC     HX       HAL2     0.900000E-01   1.00800           0
      5344 MEMB     188      POPC     HY       HAL2     0.900000E-01   1.00800           0
      5345 MEMB     188      POPC     O31      OSL     -0.490000       15.9994           0
      5346 MEMB     188      POPC     C31      CL       0.900000       12.0110           0
      5347 MEMB     188      POPC     O32      OBL     -0.630000       15.9994           0
      5348 MEMB     188      POPC     C32      CTL2    -0.220000       12.0110           0
      5349 MEMB     188      POPC     H2X      HAL2     0.900000E-01   1.00800           0
      5350 MEMB     188      POPC     H2Y      HAL2     0.900000E-01   1.00800           0
      5351 MEMB     188      POPC     C23      CTL2    -0.180000       12.0110           0
      5352 MEMB     188      POPC     H3R      HAL2     0.900000E-01   1.00800           0
      5353 MEMB     188      POPC     H3S      HAL2     0.900000E-01   1.00800           0
      5354 MEMB     188      POPC     C24      CTL2    -0.180000       12.0110           0
      5355 MEMB     188      POPC     H4R      HAL2     0.900000E-01   1.00800           0
      5356 MEMB     188      POPC     H4S      HAL2     0.900000E-01   1.00800           0
      5357 MEMB     188      POPC     C25      CTL2    -0.180000       12.0110           0
      5358 MEMB     188      POPC     H5R      HAL2     0.900000E-01   1.00800           0
      5359 MEMB     188      POPC     H5S      HAL2     0.900000E-01   1.00800           0
      5360 MEMB     188      POPC     C26      CTL2    -0.180000       12.0110           0
      5361 MEMB     188      POPC     H6R      HAL2     0.900000E-01   1.00800           0
      5362 MEMB     188      POPC     H6S      HAL2     0.900000E-01   1.00800           0
      5363 MEMB     188      POPC     C27      CTL2    -0.180000       12.0110           0
      5364 MEMB     188      POPC     H7R      HAL2     0.900000E-01   1.00800           0
      5365 MEMB     188      POPC     H7S      HAL2     0.900000E-01   1.00800           0
      5366 MEMB     188      POPC     C28      CTL2    -0.180000       12.0110           0
      5367 MEMB     188      POPC     H8R      HAL2     0.900000E-01   1.00800           0
      5368 MEMB     188      POPC     H8S      HAL2     0.900000E-01   1.00800           0
      5369 MEMB     188      POPC     C29      CEL1    -0.150000       12.0110           0
      5370 MEMB     188      POPC     H91      HEL1     0.150000       1.00800           0
      5371 MEMB     188      POPC     C210     CEL1    -0.150000       12.0110           0
      5372 MEMB     188      POPC     H101     HEL1     0.150000       1.00800           0
      5373 MEMB     188      POPC     C211     CTL2    -0.180000       12.0110           0
      5374 MEMB     188      POPC     H11R     HAL2     0.900000E-01   1.00800           0
      5375 MEMB     188      POPC     H11S     HAL2     0.900000E-01   1.00800           0
      5376 MEMB     188      POPC     C212     CTL2    -0.180000       12.0110           0
      5377 MEMB     188      POPC     H12R     HAL2     0.900000E-01   1.00800           0
      5378 MEMB     188      POPC     H12S     HAL2     0.900000E-01   1.00800           0
      5379 MEMB     188      POPC     C213     CTL2    -0.180000       12.0110           0
      5380 MEMB     188      POPC     H13R     HAL2     0.900000E-01   1.00800           0
      5381 MEMB     188      POPC     H13S     HAL2     0.900000E-01   1.00800           0
      5382 MEMB     188      POPC     C214     CTL2    -0.180000       12.0110           0
      5383 MEMB     188      POPC     H14R     HAL2     0.900000E-01   1.00800           0
      5384 MEMB     188      POPC     H14S     HAL2     0.900000E-01   1.00800           0
      5385 MEMB     188      POPC     C215     CTL2    -0.180000       12.0110           0
      5386 MEMB     188      POPC     H15R     HAL2     0.900000E-01   1.00800           0
      5387 MEMB     188      POPC     H15S     HAL2     0.900000E-01   1.00800           0
      5388 MEMB     188      POPC     C216     CTL2    -0.180000       12.0110           0
      5389 MEMB     188      POPC     H16R     HAL2     0.900000E-01   1.00800           0
      5390 MEMB     188      POPC     H16S     HAL2     0.900000E-01   1.00800           0
      5391 MEMB     188      POPC     C217     CTL2    -0.180000       12.0110           0
      5392 MEMB     188      POPC     H17R     HAL2     0.900000E-01   1.00800           0
      5393 MEMB     188      POPC     H17S     HAL2     0.900000E-01   1.00800           0
      5394 MEMB     188      POPC     C218     CTL3    -0.270000       12.0110           0
      5395 MEMB     188      POPC     H18R     HAL3     0.900000E-01   1.00800           0
      5396 MEMB     188      POPC     H18S     HAL3     0.900000E-01   1.00800           0
      5397 MEMB     188      POPC     H18T     HAL3     0.900000E-01   1.00800           0
      5398 MEMB     188      POPC     C33      CTL2    -0.180000       12.0110           0
      5399 MEMB     188      POPC     H3X      HAL2     0.900000E-01   1.00800           0
      5400 MEMB     188      POPC     H3Y      HAL2     0.900000E-01   1.00800           0
      5401 MEMB     188      POPC     C34      CTL2    -0.180000       12.0110           0
      5402 MEMB     188      POPC     H4X      HAL2     0.900000E-01   1.00800           0
      5403 MEMB     188      POPC     H4Y      HAL2     0.900000E-01   1.00800           0
      5404 MEMB     188      POPC     C35      CTL2    -0.180000       12.0110           0
      5405 MEMB     188      POPC     H5X      HAL2     0.900000E-01   1.00800           0
      5406 MEMB     188      POPC     H5Y      HAL2     0.900000E-01   1.00800           0
      5407 MEMB     188      POPC     C36      CTL2    -0.180000       12.0110           0
      5408 MEMB     188      POPC     H6X      HAL2     0.900000E-01   1.00800           0
      5409 MEMB     188      POPC     H6Y      HAL2     0.900000E-01   1.00800           0
      5410 MEMB     188      POPC     C37      CTL2    -0.180000       12.0110           0
      5411 MEMB     188      POPC     H7X      HAL2     0.900000E-01   1.00800           0
      5412 MEMB     188      POPC     H7Y      HAL2     0.900000E-01   1.00800           0
      5413 MEMB     188      POPC     C38      CTL2    -0.180000       12.0110           0
      5414 MEMB     188      POPC     H8X      HAL2     0.900000E-01   1.00800           0
      5415 MEMB     188      POPC     H8Y      HAL2     0.900000E-01   1.00800           0
      5416 MEMB     188      POPC     C39      CTL2    -0.180000       12.0110           0
      5417 MEMB     188      POPC     H9X      HAL2     0.900000E-01   1.00800           0
      5418 MEMB     188      POPC     H9Y      HAL2     0.900000E-01   1.00800           0
      5419 MEMB     188      POPC     C310     CTL2    -0.180000       12.0110           0
      5420 MEMB     188      POPC     H10X     HAL2     0.900000E-01   1.00800           0
      5421 MEMB     188      POPC     H10Y     HAL2     0.900000E-01   1.00800           0
      5422 MEMB     188      POPC     C311     CTL2    -0.180000       12.0110           0
      5423 MEMB     188      POPC     H11X     HAL2     0.900000E-01   1.00800           0
      5424 MEMB     188      POPC     H11Y     HAL2     0.900000E-01   1.00800           0
      5425 MEMB     188      POPC     C312     CTL2    -0.180000       12.0110           0
      5426 MEMB     188      POPC     H12X     HAL2     0.900000E-01   1.00800           0
      5427 MEMB     188      POPC     H12Y     HAL2     0.900000E-01   1.00800           0
      5428 MEMB     188      POPC     C313     CTL2    -0.180000       12.0110           0
      5429 MEMB     188      POPC     H13X     HAL2     0.900000E-01   1.00800           0
      5430 MEMB     188      POPC     H13Y     HAL2     0.900000E-01   1.00800           0
      5431 MEMB     188      POPC     C314     CTL2    -0.180000       12.0110           0
      5432 MEMB     188      POPC     H14X     HAL2     0.900000E-01   1.00800           0
      5433 MEMB     188      POPC     H14Y     HAL2     0.900000E-01   1.00800           0
      5434 MEMB     188      POPC     C315     CTL2    -0.180000       12.0110           0
      5435 MEMB     188      POPC     H15X     HAL2     0.900000E-01   1.00800           0
      5436 MEMB     188      POPC     H15Y     HAL2     0.900000E-01   1.00800           0
      5437 MEMB     188      POPC     C316     CTL3    -0.270000       12.0110           0
      5438 MEMB     188      POPC     H16X     HAL3     0.900000E-01   1.00800           0
      5439 MEMB     188      POPC     H16Y     HAL3     0.900000E-01   1.00800           0
      5440 MEMB     188      POPC     H16Z     HAL3     0.900000E-01   1.00800           0
      5441 MEMB     4        CHL1     C3       CRL1     0.140000       12.0110           0
      5442 MEMB     4        CHL1     H3       HGA1     0.900000E-01   1.00800           0
      5443 MEMB     4        CHL1     O3       OHL     -0.660000       15.9994           0
      5444 MEMB     4        CHL1     H3'      HOL      0.430000       1.00800           0
      5445 MEMB     4        CHL1     C4       CRL2    -0.180000       12.0110           0
      5446 MEMB     4        CHL1     H4A      HGA2     0.900000E-01   1.00800           0
      5447 MEMB     4        CHL1     H4B      HGA2     0.900000E-01   1.00800           0
      5448 MEMB     4        CHL1     C5       CEL1     0.000000       12.0110           0
      5449 MEMB     4        CHL1     C6       CEL1    -0.150000       12.0110           0
      5450 MEMB     4        CHL1     H6       HEL1     0.150000       1.00800           0
      5451 MEMB     4        CHL1     C7       CRL2    -0.180000       12.0110           0
      5452 MEMB     4        CHL1     H7A      HGA2     0.900000E-01   1.00800           0
      5453 MEMB     4        CHL1     H7B      HGA2     0.900000E-01   1.00800           0
      5454 MEMB     4        CHL1     C8       CRL1    -0.900000E-01   12.0110           0
      5455 MEMB     4        CHL1     H8       HGA1     0.900000E-01   1.00800           0
      5456 MEMB     4        CHL1     C14      CRL1    -0.900000E-01   12.0110           0
      5457 MEMB     4        CHL1     H14      HGA1     0.900000E-01   1.00800           0
      5458 MEMB     4        CHL1     C15      CRL2    -0.180000       12.0110           0
      5459 MEMB     4        CHL1     H15A     HGA2     0.900000E-01   1.00800           0
      5460 MEMB     4        CHL1     H15B     HGA2     0.900000E-01   1.00800           0
      5461 MEMB     4        CHL1     C16      CRL2    -0.180000       12.0110           0
      5462 MEMB     4        CHL1     H16A     HGA2     0.900000E-01   1.00800           0
      5463 MEMB     4        CHL1     H16B     HGA2     0.900000E-01   1.00800           0
      5464 MEMB     4        CHL1     C17      CRL1    -0.900000E-01   12.0110           0
      5465 MEMB     4        CHL1     H17      HGA1     0.900000E-01   1.00800           0
      5466 MEMB     4        CHL1     C13      CRL1     0.000000       12.0110           0
      5467 MEMB     4        CHL1     C18      CTL3    -0.270000       12.0110           0
      5468 MEMB     4        CHL1     H18A     HAL3     0.900000E-01   1.00800           0
      5469 MEMB     4        CHL1     H18B     HAL3     0.900000E-01   1.00800           0
      5470 MEMB     4        CHL1     H18C     HAL3     0.900000E-01   1.00800           0
      5471 MEMB     4        CHL1     C12      CRL2    -0.180000       12.0110           0
      5472 MEMB     4        CHL1     H12A     HGA2     0.900000E-01   1.00800           0
      5473 MEMB     4        CHL1     H12B     HGA2     0.900000E-01   1.00800           0
      5474 MEMB     4        CHL1     C11      CRL2    -0.180000       12.0110           0
      5475 MEMB     4        CHL1     H11A     HGA2     0.900000E-01   1.00800           0
      5476 MEMB     4        CHL1     H11B     HGA2     0.900000E-01   1.00800           0
      5477 MEMB     4        CHL1     C9       CRL1    -0.900000E-01   12.0110           0
      5478 MEMB     4        CHL1     H9       HGA1     0.900000E-01   1.00800           0
      5479 MEMB     4        CHL1     C10      CRL1     0.000000       12.0110           0
      5480 MEMB     4        CHL1     C19      CTL3    -0.270000       12.0110           0
      5481 MEMB     4        CHL1     H19A     HAL3     0.900000E-01   1.00800           0
      5482 MEMB     4        CHL1     H19B     HAL3     0.900000E-01   1.00800           0
      5483 MEMB     4        CHL1     H19C     HAL3     0.900000E-01   1.00800           0
      5484 MEMB     4        CHL1     C1       CRL2    -0.180000       12.0110           0
      5485 MEMB     4        CHL1     H1A      HGA2     0.900000E-01   1.00800           0
      5486 MEMB     4        CHL1     H1B      HGA2     0.900000E-01   1.00800           0
      5487 MEMB     4        CHL1     C2       CRL2    -0.180000       12.0110           0
      5488 MEMB     4        CHL1     H2A      HGA2     0.900000E-01   1.00800           0
      5489 MEMB     4        CHL1     H2B      HGA2     0.900000E-01   1.00800           0
      5490 MEMB     4        CHL1     C20      CTL1    -0.900000E-01   12.0110           0
      5491 MEMB     4        CHL1     H20      HAL1     0.900000E-01   1.00800           0
      5492 MEMB     4        CHL1     C21      CTL3    -0.270000       12.0110           0
      5493 MEMB     4        CHL1     H21A     HAL3     0.900000E-01   1.00800           0
      5494 MEMB     4        CHL1     H21B     HAL3     0.900000E-01   1.00800           0
      5495 MEMB     4        CHL1     H21C     HAL3     0.900000E-01   1.00800           0
      5496 MEMB     4        CHL1     C22      CTL2    -0.180000       12.0110           0
      5497 MEMB     4        CHL1     H22A     HAL2     0.900000E-01   1.00800           0
      5498 MEMB     4        CHL1     H22B     HAL2     0.900000E-01   1.00800           0
      5499 MEMB     4        CHL1     C23      CTL2    -0.180000       12.0110           0
      5500 MEMB     4        CHL1     H23A     HAL2     0.900000E-01   1.00800           0
      5501 MEMB     4        CHL1     H23B     HAL2     0.900000E-01   1.00800           0
      5502 MEMB     4        CHL1     C24      CTL2    -0.180000       12.0110           0
      5503 MEMB     4        CHL1     H24A     HAL2     0.900000E-01   1.00800           0
      5504 MEMB     4        CHL1     H24B     HAL2     0.900000E-01   1.00800           0
      5505 MEMB     4        CHL1     C25      CTL1    -0.900000E-01   12.0110           0
      5506 MEMB     4        CHL1     H25      HAL1     0.900000E-01   1.00800           0
      5507 MEMB     4        CHL1     C26      CTL3    -0.270000       12.0110           0
      5508 MEMB     4        CHL1     H26A     HAL3     0.900000E-01   1.00800           0
      5509 MEMB     4        CHL1     H26B     HAL3     0.900000E-01   1.00800           0
      5510 MEMB     4        CHL1     H26C     HAL3     0.900000E-01   1.00800           0
      5511 MEMB     4        CHL1     C27      CTL3    -0.270000       12.0110           0
      5512 MEMB     4        CHL1     H27A     HAL3     0.900000E-01   1.00800           0
      5513 MEMB     4        CHL1     H27B     HAL3     0.900000E-01   1.00800           0
      5514 MEMB     4        CHL1     H27C     HAL3     0.900000E-01   1.00800           0
      5515 MEMB     7        CHL1     C3       CRL1     0.140000       12.0110           0
      5516 MEMB     7        CHL1     H3       HGA1     0.900000E-01   1.00800           0
      5517 MEMB     7        CHL1     O3       OHL     -0.660000       15.9994           0
      5518 MEMB     7        CHL1     H3'      HOL      0.430000       1.00800           0
      5519 MEMB     7        CHL1     C4       CRL2    -0.180000       12.0110           0
      5520 MEMB     7        CHL1     H4A      HGA2     0.900000E-01   1.00800           0
      5521 MEMB     7        CHL1     H4B      HGA2     0.900000E-01   1.00800           0
      5522 MEMB     7        CHL1     C5       CEL1     0.000000       12.0110           0
      5523 MEMB     7        CHL1     C6       CEL1    -0.150000       12.0110           0
      5524 MEMB     7        CHL1     H6       HEL1     0.150000       1.00800           0
      5525 MEMB     7        CHL1     C7       CRL2    -0.180000       12.0110           0
      5526 MEMB     7        CHL1     H7A      HGA2     0.900000E-01   1.00800           0
      5527 MEMB     7        CHL1     H7B      HGA2     0.900000E-01   1.00800           0
      5528 MEMB     7        CHL1     C8       CRL1    -0.900000E-01   12.0110           0
      5529 MEMB     7        CHL1     H8       HGA1     0.900000E-01   1.00800           0
      5530 MEMB     7        CHL1     C14      CRL1    -0.900000E-01   12.0110           0
      5531 MEMB     7        CHL1     H14      HGA1     0.900000E-01   1.00800           0
      5532 MEMB     7        CHL1     C15      CRL2    -0.180000       12.0110           0
      5533 MEMB     7        CHL1     H15A     HGA2     0.900000E-01   1.00800           0
      5534 MEMB     7        CHL1     H15B     HGA2     0.900000E-01   1.00800           0
      5535 MEMB     7        CHL1     C16      CRL2    -0.180000       12.0110           0
      5536 MEMB     7        CHL1     H16A     HGA2     0.900000E-01   1.00800           0
      5537 MEMB     7        CHL1     H16B     HGA2     0.900000E-01   1.00800           0
      5538 MEMB     7        CHL1     C17      CRL1    -0.900000E-01   12.0110           0
      5539 MEMB     7        CHL1     H17      HGA1     0.900000E-01   1.00800           0
      5540 MEMB     7        CHL1     C13      CRL1     0.000000       12.0110           0
      5541 MEMB     7        CHL1     C18      CTL3    -0.270000       12.0110           0
      5542 MEMB     7        CHL1     H18A     HAL3     0.900000E-01   1.00800           0
      5543 MEMB     7        CHL1     H18B     HAL3     0.900000E-01   1.00800           0
      5544 MEMB     7        CHL1     H18C     HAL3     0.900000E-01   1.00800           0
      5545 MEMB     7        CHL1     C12      CRL2    -0.180000       12.0110           0
      5546 MEMB     7        CHL1     H12A     HGA2     0.900000E-01   1.00800           0
      5547 MEMB     7        CHL1     H12B     HGA2     0.900000E-01   1.00800           0
      5548 MEMB     7        CHL1     C11      CRL2    -0.180000       12.0110           0
      5549 MEMB     7        CHL1     H11A     HGA2     0.900000E-01   1.00800           0
      5550 MEMB     7        CHL1     H11B     HGA2     0.900000E-01   1.00800           0
      5551 MEMB     7        CHL1     C9       CRL1    -0.900000E-01   12.0110           0
      5552 MEMB     7        CHL1     H9       HGA1     0.900000E-01   1.00800           0
      5553 MEMB     7        CHL1     C10      CRL1     0.000000       12.0110           0
      5554 MEMB     7        CHL1     C19      CTL3    -0.270000       12.0110           0
      5555 MEMB     7        CHL1     H19A     HAL3     0.900000E-01   1.00800           0
      5556 MEMB     7        CHL1     H19B     HAL3     0.900000E-01   1.00800           0
      5557 MEMB     7        CHL1     H19C     HAL3     0.900000E-01   1.00800           0
      5558 MEMB     7        CHL1     C1       CRL2    -0.180000       12.0110           0
      5559 MEMB     7        CHL1     H1A      HGA2     0.900000E-01   1.00800           0
      5560 MEMB     7        CHL1     H1B      HGA2     0.900000E-01   1.00800           0
      5561 MEMB     7        CHL1     C2       CRL2    -0.180000       12.0110           0
      5562 MEMB     7        CHL1     H2A      HGA2     0.900000E-01   1.00800           0
      5563 MEMB     7        CHL1     H2B      HGA2     0.900000E-01   1.00800           0
      5564 MEMB     7        CHL1     C20      CTL1    -0.900000E-01   12.0110           0
      5565 MEMB     7        CHL1     H20      HAL1     0.900000E-01   1.00800           0
      5566 MEMB     7        CHL1     C21      CTL3    -0.270000       12.0110           0
      5567 MEMB     7        CHL1     H21A     HAL3     0.900000E-01   1.00800           0
      5568 MEMB     7        CHL1     H21B     HAL3     0.900000E-01   1.00800           0
      5569 MEMB     7        CHL1     H21C     HAL3     0.900000E-01   1.00800           0
      5570 MEMB     7        CHL1     C22      CTL2    -0.180000       12.0110           0
      5571 MEMB     7        CHL1     H22A     HAL2     0.900000E-01   1.00800           0
      5572 MEMB     7        CHL1     H22B     HAL2     0.900000E-01   1.00800           0
      5573 MEMB     7        CHL1     C23      CTL2    -0.180000       12.0110           0
      5574 MEMB     7        CHL1     H23A     HAL2     0.900000E-01   1.00800           0
      5575 MEMB     7        CHL1     H23B     HAL2     0.900000E-01   1.00800           0
      5576 MEMB     7        CHL1     C24      CTL2    -0.180000       12.0110           0
      5577 MEMB     7        CHL1     H24A     HAL2     0.900000E-01   1.00800           0
      5578 MEMB     7        CHL1     H24B     HAL2     0.900000E-01   1.00800           0
      5579 MEMB     7        CHL1     C25      CTL1    -0.900000E-01   12.0110           0
      5580 MEMB     7        CHL1     H25      HAL1     0.900000E-01   1.00800           0
      5581 MEMB     7        CHL1     C26      CTL3    -0.270000       12.0110           0
      5582 MEMB     7        CHL1     H26A     HAL3     0.900000E-01   1.00800           0
      5583 MEMB     7        CHL1     H26B     HAL3     0.900000E-01   1.00800           0
      5584 MEMB     7        CHL1     H26C     HAL3     0.900000E-01   1.00800           0
      5585 MEMB     7        CHL1     C27      CTL3    -0.270000       12.0110           0
      5586 MEMB     7        CHL1     H27A     HAL3     0.900000E-01   1.00800           0
      5587 MEMB     7        CHL1     H27B     HAL3     0.900000E-01   1.00800           0
      5588 MEMB     7        CHL1     H27C     HAL3     0.900000E-01   1.00800           0
      5589 MEMB     9        CHL1     C3       CRL1     0.140000       12.0110           0
      5590 MEMB     9        CHL1     H3       HGA1     0.900000E-01   1.00800           0
      5591 MEMB     9        CHL1     O3       OHL     -0.660000       15.9994           0
      5592 MEMB     9        CHL1     H3'      HOL      0.430000       1.00800           0
      5593 MEMB     9        CHL1     C4       CRL2    -0.180000       12.0110           0
      5594 MEMB     9        CHL1     H4A      HGA2     0.900000E-01   1.00800           0
      5595 MEMB     9        CHL1     H4B      HGA2     0.900000E-01   1.00800           0
      5596 MEMB     9        CHL1     C5       CEL1     0.000000       12.0110           0
      5597 MEMB     9        CHL1     C6       CEL1    -0.150000       12.0110           0
      5598 MEMB     9        CHL1     H6       HEL1     0.150000       1.00800           0
      5599 MEMB     9        CHL1     C7       CRL2    -0.180000       12.0110           0
      5600 MEMB     9        CHL1     H7A      HGA2     0.900000E-01   1.00800           0
      5601 MEMB     9        CHL1     H7B      HGA2     0.900000E-01   1.00800           0
      5602 MEMB     9        CHL1     C8       CRL1    -0.900000E-01   12.0110           0
      5603 MEMB     9        CHL1     H8       HGA1     0.900000E-01   1.00800           0
      5604 MEMB     9        CHL1     C14      CRL1    -0.900000E-01   12.0110           0
      5605 MEMB     9        CHL1     H14      HGA1     0.900000E-01   1.00800           0
      5606 MEMB     9        CHL1     C15      CRL2    -0.180000       12.0110           0
      5607 MEMB     9        CHL1     H15A     HGA2     0.900000E-01   1.00800           0
      5608 MEMB     9        CHL1     H15B     HGA2     0.900000E-01   1.00800           0
      5609 MEMB     9        CHL1     C16      CRL2    -0.180000       12.0110           0
      5610 MEMB     9        CHL1     H16A     HGA2     0.900000E-01   1.00800           0
      5611 MEMB     9        CHL1     H16B     HGA2     0.900000E-01   1.00800           0
      5612 MEMB     9        CHL1     C17      CRL1    -0.900000E-01   12.0110           0
      5613 MEMB     9        CHL1     H17      HGA1     0.900000E-01   1.00800           0
      5614 MEMB     9        CHL1     C13      CRL1     0.000000       12.0110           0
      5615 MEMB     9        CHL1     C18      CTL3    -0.270000       12.0110           0
      5616 MEMB     9        CHL1     H18A     HAL3     0.900000E-01   1.00800           0
      5617 MEMB     9        CHL1     H18B     HAL3     0.900000E-01   1.00800           0
      5618 MEMB     9        CHL1     H18C     HAL3     0.900000E-01   1.00800           0
      5619 MEMB     9        CHL1     C12      CRL2    -0.180000       12.0110           0
      5620 MEMB     9        CHL1     H12A     HGA2     0.900000E-01   1.00800           0
      5621 MEMB     9        CHL1     H12B     HGA2     0.900000E-01   1.00800           0
      5622 MEMB     9        CHL1     C11      CRL2    -0.180000       12.0110           0
      5623 MEMB     9        CHL1     H11A     HGA2     0.900000E-01   1.00800           0
      5624 MEMB     9        CHL1     H11B     HGA2     0.900000E-01   1.00800           0
      5625 MEMB     9        CHL1     C9       CRL1    -0.900000E-01   12.0110           0
      5626 MEMB     9        CHL1     H9       HGA1     0.900000E-01   1.00800           0
      5627 MEMB     9        CHL1     C10      CRL1     0.000000       12.0110           0
      5628 MEMB     9        CHL1     C19      CTL3    -0.270000       12.0110           0
      5629 MEMB     9        CHL1     H19A     HAL3     0.900000E-01   1.00800           0
      5630 MEMB     9        CHL1     H19B     HAL3     0.900000E-01   1.00800           0
      5631 MEMB     9        CHL1     H19C     HAL3     0.900000E-01   1.00800           0
      5632 MEMB     9        CHL1     C1       CRL2    -0.180000       12.0110           0
      5633 MEMB     9        CHL1     H1A      HGA2     0.900000E-01   1.00800           0
      5634 MEMB     9        CHL1     H1B      HGA2     0.900000E-01   1.00800           0
      5635 MEMB     9        CHL1     C2       CRL2    -0.180000       12.0110           0
      5636 MEMB     9        CHL1     H2A      HGA2     0.900000E-01   1.00800           0
      5637 MEMB     9        CHL1     H2B      HGA2     0.900000E-01   1.00800           0
      5638 MEMB     9        CHL1     C20      CTL1    -0.900000E-01   12.0110           0
      5639 MEMB     9        CHL1     H20      HAL1     0.900000E-01   1.00800           0
      5640 MEMB     9        CHL1     C21      CTL3    -0.270000       12.0110           0
      5641 MEMB     9        CHL1     H21A     HAL3     0.900000E-01   1.00800           0
      5642 MEMB     9        CHL1     H21B     HAL3     0.900000E-01   1.00800           0
      5643 MEMB     9        CHL1     H21C     HAL3     0.900000E-01   1.00800           0
      5644 MEMB     9        CHL1     C22      CTL2    -0.180000       12.0110           0
      5645 MEMB     9        CHL1     H22A     HAL2     0.900000E-01   1.00800           0
      5646 MEMB     9        CHL1     H22B     HAL2     0.900000E-01   1.00800           0
      5647 MEMB     9        CHL1     C23      CTL2    -0.180000       12.0110           0
      5648 MEMB     9        CHL1     H23A     HAL2     0.900000E-01   1.00800           0
      5649 MEMB     9        CHL1     H23B     HAL2     0.900000E-01   1.00800           0
      5650 MEMB     9        CHL1     C24      CTL2    -0.180000       12.0110           0
      5651 MEMB     9        CHL1     H24A     HAL2     0.900000E-01   1.00800           0
      5652 MEMB     9        CHL1     H24B     HAL2     0.900000E-01   1.00800           0
      5653 MEMB     9        CHL1     C25      CTL1    -0.900000E-01   12.0110           0
      5654 MEMB     9        CHL1     H25      HAL1     0.900000E-01   1.00800           0
      5655 MEMB     9        CHL1     C26      CTL3    -0.270000       12.0110           0
      5656 MEMB     9        CHL1     H26A     HAL3     0.900000E-01   1.00800           0
      5657 MEMB     9        CHL1     H26B     HAL3     0.900000E-01   1.00800           0
      5658 MEMB     9        CHL1     H26C     HAL3     0.900000E-01   1.00800           0
      5659 MEMB     9        CHL1     C27      CTL3    -0.270000       12.0110           0
      5660 MEMB     9        CHL1     H27A     HAL3     0.900000E-01   1.00800           0
      5661 MEMB     9        CHL1     H27B     HAL3     0.900000E-01   1.00800           0
      5662 MEMB     9        CHL1     H27C     HAL3     0.900000E-01   1.00800           0
      5663 MEMB     10       CHL1     C3       CRL1     0.140000       12.0110           0
      5664 MEMB     10       CHL1     H3       HGA1     0.900000E-01   1.00800           0
      5665 MEMB     10       CHL1     O3       OHL     -0.660000       15.9994           0
      5666 MEMB     10       CHL1     H3'      HOL      0.430000       1.00800           0
      5667 MEMB     10       CHL1     C4       CRL2    -0.180000       12.0110           0
      5668 MEMB     10       CHL1     H4A      HGA2     0.900000E-01   1.00800           0
      5669 MEMB     10       CHL1     H4B      HGA2     0.900000E-01   1.00800           0
      5670 MEMB     10       CHL1     C5       CEL1     0.000000       12.0110           0
      5671 MEMB     10       CHL1     C6       CEL1    -0.150000       12.0110           0
      5672 MEMB     10       CHL1     H6       HEL1     0.150000       1.00800           0
      5673 MEMB     10       CHL1     C7       CRL2    -0.180000       12.0110           0
      5674 MEMB     10       CHL1     H7A      HGA2     0.900000E-01   1.00800           0
      5675 MEMB     10       CHL1     H7B      HGA2     0.900000E-01   1.00800           0
      5676 MEMB     10       CHL1     C8       CRL1    -0.900000E-01   12.0110           0
      5677 MEMB     10       CHL1     H8       HGA1     0.900000E-01   1.00800           0
      5678 MEMB     10       CHL1     C14      CRL1    -0.900000E-01   12.0110           0
      5679 MEMB     10       CHL1     H14      HGA1     0.900000E-01   1.00800           0
      5680 MEMB     10       CHL1     C15      CRL2    -0.180000       12.0110           0
      5681 MEMB     10       CHL1     H15A     HGA2     0.900000E-01   1.00800           0
      5682 MEMB     10       CHL1     H15B     HGA2     0.900000E-01   1.00800           0
      5683 MEMB     10       CHL1     C16      CRL2    -0.180000       12.0110           0
      5684 MEMB     10       CHL1     H16A     HGA2     0.900000E-01   1.00800           0
      5685 MEMB     10       CHL1     H16B     HGA2     0.900000E-01   1.00800           0
      5686 MEMB     10       CHL1     C17      CRL1    -0.900000E-01   12.0110           0
      5687 MEMB     10       CHL1     H17      HGA1     0.900000E-01   1.00800           0
      5688 MEMB     10       CHL1     C13      CRL1     0.000000       12.0110           0
      5689 MEMB     10       CHL1     C18      CTL3    -0.270000       12.0110           0
      5690 MEMB     10       CHL1     H18A     HAL3     0.900000E-01   1.00800           0
      5691 MEMB     10       CHL1     H18B     HAL3     0.900000E-01   1.00800           0
      5692 MEMB     10       CHL1     H18C     HAL3     0.900000E-01   1.00800           0
      5693 MEMB     10       CHL1     C12      CRL2    -0.180000       12.0110           0
      5694 MEMB     10       CHL1     H12A     HGA2     0.900000E-01   1.00800           0
      5695 MEMB     10       CHL1     H12B     HGA2     0.900000E-01   1.00800           0
      5696 MEMB     10       CHL1     C11      CRL2    -0.180000       12.0110           0
      5697 MEMB     10       CHL1     H11A     HGA2     0.900000E-01   1.00800           0
      5698 MEMB     10       CHL1     H11B     HGA2     0.900000E-01   1.00800           0
      5699 MEMB     10       CHL1     C9       CRL1    -0.900000E-01   12.0110           0
      5700 MEMB     10       CHL1     H9       HGA1     0.900000E-01   1.00800           0
      5701 MEMB     10       CHL1     C10      CRL1     0.000000       12.0110           0
      5702 MEMB     10       CHL1     C19      CTL3    -0.270000       12.0110           0
      5703 MEMB     10       CHL1     H19A     HAL3     0.900000E-01   1.00800           0
      5704 MEMB     10       CHL1     H19B     HAL3     0.900000E-01   1.00800           0
      5705 MEMB     10       CHL1     H19C     HAL3     0.900000E-01   1.00800           0
      5706 MEMB     10       CHL1     C1       CRL2    -0.180000       12.0110           0
      5707 MEMB     10       CHL1     H1A      HGA2     0.900000E-01   1.00800           0
      5708 MEMB     10       CHL1     H1B      HGA2     0.900000E-01   1.00800           0
      5709 MEMB     10       CHL1     C2       CRL2    -0.180000       12.0110           0
      5710 MEMB     10       CHL1     H2A      HGA2     0.900000E-01   1.00800           0
      5711 MEMB     10       CHL1     H2B      HGA2     0.900000E-01   1.00800           0
      5712 MEMB     10       CHL1     C20      CTL1    -0.900000E-01   12.0110           0
      5713 MEMB     10       CHL1     H20      HAL1     0.900000E-01   1.00800           0
      5714 MEMB     10       CHL1     C21      CTL3    -0.270000       12.0110           0
      5715 MEMB     10       CHL1     H21A     HAL3     0.900000E-01   1.00800           0
      5716 MEMB     10       CHL1     H21B     HAL3     0.900000E-01   1.00800           0
      5717 MEMB     10       CHL1     H21C     HAL3     0.900000E-01   1.00800           0
      5718 MEMB     10       CHL1     C22      CTL2    -0.180000       12.0110           0
      5719 MEMB     10       CHL1     H22A     HAL2     0.900000E-01   1.00800           0
      5720 MEMB     10       CHL1     H22B     HAL2     0.900000E-01   1.00800           0
      5721 MEMB     10       CHL1     C23      CTL2    -0.180000       12.0110           0
      5722 MEMB     10       CHL1     H23A     HAL2     0.900000E-01   1.00800           0
      5723 MEMB     10       CHL1     H23B     HAL2     0.900000E-01   1.00800           0
      5724 MEMB     10       CHL1     C24      CTL2    -0.180000       12.0110           0
      5725 MEMB     10       CHL1     H24A     HAL2     0.900000E-01   1.00800           0
      5726 MEMB     10       CHL1     H24B     HAL2     0.900000E-01   1.00800           0
      5727 MEMB     10       CHL1     C25      CTL1    -0.900000E-01   12.0110           0
      5728 MEMB     10       CHL1     H25      HAL1     0.900000E-01   1.00800           0
      5729 MEMB     10       CHL1     C26      CTL3    -0.270000       12.0110           0
      5730 MEMB     10       CHL1     H26A     HAL3     0.900000E-01   1.00800           0
      5731 MEMB     10       CHL1     H26B     HAL3     0.900000E-01   1.00800           0
      5732 MEMB     10       CHL1     H26C     HAL3     0.900000E-01   1.00800           0
      5733 MEMB     10       CHL1     C27      CTL3    -0.270000       12.0110           0
      5734 MEMB     10       CHL1     H27A     HAL3     0.900000E-01   1.00800           0
      5735 MEMB     10       CHL1     H27B     HAL3     0.900000E-01   1.00800           0
      5736 MEMB     10       CHL1     H27C     HAL3     0.900000E-01   1.00800           0
      5737 MEMB     14       CHL1     C3       CRL1     0.140000       12.0110           0
      5738 MEMB     14       CHL1     H3       HGA1     0.900000E-01   1.00800           0
      5739 MEMB     14       CHL1     O3       OHL     -0.660000       15.9994           0
      5740 MEMB     14       CHL1     H3'      HOL      0.430000       1.00800           0
      5741 MEMB     14       CHL1     C4       CRL2    -0.180000       12.0110           0
      5742 MEMB     14       CHL1     H4A      HGA2     0.900000E-01   1.00800           0
      5743 MEMB     14       CHL1     H4B      HGA2     0.900000E-01   1.00800           0
      5744 MEMB     14       CHL1     C5       CEL1     0.000000       12.0110           0
      5745 MEMB     14       CHL1     C6       CEL1    -0.150000       12.0110           0
      5746 MEMB     14       CHL1     H6       HEL1     0.150000       1.00800           0
      5747 MEMB     14       CHL1     C7       CRL2    -0.180000       12.0110           0
      5748 MEMB     14       CHL1     H7A      HGA2     0.900000E-01   1.00800           0
      5749 MEMB     14       CHL1     H7B      HGA2     0.900000E-01   1.00800           0
      5750 MEMB     14       CHL1     C8       CRL1    -0.900000E-01   12.0110           0
      5751 MEMB     14       CHL1     H8       HGA1     0.900000E-01   1.00800           0
      5752 MEMB     14       CHL1     C14      CRL1    -0.900000E-01   12.0110           0
      5753 MEMB     14       CHL1     H14      HGA1     0.900000E-01   1.00800           0
      5754 MEMB     14       CHL1     C15      CRL2    -0.180000       12.0110           0
      5755 MEMB     14       CHL1     H15A     HGA2     0.900000E-01   1.00800           0
      5756 MEMB     14       CHL1     H15B     HGA2     0.900000E-01   1.00800           0
      5757 MEMB     14       CHL1     C16      CRL2    -0.180000       12.0110           0
      5758 MEMB     14       CHL1     H16A     HGA2     0.900000E-01   1.00800           0
      5759 MEMB     14       CHL1     H16B     HGA2     0.900000E-01   1.00800           0
      5760 MEMB     14       CHL1     C17      CRL1    -0.900000E-01   12.0110           0
      5761 MEMB     14       CHL1     H17      HGA1     0.900000E-01   1.00800           0
      5762 MEMB     14       CHL1     C13      CRL1     0.000000       12.0110           0
      5763 MEMB     14       CHL1     C18      CTL3    -0.270000       12.0110           0
      5764 MEMB     14       CHL1     H18A     HAL3     0.900000E-01   1.00800           0
      5765 MEMB     14       CHL1     H18B     HAL3     0.900000E-01   1.00800           0
      5766 MEMB     14       CHL1     H18C     HAL3     0.900000E-01   1.00800           0
      5767 MEMB     14       CHL1     C12      CRL2    -0.180000       12.0110           0
      5768 MEMB     14       CHL1     H12A     HGA2     0.900000E-01   1.00800           0
      5769 MEMB     14       CHL1     H12B     HGA2     0.900000E-01   1.00800           0
      5770 MEMB     14       CHL1     C11      CRL2    -0.180000       12.0110           0
      5771 MEMB     14       CHL1     H11A     HGA2     0.900000E-01   1.00800           0
      5772 MEMB     14       CHL1     H11B     HGA2     0.900000E-01   1.00800           0
      5773 MEMB     14       CHL1     C9       CRL1    -0.900000E-01   12.0110           0
      5774 MEMB     14       CHL1     H9       HGA1     0.900000E-01   1.00800           0
      5775 MEMB     14       CHL1     C10      CRL1     0.000000       12.0110           0
      5776 MEMB     14       CHL1     C19      CTL3    -0.270000       12.0110           0
      5777 MEMB     14       CHL1     H19A     HAL3     0.900000E-01   1.00800           0
      5778 MEMB     14       CHL1     H19B     HAL3     0.900000E-01   1.00800           0
      5779 MEMB     14       CHL1     H19C     HAL3     0.900000E-01   1.00800           0
      5780 MEMB     14       CHL1     C1       CRL2    -0.180000       12.0110           0
      5781 MEMB     14       CHL1     H1A      HGA2     0.900000E-01   1.00800           0
      5782 MEMB     14       CHL1     H1B      HGA2     0.900000E-01   1.00800           0
      5783 MEMB     14       CHL1     C2       CRL2    -0.180000       12.0110           0
      5784 MEMB     14       CHL1     H2A      HGA2     0.900000E-01   1.00800           0
      5785 MEMB     14       CHL1     H2B      HGA2     0.900000E-01   1.00800           0
      5786 MEMB     14       CHL1     C20      CTL1    -0.900000E-01   12.0110           0
      5787 MEMB     14       CHL1     H20      HAL1     0.900000E-01   1.00800           0
      5788 MEMB     14       CHL1     C21      CTL3    -0.270000       12.0110           0
      5789 MEMB     14       CHL1     H21A     HAL3     0.900000E-01   1.00800           0
      5790 MEMB     14       CHL1     H21B     HAL3     0.900000E-01   1.00800           0
      5791 MEMB     14       CHL1     H21C     HAL3     0.900000E-01   1.00800           0
      5792 MEMB     14       CHL1     C22      CTL2    -0.180000       12.0110           0
      5793 MEMB     14       CHL1     H22A     HAL2     0.900000E-01   1.00800           0
      5794 MEMB     14       CHL1     H22B     HAL2     0.900000E-01   1.00800           0
      5795 MEMB     14       CHL1     C23      CTL2    -0.180000       12.0110           0
      5796 MEMB     14       CHL1     H23A     HAL2     0.900000E-01   1.00800           0
      5797 MEMB     14       CHL1     H23B     HAL2     0.900000E-01   1.00800           0
      5798 MEMB     14       CHL1     C24      CTL2    -0.180000       12.0110           0
      5799 MEMB     14       CHL1     H24A     HAL2     0.900000E-01   1.00800           0
      5800 MEMB     14       CHL1     H24B     HAL2     0.900000E-01   1.00800           0
      5801 MEMB     14       CHL1     C25      CTL1    -0.900000E-01   12.0110           0
      5802 MEMB     14       CHL1     H25      HAL1     0.900000E-01   1.00800           0
      5803 MEMB     14       CHL1     C26      CTL3    -0.270000       12.0110           0
      5804 MEMB     14       CHL1     H26A     HAL3     0.900000E-01   1.00800           0
      5805 MEMB     14       CHL1     H26B     HAL3     0.900000E-01   1.00800           0
      5806 MEMB     14       CHL1     H26C     HAL3     0.900000E-01   1.00800           0
      5807 MEMB     14       CHL1     C27      CTL3    -0.270000       12.0110           0
      5808 MEMB     14       CHL1     H27A     HAL3     0.900000E-01   1.00800           0
      5809 MEMB     14       CHL1     H27B     HAL3     0.900000E-01   1.00800           0
      5810 MEMB     14       CHL1     H27C     HAL3     0.900000E-01   1.00800           0
      5811 MEMB     15       CHL1     C3       CRL1     0.140000       12.0110           0
      5812 MEMB     15       CHL1     H3       HGA1     0.900000E-01   1.00800           0
      5813 MEMB     15       CHL1     O3       OHL     -0.660000       15.9994           0
      5814 MEMB     15       CHL1     H3'      HOL      0.430000       1.00800           0
      5815 MEMB     15       CHL1     C4       CRL2    -0.180000       12.0110           0
      5816 MEMB     15       CHL1     H4A      HGA2     0.900000E-01   1.00800           0
      5817 MEMB     15       CHL1     H4B      HGA2     0.900000E-01   1.00800           0
      5818 MEMB     15       CHL1     C5       CEL1     0.000000       12.0110           0
      5819 MEMB     15       CHL1     C6       CEL1    -0.150000       12.0110           0
      5820 MEMB     15       CHL1     H6       HEL1     0.150000       1.00800           0
      5821 MEMB     15       CHL1     C7       CRL2    -0.180000       12.0110           0
      5822 MEMB     15       CHL1     H7A      HGA2     0.900000E-01   1.00800           0
      5823 MEMB     15       CHL1     H7B      HGA2     0.900000E-01   1.00800           0
      5824 MEMB     15       CHL1     C8       CRL1    -0.900000E-01   12.0110           0
      5825 MEMB     15       CHL1     H8       HGA1     0.900000E-01   1.00800           0
      5826 MEMB     15       CHL1     C14      CRL1    -0.900000E-01   12.0110           0
      5827 MEMB     15       CHL1     H14      HGA1     0.900000E-01   1.00800           0
      5828 MEMB     15       CHL1     C15      CRL2    -0.180000       12.0110           0
      5829 MEMB     15       CHL1     H15A     HGA2     0.900000E-01   1.00800           0
      5830 MEMB     15       CHL1     H15B     HGA2     0.900000E-01   1.00800           0
      5831 MEMB     15       CHL1     C16      CRL2    -0.180000       12.0110           0
      5832 MEMB     15       CHL1     H16A     HGA2     0.900000E-01   1.00800           0
      5833 MEMB     15       CHL1     H16B     HGA2     0.900000E-01   1.00800           0
      5834 MEMB     15       CHL1     C17      CRL1    -0.900000E-01   12.0110           0
      5835 MEMB     15       CHL1     H17      HGA1     0.900000E-01   1.00800           0
      5836 MEMB     15       CHL1     C13      CRL1     0.000000       12.0110           0
      5837 MEMB     15       CHL1     C18      CTL3    -0.270000       12.0110           0
      5838 MEMB     15       CHL1     H18A     HAL3     0.900000E-01   1.00800           0
      5839 MEMB     15       CHL1     H18B     HAL3     0.900000E-01   1.00800           0
      5840 MEMB     15       CHL1     H18C     HAL3     0.900000E-01   1.00800           0
      5841 MEMB     15       CHL1     C12      CRL2    -0.180000       12.0110           0
      5842 MEMB     15       CHL1     H12A     HGA2     0.900000E-01   1.00800           0
      5843 MEMB     15       CHL1     H12B     HGA2     0.900000E-01   1.00800           0
      5844 MEMB     15       CHL1     C11      CRL2    -0.180000       12.0110           0
      5845 MEMB     15       CHL1     H11A     HGA2     0.900000E-01   1.00800           0
      5846 MEMB     15       CHL1     H11B     HGA2     0.900000E-01   1.00800           0
      5847 MEMB     15       CHL1     C9       CRL1    -0.900000E-01   12.0110           0
      5848 MEMB     15       CHL1     H9       HGA1     0.900000E-01   1.00800           0
      5849 MEMB     15       CHL1     C10      CRL1     0.000000       12.0110           0
      5850 MEMB     15       CHL1     C19      CTL3    -0.270000       12.0110           0
      5851 MEMB     15       CHL1     H19A     HAL3     0.900000E-01   1.00800           0
      5852 MEMB     15       CHL1     H19B     HAL3     0.900000E-01   1.00800           0
      5853 MEMB     15       CHL1     H19C     HAL3     0.900000E-01   1.00800           0
      5854 MEMB     15       CHL1     C1       CRL2    -0.180000       12.0110           0
      5855 MEMB     15       CHL1     H1A      HGA2     0.900000E-01   1.00800           0
      5856 MEMB     15       CHL1     H1B      HGA2     0.900000E-01   1.00800           0
      5857 MEMB     15       CHL1     C2       CRL2    -0.180000       12.0110           0
      5858 MEMB     15       CHL1     H2A      HGA2     0.900000E-01   1.00800           0
      5859 MEMB     15       CHL1     H2B      HGA2     0.900000E-01   1.00800           0
      5860 MEMB     15       CHL1     C20      CTL1    -0.900000E-01   12.0110           0
      5861 MEMB     15       CHL1     H20      HAL1     0.900000E-01   1.00800           0
      5862 MEMB     15       CHL1     C21      CTL3    -0.270000       12.0110           0
      5863 MEMB     15       CHL1     H21A     HAL3     0.900000E-01   1.00800           0
      5864 MEMB     15       CHL1     H21B     HAL3     0.900000E-01   1.00800           0
      5865 MEMB     15       CHL1     H21C     HAL3     0.900000E-01   1.00800           0
      5866 MEMB     15       CHL1     C22      CTL2    -0.180000       12.0110           0
      5867 MEMB     15       CHL1     H22A     HAL2     0.900000E-01   1.00800           0
      5868 MEMB     15       CHL1     H22B     HAL2     0.900000E-01   1.00800           0
      5869 MEMB     15       CHL1     C23      CTL2    -0.180000       12.0110           0
      5870 MEMB     15       CHL1     H23A     HAL2     0.900000E-01   1.00800           0
      5871 MEMB     15       CHL1     H23B     HAL2     0.900000E-01   1.00800           0
      5872 MEMB     15       CHL1     C24      CTL2    -0.180000       12.0110           0
      5873 MEMB     15       CHL1     H24A     HAL2     0.900000E-01   1.00800           0
      5874 MEMB     15       CHL1     H24B     HAL2     0.900000E-01   1.00800           0
      5875 MEMB     15       CHL1     C25      CTL1    -0.900000E-01   12.0110           0
      5876 MEMB     15       CHL1     H25      HAL1     0.900000E-01   1.00800           0
      5877 MEMB     15       CHL1     C26      CTL3    -0.270000       12.0110           0
      5878 MEMB     15       CHL1     H26A     HAL3     0.900000E-01   1.00800           0
      5879 MEMB     15       CHL1     H26B     HAL3     0.900000E-01   1.00800           0
      5880 MEMB     15       CHL1     H26C     HAL3     0.900000E-01   1.00800           0
      5881 MEMB     15       CHL1     C27      CTL3    -0.270000       12.0110           0
      5882 MEMB     15       CHL1     H27A     HAL3     0.900000E-01   1.00800           0
      5883 MEMB     15       CHL1     H27B     HAL3     0.900000E-01   1.00800           0
      5884 MEMB     15       CHL1     H27C     HAL3     0.900000E-01   1.00800           0
      5885 MEMB     16       CHL1     C3       CRL1     0.140000       12.0110           0
      5886 MEMB     16       CHL1     H3       HGA1     0.900000E-01   1.00800           0
      5887 MEMB     16       CHL1     O3       OHL     -0.660000       15.9994           0
      5888 MEMB     16       CHL1     H3'      HOL      0.430000       1.00800           0
      5889 MEMB     16       CHL1     C4       CRL2    -0.180000       12.0110           0
      5890 MEMB     16       CHL1     H4A      HGA2     0.900000E-01   1.00800           0
      5891 MEMB     16       CHL1     H4B      HGA2     0.900000E-01   1.00800           0
      5892 MEMB     16       CHL1     C5       CEL1     0.000000       12.0110           0
      5893 MEMB     16       CHL1     C6       CEL1    -0.150000       12.0110           0
      5894 MEMB     16       CHL1     H6       HEL1     0.150000       1.00800           0
      5895 MEMB     16       CHL1     C7       CRL2    -0.180000       12.0110           0
      5896 MEMB     16       CHL1     H7A      HGA2     0.900000E-01   1.00800           0
      5897 MEMB     16       CHL1     H7B      HGA2     0.900000E-01   1.00800           0
      5898 MEMB     16       CHL1     C8       CRL1    -0.900000E-01   12.0110           0
      5899 MEMB     16       CHL1     H8       HGA1     0.900000E-01   1.00800           0
      5900 MEMB     16       CHL1     C14      CRL1    -0.900000E-01   12.0110           0
      5901 MEMB     16       CHL1     H14      HGA1     0.900000E-01   1.00800           0
      5902 MEMB     16       CHL1     C15      CRL2    -0.180000       12.0110           0
      5903 MEMB     16       CHL1     H15A     HGA2     0.900000E-01   1.00800           0
      5904 MEMB     16       CHL1     H15B     HGA2     0.900000E-01   1.00800           0
      5905 MEMB     16       CHL1     C16      CRL2    -0.180000       12.0110           0
      5906 MEMB     16       CHL1     H16A     HGA2     0.900000E-01   1.00800           0
      5907 MEMB     16       CHL1     H16B     HGA2     0.900000E-01   1.00800           0
      5908 MEMB     16       CHL1     C17      CRL1    -0.900000E-01   12.0110           0
      5909 MEMB     16       CHL1     H17      HGA1     0.900000E-01   1.00800           0
      5910 MEMB     16       CHL1     C13      CRL1     0.000000       12.0110           0
      5911 MEMB     16       CHL1     C18      CTL3    -0.270000       12.0110           0
      5912 MEMB     16       CHL1     H18A     HAL3     0.900000E-01   1.00800           0
      5913 MEMB     16       CHL1     H18B     HAL3     0.900000E-01   1.00800           0
      5914 MEMB     16       CHL1     H18C     HAL3     0.900000E-01   1.00800           0
      5915 MEMB     16       CHL1     C12      CRL2    -0.180000       12.0110           0
      5916 MEMB     16       CHL1     H12A     HGA2     0.900000E-01   1.00800           0
      5917 MEMB     16       CHL1     H12B     HGA2     0.900000E-01   1.00800           0
      5918 MEMB     16       CHL1     C11      CRL2    -0.180000       12.0110           0
      5919 MEMB     16       CHL1     H11A     HGA2     0.900000E-01   1.00800           0
      5920 MEMB     16       CHL1     H11B     HGA2     0.900000E-01   1.00800           0
      5921 MEMB     16       CHL1     C9       CRL1    -0.900000E-01   12.0110           0
      5922 MEMB     16       CHL1     H9       HGA1     0.900000E-01   1.00800           0
      5923 MEMB     16       CHL1     C10      CRL1     0.000000       12.0110           0
      5924 MEMB     16       CHL1     C19      CTL3    -0.270000       12.0110           0
      5925 MEMB     16       CHL1     H19A     HAL3     0.900000E-01   1.00800           0
      5926 MEMB     16       CHL1     H19B     HAL3     0.900000E-01   1.00800           0
      5927 MEMB     16       CHL1     H19C     HAL3     0.900000E-01   1.00800           0
      5928 MEMB     16       CHL1     C1       CRL2    -0.180000       12.0110           0
      5929 MEMB     16       CHL1     H1A      HGA2     0.900000E-01   1.00800           0
      5930 MEMB     16       CHL1     H1B      HGA2     0.900000E-01   1.00800           0
      5931 MEMB     16       CHL1     C2       CRL2    -0.180000       12.0110           0
      5932 MEMB     16       CHL1     H2A      HGA2     0.900000E-01   1.00800           0
      5933 MEMB     16       CHL1     H2B      HGA2     0.900000E-01   1.00800           0
      5934 MEMB     16       CHL1     C20      CTL1    -0.900000E-01   12.0110           0
      5935 MEMB     16       CHL1     H20      HAL1     0.900000E-01   1.00800           0
      5936 MEMB     16       CHL1     C21      CTL3    -0.270000       12.0110           0
      5937 MEMB     16       CHL1     H21A     HAL3     0.900000E-01   1.00800           0
      5938 MEMB     16       CHL1     H21B     HAL3     0.900000E-01   1.00800           0
      5939 MEMB     16       CHL1     H21C     HAL3     0.900000E-01   1.00800           0
      5940 MEMB     16       CHL1     C22      CTL2    -0.180000       12.0110           0
      5941 MEMB     16       CHL1     H22A     HAL2     0.900000E-01   1.00800           0
      5942 MEMB     16       CHL1     H22B     HAL2     0.900000E-01   1.00800           0
      5943 MEMB     16       CHL1     C23      CTL2    -0.180000       12.0110           0
      5944 MEMB     16       CHL1     H23A     HAL2     0.900000E-01   1.00800           0
      5945 MEMB     16       CHL1     H23B     HAL2     0.900000E-01   1.00800           0
      5946 MEMB     16       CHL1     C24      CTL2    -0.180000       12.0110           0
      5947 MEMB     16       CHL1     H24A     HAL2     0.900000E-01   1.00800           0
      5948 MEMB     16       CHL1     H24B     HAL2     0.900000E-01   1.00800           0
      5949 MEMB     16       CHL1     C25      CTL1    -0.900000E-01   12.0110           0
      5950 MEMB     16       CHL1     H25      HAL1     0.900000E-01   1.00800           0
      5951 MEMB     16       CHL1     C26      CTL3    -0.270000       12.0110           0
      5952 MEMB     16       CHL1     H26A     HAL3     0.900000E-01   1.00800           0
      5953 MEMB     16       CHL1     H26B     HAL3     0.900000E-01   1.00800           0
      5954 MEMB     16       CHL1     H26C     HAL3     0.900000E-01   1.00800           0
      5955 MEMB     16       CHL1     C27      CTL3    -0.270000       12.0110           0
      5956 MEMB     16       CHL1     H27A     HAL3     0.900000E-01   1.00800           0
      5957 MEMB     16       CHL1     H27B     HAL3     0.900000E-01   1.00800           0
      5958 MEMB     16       CHL1     H27C     HAL3     0.900000E-01   1.00800           0
      5959 MEMB     21       CHL1     C3       CRL1     0.140000       12.0110           0
      5960 MEMB     21       CHL1     H3       HGA1     0.900000E-01   1.00800           0
      5961 MEMB     21       CHL1     O3       OHL     -0.660000       15.9994           0
      5962 MEMB     21       CHL1     H3'      HOL      0.430000       1.00800           0
      5963 MEMB     21       CHL1     C4       CRL2    -0.180000       12.0110           0
      5964 MEMB     21       CHL1     H4A      HGA2     0.900000E-01   1.00800           0
      5965 MEMB     21       CHL1     H4B      HGA2     0.900000E-01   1.00800           0
      5966 MEMB     21       CHL1     C5       CEL1     0.000000       12.0110           0
      5967 MEMB     21       CHL1     C6       CEL1    -0.150000       12.0110           0
      5968 MEMB     21       CHL1     H6       HEL1     0.150000       1.00800           0
      5969 MEMB     21       CHL1     C7       CRL2    -0.180000       12.0110           0
      5970 MEMB     21       CHL1     H7A      HGA2     0.900000E-01   1.00800           0
      5971 MEMB     21       CHL1     H7B      HGA2     0.900000E-01   1.00800           0
      5972 MEMB     21       CHL1     C8       CRL1    -0.900000E-01   12.0110           0
      5973 MEMB     21       CHL1     H8       HGA1     0.900000E-01   1.00800           0
      5974 MEMB     21       CHL1     C14      CRL1    -0.900000E-01   12.0110           0
      5975 MEMB     21       CHL1     H14      HGA1     0.900000E-01   1.00800           0
      5976 MEMB     21       CHL1     C15      CRL2    -0.180000       12.0110           0
      5977 MEMB     21       CHL1     H15A     HGA2     0.900000E-01   1.00800           0
      5978 MEMB     21       CHL1     H15B     HGA2     0.900000E-01   1.00800           0
      5979 MEMB     21       CHL1     C16      CRL2    -0.180000       12.0110           0
      5980 MEMB     21       CHL1     H16A     HGA2     0.900000E-01   1.00800           0
      5981 MEMB     21       CHL1     H16B     HGA2     0.900000E-01   1.00800           0
      5982 MEMB     21       CHL1     C17      CRL1    -0.900000E-01   12.0110           0
      5983 MEMB     21       CHL1     H17      HGA1     0.900000E-01   1.00800           0
      5984 MEMB     21       CHL1     C13      CRL1     0.000000       12.0110           0
      5985 MEMB     21       CHL1     C18      CTL3    -0.270000       12.0110           0
      5986 MEMB     21       CHL1     H18A     HAL3     0.900000E-01   1.00800           0
      5987 MEMB     21       CHL1     H18B     HAL3     0.900000E-01   1.00800           0
      5988 MEMB     21       CHL1     H18C     HAL3     0.900000E-01   1.00800           0
      5989 MEMB     21       CHL1     C12      CRL2    -0.180000       12.0110           0
      5990 MEMB     21       CHL1     H12A     HGA2     0.900000E-01   1.00800           0
      5991 MEMB     21       CHL1     H12B     HGA2     0.900000E-01   1.00800           0
      5992 MEMB     21       CHL1     C11      CRL2    -0.180000       12.0110           0
      5993 MEMB     21       CHL1     H11A     HGA2     0.900000E-01   1.00800           0
      5994 MEMB     21       CHL1     H11B     HGA2     0.900000E-01   1.00800           0
      5995 MEMB     21       CHL1     C9       CRL1    -0.900000E-01   12.0110           0
      5996 MEMB     21       CHL1     H9       HGA1     0.900000E-01   1.00800           0
      5997 MEMB     21       CHL1     C10      CRL1     0.000000       12.0110           0
      5998 MEMB     21       CHL1     C19      CTL3    -0.270000       12.0110           0
      5999 MEMB     21       CHL1     H19A     HAL3     0.900000E-01   1.00800           0
      6000 MEMB     21       CHL1     H19B     HAL3     0.900000E-01   1.00800           0
      6001 MEMB     21       CHL1     H19C     HAL3     0.900000E-01   1.00800           0
      6002 MEMB     21       CHL1     C1       CRL2    -0.180000       12.0110           0
      6003 MEMB     21       CHL1     H1A      HGA2     0.900000E-01   1.00800           0
      6004 MEMB     21       CHL1     H1B      HGA2     0.900000E-01   1.00800           0
      6005 MEMB     21       CHL1     C2       CRL2    -0.180000       12.0110           0
      6006 MEMB     21       CHL1     H2A      HGA2     0.900000E-01   1.00800           0
      6007 MEMB     21       CHL1     H2B      HGA2     0.900000E-01   1.00800           0
      6008 MEMB     21       CHL1     C20      CTL1    -0.900000E-01   12.0110           0
      6009 MEMB     21       CHL1     H20      HAL1     0.900000E-01   1.00800           0
      6010 MEMB     21       CHL1     C21      CTL3    -0.270000       12.0110           0
      6011 MEMB     21       CHL1     H21A     HAL3     0.900000E-01   1.00800           0
      6012 MEMB     21       CHL1     H21B     HAL3     0.900000E-01   1.00800           0
      6013 MEMB     21       CHL1     H21C     HAL3     0.900000E-01   1.00800           0
      6014 MEMB     21       CHL1     C22      CTL2    -0.180000       12.0110           0
      6015 MEMB     21       CHL1     H22A     HAL2     0.900000E-01   1.00800           0
      6016 MEMB     21       CHL1     H22B     HAL2     0.900000E-01   1.00800           0
      6017 MEMB     21       CHL1     C23      CTL2    -0.180000       12.0110           0
      6018 MEMB     21       CHL1     H23A     HAL2     0.900000E-01   1.00800           0
      6019 MEMB     21       CHL1     H23B     HAL2     0.900000E-01   1.00800           0
      6020 MEMB     21       CHL1     C24      CTL2    -0.180000       12.0110           0
      6021 MEMB     21       CHL1     H24A     HAL2     0.900000E-01   1.00800           0
      6022 MEMB     21       CHL1     H24B     HAL2     0.900000E-01   1.00800           0
      6023 MEMB     21       CHL1     C25      CTL1    -0.900000E-01   12.0110           0
      6024 MEMB     21       CHL1     H25      HAL1     0.900000E-01   1.00800           0
      6025 MEMB     21       CHL1     C26      CTL3    -0.270000       12.0110           0
      6026 MEMB     21       CHL1     H26A     HAL3     0.900000E-01   1.00800           0
      6027 MEMB     21       CHL1     H26B     HAL3     0.900000E-01   1.00800           0
      6028 MEMB     21       CHL1     H26C     HAL3     0.900000E-01   1.00800           0
      6029 MEMB     21       CHL1     C27      CTL3    -0.270000       12.0110           0
      6030 MEMB     21       CHL1     H27A     HAL3     0.900000E-01   1.00800           0
      6031 MEMB     21       CHL1     H27B     HAL3     0.900000E-01   1.00800           0
      6032 MEMB     21       CHL1     H27C     HAL3     0.900000E-01   1.00800           0
      6033 MEMB     25       CHL1     C3       CRL1     0.140000       12.0110           0
      6034 MEMB     25       CHL1     H3       HGA1     0.900000E-01   1.00800           0
      6035 MEMB     25       CHL1     O3       OHL     -0.660000       15.9994           0
      6036 MEMB     25       CHL1     H3'      HOL      0.430000       1.00800           0
      6037 MEMB     25       CHL1     C4       CRL2    -0.180000       12.0110           0
      6038 MEMB     25       CHL1     H4A      HGA2     0.900000E-01   1.00800           0
      6039 MEMB     25       CHL1     H4B      HGA2     0.900000E-01   1.00800           0
      6040 MEMB     25       CHL1     C5       CEL1     0.000000       12.0110           0
      6041 MEMB     25       CHL1     C6       CEL1    -0.150000       12.0110           0
      6042 MEMB     25       CHL1     H6       HEL1     0.150000       1.00800           0
      6043 MEMB     25       CHL1     C7       CRL2    -0.180000       12.0110           0
      6044 MEMB     25       CHL1     H7A      HGA2     0.900000E-01   1.00800           0
      6045 MEMB     25       CHL1     H7B      HGA2     0.900000E-01   1.00800           0
      6046 MEMB     25       CHL1     C8       CRL1    -0.900000E-01   12.0110           0
      6047 MEMB     25       CHL1     H8       HGA1     0.900000E-01   1.00800           0
      6048 MEMB     25       CHL1     C14      CRL1    -0.900000E-01   12.0110           0
      6049 MEMB     25       CHL1     H14      HGA1     0.900000E-01   1.00800           0
      6050 MEMB     25       CHL1     C15      CRL2    -0.180000       12.0110           0
      6051 MEMB     25       CHL1     H15A     HGA2     0.900000E-01   1.00800           0
      6052 MEMB     25       CHL1     H15B     HGA2     0.900000E-01   1.00800           0
      6053 MEMB     25       CHL1     C16      CRL2    -0.180000       12.0110           0
      6054 MEMB     25       CHL1     H16A     HGA2     0.900000E-01   1.00800           0
      6055 MEMB     25       CHL1     H16B     HGA2     0.900000E-01   1.00800           0
      6056 MEMB     25       CHL1     C17      CRL1    -0.900000E-01   12.0110           0
      6057 MEMB     25       CHL1     H17      HGA1     0.900000E-01   1.00800           0
      6058 MEMB     25       CHL1     C13      CRL1     0.000000       12.0110           0
      6059 MEMB     25       CHL1     C18      CTL3    -0.270000       12.0110           0
      6060 MEMB     25       CHL1     H18A     HAL3     0.900000E-01   1.00800           0
      6061 MEMB     25       CHL1     H18B     HAL3     0.900000E-01   1.00800           0
      6062 MEMB     25       CHL1     H18C     HAL3     0.900000E-01   1.00800           0
      6063 MEMB     25       CHL1     C12      CRL2    -0.180000       12.0110           0
      6064 MEMB     25       CHL1     H12A     HGA2     0.900000E-01   1.00800           0
      6065 MEMB     25       CHL1     H12B     HGA2     0.900000E-01   1.00800           0
      6066 MEMB     25       CHL1     C11      CRL2    -0.180000       12.0110           0
      6067 MEMB     25       CHL1     H11A     HGA2     0.900000E-01   1.00800           0
      6068 MEMB     25       CHL1     H11B     HGA2     0.900000E-01   1.00800           0
      6069 MEMB     25       CHL1     C9       CRL1    -0.900000E-01   12.0110           0
      6070 MEMB     25       CHL1     H9       HGA1     0.900000E-01   1.00800           0
      6071 MEMB     25       CHL1     C10      CRL1     0.000000       12.0110           0
      6072 MEMB     25       CHL1     C19      CTL3    -0.270000       12.0110           0
      6073 MEMB     25       CHL1     H19A     HAL3     0.900000E-01   1.00800           0
      6074 MEMB     25       CHL1     H19B     HAL3     0.900000E-01   1.00800           0
      6075 MEMB     25       CHL1     H19C     HAL3     0.900000E-01   1.00800           0
      6076 MEMB     25       CHL1     C1       CRL2    -0.180000       12.0110           0
      6077 MEMB     25       CHL1     H1A      HGA2     0.900000E-01   1.00800           0
      6078 MEMB     25       CHL1     H1B      HGA2     0.900000E-01   1.00800           0
      6079 MEMB     25       CHL1     C2       CRL2    -0.180000       12.0110           0
      6080 MEMB     25       CHL1     H2A      HGA2     0.900000E-01   1.00800           0
      6081 MEMB     25       CHL1     H2B      HGA2     0.900000E-01   1.00800           0
      6082 MEMB     25       CHL1     C20      CTL1    -0.900000E-01   12.0110           0
      6083 MEMB     25       CHL1     H20      HAL1     0.900000E-01   1.00800           0
      6084 MEMB     25       CHL1     C21      CTL3    -0.270000       12.0110           0
      6085 MEMB     25       CHL1     H21A     HAL3     0.900000E-01   1.00800           0
      6086 MEMB     25       CHL1     H21B     HAL3     0.900000E-01   1.00800           0
      6087 MEMB     25       CHL1     H21C     HAL3     0.900000E-01   1.00800           0
      6088 MEMB     25       CHL1     C22      CTL2    -0.180000       12.0110           0
      6089 MEMB     25       CHL1     H22A     HAL2     0.900000E-01   1.00800           0
      6090 MEMB     25       CHL1     H22B     HAL2     0.900000E-01   1.00800           0
      6091 MEMB     25       CHL1     C23      CTL2    -0.180000       12.0110           0
      6092 MEMB     25       CHL1     H23A     HAL2     0.900000E-01   1.00800           0
      6093 MEMB     25       CHL1     H23B     HAL2     0.900000E-01   1.00800           0
      6094 MEMB     25       CHL1     C24      CTL2    -0.180000       12.0110           0
      6095 MEMB     25       CHL1     H24A     HAL2     0.900000E-01   1.00800           0
      6096 MEMB     25       CHL1     H24B     HAL2     0.900000E-01   1.00800           0
      6097 MEMB     25       CHL1     C25      CTL1    -0.900000E-01   12.0110           0
      6098 MEMB     25       CHL1     H25      HAL1     0.900000E-01   1.00800           0
      6099 MEMB     25       CHL1     C26      CTL3    -0.270000       12.0110           0
      6100 MEMB     25       CHL1     H26A     HAL3     0.900000E-01   1.00800           0
      6101 MEMB     25       CHL1     H26B     HAL3     0.900000E-01   1.00800           0
      6102 MEMB     25       CHL1     H26C     HAL3     0.900000E-01   1.00800           0
      6103 MEMB     25       CHL1     C27      CTL3    -0.270000       12.0110           0
      6104 MEMB     25       CHL1     H27A     HAL3     0.900000E-01   1.00800           0
      6105 MEMB     25       CHL1     H27B     HAL3     0.900000E-01   1.00800           0
      6106 MEMB     25       CHL1     H27C     HAL3     0.900000E-01   1.00800           0
      6107 MEMB     35       CHL1     C3       CRL1     0.140000       12.0110           0
      6108 MEMB     35       CHL1     H3       HGA1     0.900000E-01   1.00800           0
      6109 MEMB     35       CHL1     O3       OHL     -0.660000       15.9994           0
      6110 MEMB     35       CHL1     H3'      HOL      0.430000       1.00800           0
      6111 MEMB     35       CHL1     C4       CRL2    -0.180000       12.0110           0
      6112 MEMB     35       CHL1     H4A      HGA2     0.900000E-01   1.00800           0
      6113 MEMB     35       CHL1     H4B      HGA2     0.900000E-01   1.00800           0
      6114 MEMB     35       CHL1     C5       CEL1     0.000000       12.0110           0
      6115 MEMB     35       CHL1     C6       CEL1    -0.150000       12.0110           0
      6116 MEMB     35       CHL1     H6       HEL1     0.150000       1.00800           0
      6117 MEMB     35       CHL1     C7       CRL2    -0.180000       12.0110           0
      6118 MEMB     35       CHL1     H7A      HGA2     0.900000E-01   1.00800           0
      6119 MEMB     35       CHL1     H7B      HGA2     0.900000E-01   1.00800           0
      6120 MEMB     35       CHL1     C8       CRL1    -0.900000E-01   12.0110           0
      6121 MEMB     35       CHL1     H8       HGA1     0.900000E-01   1.00800           0
      6122 MEMB     35       CHL1     C14      CRL1    -0.900000E-01   12.0110           0
      6123 MEMB     35       CHL1     H14      HGA1     0.900000E-01   1.00800           0
      6124 MEMB     35       CHL1     C15      CRL2    -0.180000       12.0110           0
      6125 MEMB     35       CHL1     H15A     HGA2     0.900000E-01   1.00800           0
      6126 MEMB     35       CHL1     H15B     HGA2     0.900000E-01   1.00800           0
      6127 MEMB     35       CHL1     C16      CRL2    -0.180000       12.0110           0
      6128 MEMB     35       CHL1     H16A     HGA2     0.900000E-01   1.00800           0
      6129 MEMB     35       CHL1     H16B     HGA2     0.900000E-01   1.00800           0
      6130 MEMB     35       CHL1     C17      CRL1    -0.900000E-01   12.0110           0
      6131 MEMB     35       CHL1     H17      HGA1     0.900000E-01   1.00800           0
      6132 MEMB     35       CHL1     C13      CRL1     0.000000       12.0110           0
      6133 MEMB     35       CHL1     C18      CTL3    -0.270000       12.0110           0
      6134 MEMB     35       CHL1     H18A     HAL3     0.900000E-01   1.00800           0
      6135 MEMB     35       CHL1     H18B     HAL3     0.900000E-01   1.00800           0
      6136 MEMB     35       CHL1     H18C     HAL3     0.900000E-01   1.00800           0
      6137 MEMB     35       CHL1     C12      CRL2    -0.180000       12.0110           0
      6138 MEMB     35       CHL1     H12A     HGA2     0.900000E-01   1.00800           0
      6139 MEMB     35       CHL1     H12B     HGA2     0.900000E-01   1.00800           0
      6140 MEMB     35       CHL1     C11      CRL2    -0.180000       12.0110           0
      6141 MEMB     35       CHL1     H11A     HGA2     0.900000E-01   1.00800           0
      6142 MEMB     35       CHL1     H11B     HGA2     0.900000E-01   1.00800           0
      6143 MEMB     35       CHL1     C9       CRL1    -0.900000E-01   12.0110           0
      6144 MEMB     35       CHL1     H9       HGA1     0.900000E-01   1.00800           0
      6145 MEMB     35       CHL1     C10      CRL1     0.000000       12.0110           0
      6146 MEMB     35       CHL1     C19      CTL3    -0.270000       12.0110           0
      6147 MEMB     35       CHL1     H19A     HAL3     0.900000E-01   1.00800           0
      6148 MEMB     35       CHL1     H19B     HAL3     0.900000E-01   1.00800           0
      6149 MEMB     35       CHL1     H19C     HAL3     0.900000E-01   1.00800           0
      6150 MEMB     35       CHL1     C1       CRL2    -0.180000       12.0110           0
      6151 MEMB     35       CHL1     H1A      HGA2     0.900000E-01   1.00800           0
      6152 MEMB     35       CHL1     H1B      HGA2     0.900000E-01   1.00800           0
      6153 MEMB     35       CHL1     C2       CRL2    -0.180000       12.0110           0
      6154 MEMB     35       CHL1     H2A      HGA2     0.900000E-01   1.00800           0
      6155 MEMB     35       CHL1     H2B      HGA2     0.900000E-01   1.00800           0
      6156 MEMB     35       CHL1     C20      CTL1    -0.900000E-01   12.0110           0
      6157 MEMB     35       CHL1     H20      HAL1     0.900000E-01   1.00800           0
      6158 MEMB     35       CHL1     C21      CTL3    -0.270000       12.0110           0
      6159 MEMB     35       CHL1     H21A     HAL3     0.900000E-01   1.00800           0
      6160 MEMB     35       CHL1     H21B     HAL3     0.900000E-01   1.00800           0
      6161 MEMB     35       CHL1     H21C     HAL3     0.900000E-01   1.00800           0
      6162 MEMB     35       CHL1     C22      CTL2    -0.180000       12.0110           0
      6163 MEMB     35       CHL1     H22A     HAL2     0.900000E-01   1.00800           0
      6164 MEMB     35       CHL1     H22B     HAL2     0.900000E-01   1.00800           0
      6165 MEMB     35       CHL1     C23      CTL2    -0.180000       12.0110           0
      6166 MEMB     35       CHL1     H23A     HAL2     0.900000E-01   1.00800           0
      6167 MEMB     35       CHL1     H23B     HAL2     0.900000E-01   1.00800           0
      6168 MEMB     35       CHL1     C24      CTL2    -0.180000       12.0110           0
      6169 MEMB     35       CHL1     H24A     HAL2     0.900000E-01   1.00800           0
      6170 MEMB     35       CHL1     H24B     HAL2     0.900000E-01   1.00800           0
      6171 MEMB     35       CHL1     C25      CTL1    -0.900000E-01   12.0110           0
      6172 MEMB     35       CHL1     H25      HAL1     0.900000E-01   1.00800           0
      6173 MEMB     35       CHL1     C26      CTL3    -0.270000       12.0110           0
      6174 MEMB     35       CHL1     H26A     HAL3     0.900000E-01   1.00800           0
      6175 MEMB     35       CHL1     H26B     HAL3     0.900000E-01   1.00800           0
      6176 MEMB     35       CHL1     H26C     HAL3     0.900000E-01   1.00800           0
      6177 MEMB     35       CHL1     C27      CTL3    -0.270000       12.0110           0
      6178 MEMB     35       CHL1     H27A     HAL3     0.900000E-01   1.00800           0
      6179 MEMB     35       CHL1     H27B     HAL3     0.900000E-01   1.00800           0
      6180 MEMB     35       CHL1     H27C     HAL3     0.900000E-01   1.00800           0
      6181 MEMB     37       CHL1     C3       CRL1     0.140000       12.0110           0
      6182 MEMB     37       CHL1     H3       HGA1     0.900000E-01   1.00800           0
      6183 MEMB     37       CHL1     O3       OHL     -0.660000       15.9994           0
      6184 MEMB     37       CHL1     H3'      HOL      0.430000       1.00800           0
      6185 MEMB     37       CHL1     C4       CRL2    -0.180000       12.0110           0
      6186 MEMB     37       CHL1     H4A      HGA2     0.900000E-01   1.00800           0
      6187 MEMB     37       CHL1     H4B      HGA2     0.900000E-01   1.00800           0
      6188 MEMB     37       CHL1     C5       CEL1     0.000000       12.0110           0
      6189 MEMB     37       CHL1     C6       CEL1    -0.150000       12.0110           0
      6190 MEMB     37       CHL1     H6       HEL1     0.150000       1.00800           0
      6191 MEMB     37       CHL1     C7       CRL2    -0.180000       12.0110           0
      6192 MEMB     37       CHL1     H7A      HGA2     0.900000E-01   1.00800           0
      6193 MEMB     37       CHL1     H7B      HGA2     0.900000E-01   1.00800           0
      6194 MEMB     37       CHL1     C8       CRL1    -0.900000E-01   12.0110           0
      6195 MEMB     37       CHL1     H8       HGA1     0.900000E-01   1.00800           0
      6196 MEMB     37       CHL1     C14      CRL1    -0.900000E-01   12.0110           0
      6197 MEMB     37       CHL1     H14      HGA1     0.900000E-01   1.00800           0
      6198 MEMB     37       CHL1     C15      CRL2    -0.180000       12.0110           0
      6199 MEMB     37       CHL1     H15A     HGA2     0.900000E-01   1.00800           0
      6200 MEMB     37       CHL1     H15B     HGA2     0.900000E-01   1.00800           0
      6201 MEMB     37       CHL1     C16      CRL2    -0.180000       12.0110           0
      6202 MEMB     37       CHL1     H16A     HGA2     0.900000E-01   1.00800           0
      6203 MEMB     37       CHL1     H16B     HGA2     0.900000E-01   1.00800           0
      6204 MEMB     37       CHL1     C17      CRL1    -0.900000E-01   12.0110           0
      6205 MEMB     37       CHL1     H17      HGA1     0.900000E-01   1.00800           0
      6206 MEMB     37       CHL1     C13      CRL1     0.000000       12.0110           0
      6207 MEMB     37       CHL1     C18      CTL3    -0.270000       12.0110           0
      6208 MEMB     37       CHL1     H18A     HAL3     0.900000E-01   1.00800           0
      6209 MEMB     37       CHL1     H18B     HAL3     0.900000E-01   1.00800           0
      6210 MEMB     37       CHL1     H18C     HAL3     0.900000E-01   1.00800           0
      6211 MEMB     37       CHL1     C12      CRL2    -0.180000       12.0110           0
      6212 MEMB     37       CHL1     H12A     HGA2     0.900000E-01   1.00800           0
      6213 MEMB     37       CHL1     H12B     HGA2     0.900000E-01   1.00800           0
      6214 MEMB     37       CHL1     C11      CRL2    -0.180000       12.0110           0
      6215 MEMB     37       CHL1     H11A     HGA2     0.900000E-01   1.00800           0
      6216 MEMB     37       CHL1     H11B     HGA2     0.900000E-01   1.00800           0
      6217 MEMB     37       CHL1     C9       CRL1    -0.900000E-01   12.0110           0
      6218 MEMB     37       CHL1     H9       HGA1     0.900000E-01   1.00800           0
      6219 MEMB     37       CHL1     C10      CRL1     0.000000       12.0110           0
      6220 MEMB     37       CHL1     C19      CTL3    -0.270000       12.0110           0
      6221 MEMB     37       CHL1     H19A     HAL3     0.900000E-01   1.00800           0
      6222 MEMB     37       CHL1     H19B     HAL3     0.900000E-01   1.00800           0
      6223 MEMB     37       CHL1     H19C     HAL3     0.900000E-01   1.00800           0
      6224 MEMB     37       CHL1     C1       CRL2    -0.180000       12.0110           0
      6225 MEMB     37       CHL1     H1A      HGA2     0.900000E-01   1.00800           0
      6226 MEMB     37       CHL1     H1B      HGA2     0.900000E-01   1.00800           0
      6227 MEMB     37       CHL1     C2       CRL2    -0.180000       12.0110           0
      6228 MEMB     37       CHL1     H2A      HGA2     0.900000E-01   1.00800           0
      6229 MEMB     37       CHL1     H2B      HGA2     0.900000E-01   1.00800           0
      6230 MEMB     37       CHL1     C20      CTL1    -0.900000E-01   12.0110           0
      6231 MEMB     37       CHL1     H20      HAL1     0.900000E-01   1.00800           0
      6232 MEMB     37       CHL1     C21      CTL3    -0.270000       12.0110           0
      6233 MEMB     37       CHL1     H21A     HAL3     0.900000E-01   1.00800           0
      6234 MEMB     37       CHL1     H21B     HAL3     0.900000E-01   1.00800           0
      6235 MEMB     37       CHL1     H21C     HAL3     0.900000E-01   1.00800           0
      6236 MEMB     37       CHL1     C22      CTL2    -0.180000       12.0110           0
      6237 MEMB     37       CHL1     H22A     HAL2     0.900000E-01   1.00800           0
      6238 MEMB     37       CHL1     H22B     HAL2     0.900000E-01   1.00800           0
      6239 MEMB     37       CHL1     C23      CTL2    -0.180000       12.0110           0
      6240 MEMB     37       CHL1     H23A     HAL2     0.900000E-01   1.00800           0
      6241 MEMB     37       CHL1     H23B     HAL2     0.900000E-01   1.00800           0
      6242 MEMB     37       CHL1     C24      CTL2    -0.180000       12.0110           0
      6243 MEMB     37       CHL1     H24A     HAL2     0.900000E-01   1.00800           0
      6244 MEMB     37       CHL1     H24B     HAL2     0.900000E-01   1.00800           0
      6245 MEMB     37       CHL1     C25      CTL1    -0.900000E-01   12.0110           0
      6246 MEMB     37       CHL1     H25      HAL1     0.900000E-01   1.00800           0
      6247 MEMB     37       CHL1     C26      CTL3    -0.270000       12.0110           0
      6248 MEMB     37       CHL1     H26A     HAL3     0.900000E-01   1.00800           0
      6249 MEMB     37       CHL1     H26B     HAL3     0.900000E-01   1.00800           0
      6250 MEMB     37       CHL1     H26C     HAL3     0.900000E-01   1.00800           0
      6251 MEMB     37       CHL1     C27      CTL3    -0.270000       12.0110           0
      6252 MEMB     37       CHL1     H27A     HAL3     0.900000E-01   1.00800           0
      6253 MEMB     37       CHL1     H27B     HAL3     0.900000E-01   1.00800           0
      6254 MEMB     37       CHL1     H27C     HAL3     0.900000E-01   1.00800           0
      6255 MEMB     39       CHL1     C3       CRL1     0.140000       12.0110           0
      6256 MEMB     39       CHL1     H3       HGA1     0.900000E-01   1.00800           0
      6257 MEMB     39       CHL1     O3       OHL     -0.660000       15.9994           0
      6258 MEMB     39       CHL1     H3'      HOL      0.430000       1.00800           0
      6259 MEMB     39       CHL1     C4       CRL2    -0.180000       12.0110           0
      6260 MEMB     39       CHL1     H4A      HGA2     0.900000E-01   1.00800           0
      6261 MEMB     39       CHL1     H4B      HGA2     0.900000E-01   1.00800           0
      6262 MEMB     39       CHL1     C5       CEL1     0.000000       12.0110           0
      6263 MEMB     39       CHL1     C6       CEL1    -0.150000       12.0110           0
      6264 MEMB     39       CHL1     H6       HEL1     0.150000       1.00800           0
      6265 MEMB     39       CHL1     C7       CRL2    -0.180000       12.0110           0
      6266 MEMB     39       CHL1     H7A      HGA2     0.900000E-01   1.00800           0
      6267 MEMB     39       CHL1     H7B      HGA2     0.900000E-01   1.00800           0
      6268 MEMB     39       CHL1     C8       CRL1    -0.900000E-01   12.0110           0
      6269 MEMB     39       CHL1     H8       HGA1     0.900000E-01   1.00800           0
      6270 MEMB     39       CHL1     C14      CRL1    -0.900000E-01   12.0110           0
      6271 MEMB     39       CHL1     H14      HGA1     0.900000E-01   1.00800           0
      6272 MEMB     39       CHL1     C15      CRL2    -0.180000       12.0110           0
      6273 MEMB     39       CHL1     H15A     HGA2     0.900000E-01   1.00800           0
      6274 MEMB     39       CHL1     H15B     HGA2     0.900000E-01   1.00800           0
      6275 MEMB     39       CHL1     C16      CRL2    -0.180000       12.0110           0
      6276 MEMB     39       CHL1     H16A     HGA2     0.900000E-01   1.00800           0
      6277 MEMB     39       CHL1     H16B     HGA2     0.900000E-01   1.00800           0
      6278 MEMB     39       CHL1     C17      CRL1    -0.900000E-01   12.0110           0
      6279 MEMB     39       CHL1     H17      HGA1     0.900000E-01   1.00800           0
      6280 MEMB     39       CHL1     C13      CRL1     0.000000       12.0110           0
      6281 MEMB     39       CHL1     C18      CTL3    -0.270000       12.0110           0
      6282 MEMB     39       CHL1     H18A     HAL3     0.900000E-01   1.00800           0
      6283 MEMB     39       CHL1     H18B     HAL3     0.900000E-01   1.00800           0
      6284 MEMB     39       CHL1     H18C     HAL3     0.900000E-01   1.00800           0
      6285 MEMB     39       CHL1     C12      CRL2    -0.180000       12.0110           0
      6286 MEMB     39       CHL1     H12A     HGA2     0.900000E-01   1.00800           0
      6287 MEMB     39       CHL1     H12B     HGA2     0.900000E-01   1.00800           0
      6288 MEMB     39       CHL1     C11      CRL2    -0.180000       12.0110           0
      6289 MEMB     39       CHL1     H11A     HGA2     0.900000E-01   1.00800           0
      6290 MEMB     39       CHL1     H11B     HGA2     0.900000E-01   1.00800           0
      6291 MEMB     39       CHL1     C9       CRL1    -0.900000E-01   12.0110           0
      6292 MEMB     39       CHL1     H9       HGA1     0.900000E-01   1.00800           0
      6293 MEMB     39       CHL1     C10      CRL1     0.000000       12.0110           0
      6294 MEMB     39       CHL1     C19      CTL3    -0.270000       12.0110           0
      6295 MEMB     39       CHL1     H19A     HAL3     0.900000E-01   1.00800           0
      6296 MEMB     39       CHL1     H19B     HAL3     0.900000E-01   1.00800           0
      6297 MEMB     39       CHL1     H19C     HAL3     0.900000E-01   1.00800           0
      6298 MEMB     39       CHL1     C1       CRL2    -0.180000       12.0110           0
      6299 MEMB     39       CHL1     H1A      HGA2     0.900000E-01   1.00800           0
      6300 MEMB     39       CHL1     H1B      HGA2     0.900000E-01   1.00800           0
      6301 MEMB     39       CHL1     C2       CRL2    -0.180000       12.0110           0
      6302 MEMB     39       CHL1     H2A      HGA2     0.900000E-01   1.00800           0
      6303 MEMB     39       CHL1     H2B      HGA2     0.900000E-01   1.00800           0
      6304 MEMB     39       CHL1     C20      CTL1    -0.900000E-01   12.0110           0
      6305 MEMB     39       CHL1     H20      HAL1     0.900000E-01   1.00800           0
      6306 MEMB     39       CHL1     C21      CTL3    -0.270000       12.0110           0
      6307 MEMB     39       CHL1     H21A     HAL3     0.900000E-01   1.00800           0
      6308 MEMB     39       CHL1     H21B     HAL3     0.900000E-01   1.00800           0
      6309 MEMB     39       CHL1     H21C     HAL3     0.900000E-01   1.00800           0
      6310 MEMB     39       CHL1     C22      CTL2    -0.180000       12.0110           0
      6311 MEMB     39       CHL1     H22A     HAL2     0.900000E-01   1.00800           0
      6312 MEMB     39       CHL1     H22B     HAL2     0.900000E-01   1.00800           0
      6313 MEMB     39       CHL1     C23      CTL2    -0.180000       12.0110           0
      6314 MEMB     39       CHL1     H23A     HAL2     0.900000E-01   1.00800           0
      6315 MEMB     39       CHL1     H23B     HAL2     0.900000E-01   1.00800           0
      6316 MEMB     39       CHL1     C24      CTL2    -0.180000       12.0110           0
      6317 MEMB     39       CHL1     H24A     HAL2     0.900000E-01   1.00800           0
      6318 MEMB     39       CHL1     H24B     HAL2     0.900000E-01   1.00800           0
      6319 MEMB     39       CHL1     C25      CTL1    -0.900000E-01   12.0110           0
      6320 MEMB     39       CHL1     H25      HAL1     0.900000E-01   1.00800           0
      6321 MEMB     39       CHL1     C26      CTL3    -0.270000       12.0110           0
      6322 MEMB     39       CHL1     H26A     HAL3     0.900000E-01   1.00800           0
      6323 MEMB     39       CHL1     H26B     HAL3     0.900000E-01   1.00800           0
      6324 MEMB     39       CHL1     H26C     HAL3     0.900000E-01   1.00800           0
      6325 MEMB     39       CHL1     C27      CTL3    -0.270000       12.0110           0
      6326 MEMB     39       CHL1     H27A     HAL3     0.900000E-01   1.00800           0
      6327 MEMB     39       CHL1     H27B     HAL3     0.900000E-01   1.00800           0
      6328 MEMB     39       CHL1     H27C     HAL3     0.900000E-01   1.00800           0
      6329 MEMB     40       CHL1     C3       CRL1     0.140000       12.0110           0
      6330 MEMB     40       CHL1     H3       HGA1     0.900000E-01   1.00800           0
      6331 MEMB     40       CHL1     O3       OHL     -0.660000       15.9994           0
      6332 MEMB     40       CHL1     H3'      HOL      0.430000       1.00800           0
      6333 MEMB     40       CHL1     C4       CRL2    -0.180000       12.0110           0
      6334 MEMB     40       CHL1     H4A      HGA2     0.900000E-01   1.00800           0
      6335 MEMB     40       CHL1     H4B      HGA2     0.900000E-01   1.00800           0
      6336 MEMB     40       CHL1     C5       CEL1     0.000000       12.0110           0
      6337 MEMB     40       CHL1     C6       CEL1    -0.150000       12.0110           0
      6338 MEMB     40       CHL1     H6       HEL1     0.150000       1.00800           0
      6339 MEMB     40       CHL1     C7       CRL2    -0.180000       12.0110           0
      6340 MEMB     40       CHL1     H7A      HGA2     0.900000E-01   1.00800           0
      6341 MEMB     40       CHL1     H7B      HGA2     0.900000E-01   1.00800           0
      6342 MEMB     40       CHL1     C8       CRL1    -0.900000E-01   12.0110           0
      6343 MEMB     40       CHL1     H8       HGA1     0.900000E-01   1.00800           0
      6344 MEMB     40       CHL1     C14      CRL1    -0.900000E-01   12.0110           0
      6345 MEMB     40       CHL1     H14      HGA1     0.900000E-01   1.00800           0
      6346 MEMB     40       CHL1     C15      CRL2    -0.180000       12.0110           0
      6347 MEMB     40       CHL1     H15A     HGA2     0.900000E-01   1.00800           0
      6348 MEMB     40       CHL1     H15B     HGA2     0.900000E-01   1.00800           0
      6349 MEMB     40       CHL1     C16      CRL2    -0.180000       12.0110           0
      6350 MEMB     40       CHL1     H16A     HGA2     0.900000E-01   1.00800           0
      6351 MEMB     40       CHL1     H16B     HGA2     0.900000E-01   1.00800           0
      6352 MEMB     40       CHL1     C17      CRL1    -0.900000E-01   12.0110           0
      6353 MEMB     40       CHL1     H17      HGA1     0.900000E-01   1.00800           0
      6354 MEMB     40       CHL1     C13      CRL1     0.000000       12.0110           0
      6355 MEMB     40       CHL1     C18      CTL3    -0.270000       12.0110           0
      6356 MEMB     40       CHL1     H18A     HAL3     0.900000E-01   1.00800           0
      6357 MEMB     40       CHL1     H18B     HAL3     0.900000E-01   1.00800           0
      6358 MEMB     40       CHL1     H18C     HAL3     0.900000E-01   1.00800           0
      6359 MEMB     40       CHL1     C12      CRL2    -0.180000       12.0110           0
      6360 MEMB     40       CHL1     H12A     HGA2     0.900000E-01   1.00800           0
      6361 MEMB     40       CHL1     H12B     HGA2     0.900000E-01   1.00800           0
      6362 MEMB     40       CHL1     C11      CRL2    -0.180000       12.0110           0
      6363 MEMB     40       CHL1     H11A     HGA2     0.900000E-01   1.00800           0
      6364 MEMB     40       CHL1     H11B     HGA2     0.900000E-01   1.00800           0
      6365 MEMB     40       CHL1     C9       CRL1    -0.900000E-01   12.0110           0
      6366 MEMB     40       CHL1     H9       HGA1     0.900000E-01   1.00800           0
      6367 MEMB     40       CHL1     C10      CRL1     0.000000       12.0110           0
      6368 MEMB     40       CHL1     C19      CTL3    -0.270000       12.0110           0
      6369 MEMB     40       CHL1     H19A     HAL3     0.900000E-01   1.00800           0
      6370 MEMB     40       CHL1     H19B     HAL3     0.900000E-01   1.00800           0
      6371 MEMB     40       CHL1     H19C     HAL3     0.900000E-01   1.00800           0
      6372 MEMB     40       CHL1     C1       CRL2    -0.180000       12.0110           0
      6373 MEMB     40       CHL1     H1A      HGA2     0.900000E-01   1.00800           0
      6374 MEMB     40       CHL1     H1B      HGA2     0.900000E-01   1.00800           0
      6375 MEMB     40       CHL1     C2       CRL2    -0.180000       12.0110           0
      6376 MEMB     40       CHL1     H2A      HGA2     0.900000E-01   1.00800           0
      6377 MEMB     40       CHL1     H2B      HGA2     0.900000E-01   1.00800           0
      6378 MEMB     40       CHL1     C20      CTL1    -0.900000E-01   12.0110           0
      6379 MEMB     40       CHL1     H20      HAL1     0.900000E-01   1.00800           0
      6380 MEMB     40       CHL1     C21      CTL3    -0.270000       12.0110           0
      6381 MEMB     40       CHL1     H21A     HAL3     0.900000E-01   1.00800           0
      6382 MEMB     40       CHL1     H21B     HAL3     0.900000E-01   1.00800           0
      6383 MEMB     40       CHL1     H21C     HAL3     0.900000E-01   1.00800           0
      6384 MEMB     40       CHL1     C22      CTL2    -0.180000       12.0110           0
      6385 MEMB     40       CHL1     H22A     HAL2     0.900000E-01   1.00800           0
      6386 MEMB     40       CHL1     H22B     HAL2     0.900000E-01   1.00800           0
      6387 MEMB     40       CHL1     C23      CTL2    -0.180000       12.0110           0
      6388 MEMB     40       CHL1     H23A     HAL2     0.900000E-01   1.00800           0
      6389 MEMB     40       CHL1     H23B     HAL2     0.900000E-01   1.00800           0
      6390 MEMB     40       CHL1     C24      CTL2    -0.180000       12.0110           0
      6391 MEMB     40       CHL1     H24A     HAL2     0.900000E-01   1.00800           0
      6392 MEMB     40       CHL1     H24B     HAL2     0.900000E-01   1.00800           0
      6393 MEMB     40       CHL1     C25      CTL1    -0.900000E-01   12.0110           0
      6394 MEMB     40       CHL1     H25      HAL1     0.900000E-01   1.00800           0
      6395 MEMB     40       CHL1     C26      CTL3    -0.270000       12.0110           0
      6396 MEMB     40       CHL1     H26A     HAL3     0.900000E-01   1.00800           0
      6397 MEMB     40       CHL1     H26B     HAL3     0.900000E-01   1.00800           0
      6398 MEMB     40       CHL1     H26C     HAL3     0.900000E-01   1.00800           0
      6399 MEMB     40       CHL1     C27      CTL3    -0.270000       12.0110           0
      6400 MEMB     40       CHL1     H27A     HAL3     0.900000E-01   1.00800           0
      6401 MEMB     40       CHL1     H27B     HAL3     0.900000E-01   1.00800           0
      6402 MEMB     40       CHL1     H27C     HAL3     0.900000E-01   1.00800           0
      6403 MEMB     47       CHL1     C3       CRL1     0.140000       12.0110           0
      6404 MEMB     47       CHL1     H3       HGA1     0.900000E-01   1.00800           0
      6405 MEMB     47       CHL1     O3       OHL     -0.660000       15.9994           0
      6406 MEMB     47       CHL1     H3'      HOL      0.430000       1.00800           0
      6407 MEMB     47       CHL1     C4       CRL2    -0.180000       12.0110           0
      6408 MEMB     47       CHL1     H4A      HGA2     0.900000E-01   1.00800           0
      6409 MEMB     47       CHL1     H4B      HGA2     0.900000E-01   1.00800           0
      6410 MEMB     47       CHL1     C5       CEL1     0.000000       12.0110           0
      6411 MEMB     47       CHL1     C6       CEL1    -0.150000       12.0110           0
      6412 MEMB     47       CHL1     H6       HEL1     0.150000       1.00800           0
      6413 MEMB     47       CHL1     C7       CRL2    -0.180000       12.0110           0
      6414 MEMB     47       CHL1     H7A      HGA2     0.900000E-01   1.00800           0
      6415 MEMB     47       CHL1     H7B      HGA2     0.900000E-01   1.00800           0
      6416 MEMB     47       CHL1     C8       CRL1    -0.900000E-01   12.0110           0
      6417 MEMB     47       CHL1     H8       HGA1     0.900000E-01   1.00800           0
      6418 MEMB     47       CHL1     C14      CRL1    -0.900000E-01   12.0110           0
      6419 MEMB     47       CHL1     H14      HGA1     0.900000E-01   1.00800           0
      6420 MEMB     47       CHL1     C15      CRL2    -0.180000       12.0110           0
      6421 MEMB     47       CHL1     H15A     HGA2     0.900000E-01   1.00800           0
      6422 MEMB     47       CHL1     H15B     HGA2     0.900000E-01   1.00800           0
      6423 MEMB     47       CHL1     C16      CRL2    -0.180000       12.0110           0
      6424 MEMB     47       CHL1     H16A     HGA2     0.900000E-01   1.00800           0
      6425 MEMB     47       CHL1     H16B     HGA2     0.900000E-01   1.00800           0
      6426 MEMB     47       CHL1     C17      CRL1    -0.900000E-01   12.0110           0
      6427 MEMB     47       CHL1     H17      HGA1     0.900000E-01   1.00800           0
      6428 MEMB     47       CHL1     C13      CRL1     0.000000       12.0110           0
      6429 MEMB     47       CHL1     C18      CTL3    -0.270000       12.0110           0
      6430 MEMB     47       CHL1     H18A     HAL3     0.900000E-01   1.00800           0
      6431 MEMB     47       CHL1     H18B     HAL3     0.900000E-01   1.00800           0
      6432 MEMB     47       CHL1     H18C     HAL3     0.900000E-01   1.00800           0
      6433 MEMB     47       CHL1     C12      CRL2    -0.180000       12.0110           0
      6434 MEMB     47       CHL1     H12A     HGA2     0.900000E-01   1.00800           0
      6435 MEMB     47       CHL1     H12B     HGA2     0.900000E-01   1.00800           0
      6436 MEMB     47       CHL1     C11      CRL2    -0.180000       12.0110           0
      6437 MEMB     47       CHL1     H11A     HGA2     0.900000E-01   1.00800           0
      6438 MEMB     47       CHL1     H11B     HGA2     0.900000E-01   1.00800           0
      6439 MEMB     47       CHL1     C9       CRL1    -0.900000E-01   12.0110           0
      6440 MEMB     47       CHL1     H9       HGA1     0.900000E-01   1.00800           0
      6441 MEMB     47       CHL1     C10      CRL1     0.000000       12.0110           0
      6442 MEMB     47       CHL1     C19      CTL3    -0.270000       12.0110           0
      6443 MEMB     47       CHL1     H19A     HAL3     0.900000E-01   1.00800           0
      6444 MEMB     47       CHL1     H19B     HAL3     0.900000E-01   1.00800           0
      6445 MEMB     47       CHL1     H19C     HAL3     0.900000E-01   1.00800           0
      6446 MEMB     47       CHL1     C1       CRL2    -0.180000       12.0110           0
      6447 MEMB     47       CHL1     H1A      HGA2     0.900000E-01   1.00800           0
      6448 MEMB     47       CHL1     H1B      HGA2     0.900000E-01   1.00800           0
      6449 MEMB     47       CHL1     C2       CRL2    -0.180000       12.0110           0
      6450 MEMB     47       CHL1     H2A      HGA2     0.900000E-01   1.00800           0
      6451 MEMB     47       CHL1     H2B      HGA2     0.900000E-01   1.00800           0
      6452 MEMB     47       CHL1     C20      CTL1    -0.900000E-01   12.0110           0
      6453 MEMB     47       CHL1     H20      HAL1     0.900000E-01   1.00800           0
      6454 MEMB     47       CHL1     C21      CTL3    -0.270000       12.0110           0
      6455 MEMB     47       CHL1     H21A     HAL3     0.900000E-01   1.00800           0
      6456 MEMB     47       CHL1     H21B     HAL3     0.900000E-01   1.00800           0
      6457 MEMB     47       CHL1     H21C     HAL3     0.900000E-01   1.00800           0
      6458 MEMB     47       CHL1     C22      CTL2    -0.180000       12.0110           0
      6459 MEMB     47       CHL1     H22A     HAL2     0.900000E-01   1.00800           0
      6460 MEMB     47       CHL1     H22B     HAL2     0.900000E-01   1.00800           0
      6461 MEMB     47       CHL1     C23      CTL2    -0.180000       12.0110           0
      6462 MEMB     47       CHL1     H23A     HAL2     0.900000E-01   1.00800           0
      6463 MEMB     47       CHL1     H23B     HAL2     0.900000E-01   1.00800           0
      6464 MEMB     47       CHL1     C24      CTL2    -0.180000       12.0110           0
      6465 MEMB     47       CHL1     H24A     HAL2     0.900000E-01   1.00800           0
      6466 MEMB     47       CHL1     H24B     HAL2     0.900000E-01   1.00800           0
      6467 MEMB     47       CHL1     C25      CTL1    -0.900000E-01   12.0110           0
      6468 MEMB     47       CHL1     H25      HAL1     0.900000E-01   1.00800           0
      6469 MEMB     47       CHL1     C26      CTL3    -0.270000       12.0110           0
      6470 MEMB     47       CHL1     H26A     HAL3     0.900000E-01   1.00800           0
      6471 MEMB     47       CHL1     H26B     HAL3     0.900000E-01   1.00800           0
      6472 MEMB     47       CHL1     H26C     HAL3     0.900000E-01   1.00800           0
      6473 MEMB     47       CHL1     C27      CTL3    -0.270000       12.0110           0
      6474 MEMB     47       CHL1     H27A     HAL3     0.900000E-01   1.00800           0
      6475 MEMB     47       CHL1     H27B     HAL3     0.900000E-01   1.00800           0
      6476 MEMB     47       CHL1     H27C     HAL3     0.900000E-01   1.00800           0
      6477 MEMB     48       CHL1     C3       CRL1     0.140000       12.0110           0
      6478 MEMB     48       CHL1     H3       HGA1     0.900000E-01   1.00800           0
      6479 MEMB     48       CHL1     O3       OHL     -0.660000       15.9994           0
      6480 MEMB     48       CHL1     H3'      HOL      0.430000       1.00800           0
      6481 MEMB     48       CHL1     C4       CRL2    -0.180000       12.0110           0
      6482 MEMB     48       CHL1     H4A      HGA2     0.900000E-01   1.00800           0
      6483 MEMB     48       CHL1     H4B      HGA2     0.900000E-01   1.00800           0
      6484 MEMB     48       CHL1     C5       CEL1     0.000000       12.0110           0
      6485 MEMB     48       CHL1     C6       CEL1    -0.150000       12.0110           0
      6486 MEMB     48       CHL1     H6       HEL1     0.150000       1.00800           0
      6487 MEMB     48       CHL1     C7       CRL2    -0.180000       12.0110           0
      6488 MEMB     48       CHL1     H7A      HGA2     0.900000E-01   1.00800           0
      6489 MEMB     48       CHL1     H7B      HGA2     0.900000E-01   1.00800           0
      6490 MEMB     48       CHL1     C8       CRL1    -0.900000E-01   12.0110           0
      6491 MEMB     48       CHL1     H8       HGA1     0.900000E-01   1.00800           0
      6492 MEMB     48       CHL1     C14      CRL1    -0.900000E-01   12.0110           0
      6493 MEMB     48       CHL1     H14      HGA1     0.900000E-01   1.00800           0
      6494 MEMB     48       CHL1     C15      CRL2    -0.180000       12.0110           0
      6495 MEMB     48       CHL1     H15A     HGA2     0.900000E-01   1.00800           0
      6496 MEMB     48       CHL1     H15B     HGA2     0.900000E-01   1.00800           0
      6497 MEMB     48       CHL1     C16      CRL2    -0.180000       12.0110           0
      6498 MEMB     48       CHL1     H16A     HGA2     0.900000E-01   1.00800           0
      6499 MEMB     48       CHL1     H16B     HGA2     0.900000E-01   1.00800           0
      6500 MEMB     48       CHL1     C17      CRL1    -0.900000E-01   12.0110           0
      6501 MEMB     48       CHL1     H17      HGA1     0.900000E-01   1.00800           0
      6502 MEMB     48       CHL1     C13      CRL1     0.000000       12.0110           0
      6503 MEMB     48       CHL1     C18      CTL3    -0.270000       12.0110           0
      6504 MEMB     48       CHL1     H18A     HAL3     0.900000E-01   1.00800           0
      6505 MEMB     48       CHL1     H18B     HAL3     0.900000E-01   1.00800           0
      6506 MEMB     48       CHL1     H18C     HAL3     0.900000E-01   1.00800           0
      6507 MEMB     48       CHL1     C12      CRL2    -0.180000       12.0110           0
      6508 MEMB     48       CHL1     H12A     HGA2     0.900000E-01   1.00800           0
      6509 MEMB     48       CHL1     H12B     HGA2     0.900000E-01   1.00800           0
      6510 MEMB     48       CHL1     C11      CRL2    -0.180000       12.0110           0
      6511 MEMB     48       CHL1     H11A     HGA2     0.900000E-01   1.00800           0
      6512 MEMB     48       CHL1     H11B     HGA2     0.900000E-01   1.00800           0
      6513 MEMB     48       CHL1     C9       CRL1    -0.900000E-01   12.0110           0
      6514 MEMB     48       CHL1     H9       HGA1     0.900000E-01   1.00800           0
      6515 MEMB     48       CHL1     C10      CRL1     0.000000       12.0110           0
      6516 MEMB     48       CHL1     C19      CTL3    -0.270000       12.0110           0
      6517 MEMB     48       CHL1     H19A     HAL3     0.900000E-01   1.00800           0
      6518 MEMB     48       CHL1     H19B     HAL3     0.900000E-01   1.00800           0
      6519 MEMB     48       CHL1     H19C     HAL3     0.900000E-01   1.00800           0
      6520 MEMB     48       CHL1     C1       CRL2    -0.180000       12.0110           0
      6521 MEMB     48       CHL1     H1A      HGA2     0.900000E-01   1.00800           0
      6522 MEMB     48       CHL1     H1B      HGA2     0.900000E-01   1.00800           0
      6523 MEMB     48       CHL1     C2       CRL2    -0.180000       12.0110           0
      6524 MEMB     48       CHL1     H2A      HGA2     0.900000E-01   1.00800           0
      6525 MEMB     48       CHL1     H2B      HGA2     0.900000E-01   1.00800           0
      6526 MEMB     48       CHL1     C20      CTL1    -0.900000E-01   12.0110           0
      6527 MEMB     48       CHL1     H20      HAL1     0.900000E-01   1.00800           0
      6528 MEMB     48       CHL1     C21      CTL3    -0.270000       12.0110           0
      6529 MEMB     48       CHL1     H21A     HAL3     0.900000E-01   1.00800           0
      6530 MEMB     48       CHL1     H21B     HAL3     0.900000E-01   1.00800           0
      6531 MEMB     48       CHL1     H21C     HAL3     0.900000E-01   1.00800           0
      6532 MEMB     48       CHL1     C22      CTL2    -0.180000       12.0110           0
      6533 MEMB     48       CHL1     H22A     HAL2     0.900000E-01   1.00800           0
      6534 MEMB     48       CHL1     H22B     HAL2     0.900000E-01   1.00800           0
      6535 MEMB     48       CHL1     C23      CTL2    -0.180000       12.0110           0
      6536 MEMB     48       CHL1     H23A     HAL2     0.900000E-01   1.00800           0
      6537 MEMB     48       CHL1     H23B     HAL2     0.900000E-01   1.00800           0
      6538 MEMB     48       CHL1     C24      CTL2    -0.180000       12.0110           0
      6539 MEMB     48       CHL1     H24A     HAL2     0.900000E-01   1.00800           0
      6540 MEMB     48       CHL1     H24B     HAL2     0.900000E-01   1.00800           0
      6541 MEMB     48       CHL1     C25      CTL1    -0.900000E-01   12.0110           0
      6542 MEMB     48       CHL1     H25      HAL1     0.900000E-01   1.00800           0
      6543 MEMB     48       CHL1     C26      CTL3    -0.270000       12.0110           0
      6544 MEMB     48       CHL1     H26A     HAL3     0.900000E-01   1.00800           0
      6545 MEMB     48       CHL1     H26B     HAL3     0.900000E-01   1.00800           0
      6546 MEMB     48       CHL1     H26C     HAL3     0.900000E-01   1.00800           0
      6547 MEMB     48       CHL1     C27      CTL3    -0.270000       12.0110           0
      6548 MEMB     48       CHL1     H27A     HAL3     0.900000E-01   1.00800           0
      6549 MEMB     48       CHL1     H27B     HAL3     0.900000E-01   1.00800           0
      6550 MEMB     48       CHL1     H27C     HAL3     0.900000E-01   1.00800           0
      6551 MEMB     49       CHL1     C3       CRL1     0.140000       12.0110           0
      6552 MEMB     49       CHL1     H3       HGA1     0.900000E-01   1.00800           0
      6553 MEMB     49       CHL1     O3       OHL     -0.660000       15.9994           0
      6554 MEMB     49       CHL1     H3'      HOL      0.430000       1.00800           0
      6555 MEMB     49       CHL1     C4       CRL2    -0.180000       12.0110           0
      6556 MEMB     49       CHL1     H4A      HGA2     0.900000E-01   1.00800           0
      6557 MEMB     49       CHL1     H4B      HGA2     0.900000E-01   1.00800           0
      6558 MEMB     49       CHL1     C5       CEL1     0.000000       12.0110           0
      6559 MEMB     49       CHL1     C6       CEL1    -0.150000       12.0110           0
      6560 MEMB     49       CHL1     H6       HEL1     0.150000       1.00800           0
      6561 MEMB     49       CHL1     C7       CRL2    -0.180000       12.0110           0
      6562 MEMB     49       CHL1     H7A      HGA2     0.900000E-01   1.00800           0
      6563 MEMB     49       CHL1     H7B      HGA2     0.900000E-01   1.00800           0
      6564 MEMB     49       CHL1     C8       CRL1    -0.900000E-01   12.0110           0
      6565 MEMB     49       CHL1     H8       HGA1     0.900000E-01   1.00800           0
      6566 MEMB     49       CHL1     C14      CRL1    -0.900000E-01   12.0110           0
      6567 MEMB     49       CHL1     H14      HGA1     0.900000E-01   1.00800           0
      6568 MEMB     49       CHL1     C15      CRL2    -0.180000       12.0110           0
      6569 MEMB     49       CHL1     H15A     HGA2     0.900000E-01   1.00800           0
      6570 MEMB     49       CHL1     H15B     HGA2     0.900000E-01   1.00800           0
      6571 MEMB     49       CHL1     C16      CRL2    -0.180000       12.0110           0
      6572 MEMB     49       CHL1     H16A     HGA2     0.900000E-01   1.00800           0
      6573 MEMB     49       CHL1     H16B     HGA2     0.900000E-01   1.00800           0
      6574 MEMB     49       CHL1     C17      CRL1    -0.900000E-01   12.0110           0
      6575 MEMB     49       CHL1     H17      HGA1     0.900000E-01   1.00800           0
      6576 MEMB     49       CHL1     C13      CRL1     0.000000       12.0110           0
      6577 MEMB     49       CHL1     C18      CTL3    -0.270000       12.0110           0
      6578 MEMB     49       CHL1     H18A     HAL3     0.900000E-01   1.00800           0
      6579 MEMB     49       CHL1     H18B     HAL3     0.900000E-01   1.00800           0
      6580 MEMB     49       CHL1     H18C     HAL3     0.900000E-01   1.00800           0
      6581 MEMB     49       CHL1     C12      CRL2    -0.180000       12.0110           0
      6582 MEMB     49       CHL1     H12A     HGA2     0.900000E-01   1.00800           0
      6583 MEMB     49       CHL1     H12B     HGA2     0.900000E-01   1.00800           0
      6584 MEMB     49       CHL1     C11      CRL2    -0.180000       12.0110           0
      6585 MEMB     49       CHL1     H11A     HGA2     0.900000E-01   1.00800           0
      6586 MEMB     49       CHL1     H11B     HGA2     0.900000E-01   1.00800           0
      6587 MEMB     49       CHL1     C9       CRL1    -0.900000E-01   12.0110           0
      6588 MEMB     49       CHL1     H9       HGA1     0.900000E-01   1.00800           0
      6589 MEMB     49       CHL1     C10      CRL1     0.000000       12.0110           0
      6590 MEMB     49       CHL1     C19      CTL3    -0.270000       12.0110           0
      6591 MEMB     49       CHL1     H19A     HAL3     0.900000E-01   1.00800           0
      6592 MEMB     49       CHL1     H19B     HAL3     0.900000E-01   1.00800           0
      6593 MEMB     49       CHL1     H19C     HAL3     0.900000E-01   1.00800           0
      6594 MEMB     49       CHL1     C1       CRL2    -0.180000       12.0110           0
      6595 MEMB     49       CHL1     H1A      HGA2     0.900000E-01   1.00800           0
      6596 MEMB     49       CHL1     H1B      HGA2     0.900000E-01   1.00800           0
      6597 MEMB     49       CHL1     C2       CRL2    -0.180000       12.0110           0
      6598 MEMB     49       CHL1     H2A      HGA2     0.900000E-01   1.00800           0
      6599 MEMB     49       CHL1     H2B      HGA2     0.900000E-01   1.00800           0
      6600 MEMB     49       CHL1     C20      CTL1    -0.900000E-01   12.0110           0
      6601 MEMB     49       CHL1     H20      HAL1     0.900000E-01   1.00800           0
      6602 MEMB     49       CHL1     C21      CTL3    -0.270000       12.0110           0
      6603 MEMB     49       CHL1     H21A     HAL3     0.900000E-01   1.00800           0
      6604 MEMB     49       CHL1     H21B     HAL3     0.900000E-01   1.00800           0
      6605 MEMB     49       CHL1     H21C     HAL3     0.900000E-01   1.00800           0
      6606 MEMB     49       CHL1     C22      CTL2    -0.180000       12.0110           0
      6607 MEMB     49       CHL1     H22A     HAL2     0.900000E-01   1.00800           0
      6608 MEMB     49       CHL1     H22B     HAL2     0.900000E-01   1.00800           0
      6609 MEMB     49       CHL1     C23      CTL2    -0.180000       12.0110           0
      6610 MEMB     49       CHL1     H23A     HAL2     0.900000E-01   1.00800           0
      6611 MEMB     49       CHL1     H23B     HAL2     0.900000E-01   1.00800           0
      6612 MEMB     49       CHL1     C24      CTL2    -0.180000       12.0110           0
      6613 MEMB     49       CHL1     H24A     HAL2     0.900000E-01   1.00800           0
      6614 MEMB     49       CHL1     H24B     HAL2     0.900000E-01   1.00800           0
      6615 MEMB     49       CHL1     C25      CTL1    -0.900000E-01   12.0110           0
      6616 MEMB     49       CHL1     H25      HAL1     0.900000E-01   1.00800           0
      6617 MEMB     49       CHL1     C26      CTL3    -0.270000       12.0110           0
      6618 MEMB     49       CHL1     H26A     HAL3     0.900000E-01   1.00800           0
      6619 MEMB     49       CHL1     H26B     HAL3     0.900000E-01   1.00800           0
      6620 MEMB     49       CHL1     H26C     HAL3     0.900000E-01   1.00800           0
      6621 MEMB     49       CHL1     C27      CTL3    -0.270000       12.0110           0
      6622 MEMB     49       CHL1     H27A     HAL3     0.900000E-01   1.00800           0
      6623 MEMB     49       CHL1     H27B     HAL3     0.900000E-01   1.00800           0
      6624 MEMB     49       CHL1     H27C     HAL3     0.900000E-01   1.00800           0
      6625 MEMB     50       CHL1     C3       CRL1     0.140000       12.0110           0
      6626 MEMB     50       CHL1     H3       HGA1     0.900000E-01   1.00800           0
      6627 MEMB     50       CHL1     O3       OHL     -0.660000       15.9994           0
      6628 MEMB     50       CHL1     H3'      HOL      0.430000       1.00800           0
      6629 MEMB     50       CHL1     C4       CRL2    -0.180000       12.0110           0
      6630 MEMB     50       CHL1     H4A      HGA2     0.900000E-01   1.00800           0
      6631 MEMB     50       CHL1     H4B      HGA2     0.900000E-01   1.00800           0
      6632 MEMB     50       CHL1     C5       CEL1     0.000000       12.0110           0
      6633 MEMB     50       CHL1     C6       CEL1    -0.150000       12.0110           0
      6634 MEMB     50       CHL1     H6       HEL1     0.150000       1.00800           0
      6635 MEMB     50       CHL1     C7       CRL2    -0.180000       12.0110           0
      6636 MEMB     50       CHL1     H7A      HGA2     0.900000E-01   1.00800           0
      6637 MEMB     50       CHL1     H7B      HGA2     0.900000E-01   1.00800           0
      6638 MEMB     50       CHL1     C8       CRL1    -0.900000E-01   12.0110           0
      6639 MEMB     50       CHL1     H8       HGA1     0.900000E-01   1.00800           0
      6640 MEMB     50       CHL1     C14      CRL1    -0.900000E-01   12.0110           0
      6641 MEMB     50       CHL1     H14      HGA1     0.900000E-01   1.00800           0
      6642 MEMB     50       CHL1     C15      CRL2    -0.180000       12.0110           0
      6643 MEMB     50       CHL1     H15A     HGA2     0.900000E-01   1.00800           0
      6644 MEMB     50       CHL1     H15B     HGA2     0.900000E-01   1.00800           0
      6645 MEMB     50       CHL1     C16      CRL2    -0.180000       12.0110           0
      6646 MEMB     50       CHL1     H16A     HGA2     0.900000E-01   1.00800           0
      6647 MEMB     50       CHL1     H16B     HGA2     0.900000E-01   1.00800           0
      6648 MEMB     50       CHL1     C17      CRL1    -0.900000E-01   12.0110           0
      6649 MEMB     50       CHL1     H17      HGA1     0.900000E-01   1.00800           0
      6650 MEMB     50       CHL1     C13      CRL1     0.000000       12.0110           0
      6651 MEMB     50       CHL1     C18      CTL3    -0.270000       12.0110           0
      6652 MEMB     50       CHL1     H18A     HAL3     0.900000E-01   1.00800           0
      6653 MEMB     50       CHL1     H18B     HAL3     0.900000E-01   1.00800           0
      6654 MEMB     50       CHL1     H18C     HAL3     0.900000E-01   1.00800           0
      6655 MEMB     50       CHL1     C12      CRL2    -0.180000       12.0110           0
      6656 MEMB     50       CHL1     H12A     HGA2     0.900000E-01   1.00800           0
      6657 MEMB     50       CHL1     H12B     HGA2     0.900000E-01   1.00800           0
      6658 MEMB     50       CHL1     C11      CRL2    -0.180000       12.0110           0
      6659 MEMB     50       CHL1     H11A     HGA2     0.900000E-01   1.00800           0
      6660 MEMB     50       CHL1     H11B     HGA2     0.900000E-01   1.00800           0
      6661 MEMB     50       CHL1     C9       CRL1    -0.900000E-01   12.0110           0
      6662 MEMB     50       CHL1     H9       HGA1     0.900000E-01   1.00800           0
      6663 MEMB     50       CHL1     C10      CRL1     0.000000       12.0110           0
      6664 MEMB     50       CHL1     C19      CTL3    -0.270000       12.0110           0
      6665 MEMB     50       CHL1     H19A     HAL3     0.900000E-01   1.00800           0
      6666 MEMB     50       CHL1     H19B     HAL3     0.900000E-01   1.00800           0
      6667 MEMB     50       CHL1     H19C     HAL3     0.900000E-01   1.00800           0
      6668 MEMB     50       CHL1     C1       CRL2    -0.180000       12.0110           0
      6669 MEMB     50       CHL1     H1A      HGA2     0.900000E-01   1.00800           0
      6670 MEMB     50       CHL1     H1B      HGA2     0.900000E-01   1.00800           0
      6671 MEMB     50       CHL1     C2       CRL2    -0.180000       12.0110           0
      6672 MEMB     50       CHL1     H2A      HGA2     0.900000E-01   1.00800           0
      6673 MEMB     50       CHL1     H2B      HGA2     0.900000E-01   1.00800           0
      6674 MEMB     50       CHL1     C20      CTL1    -0.900000E-01   12.0110           0
      6675 MEMB     50       CHL1     H20      HAL1     0.900000E-01   1.00800           0
      6676 MEMB     50       CHL1     C21      CTL3    -0.270000       12.0110           0
      6677 MEMB     50       CHL1     H21A     HAL3     0.900000E-01   1.00800           0
      6678 MEMB     50       CHL1     H21B     HAL3     0.900000E-01   1.00800           0
      6679 MEMB     50       CHL1     H21C     HAL3     0.900000E-01   1.00800           0
      6680 MEMB     50       CHL1     C22      CTL2    -0.180000       12.0110           0
      6681 MEMB     50       CHL1     H22A     HAL2     0.900000E-01   1.00800           0
      6682 MEMB     50       CHL1     H22B     HAL2     0.900000E-01   1.00800           0
      6683 MEMB     50       CHL1     C23      CTL2    -0.180000       12.0110           0
      6684 MEMB     50       CHL1     H23A     HAL2     0.900000E-01   1.00800           0
      6685 MEMB     50       CHL1     H23B     HAL2     0.900000E-01   1.00800           0
      6686 MEMB     50       CHL1     C24      CTL2    -0.180000       12.0110           0
      6687 MEMB     50       CHL1     H24A     HAL2     0.900000E-01   1.00800           0
      6688 MEMB     50       CHL1     H24B     HAL2     0.900000E-01   1.00800           0
      6689 MEMB     50       CHL1     C25      CTL1    -0.900000E-01   12.0110           0
      6690 MEMB     50       CHL1     H25      HAL1     0.900000E-01   1.00800           0
      6691 MEMB     50       CHL1     C26      CTL3    -0.270000       12.0110           0
      6692 MEMB     50       CHL1     H26A     HAL3     0.900000E-01   1.00800           0
      6693 MEMB     50       CHL1     H26B     HAL3     0.900000E-01   1.00800           0
      6694 MEMB     50       CHL1     H26C     HAL3     0.900000E-01   1.00800           0
      6695 MEMB     50       CHL1     C27      CTL3    -0.270000       12.0110           0
      6696 MEMB     50       CHL1     H27A     HAL3     0.900000E-01   1.00800           0
      6697 MEMB     50       CHL1     H27B     HAL3     0.900000E-01   1.00800           0
      6698 MEMB     50       CHL1     H27C     HAL3     0.900000E-01   1.00800           0
      6699 MEMB     52       CHL1     C3       CRL1     0.140000       12.0110           0
      6700 MEMB     52       CHL1     H3       HGA1     0.900000E-01   1.00800           0
      6701 MEMB     52       CHL1     O3       OHL     -0.660000       15.9994           0
      6702 MEMB     52       CHL1     H3'      HOL      0.430000       1.00800           0
      6703 MEMB     52       CHL1     C4       CRL2    -0.180000       12.0110           0
      6704 MEMB     52       CHL1     H4A      HGA2     0.900000E-01   1.00800           0
      6705 MEMB     52       CHL1     H4B      HGA2     0.900000E-01   1.00800           0
      6706 MEMB     52       CHL1     C5       CEL1     0.000000       12.0110           0
      6707 MEMB     52       CHL1     C6       CEL1    -0.150000       12.0110           0
      6708 MEMB     52       CHL1     H6       HEL1     0.150000       1.00800           0
      6709 MEMB     52       CHL1     C7       CRL2    -0.180000       12.0110           0
      6710 MEMB     52       CHL1     H7A      HGA2     0.900000E-01   1.00800           0
      6711 MEMB     52       CHL1     H7B      HGA2     0.900000E-01   1.00800           0
      6712 MEMB     52       CHL1     C8       CRL1    -0.900000E-01   12.0110           0
      6713 MEMB     52       CHL1     H8       HGA1     0.900000E-01   1.00800           0
      6714 MEMB     52       CHL1     C14      CRL1    -0.900000E-01   12.0110           0
      6715 MEMB     52       CHL1     H14      HGA1     0.900000E-01   1.00800           0
      6716 MEMB     52       CHL1     C15      CRL2    -0.180000       12.0110           0
      6717 MEMB     52       CHL1     H15A     HGA2     0.900000E-01   1.00800           0
      6718 MEMB     52       CHL1     H15B     HGA2     0.900000E-01   1.00800           0
      6719 MEMB     52       CHL1     C16      CRL2    -0.180000       12.0110           0
      6720 MEMB     52       CHL1     H16A     HGA2     0.900000E-01   1.00800           0
      6721 MEMB     52       CHL1     H16B     HGA2     0.900000E-01   1.00800           0
      6722 MEMB     52       CHL1     C17      CRL1    -0.900000E-01   12.0110           0
      6723 MEMB     52       CHL1     H17      HGA1     0.900000E-01   1.00800           0
      6724 MEMB     52       CHL1     C13      CRL1     0.000000       12.0110           0
      6725 MEMB     52       CHL1     C18      CTL3    -0.270000       12.0110           0
      6726 MEMB     52       CHL1     H18A     HAL3     0.900000E-01   1.00800           0
      6727 MEMB     52       CHL1     H18B     HAL3     0.900000E-01   1.00800           0
      6728 MEMB     52       CHL1     H18C     HAL3     0.900000E-01   1.00800           0
      6729 MEMB     52       CHL1     C12      CRL2    -0.180000       12.0110           0
      6730 MEMB     52       CHL1     H12A     HGA2     0.900000E-01   1.00800           0
      6731 MEMB     52       CHL1     H12B     HGA2     0.900000E-01   1.00800           0
      6732 MEMB     52       CHL1     C11      CRL2    -0.180000       12.0110           0
      6733 MEMB     52       CHL1     H11A     HGA2     0.900000E-01   1.00800           0
      6734 MEMB     52       CHL1     H11B     HGA2     0.900000E-01   1.00800           0
      6735 MEMB     52       CHL1     C9       CRL1    -0.900000E-01   12.0110           0
      6736 MEMB     52       CHL1     H9       HGA1     0.900000E-01   1.00800           0
      6737 MEMB     52       CHL1     C10      CRL1     0.000000       12.0110           0
      6738 MEMB     52       CHL1     C19      CTL3    -0.270000       12.0110           0
      6739 MEMB     52       CHL1     H19A     HAL3     0.900000E-01   1.00800           0
      6740 MEMB     52       CHL1     H19B     HAL3     0.900000E-01   1.00800           0
      6741 MEMB     52       CHL1     H19C     HAL3     0.900000E-01   1.00800           0
      6742 MEMB     52       CHL1     C1       CRL2    -0.180000       12.0110           0
      6743 MEMB     52       CHL1     H1A      HGA2     0.900000E-01   1.00800           0
      6744 MEMB     52       CHL1     H1B      HGA2     0.900000E-01   1.00800           0
      6745 MEMB     52       CHL1     C2       CRL2    -0.180000       12.0110           0
      6746 MEMB     52       CHL1     H2A      HGA2     0.900000E-01   1.00800           0
      6747 MEMB     52       CHL1     H2B      HGA2     0.900000E-01   1.00800           0
      6748 MEMB     52       CHL1     C20      CTL1    -0.900000E-01   12.0110           0
      6749 MEMB     52       CHL1     H20      HAL1     0.900000E-01   1.00800           0
      6750 MEMB     52       CHL1     C21      CTL3    -0.270000       12.0110           0
      6751 MEMB     52       CHL1     H21A     HAL3     0.900000E-01   1.00800           0
      6752 MEMB     52       CHL1     H21B     HAL3     0.900000E-01   1.00800           0
      6753 MEMB     52       CHL1     H21C     HAL3     0.900000E-01   1.00800           0
      6754 MEMB     52       CHL1     C22      CTL2    -0.180000       12.0110           0
      6755 MEMB     52       CHL1     H22A     HAL2     0.900000E-01   1.00800           0
      6756 MEMB     52       CHL1     H22B     HAL2     0.900000E-01   1.00800           0
      6757 MEMB     52       CHL1     C23      CTL2    -0.180000       12.0110           0
      6758 MEMB     52       CHL1     H23A     HAL2     0.900000E-01   1.00800           0
      6759 MEMB     52       CHL1     H23B     HAL2     0.900000E-01   1.00800           0
      6760 MEMB     52       CHL1     C24      CTL2    -0.180000       12.0110           0
      6761 MEMB     52       CHL1     H24A     HAL2     0.900000E-01   1.00800           0
      6762 MEMB     52       CHL1     H24B     HAL2     0.900000E-01   1.00800           0
      6763 MEMB     52       CHL1     C25      CTL1    -0.900000E-01   12.0110           0
      6764 MEMB     52       CHL1     H25      HAL1     0.900000E-01   1.00800           0
      6765 MEMB     52       CHL1     C26      CTL3    -0.270000       12.0110           0
      6766 MEMB     52       CHL1     H26A     HAL3     0.900000E-01   1.00800           0
      6767 MEMB     52       CHL1     H26B     HAL3     0.900000E-01   1.00800           0
      6768 MEMB     52       CHL1     H26C     HAL3     0.900000E-01   1.00800           0
      6769 MEMB     52       CHL1     C27      CTL3    -0.270000       12.0110           0
      6770 MEMB     52       CHL1     H27A     HAL3     0.900000E-01   1.00800           0
      6771 MEMB     52       CHL1     H27B     HAL3     0.900000E-01   1.00800           0
      6772 MEMB     52       CHL1     H27C     HAL3     0.900000E-01   1.00800           0
      6773 MEMB     54       CHL1     C3       CRL1     0.140000       12.0110           0
      6774 MEMB     54       CHL1     H3       HGA1     0.900000E-01   1.00800           0
      6775 MEMB     54       CHL1     O3       OHL     -0.660000       15.9994           0
      6776 MEMB     54       CHL1     H3'      HOL      0.430000       1.00800           0
      6777 MEMB     54       CHL1     C4       CRL2    -0.180000       12.0110           0
      6778 MEMB     54       CHL1     H4A      HGA2     0.900000E-01   1.00800           0
      6779 MEMB     54       CHL1     H4B      HGA2     0.900000E-01   1.00800           0
      6780 MEMB     54       CHL1     C5       CEL1     0.000000       12.0110           0
      6781 MEMB     54       CHL1     C6       CEL1    -0.150000       12.0110           0
      6782 MEMB     54       CHL1     H6       HEL1     0.150000       1.00800           0
      6783 MEMB     54       CHL1     C7       CRL2    -0.180000       12.0110           0
      6784 MEMB     54       CHL1     H7A      HGA2     0.900000E-01   1.00800           0
      6785 MEMB     54       CHL1     H7B      HGA2     0.900000E-01   1.00800           0
      6786 MEMB     54       CHL1     C8       CRL1    -0.900000E-01   12.0110           0
      6787 MEMB     54       CHL1     H8       HGA1     0.900000E-01   1.00800           0
      6788 MEMB     54       CHL1     C14      CRL1    -0.900000E-01   12.0110           0
      6789 MEMB     54       CHL1     H14      HGA1     0.900000E-01   1.00800           0
      6790 MEMB     54       CHL1     C15      CRL2    -0.180000       12.0110           0
      6791 MEMB     54       CHL1     H15A     HGA2     0.900000E-01   1.00800           0
      6792 MEMB     54       CHL1     H15B     HGA2     0.900000E-01   1.00800           0
      6793 MEMB     54       CHL1     C16      CRL2    -0.180000       12.0110           0
      6794 MEMB     54       CHL1     H16A     HGA2     0.900000E-01   1.00800           0
      6795 MEMB     54       CHL1     H16B     HGA2     0.900000E-01   1.00800           0
      6796 MEMB     54       CHL1     C17      CRL1    -0.900000E-01   12.0110           0
      6797 MEMB     54       CHL1     H17      HGA1     0.900000E-01   1.00800           0
      6798 MEMB     54       CHL1     C13      CRL1     0.000000       12.0110           0
      6799 MEMB     54       CHL1     C18      CTL3    -0.270000       12.0110           0
      6800 MEMB     54       CHL1     H18A     HAL3     0.900000E-01   1.00800           0
      6801 MEMB     54       CHL1     H18B     HAL3     0.900000E-01   1.00800           0
      6802 MEMB     54       CHL1     H18C     HAL3     0.900000E-01   1.00800           0
      6803 MEMB     54       CHL1     C12      CRL2    -0.180000       12.0110           0
      6804 MEMB     54       CHL1     H12A     HGA2     0.900000E-01   1.00800           0
      6805 MEMB     54       CHL1     H12B     HGA2     0.900000E-01   1.00800           0
      6806 MEMB     54       CHL1     C11      CRL2    -0.180000       12.0110           0
      6807 MEMB     54       CHL1     H11A     HGA2     0.900000E-01   1.00800           0
      6808 MEMB     54       CHL1     H11B     HGA2     0.900000E-01   1.00800           0
      6809 MEMB     54       CHL1     C9       CRL1    -0.900000E-01   12.0110           0
      6810 MEMB     54       CHL1     H9       HGA1     0.900000E-01   1.00800           0
      6811 MEMB     54       CHL1     C10      CRL1     0.000000       12.0110           0
      6812 MEMB     54       CHL1     C19      CTL3    -0.270000       12.0110           0
      6813 MEMB     54       CHL1     H19A     HAL3     0.900000E-01   1.00800           0
      6814 MEMB     54       CHL1     H19B     HAL3     0.900000E-01   1.00800           0
      6815 MEMB     54       CHL1     H19C     HAL3     0.900000E-01   1.00800           0
      6816 MEMB     54       CHL1     C1       CRL2    -0.180000       12.0110           0
      6817 MEMB     54       CHL1     H1A      HGA2     0.900000E-01   1.00800           0
      6818 MEMB     54       CHL1     H1B      HGA2     0.900000E-01   1.00800           0
      6819 MEMB     54       CHL1     C2       CRL2    -0.180000       12.0110           0
      6820 MEMB     54       CHL1     H2A      HGA2     0.900000E-01   1.00800           0
      6821 MEMB     54       CHL1     H2B      HGA2     0.900000E-01   1.00800           0
      6822 MEMB     54       CHL1     C20      CTL1    -0.900000E-01   12.0110           0
      6823 MEMB     54       CHL1     H20      HAL1     0.900000E-01   1.00800           0
      6824 MEMB     54       CHL1     C21      CTL3    -0.270000       12.0110           0
      6825 MEMB     54       CHL1     H21A     HAL3     0.900000E-01   1.00800           0
      6826 MEMB     54       CHL1     H21B     HAL3     0.900000E-01   1.00800           0
      6827 MEMB     54       CHL1     H21C     HAL3     0.900000E-01   1.00800           0
      6828 MEMB     54       CHL1     C22      CTL2    -0.180000       12.0110           0
      6829 MEMB     54       CHL1     H22A     HAL2     0.900000E-01   1.00800           0
      6830 MEMB     54       CHL1     H22B     HAL2     0.900000E-01   1.00800           0
      6831 MEMB     54       CHL1     C23      CTL2    -0.180000       12.0110           0
      6832 MEMB     54       CHL1     H23A     HAL2     0.900000E-01   1.00800           0
      6833 MEMB     54       CHL1     H23B     HAL2     0.900000E-01   1.00800           0
      6834 MEMB     54       CHL1     C24      CTL2    -0.180000       12.0110           0
      6835 MEMB     54       CHL1     H24A     HAL2     0.900000E-01   1.00800           0
      6836 MEMB     54       CHL1     H24B     HAL2     0.900000E-01   1.00800           0
      6837 MEMB     54       CHL1     C25      CTL1    -0.900000E-01   12.0110           0
      6838 MEMB     54       CHL1     H25      HAL1     0.900000E-01   1.00800           0
      6839 MEMB     54       CHL1     C26      CTL3    -0.270000       12.0110           0
      6840 MEMB     54       CHL1     H26A     HAL3     0.900000E-01   1.00800           0
      6841 MEMB     54       CHL1     H26B     HAL3     0.900000E-01   1.00800           0
      6842 MEMB     54       CHL1     H26C     HAL3     0.900000E-01   1.00800           0
      6843 MEMB     54       CHL1     C27      CTL3    -0.270000       12.0110           0
      6844 MEMB     54       CHL1     H27A     HAL3     0.900000E-01   1.00800           0
      6845 MEMB     54       CHL1     H27B     HAL3     0.900000E-01   1.00800           0
      6846 MEMB     54       CHL1     H27C     HAL3     0.900000E-01   1.00800           0
      6847 MEMB     55       CHL1     C3       CRL1     0.140000       12.0110           0
      6848 MEMB     55       CHL1     H3       HGA1     0.900000E-01   1.00800           0
      6849 MEMB     55       CHL1     O3       OHL     -0.660000       15.9994           0
      6850 MEMB     55       CHL1     H3'      HOL      0.430000       1.00800           0
      6851 MEMB     55       CHL1     C4       CRL2    -0.180000       12.0110           0
      6852 MEMB     55       CHL1     H4A      HGA2     0.900000E-01   1.00800           0
      6853 MEMB     55       CHL1     H4B      HGA2     0.900000E-01   1.00800           0
      6854 MEMB     55       CHL1     C5       CEL1     0.000000       12.0110           0
      6855 MEMB     55       CHL1     C6       CEL1    -0.150000       12.0110           0
      6856 MEMB     55       CHL1     H6       HEL1     0.150000       1.00800           0
      6857 MEMB     55       CHL1     C7       CRL2    -0.180000       12.0110           0
      6858 MEMB     55       CHL1     H7A      HGA2     0.900000E-01   1.00800           0
      6859 MEMB     55       CHL1     H7B      HGA2     0.900000E-01   1.00800           0
      6860 MEMB     55       CHL1     C8       CRL1    -0.900000E-01   12.0110           0
      6861 MEMB     55       CHL1     H8       HGA1     0.900000E-01   1.00800           0
      6862 MEMB     55       CHL1     C14      CRL1    -0.900000E-01   12.0110           0
      6863 MEMB     55       CHL1     H14      HGA1     0.900000E-01   1.00800           0
      6864 MEMB     55       CHL1     C15      CRL2    -0.180000       12.0110           0
      6865 MEMB     55       CHL1     H15A     HGA2     0.900000E-01   1.00800           0
      6866 MEMB     55       CHL1     H15B     HGA2     0.900000E-01   1.00800           0
      6867 MEMB     55       CHL1     C16      CRL2    -0.180000       12.0110           0
      6868 MEMB     55       CHL1     H16A     HGA2     0.900000E-01   1.00800           0
      6869 MEMB     55       CHL1     H16B     HGA2     0.900000E-01   1.00800           0
      6870 MEMB     55       CHL1     C17      CRL1    -0.900000E-01   12.0110           0
      6871 MEMB     55       CHL1     H17      HGA1     0.900000E-01   1.00800           0
      6872 MEMB     55       CHL1     C13      CRL1     0.000000       12.0110           0
      6873 MEMB     55       CHL1     C18      CTL3    -0.270000       12.0110           0
      6874 MEMB     55       CHL1     H18A     HAL3     0.900000E-01   1.00800           0
      6875 MEMB     55       CHL1     H18B     HAL3     0.900000E-01   1.00800           0
      6876 MEMB     55       CHL1     H18C     HAL3     0.900000E-01   1.00800           0
      6877 MEMB     55       CHL1     C12      CRL2    -0.180000       12.0110           0
      6878 MEMB     55       CHL1     H12A     HGA2     0.900000E-01   1.00800           0
      6879 MEMB     55       CHL1     H12B     HGA2     0.900000E-01   1.00800           0
      6880 MEMB     55       CHL1     C11      CRL2    -0.180000       12.0110           0
      6881 MEMB     55       CHL1     H11A     HGA2     0.900000E-01   1.00800           0
      6882 MEMB     55       CHL1     H11B     HGA2     0.900000E-01   1.00800           0
      6883 MEMB     55       CHL1     C9       CRL1    -0.900000E-01   12.0110           0
      6884 MEMB     55       CHL1     H9       HGA1     0.900000E-01   1.00800           0
      6885 MEMB     55       CHL1     C10      CRL1     0.000000       12.0110           0
      6886 MEMB     55       CHL1     C19      CTL3    -0.270000       12.0110           0
      6887 MEMB     55       CHL1     H19A     HAL3     0.900000E-01   1.00800           0
      6888 MEMB     55       CHL1     H19B     HAL3     0.900000E-01   1.00800           0
      6889 MEMB     55       CHL1     H19C     HAL3     0.900000E-01   1.00800           0
      6890 MEMB     55       CHL1     C1       CRL2    -0.180000       12.0110           0
      6891 MEMB     55       CHL1     H1A      HGA2     0.900000E-01   1.00800           0
      6892 MEMB     55       CHL1     H1B      HGA2     0.900000E-01   1.00800           0
      6893 MEMB     55       CHL1     C2       CRL2    -0.180000       12.0110           0
      6894 MEMB     55       CHL1     H2A      HGA2     0.900000E-01   1.00800           0
      6895 MEMB     55       CHL1     H2B      HGA2     0.900000E-01   1.00800           0
      6896 MEMB     55       CHL1     C20      CTL1    -0.900000E-01   12.0110           0
      6897 MEMB     55       CHL1     H20      HAL1     0.900000E-01   1.00800           0
      6898 MEMB     55       CHL1     C21      CTL3    -0.270000       12.0110           0
      6899 MEMB     55       CHL1     H21A     HAL3     0.900000E-01   1.00800           0
      6900 MEMB     55       CHL1     H21B     HAL3     0.900000E-01   1.00800           0
      6901 MEMB     55       CHL1     H21C     HAL3     0.900000E-01   1.00800           0
      6902 MEMB     55       CHL1     C22      CTL2    -0.180000       12.0110           0
      6903 MEMB     55       CHL1     H22A     HAL2     0.900000E-01   1.00800           0
      6904 MEMB     55       CHL1     H22B     HAL2     0.900000E-01   1.00800           0
      6905 MEMB     55       CHL1     C23      CTL2    -0.180000       12.0110           0
      6906 MEMB     55       CHL1     H23A     HAL2     0.900000E-01   1.00800           0
      6907 MEMB     55       CHL1     H23B     HAL2     0.900000E-01   1.00800           0
      6908 MEMB     55       CHL1     C24      CTL2    -0.180000       12.0110           0
      6909 MEMB     55       CHL1     H24A     HAL2     0.900000E-01   1.00800           0
      6910 MEMB     55       CHL1     H24B     HAL2     0.900000E-01   1.00800           0
      6911 MEMB     55       CHL1     C25      CTL1    -0.900000E-01   12.0110           0
      6912 MEMB     55       CHL1     H25      HAL1     0.900000E-01   1.00800           0
      6913 MEMB     55       CHL1     C26      CTL3    -0.270000       12.0110           0
      6914 MEMB     55       CHL1     H26A     HAL3     0.900000E-01   1.00800           0
      6915 MEMB     55       CHL1     H26B     HAL3     0.900000E-01   1.00800           0
      6916 MEMB     55       CHL1     H26C     HAL3     0.900000E-01   1.00800           0
      6917 MEMB     55       CHL1     C27      CTL3    -0.270000       12.0110           0
      6918 MEMB     55       CHL1     H27A     HAL3     0.900000E-01   1.00800           0
      6919 MEMB     55       CHL1     H27B     HAL3     0.900000E-01   1.00800           0
      6920 MEMB     55       CHL1     H27C     HAL3     0.900000E-01   1.00800           0
      6921 MEMB     64       CHL1     C3       CRL1     0.140000       12.0110           0
      6922 MEMB     64       CHL1     H3       HGA1     0.900000E-01   1.00800           0
      6923 MEMB     64       CHL1     O3       OHL     -0.660000       15.9994           0
      6924 MEMB     64       CHL1     H3'      HOL      0.430000       1.00800           0
      6925 MEMB     64       CHL1     C4       CRL2    -0.180000       12.0110           0
      6926 MEMB     64       CHL1     H4A      HGA2     0.900000E-01   1.00800           0
      6927 MEMB     64       CHL1     H4B      HGA2     0.900000E-01   1.00800           0
      6928 MEMB     64       CHL1     C5       CEL1     0.000000       12.0110           0
      6929 MEMB     64       CHL1     C6       CEL1    -0.150000       12.0110           0
      6930 MEMB     64       CHL1     H6       HEL1     0.150000       1.00800           0
      6931 MEMB     64       CHL1     C7       CRL2    -0.180000       12.0110           0
      6932 MEMB     64       CHL1     H7A      HGA2     0.900000E-01   1.00800           0
      6933 MEMB     64       CHL1     H7B      HGA2     0.900000E-01   1.00800           0
      6934 MEMB     64       CHL1     C8       CRL1    -0.900000E-01   12.0110           0
      6935 MEMB     64       CHL1     H8       HGA1     0.900000E-01   1.00800           0
      6936 MEMB     64       CHL1     C14      CRL1    -0.900000E-01   12.0110           0
      6937 MEMB     64       CHL1     H14      HGA1     0.900000E-01   1.00800           0
      6938 MEMB     64       CHL1     C15      CRL2    -0.180000       12.0110           0
      6939 MEMB     64       CHL1     H15A     HGA2     0.900000E-01   1.00800           0
      6940 MEMB     64       CHL1     H15B     HGA2     0.900000E-01   1.00800           0
      6941 MEMB     64       CHL1     C16      CRL2    -0.180000       12.0110           0
      6942 MEMB     64       CHL1     H16A     HGA2     0.900000E-01   1.00800           0
      6943 MEMB     64       CHL1     H16B     HGA2     0.900000E-01   1.00800           0
      6944 MEMB     64       CHL1     C17      CRL1    -0.900000E-01   12.0110           0
      6945 MEMB     64       CHL1     H17      HGA1     0.900000E-01   1.00800           0
      6946 MEMB     64       CHL1     C13      CRL1     0.000000       12.0110           0
      6947 MEMB     64       CHL1     C18      CTL3    -0.270000       12.0110           0
      6948 MEMB     64       CHL1     H18A     HAL3     0.900000E-01   1.00800           0
      6949 MEMB     64       CHL1     H18B     HAL3     0.900000E-01   1.00800           0
      6950 MEMB     64       CHL1     H18C     HAL3     0.900000E-01   1.00800           0
      6951 MEMB     64       CHL1     C12      CRL2    -0.180000       12.0110           0
      6952 MEMB     64       CHL1     H12A     HGA2     0.900000E-01   1.00800           0
      6953 MEMB     64       CHL1     H12B     HGA2     0.900000E-01   1.00800           0
      6954 MEMB     64       CHL1     C11      CRL2    -0.180000       12.0110           0
      6955 MEMB     64       CHL1     H11A     HGA2     0.900000E-01   1.00800           0
      6956 MEMB     64       CHL1     H11B     HGA2     0.900000E-01   1.00800           0
      6957 MEMB     64       CHL1     C9       CRL1    -0.900000E-01   12.0110           0
      6958 MEMB     64       CHL1     H9       HGA1     0.900000E-01   1.00800           0
      6959 MEMB     64       CHL1     C10      CRL1     0.000000       12.0110           0
      6960 MEMB     64       CHL1     C19      CTL3    -0.270000       12.0110           0
      6961 MEMB     64       CHL1     H19A     HAL3     0.900000E-01   1.00800           0
      6962 MEMB     64       CHL1     H19B     HAL3     0.900000E-01   1.00800           0
      6963 MEMB     64       CHL1     H19C     HAL3     0.900000E-01   1.00800           0
      6964 MEMB     64       CHL1     C1       CRL2    -0.180000       12.0110           0
      6965 MEMB     64       CHL1     H1A      HGA2     0.900000E-01   1.00800           0
      6966 MEMB     64       CHL1     H1B      HGA2     0.900000E-01   1.00800           0
      6967 MEMB     64       CHL1     C2       CRL2    -0.180000       12.0110           0
      6968 MEMB     64       CHL1     H2A      HGA2     0.900000E-01   1.00800           0
      6969 MEMB     64       CHL1     H2B      HGA2     0.900000E-01   1.00800           0
      6970 MEMB     64       CHL1     C20      CTL1    -0.900000E-01   12.0110           0
      6971 MEMB     64       CHL1     H20      HAL1     0.900000E-01   1.00800           0
      6972 MEMB     64       CHL1     C21      CTL3    -0.270000       12.0110           0
      6973 MEMB     64       CHL1     H21A     HAL3     0.900000E-01   1.00800           0
      6974 MEMB     64       CHL1     H21B     HAL3     0.900000E-01   1.00800           0
      6975 MEMB     64       CHL1     H21C     HAL3     0.900000E-01   1.00800           0
      6976 MEMB     64       CHL1     C22      CTL2    -0.180000       12.0110           0
      6977 MEMB     64       CHL1     H22A     HAL2     0.900000E-01   1.00800           0
      6978 MEMB     64       CHL1     H22B     HAL2     0.900000E-01   1.00800           0
      6979 MEMB     64       CHL1     C23      CTL2    -0.180000       12.0110           0
      6980 MEMB     64       CHL1     H23A     HAL2     0.900000E-01   1.00800           0
      6981 MEMB     64       CHL1     H23B     HAL2     0.900000E-01   1.00800           0
      6982 MEMB     64       CHL1     C24      CTL2    -0.180000       12.0110           0
      6983 MEMB     64       CHL1     H24A     HAL2     0.900000E-01   1.00800           0
      6984 MEMB     64       CHL1     H24B     HAL2     0.900000E-01   1.00800           0
      6985 MEMB     64       CHL1     C25      CTL1    -0.900000E-01   12.0110           0
      6986 MEMB     64       CHL1     H25      HAL1     0.900000E-01   1.00800           0
      6987 MEMB     64       CHL1     C26      CTL3    -0.270000       12.0110           0
      6988 MEMB     64       CHL1     H26A     HAL3     0.900000E-01   1.00800           0
      6989 MEMB     64       CHL1     H26B     HAL3     0.900000E-01   1.00800           0
      6990 MEMB     64       CHL1     H26C     HAL3     0.900000E-01   1.00800           0
      6991 MEMB     64       CHL1     C27      CTL3    -0.270000       12.0110           0
      6992 MEMB     64       CHL1     H27A     HAL3     0.900000E-01   1.00800           0
      6993 MEMB     64       CHL1     H27B     HAL3     0.900000E-01   1.00800           0
      6994 MEMB     64       CHL1     H27C     HAL3     0.900000E-01   1.00800           0
      6995 MEMB     65       CHL1     C3       CRL1     0.140000       12.0110           0
      6996 MEMB     65       CHL1     H3       HGA1     0.900000E-01   1.00800           0
      6997 MEMB     65       CHL1     O3       OHL     -0.660000       15.9994           0
      6998 MEMB     65       CHL1     H3'      HOL      0.430000       1.00800           0
      6999 MEMB     65       CHL1     C4       CRL2    -0.180000       12.0110           0
      7000 MEMB     65       CHL1     H4A      HGA2     0.900000E-01   1.00800           0
      7001 MEMB     65       CHL1     H4B      HGA2     0.900000E-01   1.00800           0
      7002 MEMB     65       CHL1     C5       CEL1     0.000000       12.0110           0
      7003 MEMB     65       CHL1     C6       CEL1    -0.150000       12.0110           0
      7004 MEMB     65       CHL1     H6       HEL1     0.150000       1.00800           0
      7005 MEMB     65       CHL1     C7       CRL2    -0.180000       12.0110           0
      7006 MEMB     65       CHL1     H7A      HGA2     0.900000E-01   1.00800           0
      7007 MEMB     65       CHL1     H7B      HGA2     0.900000E-01   1.00800           0
      7008 MEMB     65       CHL1     C8       CRL1    -0.900000E-01   12.0110           0
      7009 MEMB     65       CHL1     H8       HGA1     0.900000E-01   1.00800           0
      7010 MEMB     65       CHL1     C14      CRL1    -0.900000E-01   12.0110           0
      7011 MEMB     65       CHL1     H14      HGA1     0.900000E-01   1.00800           0
      7012 MEMB     65       CHL1     C15      CRL2    -0.180000       12.0110           0
      7013 MEMB     65       CHL1     H15A     HGA2     0.900000E-01   1.00800           0
      7014 MEMB     65       CHL1     H15B     HGA2     0.900000E-01   1.00800           0
      7015 MEMB     65       CHL1     C16      CRL2    -0.180000       12.0110           0
      7016 MEMB     65       CHL1     H16A     HGA2     0.900000E-01   1.00800           0
      7017 MEMB     65       CHL1     H16B     HGA2     0.900000E-01   1.00800           0
      7018 MEMB     65       CHL1     C17      CRL1    -0.900000E-01   12.0110           0
      7019 MEMB     65       CHL1     H17      HGA1     0.900000E-01   1.00800           0
      7020 MEMB     65       CHL1     C13      CRL1     0.000000       12.0110           0
      7021 MEMB     65       CHL1     C18      CTL3    -0.270000       12.0110           0
      7022 MEMB     65       CHL1     H18A     HAL3     0.900000E-01   1.00800           0
      7023 MEMB     65       CHL1     H18B     HAL3     0.900000E-01   1.00800           0
      7024 MEMB     65       CHL1     H18C     HAL3     0.900000E-01   1.00800           0
      7025 MEMB     65       CHL1     C12      CRL2    -0.180000       12.0110           0
      7026 MEMB     65       CHL1     H12A     HGA2     0.900000E-01   1.00800           0
      7027 MEMB     65       CHL1     H12B     HGA2     0.900000E-01   1.00800           0
      7028 MEMB     65       CHL1     C11      CRL2    -0.180000       12.0110           0
      7029 MEMB     65       CHL1     H11A     HGA2     0.900000E-01   1.00800           0
      7030 MEMB     65       CHL1     H11B     HGA2     0.900000E-01   1.00800           0
      7031 MEMB     65       CHL1     C9       CRL1    -0.900000E-01   12.0110           0
      7032 MEMB     65       CHL1     H9       HGA1     0.900000E-01   1.00800           0
      7033 MEMB     65       CHL1     C10      CRL1     0.000000       12.0110           0
      7034 MEMB     65       CHL1     C19      CTL3    -0.270000       12.0110           0
      7035 MEMB     65       CHL1     H19A     HAL3     0.900000E-01   1.00800           0
      7036 MEMB     65       CHL1     H19B     HAL3     0.900000E-01   1.00800           0
      7037 MEMB     65       CHL1     H19C     HAL3     0.900000E-01   1.00800           0
      7038 MEMB     65       CHL1     C1       CRL2    -0.180000       12.0110           0
      7039 MEMB     65       CHL1     H1A      HGA2     0.900000E-01   1.00800           0
      7040 MEMB     65       CHL1     H1B      HGA2     0.900000E-01   1.00800           0
      7041 MEMB     65       CHL1     C2       CRL2    -0.180000       12.0110           0
      7042 MEMB     65       CHL1     H2A      HGA2     0.900000E-01   1.00800           0
      7043 MEMB     65       CHL1     H2B      HGA2     0.900000E-01   1.00800           0
      7044 MEMB     65       CHL1     C20      CTL1    -0.900000E-01   12.0110           0
      7045 MEMB     65       CHL1     H20      HAL1     0.900000E-01   1.00800           0
      7046 MEMB     65       CHL1     C21      CTL3    -0.270000       12.0110           0
      7047 MEMB     65       CHL1     H21A     HAL3     0.900000E-01   1.00800           0
      7048 MEMB     65       CHL1     H21B     HAL3     0.900000E-01   1.00800           0
      7049 MEMB     65       CHL1     H21C     HAL3     0.900000E-01   1.00800           0
      7050 MEMB     65       CHL1     C22      CTL2    -0.180000       12.0110           0
      7051 MEMB     65       CHL1     H22A     HAL2     0.900000E-01   1.00800           0
      7052 MEMB     65       CHL1     H22B     HAL2     0.900000E-01   1.00800           0
      7053 MEMB     65       CHL1     C23      CTL2    -0.180000       12.0110           0
      7054 MEMB     65       CHL1     H23A     HAL2     0.900000E-01   1.00800           0
      7055 MEMB     65       CHL1     H23B     HAL2     0.900000E-01   1.00800           0
      7056 MEMB     65       CHL1     C24      CTL2    -0.180000       12.0110           0
      7057 MEMB     65       CHL1     H24A     HAL2     0.900000E-01   1.00800           0
      7058 MEMB     65       CHL1     H24B     HAL2     0.900000E-01   1.00800           0
      7059 MEMB     65       CHL1     C25      CTL1    -0.900000E-01   12.0110           0
      7060 MEMB     65       CHL1     H25      HAL1     0.900000E-01   1.00800           0
      7061 MEMB     65       CHL1     C26      CTL3    -0.270000       12.0110           0
      7062 MEMB     65       CHL1     H26A     HAL3     0.900000E-01   1.00800           0
      7063 MEMB     65       CHL1     H26B     HAL3     0.900000E-01   1.00800           0
      7064 MEMB     65       CHL1     H26C     HAL3     0.900000E-01   1.00800           0
      7065 MEMB     65       CHL1     C27      CTL3    -0.270000       12.0110           0
      7066 MEMB     65       CHL1     H27A     HAL3     0.900000E-01   1.00800           0
      7067 MEMB     65       CHL1     H27B     HAL3     0.900000E-01   1.00800           0
      7068 MEMB     65       CHL1     H27C     HAL3     0.900000E-01   1.00800           0
      7069 MEMB     67       CHL1     C3       CRL1     0.140000       12.0110           0
      7070 MEMB     67       CHL1     H3       HGA1     0.900000E-01   1.00800           0
      7071 MEMB     67       CHL1     O3       OHL     -0.660000       15.9994           0
      7072 MEMB     67       CHL1     H3'      HOL      0.430000       1.00800           0
      7073 MEMB     67       CHL1     C4       CRL2    -0.180000       12.0110           0
      7074 MEMB     67       CHL1     H4A      HGA2     0.900000E-01   1.00800           0
      7075 MEMB     67       CHL1     H4B      HGA2     0.900000E-01   1.00800           0
      7076 MEMB     67       CHL1     C5       CEL1     0.000000       12.0110           0
      7077 MEMB     67       CHL1     C6       CEL1    -0.150000       12.0110           0
      7078 MEMB     67       CHL1     H6       HEL1     0.150000       1.00800           0
      7079 MEMB     67       CHL1     C7       CRL2    -0.180000       12.0110           0
      7080 MEMB     67       CHL1     H7A      HGA2     0.900000E-01   1.00800           0
      7081 MEMB     67       CHL1     H7B      HGA2     0.900000E-01   1.00800           0
      7082 MEMB     67       CHL1     C8       CRL1    -0.900000E-01   12.0110           0
      7083 MEMB     67       CHL1     H8       HGA1     0.900000E-01   1.00800           0
      7084 MEMB     67       CHL1     C14      CRL1    -0.900000E-01   12.0110           0
      7085 MEMB     67       CHL1     H14      HGA1     0.900000E-01   1.00800           0
      7086 MEMB     67       CHL1     C15      CRL2    -0.180000       12.0110           0
      7087 MEMB     67       CHL1     H15A     HGA2     0.900000E-01   1.00800           0
      7088 MEMB     67       CHL1     H15B     HGA2     0.900000E-01   1.00800           0
      7089 MEMB     67       CHL1     C16      CRL2    -0.180000       12.0110           0
      7090 MEMB     67       CHL1     H16A     HGA2     0.900000E-01   1.00800           0
      7091 MEMB     67       CHL1     H16B     HGA2     0.900000E-01   1.00800           0
      7092 MEMB     67       CHL1     C17      CRL1    -0.900000E-01   12.0110           0
      7093 MEMB     67       CHL1     H17      HGA1     0.900000E-01   1.00800           0
      7094 MEMB     67       CHL1     C13      CRL1     0.000000       12.0110           0
      7095 MEMB     67       CHL1     C18      CTL3    -0.270000       12.0110           0
      7096 MEMB     67       CHL1     H18A     HAL3     0.900000E-01   1.00800           0
      7097 MEMB     67       CHL1     H18B     HAL3     0.900000E-01   1.00800           0
      7098 MEMB     67       CHL1     H18C     HAL3     0.900000E-01   1.00800           0
      7099 MEMB     67       CHL1     C12      CRL2    -0.180000       12.0110           0
      7100 MEMB     67       CHL1     H12A     HGA2     0.900000E-01   1.00800           0
      7101 MEMB     67       CHL1     H12B     HGA2     0.900000E-01   1.00800           0
      7102 MEMB     67       CHL1     C11      CRL2    -0.180000       12.0110           0
      7103 MEMB     67       CHL1     H11A     HGA2     0.900000E-01   1.00800           0
      7104 MEMB     67       CHL1     H11B     HGA2     0.900000E-01   1.00800           0
      7105 MEMB     67       CHL1     C9       CRL1    -0.900000E-01   12.0110           0
      7106 MEMB     67       CHL1     H9       HGA1     0.900000E-01   1.00800           0
      7107 MEMB     67       CHL1     C10      CRL1     0.000000       12.0110           0
      7108 MEMB     67       CHL1     C19      CTL3    -0.270000       12.0110           0
      7109 MEMB     67       CHL1     H19A     HAL3     0.900000E-01   1.00800           0
      7110 MEMB     67       CHL1     H19B     HAL3     0.900000E-01   1.00800           0
      7111 MEMB     67       CHL1     H19C     HAL3     0.900000E-01   1.00800           0
      7112 MEMB     67       CHL1     C1       CRL2    -0.180000       12.0110           0
      7113 MEMB     67       CHL1     H1A      HGA2     0.900000E-01   1.00800           0
      7114 MEMB     67       CHL1     H1B      HGA2     0.900000E-01   1.00800           0
      7115 MEMB     67       CHL1     C2       CRL2    -0.180000       12.0110           0
      7116 MEMB     67       CHL1     H2A      HGA2     0.900000E-01   1.00800           0
      7117 MEMB     67       CHL1     H2B      HGA2     0.900000E-01   1.00800           0
      7118 MEMB     67       CHL1     C20      CTL1    -0.900000E-01   12.0110           0
      7119 MEMB     67       CHL1     H20      HAL1     0.900000E-01   1.00800           0
      7120 MEMB     67       CHL1     C21      CTL3    -0.270000       12.0110           0
      7121 MEMB     67       CHL1     H21A     HAL3     0.900000E-01   1.00800           0
      7122 MEMB     67       CHL1     H21B     HAL3     0.900000E-01   1.00800           0
      7123 MEMB     67       CHL1     H21C     HAL3     0.900000E-01   1.00800           0
      7124 MEMB     67       CHL1     C22      CTL2    -0.180000       12.0110           0
      7125 MEMB     67       CHL1     H22A     HAL2     0.900000E-01   1.00800           0
      7126 MEMB     67       CHL1     H22B     HAL2     0.900000E-01   1.00800           0
      7127 MEMB     67       CHL1     C23      CTL2    -0.180000       12.0110           0
      7128 MEMB     67       CHL1     H23A     HAL2     0.900000E-01   1.00800           0
      7129 MEMB     67       CHL1     H23B     HAL2     0.900000E-01   1.00800           0
      7130 MEMB     67       CHL1     C24      CTL2    -0.180000       12.0110           0
      7131 MEMB     67       CHL1     H24A     HAL2     0.900000E-01   1.00800           0
      7132 MEMB     67       CHL1     H24B     HAL2     0.900000E-01   1.00800           0
      7133 MEMB     67       CHL1     C25      CTL1    -0.900000E-01   12.0110           0
      7134 MEMB     67       CHL1     H25      HAL1     0.900000E-01   1.00800           0
      7135 MEMB     67       CHL1     C26      CTL3    -0.270000       12.0110           0
      7136 MEMB     67       CHL1     H26A     HAL3     0.900000E-01   1.00800           0
      7137 MEMB     67       CHL1     H26B     HAL3     0.900000E-01   1.00800           0
      7138 MEMB     67       CHL1     H26C     HAL3     0.900000E-01   1.00800           0
      7139 MEMB     67       CHL1     C27      CTL3    -0.270000       12.0110           0
      7140 MEMB     67       CHL1     H27A     HAL3     0.900000E-01   1.00800           0
      7141 MEMB     67       CHL1     H27B     HAL3     0.900000E-01   1.00800           0
      7142 MEMB     67       CHL1     H27C     HAL3     0.900000E-01   1.00800           0
      7143 MEMB     70       CHL1     C3       CRL1     0.140000       12.0110           0
      7144 MEMB     70       CHL1     H3       HGA1     0.900000E-01   1.00800           0
      7145 MEMB     70       CHL1     O3       OHL     -0.660000       15.9994           0
      7146 MEMB     70       CHL1     H3'      HOL      0.430000       1.00800           0
      7147 MEMB     70       CHL1     C4       CRL2    -0.180000       12.0110           0
      7148 MEMB     70       CHL1     H4A      HGA2     0.900000E-01   1.00800           0
      7149 MEMB     70       CHL1     H4B      HGA2     0.900000E-01   1.00800           0
      7150 MEMB     70       CHL1     C5       CEL1     0.000000       12.0110           0
      7151 MEMB     70       CHL1     C6       CEL1    -0.150000       12.0110           0
      7152 MEMB     70       CHL1     H6       HEL1     0.150000       1.00800           0
      7153 MEMB     70       CHL1     C7       CRL2    -0.180000       12.0110           0
      7154 MEMB     70       CHL1     H7A      HGA2     0.900000E-01   1.00800           0
      7155 MEMB     70       CHL1     H7B      HGA2     0.900000E-01   1.00800           0
      7156 MEMB     70       CHL1     C8       CRL1    -0.900000E-01   12.0110           0
      7157 MEMB     70       CHL1     H8       HGA1     0.900000E-01   1.00800           0
      7158 MEMB     70       CHL1     C14      CRL1    -0.900000E-01   12.0110           0
      7159 MEMB     70       CHL1     H14      HGA1     0.900000E-01   1.00800           0
      7160 MEMB     70       CHL1     C15      CRL2    -0.180000       12.0110           0
      7161 MEMB     70       CHL1     H15A     HGA2     0.900000E-01   1.00800           0
      7162 MEMB     70       CHL1     H15B     HGA2     0.900000E-01   1.00800           0
      7163 MEMB     70       CHL1     C16      CRL2    -0.180000       12.0110           0
      7164 MEMB     70       CHL1     H16A     HGA2     0.900000E-01   1.00800           0
      7165 MEMB     70       CHL1     H16B     HGA2     0.900000E-01   1.00800           0
      7166 MEMB     70       CHL1     C17      CRL1    -0.900000E-01   12.0110           0
      7167 MEMB     70       CHL1     H17      HGA1     0.900000E-01   1.00800           0
      7168 MEMB     70       CHL1     C13      CRL1     0.000000       12.0110           0
      7169 MEMB     70       CHL1     C18      CTL3    -0.270000       12.0110           0
      7170 MEMB     70       CHL1     H18A     HAL3     0.900000E-01   1.00800           0
      7171 MEMB     70       CHL1     H18B     HAL3     0.900000E-01   1.00800           0
      7172 MEMB     70       CHL1     H18C     HAL3     0.900000E-01   1.00800           0
      7173 MEMB     70       CHL1     C12      CRL2    -0.180000       12.0110           0
      7174 MEMB     70       CHL1     H12A     HGA2     0.900000E-01   1.00800           0
      7175 MEMB     70       CHL1     H12B     HGA2     0.900000E-01   1.00800           0
      7176 MEMB     70       CHL1     C11      CRL2    -0.180000       12.0110           0
      7177 MEMB     70       CHL1     H11A     HGA2     0.900000E-01   1.00800           0
      7178 MEMB     70       CHL1     H11B     HGA2     0.900000E-01   1.00800           0
      7179 MEMB     70       CHL1     C9       CRL1    -0.900000E-01   12.0110           0
      7180 MEMB     70       CHL1     H9       HGA1     0.900000E-01   1.00800           0
      7181 MEMB     70       CHL1     C10      CRL1     0.000000       12.0110           0
      7182 MEMB     70       CHL1     C19      CTL3    -0.270000       12.0110           0
      7183 MEMB     70       CHL1     H19A     HAL3     0.900000E-01   1.00800           0
      7184 MEMB     70       CHL1     H19B     HAL3     0.900000E-01   1.00800           0
      7185 MEMB     70       CHL1     H19C     HAL3     0.900000E-01   1.00800           0
      7186 MEMB     70       CHL1     C1       CRL2    -0.180000       12.0110           0
      7187 MEMB     70       CHL1     H1A      HGA2     0.900000E-01   1.00800           0
      7188 MEMB     70       CHL1     H1B      HGA2     0.900000E-01   1.00800           0
      7189 MEMB     70       CHL1     C2       CRL2    -0.180000       12.0110           0
      7190 MEMB     70       CHL1     H2A      HGA2     0.900000E-01   1.00800           0
      7191 MEMB     70       CHL1     H2B      HGA2     0.900000E-01   1.00800           0
      7192 MEMB     70       CHL1     C20      CTL1    -0.900000E-01   12.0110           0
      7193 MEMB     70       CHL1     H20      HAL1     0.900000E-01   1.00800           0
      7194 MEMB     70       CHL1     C21      CTL3    -0.270000       12.0110           0
      7195 MEMB     70       CHL1     H21A     HAL3     0.900000E-01   1.00800           0
      7196 MEMB     70       CHL1     H21B     HAL3     0.900000E-01   1.00800           0
      7197 MEMB     70       CHL1     H21C     HAL3     0.900000E-01   1.00800           0
      7198 MEMB     70       CHL1     C22      CTL2    -0.180000       12.0110           0
      7199 MEMB     70       CHL1     H22A     HAL2     0.900000E-01   1.00800           0
      7200 MEMB     70       CHL1     H22B     HAL2     0.900000E-01   1.00800           0
      7201 MEMB     70       CHL1     C23      CTL2    -0.180000       12.0110           0
      7202 MEMB     70       CHL1     H23A     HAL2     0.900000E-01   1.00800           0
      7203 MEMB     70       CHL1     H23B     HAL2     0.900000E-01   1.00800           0
      7204 MEMB     70       CHL1     C24      CTL2    -0.180000       12.0110           0
      7205 MEMB     70       CHL1     H24A     HAL2     0.900000E-01   1.00800           0
      7206 MEMB     70       CHL1     H24B     HAL2     0.900000E-01   1.00800           0
      7207 MEMB     70       CHL1     C25      CTL1    -0.900000E-01   12.0110           0
      7208 MEMB     70       CHL1     H25      HAL1     0.900000E-01   1.00800           0
      7209 MEMB     70       CHL1     C26      CTL3    -0.270000       12.0110           0
      7210 MEMB     70       CHL1     H26A     HAL3     0.900000E-01   1.00800           0
      7211 MEMB     70       CHL1     H26B     HAL3     0.900000E-01   1.00800           0
      7212 MEMB     70       CHL1     H26C     HAL3     0.900000E-01   1.00800           0
      7213 MEMB     70       CHL1     C27      CTL3    -0.270000       12.0110           0
      7214 MEMB     70       CHL1     H27A     HAL3     0.900000E-01   1.00800           0
      7215 MEMB     70       CHL1     H27B     HAL3     0.900000E-01   1.00800           0
      7216 MEMB     70       CHL1     H27C     HAL3     0.900000E-01   1.00800           0
      7217 MEMB     79       CHL1     C3       CRL1     0.140000       12.0110           0
      7218 MEMB     79       CHL1     H3       HGA1     0.900000E-01   1.00800           0
      7219 MEMB     79       CHL1     O3       OHL     -0.660000       15.9994           0
      7220 MEMB     79       CHL1     H3'      HOL      0.430000       1.00800           0
      7221 MEMB     79       CHL1     C4       CRL2    -0.180000       12.0110           0
      7222 MEMB     79       CHL1     H4A      HGA2     0.900000E-01   1.00800           0
      7223 MEMB     79       CHL1     H4B      HGA2     0.900000E-01   1.00800           0
      7224 MEMB     79       CHL1     C5       CEL1     0.000000       12.0110           0
      7225 MEMB     79       CHL1     C6       CEL1    -0.150000       12.0110           0
      7226 MEMB     79       CHL1     H6       HEL1     0.150000       1.00800           0
      7227 MEMB     79       CHL1     C7       CRL2    -0.180000       12.0110           0
      7228 MEMB     79       CHL1     H7A      HGA2     0.900000E-01   1.00800           0
      7229 MEMB     79       CHL1     H7B      HGA2     0.900000E-01   1.00800           0
      7230 MEMB     79       CHL1     C8       CRL1    -0.900000E-01   12.0110           0
      7231 MEMB     79       CHL1     H8       HGA1     0.900000E-01   1.00800           0
      7232 MEMB     79       CHL1     C14      CRL1    -0.900000E-01   12.0110           0
      7233 MEMB     79       CHL1     H14      HGA1     0.900000E-01   1.00800           0
      7234 MEMB     79       CHL1     C15      CRL2    -0.180000       12.0110           0
      7235 MEMB     79       CHL1     H15A     HGA2     0.900000E-01   1.00800           0
      7236 MEMB     79       CHL1     H15B     HGA2     0.900000E-01   1.00800           0
      7237 MEMB     79       CHL1     C16      CRL2    -0.180000       12.0110           0
      7238 MEMB     79       CHL1     H16A     HGA2     0.900000E-01   1.00800           0
      7239 MEMB     79       CHL1     H16B     HGA2     0.900000E-01   1.00800           0
      7240 MEMB     79       CHL1     C17      CRL1    -0.900000E-01   12.0110           0
      7241 MEMB     79       CHL1     H17      HGA1     0.900000E-01   1.00800           0
      7242 MEMB     79       CHL1     C13      CRL1     0.000000       12.0110           0
      7243 MEMB     79       CHL1     C18      CTL3    -0.270000       12.0110           0
      7244 MEMB     79       CHL1     H18A     HAL3     0.900000E-01   1.00800           0
      7245 MEMB     79       CHL1     H18B     HAL3     0.900000E-01   1.00800           0
      7246 MEMB     79       CHL1     H18C     HAL3     0.900000E-01   1.00800           0
      7247 MEMB     79       CHL1     C12      CRL2    -0.180000       12.0110           0
      7248 MEMB     79       CHL1     H12A     HGA2     0.900000E-01   1.00800           0
      7249 MEMB     79       CHL1     H12B     HGA2     0.900000E-01   1.00800           0
      7250 MEMB     79       CHL1     C11      CRL2    -0.180000       12.0110           0
      7251 MEMB     79       CHL1     H11A     HGA2     0.900000E-01   1.00800           0
      7252 MEMB     79       CHL1     H11B     HGA2     0.900000E-01   1.00800           0
      7253 MEMB     79       CHL1     C9       CRL1    -0.900000E-01   12.0110           0
      7254 MEMB     79       CHL1     H9       HGA1     0.900000E-01   1.00800           0
      7255 MEMB     79       CHL1     C10      CRL1     0.000000       12.0110           0
      7256 MEMB     79       CHL1     C19      CTL3    -0.270000       12.0110           0
      7257 MEMB     79       CHL1     H19A     HAL3     0.900000E-01   1.00800           0
      7258 MEMB     79       CHL1     H19B     HAL3     0.900000E-01   1.00800           0
      7259 MEMB     79       CHL1     H19C     HAL3     0.900000E-01   1.00800           0
      7260 MEMB     79       CHL1     C1       CRL2    -0.180000       12.0110           0
      7261 MEMB     79       CHL1     H1A      HGA2     0.900000E-01   1.00800           0
      7262 MEMB     79       CHL1     H1B      HGA2     0.900000E-01   1.00800           0
      7263 MEMB     79       CHL1     C2       CRL2    -0.180000       12.0110           0
      7264 MEMB     79       CHL1     H2A      HGA2     0.900000E-01   1.00800           0
      7265 MEMB     79       CHL1     H2B      HGA2     0.900000E-01   1.00800           0
      7266 MEMB     79       CHL1     C20      CTL1    -0.900000E-01   12.0110           0
      7267 MEMB     79       CHL1     H20      HAL1     0.900000E-01   1.00800           0
      7268 MEMB     79       CHL1     C21      CTL3    -0.270000       12.0110           0
      7269 MEMB     79       CHL1     H21A     HAL3     0.900000E-01   1.00800           0
      7270 MEMB     79       CHL1     H21B     HAL3     0.900000E-01   1.00800           0
      7271 MEMB     79       CHL1     H21C     HAL3     0.900000E-01   1.00800           0
      7272 MEMB     79       CHL1     C22      CTL2    -0.180000       12.0110           0
      7273 MEMB     79       CHL1     H22A     HAL2     0.900000E-01   1.00800           0
      7274 MEMB     79       CHL1     H22B     HAL2     0.900000E-01   1.00800           0
      7275 MEMB     79       CHL1     C23      CTL2    -0.180000       12.0110           0
      7276 MEMB     79       CHL1     H23A     HAL2     0.900000E-01   1.00800           0
      7277 MEMB     79       CHL1     H23B     HAL2     0.900000E-01   1.00800           0
      7278 MEMB     79       CHL1     C24      CTL2    -0.180000       12.0110           0
      7279 MEMB     79       CHL1     H24A     HAL2     0.900000E-01   1.00800           0
      7280 MEMB     79       CHL1     H24B     HAL2     0.900000E-01   1.00800           0
      7281 MEMB     79       CHL1     C25      CTL1    -0.900000E-01   12.0110           0
      7282 MEMB     79       CHL1     H25      HAL1     0.900000E-01   1.00800           0
      7283 MEMB     79       CHL1     C26      CTL3    -0.270000       12.0110           0
      7284 MEMB     79       CHL1     H26A     HAL3     0.900000E-01   1.00800           0
      7285 MEMB     79       CHL1     H26B     HAL3     0.900000E-01   1.00800           0
      7286 MEMB     79       CHL1     H26C     HAL3     0.900000E-01   1.00800           0
      7287 MEMB     79       CHL1     C27      CTL3    -0.270000       12.0110           0
      7288 MEMB     79       CHL1     H27A     HAL3     0.900000E-01   1.00800           0
      7289 MEMB     79       CHL1     H27B     HAL3     0.900000E-01   1.00800           0
      7290 MEMB     79       CHL1     H27C     HAL3     0.900000E-01   1.00800           0
      7291 MEMB     83       CHL1     C3       CRL1     0.140000       12.0110           0
      7292 MEMB     83       CHL1     H3       HGA1     0.900000E-01   1.00800           0
      7293 MEMB     83       CHL1     O3       OHL     -0.660000       15.9994           0
      7294 MEMB     83       CHL1     H3'      HOL      0.430000       1.00800           0
      7295 MEMB     83       CHL1     C4       CRL2    -0.180000       12.0110           0
      7296 MEMB     83       CHL1     H4A      HGA2     0.900000E-01   1.00800           0
      7297 MEMB     83       CHL1     H4B      HGA2     0.900000E-01   1.00800           0
      7298 MEMB     83       CHL1     C5       CEL1     0.000000       12.0110           0
      7299 MEMB     83       CHL1     C6       CEL1    -0.150000       12.0110           0
      7300 MEMB     83       CHL1     H6       HEL1     0.150000       1.00800           0
      7301 MEMB     83       CHL1     C7       CRL2    -0.180000       12.0110           0
      7302 MEMB     83       CHL1     H7A      HGA2     0.900000E-01   1.00800           0
      7303 MEMB     83       CHL1     H7B      HGA2     0.900000E-01   1.00800           0
      7304 MEMB     83       CHL1     C8       CRL1    -0.900000E-01   12.0110           0
      7305 MEMB     83       CHL1     H8       HGA1     0.900000E-01   1.00800           0
      7306 MEMB     83       CHL1     C14      CRL1    -0.900000E-01   12.0110           0
      7307 MEMB     83       CHL1     H14      HGA1     0.900000E-01   1.00800           0
      7308 MEMB     83       CHL1     C15      CRL2    -0.180000       12.0110           0
      7309 MEMB     83       CHL1     H15A     HGA2     0.900000E-01   1.00800           0
      7310 MEMB     83       CHL1     H15B     HGA2     0.900000E-01   1.00800           0
      7311 MEMB     83       CHL1     C16      CRL2    -0.180000       12.0110           0
      7312 MEMB     83       CHL1     H16A     HGA2     0.900000E-01   1.00800           0
      7313 MEMB     83       CHL1     H16B     HGA2     0.900000E-01   1.00800           0
      7314 MEMB     83       CHL1     C17      CRL1    -0.900000E-01   12.0110           0
      7315 MEMB     83       CHL1     H17      HGA1     0.900000E-01   1.00800           0
      7316 MEMB     83       CHL1     C13      CRL1     0.000000       12.0110           0
      7317 MEMB     83       CHL1     C18      CTL3    -0.270000       12.0110           0
      7318 MEMB     83       CHL1     H18A     HAL3     0.900000E-01   1.00800           0
      7319 MEMB     83       CHL1     H18B     HAL3     0.900000E-01   1.00800           0
      7320 MEMB     83       CHL1     H18C     HAL3     0.900000E-01   1.00800           0
      7321 MEMB     83       CHL1     C12      CRL2    -0.180000       12.0110           0
      7322 MEMB     83       CHL1     H12A     HGA2     0.900000E-01   1.00800           0
      7323 MEMB     83       CHL1     H12B     HGA2     0.900000E-01   1.00800           0
      7324 MEMB     83       CHL1     C11      CRL2    -0.180000       12.0110           0
      7325 MEMB     83       CHL1     H11A     HGA2     0.900000E-01   1.00800           0
      7326 MEMB     83       CHL1     H11B     HGA2     0.900000E-01   1.00800           0
      7327 MEMB     83       CHL1     C9       CRL1    -0.900000E-01   12.0110           0
      7328 MEMB     83       CHL1     H9       HGA1     0.900000E-01   1.00800           0
      7329 MEMB     83       CHL1     C10      CRL1     0.000000       12.0110           0
      7330 MEMB     83       CHL1     C19      CTL3    -0.270000       12.0110           0
      7331 MEMB     83       CHL1     H19A     HAL3     0.900000E-01   1.00800           0
      7332 MEMB     83       CHL1     H19B     HAL3     0.900000E-01   1.00800           0
      7333 MEMB     83       CHL1     H19C     HAL3     0.900000E-01   1.00800           0
      7334 MEMB     83       CHL1     C1       CRL2    -0.180000       12.0110           0
      7335 MEMB     83       CHL1     H1A      HGA2     0.900000E-01   1.00800           0
      7336 MEMB     83       CHL1     H1B      HGA2     0.900000E-01   1.00800           0
      7337 MEMB     83       CHL1     C2       CRL2    -0.180000       12.0110           0
      7338 MEMB     83       CHL1     H2A      HGA2     0.900000E-01   1.00800           0
      7339 MEMB     83       CHL1     H2B      HGA2     0.900000E-01   1.00800           0
      7340 MEMB     83       CHL1     C20      CTL1    -0.900000E-01   12.0110           0
      7341 MEMB     83       CHL1     H20      HAL1     0.900000E-01   1.00800           0
      7342 MEMB     83       CHL1     C21      CTL3    -0.270000       12.0110           0
      7343 MEMB     83       CHL1     H21A     HAL3     0.900000E-01   1.00800           0
      7344 MEMB     83       CHL1     H21B     HAL3     0.900000E-01   1.00800           0
      7345 MEMB     83       CHL1     H21C     HAL3     0.900000E-01   1.00800           0
      7346 MEMB     83       CHL1     C22      CTL2    -0.180000       12.0110           0
      7347 MEMB     83       CHL1     H22A     HAL2     0.900000E-01   1.00800           0
      7348 MEMB     83       CHL1     H22B     HAL2     0.900000E-01   1.00800           0
      7349 MEMB     83       CHL1     C23      CTL2    -0.180000       12.0110           0
      7350 MEMB     83       CHL1     H23A     HAL2     0.900000E-01   1.00800           0
      7351 MEMB     83       CHL1     H23B     HAL2     0.900000E-01   1.00800           0
      7352 MEMB     83       CHL1     C24      CTL2    -0.180000       12.0110           0
      7353 MEMB     83       CHL1     H24A     HAL2     0.900000E-01   1.00800           0
      7354 MEMB     83       CHL1     H24B     HAL2     0.900000E-01   1.00800           0
      7355 MEMB     83       CHL1     C25      CTL1    -0.900000E-01   12.0110           0
      7356 MEMB     83       CHL1     H25      HAL1     0.900000E-01   1.00800           0
      7357 MEMB     83       CHL1     C26      CTL3    -0.270000       12.0110           0
      7358 MEMB     83       CHL1     H26A     HAL3     0.900000E-01   1.00800           0
      7359 MEMB     83       CHL1     H26B     HAL3     0.900000E-01   1.00800           0
      7360 MEMB     83       CHL1     H26C     HAL3     0.900000E-01   1.00800           0
      7361 MEMB     83       CHL1     C27      CTL3    -0.270000       12.0110           0
      7362 MEMB     83       CHL1     H27A     HAL3     0.900000E-01   1.00800           0
      7363 MEMB     83       CHL1     H27B     HAL3     0.900000E-01   1.00800           0
      7364 MEMB     83       CHL1     H27C     HAL3     0.900000E-01   1.00800           0
      7365 MEMB     87       CHL1     C3       CRL1     0.140000       12.0110           0
      7366 MEMB     87       CHL1     H3       HGA1     0.900000E-01   1.00800           0
      7367 MEMB     87       CHL1     O3       OHL     -0.660000       15.9994           0
      7368 MEMB     87       CHL1     H3'      HOL      0.430000       1.00800           0
      7369 MEMB     87       CHL1     C4       CRL2    -0.180000       12.0110           0
      7370 MEMB     87       CHL1     H4A      HGA2     0.900000E-01   1.00800           0
      7371 MEMB     87       CHL1     H4B      HGA2     0.900000E-01   1.00800           0
      7372 MEMB     87       CHL1     C5       CEL1     0.000000       12.0110           0
      7373 MEMB     87       CHL1     C6       CEL1    -0.150000       12.0110           0
      7374 MEMB     87       CHL1     H6       HEL1     0.150000       1.00800           0
      7375 MEMB     87       CHL1     C7       CRL2    -0.180000       12.0110           0
      7376 MEMB     87       CHL1     H7A      HGA2     0.900000E-01   1.00800           0
      7377 MEMB     87       CHL1     H7B      HGA2     0.900000E-01   1.00800           0
      7378 MEMB     87       CHL1     C8       CRL1    -0.900000E-01   12.0110           0
      7379 MEMB     87       CHL1     H8       HGA1     0.900000E-01   1.00800           0
      7380 MEMB     87       CHL1     C14      CRL1    -0.900000E-01   12.0110           0
      7381 MEMB     87       CHL1     H14      HGA1     0.900000E-01   1.00800           0
      7382 MEMB     87       CHL1     C15      CRL2    -0.180000       12.0110           0
      7383 MEMB     87       CHL1     H15A     HGA2     0.900000E-01   1.00800           0
      7384 MEMB     87       CHL1     H15B     HGA2     0.900000E-01   1.00800           0
      7385 MEMB     87       CHL1     C16      CRL2    -0.180000       12.0110           0
      7386 MEMB     87       CHL1     H16A     HGA2     0.900000E-01   1.00800           0
      7387 MEMB     87       CHL1     H16B     HGA2     0.900000E-01   1.00800           0
      7388 MEMB     87       CHL1     C17      CRL1    -0.900000E-01   12.0110           0
      7389 MEMB     87       CHL1     H17      HGA1     0.900000E-01   1.00800           0
      7390 MEMB     87       CHL1     C13      CRL1     0.000000       12.0110           0
      7391 MEMB     87       CHL1     C18      CTL3    -0.270000       12.0110           0
      7392 MEMB     87       CHL1     H18A     HAL3     0.900000E-01   1.00800           0
      7393 MEMB     87       CHL1     H18B     HAL3     0.900000E-01   1.00800           0
      7394 MEMB     87       CHL1     H18C     HAL3     0.900000E-01   1.00800           0
      7395 MEMB     87       CHL1     C12      CRL2    -0.180000       12.0110           0
      7396 MEMB     87       CHL1     H12A     HGA2     0.900000E-01   1.00800           0
      7397 MEMB     87       CHL1     H12B     HGA2     0.900000E-01   1.00800           0
      7398 MEMB     87       CHL1     C11      CRL2    -0.180000       12.0110           0
      7399 MEMB     87       CHL1     H11A     HGA2     0.900000E-01   1.00800           0
      7400 MEMB     87       CHL1     H11B     HGA2     0.900000E-01   1.00800           0
      7401 MEMB     87       CHL1     C9       CRL1    -0.900000E-01   12.0110           0
      7402 MEMB     87       CHL1     H9       HGA1     0.900000E-01   1.00800           0
      7403 MEMB     87       CHL1     C10      CRL1     0.000000       12.0110           0
      7404 MEMB     87       CHL1     C19      CTL3    -0.270000       12.0110           0
      7405 MEMB     87       CHL1     H19A     HAL3     0.900000E-01   1.00800           0
      7406 MEMB     87       CHL1     H19B     HAL3     0.900000E-01   1.00800           0
      7407 MEMB     87       CHL1     H19C     HAL3     0.900000E-01   1.00800           0
      7408 MEMB     87       CHL1     C1       CRL2    -0.180000       12.0110           0
      7409 MEMB     87       CHL1     H1A      HGA2     0.900000E-01   1.00800           0
      7410 MEMB     87       CHL1     H1B      HGA2     0.900000E-01   1.00800           0
      7411 MEMB     87       CHL1     C2       CRL2    -0.180000       12.0110           0
      7412 MEMB     87       CHL1     H2A      HGA2     0.900000E-01   1.00800           0
      7413 MEMB     87       CHL1     H2B      HGA2     0.900000E-01   1.00800           0
      7414 MEMB     87       CHL1     C20      CTL1    -0.900000E-01   12.0110           0
      7415 MEMB     87       CHL1     H20      HAL1     0.900000E-01   1.00800           0
      7416 MEMB     87       CHL1     C21      CTL3    -0.270000       12.0110           0
      7417 MEMB     87       CHL1     H21A     HAL3     0.900000E-01   1.00800           0
      7418 MEMB     87       CHL1     H21B     HAL3     0.900000E-01   1.00800           0
      7419 MEMB     87       CHL1     H21C     HAL3     0.900000E-01   1.00800           0
      7420 MEMB     87       CHL1     C22      CTL2    -0.180000       12.0110           0
      7421 MEMB     87       CHL1     H22A     HAL2     0.900000E-01   1.00800           0
      7422 MEMB     87       CHL1     H22B     HAL2     0.900000E-01   1.00800           0
      7423 MEMB     87       CHL1     C23      CTL2    -0.180000       12.0110           0
      7424 MEMB     87       CHL1     H23A     HAL2     0.900000E-01   1.00800           0
      7425 MEMB     87       CHL1     H23B     HAL2     0.900000E-01   1.00800           0
      7426 MEMB     87       CHL1     C24      CTL2    -0.180000       12.0110           0
      7427 MEMB     87       CHL1     H24A     HAL2     0.900000E-01   1.00800           0
      7428 MEMB     87       CHL1     H24B     HAL2     0.900000E-01   1.00800           0
      7429 MEMB     87       CHL1     C25      CTL1    -0.900000E-01   12.0110           0
      7430 MEMB     87       CHL1     H25      HAL1     0.900000E-01   1.00800           0
      7431 MEMB     87       CHL1     C26      CTL3    -0.270000       12.0110           0
      7432 MEMB     87       CHL1     H26A     HAL3     0.900000E-01   1.00800           0
      7433 MEMB     87       CHL1     H26B     HAL3     0.900000E-01   1.00800           0
      7434 MEMB     87       CHL1     H26C     HAL3     0.900000E-01   1.00800           0
      7435 MEMB     87       CHL1     C27      CTL3    -0.270000       12.0110           0
      7436 MEMB     87       CHL1     H27A     HAL3     0.900000E-01   1.00800           0
      7437 MEMB     87       CHL1     H27B     HAL3     0.900000E-01   1.00800           0
      7438 MEMB     87       CHL1     H27C     HAL3     0.900000E-01   1.00800           0
      7439 MEMB     91       CHL1     C3       CRL1     0.140000       12.0110           0
      7440 MEMB     91       CHL1     H3       HGA1     0.900000E-01   1.00800           0
      7441 MEMB     91       CHL1     O3       OHL     -0.660000       15.9994           0
      7442 MEMB     91       CHL1     H3'      HOL      0.430000       1.00800           0
      7443 MEMB     91       CHL1     C4       CRL2    -0.180000       12.0110           0
      7444 MEMB     91       CHL1     H4A      HGA2     0.900000E-01   1.00800           0
      7445 MEMB     91       CHL1     H4B      HGA2     0.900000E-01   1.00800           0
      7446 MEMB     91       CHL1     C5       CEL1     0.000000       12.0110           0
      7447 MEMB     91       CHL1     C6       CEL1    -0.150000       12.0110           0
      7448 MEMB     91       CHL1     H6       HEL1     0.150000       1.00800           0
      7449 MEMB     91       CHL1     C7       CRL2    -0.180000       12.0110           0
      7450 MEMB     91       CHL1     H7A      HGA2     0.900000E-01   1.00800           0
      7451 MEMB     91       CHL1     H7B      HGA2     0.900000E-01   1.00800           0
      7452 MEMB     91       CHL1     C8       CRL1    -0.900000E-01   12.0110           0
      7453 MEMB     91       CHL1     H8       HGA1     0.900000E-01   1.00800           0
      7454 MEMB     91       CHL1     C14      CRL1    -0.900000E-01   12.0110           0
      7455 MEMB     91       CHL1     H14      HGA1     0.900000E-01   1.00800           0
      7456 MEMB     91       CHL1     C15      CRL2    -0.180000       12.0110           0
      7457 MEMB     91       CHL1     H15A     HGA2     0.900000E-01   1.00800           0
      7458 MEMB     91       CHL1     H15B     HGA2     0.900000E-01   1.00800           0
      7459 MEMB     91       CHL1     C16      CRL2    -0.180000       12.0110           0
      7460 MEMB     91       CHL1     H16A     HGA2     0.900000E-01   1.00800           0
      7461 MEMB     91       CHL1     H16B     HGA2     0.900000E-01   1.00800           0
      7462 MEMB     91       CHL1     C17      CRL1    -0.900000E-01   12.0110           0
      7463 MEMB     91       CHL1     H17      HGA1     0.900000E-01   1.00800           0
      7464 MEMB     91       CHL1     C13      CRL1     0.000000       12.0110           0
      7465 MEMB     91       CHL1     C18      CTL3    -0.270000       12.0110           0
      7466 MEMB     91       CHL1     H18A     HAL3     0.900000E-01   1.00800           0
      7467 MEMB     91       CHL1     H18B     HAL3     0.900000E-01   1.00800           0
      7468 MEMB     91       CHL1     H18C     HAL3     0.900000E-01   1.00800           0
      7469 MEMB     91       CHL1     C12      CRL2    -0.180000       12.0110           0
      7470 MEMB     91       CHL1     H12A     HGA2     0.900000E-01   1.00800           0
      7471 MEMB     91       CHL1     H12B     HGA2     0.900000E-01   1.00800           0
      7472 MEMB     91       CHL1     C11      CRL2    -0.180000       12.0110           0
      7473 MEMB     91       CHL1     H11A     HGA2     0.900000E-01   1.00800           0
      7474 MEMB     91       CHL1     H11B     HGA2     0.900000E-01   1.00800           0
      7475 MEMB     91       CHL1     C9       CRL1    -0.900000E-01   12.0110           0
      7476 MEMB     91       CHL1     H9       HGA1     0.900000E-01   1.00800           0
      7477 MEMB     91       CHL1     C10      CRL1     0.000000       12.0110           0
      7478 MEMB     91       CHL1     C19      CTL3    -0.270000       12.0110           0
      7479 MEMB     91       CHL1     H19A     HAL3     0.900000E-01   1.00800           0
      7480 MEMB     91       CHL1     H19B     HAL3     0.900000E-01   1.00800           0
      7481 MEMB     91       CHL1     H19C     HAL3     0.900000E-01   1.00800           0
      7482 MEMB     91       CHL1     C1       CRL2    -0.180000       12.0110           0
      7483 MEMB     91       CHL1     H1A      HGA2     0.900000E-01   1.00800           0
      7484 MEMB     91       CHL1     H1B      HGA2     0.900000E-01   1.00800           0
      7485 MEMB     91       CHL1     C2       CRL2    -0.180000       12.0110           0
      7486 MEMB     91       CHL1     H2A      HGA2     0.900000E-01   1.00800           0
      7487 MEMB     91       CHL1     H2B      HGA2     0.900000E-01   1.00800           0
      7488 MEMB     91       CHL1     C20      CTL1    -0.900000E-01   12.0110           0
      7489 MEMB     91       CHL1     H20      HAL1     0.900000E-01   1.00800           0
      7490 MEMB     91       CHL1     C21      CTL3    -0.270000       12.0110           0
      7491 MEMB     91       CHL1     H21A     HAL3     0.900000E-01   1.00800           0
      7492 MEMB     91       CHL1     H21B     HAL3     0.900000E-01   1.00800           0
      7493 MEMB     91       CHL1     H21C     HAL3     0.900000E-01   1.00800           0
      7494 MEMB     91       CHL1     C22      CTL2    -0.180000       12.0110           0
      7495 MEMB     91       CHL1     H22A     HAL2     0.900000E-01   1.00800           0
      7496 MEMB     91       CHL1     H22B     HAL2     0.900000E-01   1.00800           0
      7497 MEMB     91       CHL1     C23      CTL2    -0.180000       12.0110           0
      7498 MEMB     91       CHL1     H23A     HAL2     0.900000E-01   1.00800           0
      7499 MEMB     91       CHL1     H23B     HAL2     0.900000E-01   1.00800           0
      7500 MEMB     91       CHL1     C24      CTL2    -0.180000       12.0110           0
      7501 MEMB     91       CHL1     H24A     HAL2     0.900000E-01   1.00800           0
      7502 MEMB     91       CHL1     H24B     HAL2     0.900000E-01   1.00800           0
      7503 MEMB     91       CHL1     C25      CTL1    -0.900000E-01   12.0110           0
      7504 MEMB     91       CHL1     H25      HAL1     0.900000E-01   1.00800           0
      7505 MEMB     91       CHL1     C26      CTL3    -0.270000       12.0110           0
      7506 MEMB     91       CHL1     H26A     HAL3     0.900000E-01   1.00800           0
      7507 MEMB     91       CHL1     H26B     HAL3     0.900000E-01   1.00800           0
      7508 MEMB     91       CHL1     H26C     HAL3     0.900000E-01   1.00800           0
      7509 MEMB     91       CHL1     C27      CTL3    -0.270000       12.0110           0
      7510 MEMB     91       CHL1     H27A     HAL3     0.900000E-01   1.00800           0
      7511 MEMB     91       CHL1     H27B     HAL3     0.900000E-01   1.00800           0
      7512 MEMB     91       CHL1     H27C     HAL3     0.900000E-01   1.00800           0
      7513 MEMB     104      CHL1     C3       CRL1     0.140000       12.0110           0
      7514 MEMB     104      CHL1     H3       HGA1     0.900000E-01   1.00800           0
      7515 MEMB     104      CHL1     O3       OHL     -0.660000       15.9994           0
      7516 MEMB     104      CHL1     H3'      HOL      0.430000       1.00800           0
      7517 MEMB     104      CHL1     C4       CRL2    -0.180000       12.0110           0
      7518 MEMB     104      CHL1     H4A      HGA2     0.900000E-01   1.00800           0
      7519 MEMB     104      CHL1     H4B      HGA2     0.900000E-01   1.00800           0
      7520 MEMB     104      CHL1     C5       CEL1     0.000000       12.0110           0
      7521 MEMB     104      CHL1     C6       CEL1    -0.150000       12.0110           0
      7522 MEMB     104      CHL1     H6       HEL1     0.150000       1.00800           0
      7523 MEMB     104      CHL1     C7       CRL2    -0.180000       12.0110           0
      7524 MEMB     104      CHL1     H7A      HGA2     0.900000E-01   1.00800           0
      7525 MEMB     104      CHL1     H7B      HGA2     0.900000E-01   1.00800           0
      7526 MEMB     104      CHL1     C8       CRL1    -0.900000E-01   12.0110           0
      7527 MEMB     104      CHL1     H8       HGA1     0.900000E-01   1.00800           0
      7528 MEMB     104      CHL1     C14      CRL1    -0.900000E-01   12.0110           0
      7529 MEMB     104      CHL1     H14      HGA1     0.900000E-01   1.00800           0
      7530 MEMB     104      CHL1     C15      CRL2    -0.180000       12.0110           0
      7531 MEMB     104      CHL1     H15A     HGA2     0.900000E-01   1.00800           0
      7532 MEMB     104      CHL1     H15B     HGA2     0.900000E-01   1.00800           0
      7533 MEMB     104      CHL1     C16      CRL2    -0.180000       12.0110           0
      7534 MEMB     104      CHL1     H16A     HGA2     0.900000E-01   1.00800           0
      7535 MEMB     104      CHL1     H16B     HGA2     0.900000E-01   1.00800           0
      7536 MEMB     104      CHL1     C17      CRL1    -0.900000E-01   12.0110           0
      7537 MEMB     104      CHL1     H17      HGA1     0.900000E-01   1.00800           0
      7538 MEMB     104      CHL1     C13      CRL1     0.000000       12.0110           0
      7539 MEMB     104      CHL1     C18      CTL3    -0.270000       12.0110           0
      7540 MEMB     104      CHL1     H18A     HAL3     0.900000E-01   1.00800           0
      7541 MEMB     104      CHL1     H18B     HAL3     0.900000E-01   1.00800           0
      7542 MEMB     104      CHL1     H18C     HAL3     0.900000E-01   1.00800           0
      7543 MEMB     104      CHL1     C12      CRL2    -0.180000       12.0110           0
      7544 MEMB     104      CHL1     H12A     HGA2     0.900000E-01   1.00800           0
      7545 MEMB     104      CHL1     H12B     HGA2     0.900000E-01   1.00800           0
      7546 MEMB     104      CHL1     C11      CRL2    -0.180000       12.0110           0
      7547 MEMB     104      CHL1     H11A     HGA2     0.900000E-01   1.00800           0
      7548 MEMB     104      CHL1     H11B     HGA2     0.900000E-01   1.00800           0
      7549 MEMB     104      CHL1     C9       CRL1    -0.900000E-01   12.0110           0
      7550 MEMB     104      CHL1     H9       HGA1     0.900000E-01   1.00800           0
      7551 MEMB     104      CHL1     C10      CRL1     0.000000       12.0110           0
      7552 MEMB     104      CHL1     C19      CTL3    -0.270000       12.0110           0
      7553 MEMB     104      CHL1     H19A     HAL3     0.900000E-01   1.00800           0
      7554 MEMB     104      CHL1     H19B     HAL3     0.900000E-01   1.00800           0
      7555 MEMB     104      CHL1     H19C     HAL3     0.900000E-01   1.00800           0
      7556 MEMB     104      CHL1     C1       CRL2    -0.180000       12.0110           0
      7557 MEMB     104      CHL1     H1A      HGA2     0.900000E-01   1.00800           0
      7558 MEMB     104      CHL1     H1B      HGA2     0.900000E-01   1.00800           0
      7559 MEMB     104      CHL1     C2       CRL2    -0.180000       12.0110           0
      7560 MEMB     104      CHL1     H2A      HGA2     0.900000E-01   1.00800           0
      7561 MEMB     104      CHL1     H2B      HGA2     0.900000E-01   1.00800           0
      7562 MEMB     104      CHL1     C20      CTL1    -0.900000E-01   12.0110           0
      7563 MEMB     104      CHL1     H20      HAL1     0.900000E-01   1.00800           0
      7564 MEMB     104      CHL1     C21      CTL3    -0.270000       12.0110           0
      7565 MEMB     104      CHL1     H21A     HAL3     0.900000E-01   1.00800           0
      7566 MEMB     104      CHL1     H21B     HAL3     0.900000E-01   1.00800           0
      7567 MEMB     104      CHL1     H21C     HAL3     0.900000E-01   1.00800           0
      7568 MEMB     104      CHL1     C22      CTL2    -0.180000       12.0110           0
      7569 MEMB     104      CHL1     H22A     HAL2     0.900000E-01   1.00800           0
      7570 MEMB     104      CHL1     H22B     HAL2     0.900000E-01   1.00800           0
      7571 MEMB     104      CHL1     C23      CTL2    -0.180000       12.0110           0
      7572 MEMB     104      CHL1     H23A     HAL2     0.900000E-01   1.00800           0
      7573 MEMB     104      CHL1     H23B     HAL2     0.900000E-01   1.00800           0
      7574 MEMB     104      CHL1     C24      CTL2    -0.180000       12.0110           0
      7575 MEMB     104      CHL1     H24A     HAL2     0.900000E-01   1.00800           0
      7576 MEMB     104      CHL1     H24B     HAL2     0.900000E-01   1.00800           0
      7577 MEMB     104      CHL1     C25      CTL1    -0.900000E-01   12.0110           0
      7578 MEMB     104      CHL1     H25      HAL1     0.900000E-01   1.00800           0
      7579 MEMB     104      CHL1     C26      CTL3    -0.270000       12.0110           0
      7580 MEMB     104      CHL1     H26A     HAL3     0.900000E-01   1.00800           0
      7581 MEMB     104      CHL1     H26B     HAL3     0.900000E-01   1.00800           0
      7582 MEMB     104      CHL1     H26C     HAL3     0.900000E-01   1.00800           0
      7583 MEMB     104      CHL1     C27      CTL3    -0.270000       12.0110           0
      7584 MEMB     104      CHL1     H27A     HAL3     0.900000E-01   1.00800           0
      7585 MEMB     104      CHL1     H27B     HAL3     0.900000E-01   1.00800           0
      7586 MEMB     104      CHL1     H27C     HAL3     0.900000E-01   1.00800           0
      7587 MEMB     105      CHL1     C3       CRL1     0.140000       12.0110           0
      7588 MEMB     105      CHL1     H3       HGA1     0.900000E-01   1.00800           0
      7589 MEMB     105      CHL1     O3       OHL     -0.660000       15.9994           0
      7590 MEMB     105      CHL1     H3'      HOL      0.430000       1.00800           0
      7591 MEMB     105      CHL1     C4       CRL2    -0.180000       12.0110           0
      7592 MEMB     105      CHL1     H4A      HGA2     0.900000E-01   1.00800           0
      7593 MEMB     105      CHL1     H4B      HGA2     0.900000E-01   1.00800           0
      7594 MEMB     105      CHL1     C5       CEL1     0.000000       12.0110           0
      7595 MEMB     105      CHL1     C6       CEL1    -0.150000       12.0110           0
      7596 MEMB     105      CHL1     H6       HEL1     0.150000       1.00800           0
      7597 MEMB     105      CHL1     C7       CRL2    -0.180000       12.0110           0
      7598 MEMB     105      CHL1     H7A      HGA2     0.900000E-01   1.00800           0
      7599 MEMB     105      CHL1     H7B      HGA2     0.900000E-01   1.00800           0
      7600 MEMB     105      CHL1     C8       CRL1    -0.900000E-01   12.0110           0
      7601 MEMB     105      CHL1     H8       HGA1     0.900000E-01   1.00800           0
      7602 MEMB     105      CHL1     C14      CRL1    -0.900000E-01   12.0110           0
      7603 MEMB     105      CHL1     H14      HGA1     0.900000E-01   1.00800           0
      7604 MEMB     105      CHL1     C15      CRL2    -0.180000       12.0110           0
      7605 MEMB     105      CHL1     H15A     HGA2     0.900000E-01   1.00800           0
      7606 MEMB     105      CHL1     H15B     HGA2     0.900000E-01   1.00800           0
      7607 MEMB     105      CHL1     C16      CRL2    -0.180000       12.0110           0
      7608 MEMB     105      CHL1     H16A     HGA2     0.900000E-01   1.00800           0
      7609 MEMB     105      CHL1     H16B     HGA2     0.900000E-01   1.00800           0
      7610 MEMB     105      CHL1     C17      CRL1    -0.900000E-01   12.0110           0
      7611 MEMB     105      CHL1     H17      HGA1     0.900000E-01   1.00800           0
      7612 MEMB     105      CHL1     C13      CRL1     0.000000       12.0110           0
      7613 MEMB     105      CHL1     C18      CTL3    -0.270000       12.0110           0
      7614 MEMB     105      CHL1     H18A     HAL3     0.900000E-01   1.00800           0
      7615 MEMB     105      CHL1     H18B     HAL3     0.900000E-01   1.00800           0
      7616 MEMB     105      CHL1     H18C     HAL3     0.900000E-01   1.00800           0
      7617 MEMB     105      CHL1     C12      CRL2    -0.180000       12.0110           0
      7618 MEMB     105      CHL1     H12A     HGA2     0.900000E-01   1.00800           0
      7619 MEMB     105      CHL1     H12B     HGA2     0.900000E-01   1.00800           0
      7620 MEMB     105      CHL1     C11      CRL2    -0.180000       12.0110           0
      7621 MEMB     105      CHL1     H11A     HGA2     0.900000E-01   1.00800           0
      7622 MEMB     105      CHL1     H11B     HGA2     0.900000E-01   1.00800           0
      7623 MEMB     105      CHL1     C9       CRL1    -0.900000E-01   12.0110           0
      7624 MEMB     105      CHL1     H9       HGA1     0.900000E-01   1.00800           0
      7625 MEMB     105      CHL1     C10      CRL1     0.000000       12.0110           0
      7626 MEMB     105      CHL1     C19      CTL3    -0.270000       12.0110           0
      7627 MEMB     105      CHL1     H19A     HAL3     0.900000E-01   1.00800           0
      7628 MEMB     105      CHL1     H19B     HAL3     0.900000E-01   1.00800           0
      7629 MEMB     105      CHL1     H19C     HAL3     0.900000E-01   1.00800           0
      7630 MEMB     105      CHL1     C1       CRL2    -0.180000       12.0110           0
      7631 MEMB     105      CHL1     H1A      HGA2     0.900000E-01   1.00800           0
      7632 MEMB     105      CHL1     H1B      HGA2     0.900000E-01   1.00800           0
      7633 MEMB     105      CHL1     C2       CRL2    -0.180000       12.0110           0
      7634 MEMB     105      CHL1     H2A      HGA2     0.900000E-01   1.00800           0
      7635 MEMB     105      CHL1     H2B      HGA2     0.900000E-01   1.00800           0
      7636 MEMB     105      CHL1     C20      CTL1    -0.900000E-01   12.0110           0
      7637 MEMB     105      CHL1     H20      HAL1     0.900000E-01   1.00800           0
      7638 MEMB     105      CHL1     C21      CTL3    -0.270000       12.0110           0
      7639 MEMB     105      CHL1     H21A     HAL3     0.900000E-01   1.00800           0
      7640 MEMB     105      CHL1     H21B     HAL3     0.900000E-01   1.00800           0
      7641 MEMB     105      CHL1     H21C     HAL3     0.900000E-01   1.00800           0
      7642 MEMB     105      CHL1     C22      CTL2    -0.180000       12.0110           0
      7643 MEMB     105      CHL1     H22A     HAL2     0.900000E-01   1.00800           0
      7644 MEMB     105      CHL1     H22B     HAL2     0.900000E-01   1.00800           0
      7645 MEMB     105      CHL1     C23      CTL2    -0.180000       12.0110           0
      7646 MEMB     105      CHL1     H23A     HAL2     0.900000E-01   1.00800           0
      7647 MEMB     105      CHL1     H23B     HAL2     0.900000E-01   1.00800           0
      7648 MEMB     105      CHL1     C24      CTL2    -0.180000       12.0110           0
      7649 MEMB     105      CHL1     H24A     HAL2     0.900000E-01   1.00800           0
      7650 MEMB     105      CHL1     H24B     HAL2     0.900000E-01   1.00800           0
      7651 MEMB     105      CHL1     C25      CTL1    -0.900000E-01   12.0110           0
      7652 MEMB     105      CHL1     H25      HAL1     0.900000E-01   1.00800           0
      7653 MEMB     105      CHL1     C26      CTL3    -0.270000       12.0110           0
      7654 MEMB     105      CHL1     H26A     HAL3     0.900000E-01   1.00800           0
      7655 MEMB     105      CHL1     H26B     HAL3     0.900000E-01   1.00800           0
      7656 MEMB     105      CHL1     H26C     HAL3     0.900000E-01   1.00800           0
      7657 MEMB     105      CHL1     C27      CTL3    -0.270000       12.0110           0
      7658 MEMB     105      CHL1     H27A     HAL3     0.900000E-01   1.00800           0
      7659 MEMB     105      CHL1     H27B     HAL3     0.900000E-01   1.00800           0
      7660 MEMB     105      CHL1     H27C     HAL3     0.900000E-01   1.00800           0
      7661 MEMB     107      CHL1     C3       CRL1     0.140000       12.0110           0
      7662 MEMB     107      CHL1     H3       HGA1     0.900000E-01   1.00800           0
      7663 MEMB     107      CHL1     O3       OHL     -0.660000       15.9994           0
      7664 MEMB     107      CHL1     H3'      HOL      0.430000       1.00800           0
      7665 MEMB     107      CHL1     C4       CRL2    -0.180000       12.0110           0
      7666 MEMB     107      CHL1     H4A      HGA2     0.900000E-01   1.00800           0
      7667 MEMB     107      CHL1     H4B      HGA2     0.900000E-01   1.00800           0
      7668 MEMB     107      CHL1     C5       CEL1     0.000000       12.0110           0
      7669 MEMB     107      CHL1     C6       CEL1    -0.150000       12.0110           0
      7670 MEMB     107      CHL1     H6       HEL1     0.150000       1.00800           0
      7671 MEMB     107      CHL1     C7       CRL2    -0.180000       12.0110           0
      7672 MEMB     107      CHL1     H7A      HGA2     0.900000E-01   1.00800           0
      7673 MEMB     107      CHL1     H7B      HGA2     0.900000E-01   1.00800           0
      7674 MEMB     107      CHL1     C8       CRL1    -0.900000E-01   12.0110           0
      7675 MEMB     107      CHL1     H8       HGA1     0.900000E-01   1.00800           0
      7676 MEMB     107      CHL1     C14      CRL1    -0.900000E-01   12.0110           0
      7677 MEMB     107      CHL1     H14      HGA1     0.900000E-01   1.00800           0
      7678 MEMB     107      CHL1     C15      CRL2    -0.180000       12.0110           0
      7679 MEMB     107      CHL1     H15A     HGA2     0.900000E-01   1.00800           0
      7680 MEMB     107      CHL1     H15B     HGA2     0.900000E-01   1.00800           0
      7681 MEMB     107      CHL1     C16      CRL2    -0.180000       12.0110           0
      7682 MEMB     107      CHL1     H16A     HGA2     0.900000E-01   1.00800           0
      7683 MEMB     107      CHL1     H16B     HGA2     0.900000E-01   1.00800           0
      7684 MEMB     107      CHL1     C17      CRL1    -0.900000E-01   12.0110           0
      7685 MEMB     107      CHL1     H17      HGA1     0.900000E-01   1.00800           0
      7686 MEMB     107      CHL1     C13      CRL1     0.000000       12.0110           0
      7687 MEMB     107      CHL1     C18      CTL3    -0.270000       12.0110           0
      7688 MEMB     107      CHL1     H18A     HAL3     0.900000E-01   1.00800           0
      7689 MEMB     107      CHL1     H18B     HAL3     0.900000E-01   1.00800           0
      7690 MEMB     107      CHL1     H18C     HAL3     0.900000E-01   1.00800           0
      7691 MEMB     107      CHL1     C12      CRL2    -0.180000       12.0110           0
      7692 MEMB     107      CHL1     H12A     HGA2     0.900000E-01   1.00800           0
      7693 MEMB     107      CHL1     H12B     HGA2     0.900000E-01   1.00800           0
      7694 MEMB     107      CHL1     C11      CRL2    -0.180000       12.0110           0
      7695 MEMB     107      CHL1     H11A     HGA2     0.900000E-01   1.00800           0
      7696 MEMB     107      CHL1     H11B     HGA2     0.900000E-01   1.00800           0
      7697 MEMB     107      CHL1     C9       CRL1    -0.900000E-01   12.0110           0
      7698 MEMB     107      CHL1     H9       HGA1     0.900000E-01   1.00800           0
      7699 MEMB     107      CHL1     C10      CRL1     0.000000       12.0110           0
      7700 MEMB     107      CHL1     C19      CTL3    -0.270000       12.0110           0
      7701 MEMB     107      CHL1     H19A     HAL3     0.900000E-01   1.00800           0
      7702 MEMB     107      CHL1     H19B     HAL3     0.900000E-01   1.00800           0
      7703 MEMB     107      CHL1     H19C     HAL3     0.900000E-01   1.00800           0
      7704 MEMB     107      CHL1     C1       CRL2    -0.180000       12.0110           0
      7705 MEMB     107      CHL1     H1A      HGA2     0.900000E-01   1.00800           0
      7706 MEMB     107      CHL1     H1B      HGA2     0.900000E-01   1.00800           0
      7707 MEMB     107      CHL1     C2       CRL2    -0.180000       12.0110           0
      7708 MEMB     107      CHL1     H2A      HGA2     0.900000E-01   1.00800           0
      7709 MEMB     107      CHL1     H2B      HGA2     0.900000E-01   1.00800           0
      7710 MEMB     107      CHL1     C20      CTL1    -0.900000E-01   12.0110           0
      7711 MEMB     107      CHL1     H20      HAL1     0.900000E-01   1.00800           0
      7712 MEMB     107      CHL1     C21      CTL3    -0.270000       12.0110           0
      7713 MEMB     107      CHL1     H21A     HAL3     0.900000E-01   1.00800           0
      7714 MEMB     107      CHL1     H21B     HAL3     0.900000E-01   1.00800           0
      7715 MEMB     107      CHL1     H21C     HAL3     0.900000E-01   1.00800           0
      7716 MEMB     107      CHL1     C22      CTL2    -0.180000       12.0110           0
      7717 MEMB     107      CHL1     H22A     HAL2     0.900000E-01   1.00800           0
      7718 MEMB     107      CHL1     H22B     HAL2     0.900000E-01   1.00800           0
      7719 MEMB     107      CHL1     C23      CTL2    -0.180000       12.0110           0
      7720 MEMB     107      CHL1     H23A     HAL2     0.900000E-01   1.00800           0
      7721 MEMB     107      CHL1     H23B     HAL2     0.900000E-01   1.00800           0
      7722 MEMB     107      CHL1     C24      CTL2    -0.180000       12.0110           0
      7723 MEMB     107      CHL1     H24A     HAL2     0.900000E-01   1.00800           0
      7724 MEMB     107      CHL1     H24B     HAL2     0.900000E-01   1.00800           0
      7725 MEMB     107      CHL1     C25      CTL1    -0.900000E-01   12.0110           0
      7726 MEMB     107      CHL1     H25      HAL1     0.900000E-01   1.00800           0
      7727 MEMB     107      CHL1     C26      CTL3    -0.270000       12.0110           0
      7728 MEMB     107      CHL1     H26A     HAL3     0.900000E-01   1.00800           0
      7729 MEMB     107      CHL1     H26B     HAL3     0.900000E-01   1.00800           0
      7730 MEMB     107      CHL1     H26C     HAL3     0.900000E-01   1.00800           0
      7731 MEMB     107      CHL1     C27      CTL3    -0.270000       12.0110           0
      7732 MEMB     107      CHL1     H27A     HAL3     0.900000E-01   1.00800           0
      7733 MEMB     107      CHL1     H27B     HAL3     0.900000E-01   1.00800           0
      7734 MEMB     107      CHL1     H27C     HAL3     0.900000E-01   1.00800           0
      7735 MEMB     110      CHL1     C3       CRL1     0.140000       12.0110           0
      7736 MEMB     110      CHL1     H3       HGA1     0.900000E-01   1.00800           0
      7737 MEMB     110      CHL1     O3       OHL     -0.660000       15.9994           0
      7738 MEMB     110      CHL1     H3'      HOL      0.430000       1.00800           0
      7739 MEMB     110      CHL1     C4       CRL2    -0.180000       12.0110           0
      7740 MEMB     110      CHL1     H4A      HGA2     0.900000E-01   1.00800           0
      7741 MEMB     110      CHL1     H4B      HGA2     0.900000E-01   1.00800           0
      7742 MEMB     110      CHL1     C5       CEL1     0.000000       12.0110           0
      7743 MEMB     110      CHL1     C6       CEL1    -0.150000       12.0110           0
      7744 MEMB     110      CHL1     H6       HEL1     0.150000       1.00800           0
      7745 MEMB     110      CHL1     C7       CRL2    -0.180000       12.0110           0
      7746 MEMB     110      CHL1     H7A      HGA2     0.900000E-01   1.00800           0
      7747 MEMB     110      CHL1     H7B      HGA2     0.900000E-01   1.00800           0
      7748 MEMB     110      CHL1     C8       CRL1    -0.900000E-01   12.0110           0
      7749 MEMB     110      CHL1     H8       HGA1     0.900000E-01   1.00800           0
      7750 MEMB     110      CHL1     C14      CRL1    -0.900000E-01   12.0110           0
      7751 MEMB     110      CHL1     H14      HGA1     0.900000E-01   1.00800           0
      7752 MEMB     110      CHL1     C15      CRL2    -0.180000       12.0110           0
      7753 MEMB     110      CHL1     H15A     HGA2     0.900000E-01   1.00800           0
      7754 MEMB     110      CHL1     H15B     HGA2     0.900000E-01   1.00800           0
      7755 MEMB     110      CHL1     C16      CRL2    -0.180000       12.0110           0
      7756 MEMB     110      CHL1     H16A     HGA2     0.900000E-01   1.00800           0
      7757 MEMB     110      CHL1     H16B     HGA2     0.900000E-01   1.00800           0
      7758 MEMB     110      CHL1     C17      CRL1    -0.900000E-01   12.0110           0
      7759 MEMB     110      CHL1     H17      HGA1     0.900000E-01   1.00800           0
      7760 MEMB     110      CHL1     C13      CRL1     0.000000       12.0110           0
      7761 MEMB     110      CHL1     C18      CTL3    -0.270000       12.0110           0
      7762 MEMB     110      CHL1     H18A     HAL3     0.900000E-01   1.00800           0
      7763 MEMB     110      CHL1     H18B     HAL3     0.900000E-01   1.00800           0
      7764 MEMB     110      CHL1     H18C     HAL3     0.900000E-01   1.00800           0
      7765 MEMB     110      CHL1     C12      CRL2    -0.180000       12.0110           0
      7766 MEMB     110      CHL1     H12A     HGA2     0.900000E-01   1.00800           0
      7767 MEMB     110      CHL1     H12B     HGA2     0.900000E-01   1.00800           0
      7768 MEMB     110      CHL1     C11      CRL2    -0.180000       12.0110           0
      7769 MEMB     110      CHL1     H11A     HGA2     0.900000E-01   1.00800           0
      7770 MEMB     110      CHL1     H11B     HGA2     0.900000E-01   1.00800           0
      7771 MEMB     110      CHL1     C9       CRL1    -0.900000E-01   12.0110           0
      7772 MEMB     110      CHL1     H9       HGA1     0.900000E-01   1.00800           0
      7773 MEMB     110      CHL1     C10      CRL1     0.000000       12.0110           0
      7774 MEMB     110      CHL1     C19      CTL3    -0.270000       12.0110           0
      7775 MEMB     110      CHL1     H19A     HAL3     0.900000E-01   1.00800           0
      7776 MEMB     110      CHL1     H19B     HAL3     0.900000E-01   1.00800           0
      7777 MEMB     110      CHL1     H19C     HAL3     0.900000E-01   1.00800           0
      7778 MEMB     110      CHL1     C1       CRL2    -0.180000       12.0110           0
      7779 MEMB     110      CHL1     H1A      HGA2     0.900000E-01   1.00800           0
      7780 MEMB     110      CHL1     H1B      HGA2     0.900000E-01   1.00800           0
      7781 MEMB     110      CHL1     C2       CRL2    -0.180000       12.0110           0
      7782 MEMB     110      CHL1     H2A      HGA2     0.900000E-01   1.00800           0
      7783 MEMB     110      CHL1     H2B      HGA2     0.900000E-01   1.00800           0
      7784 MEMB     110      CHL1     C20      CTL1    -0.900000E-01   12.0110           0
      7785 MEMB     110      CHL1     H20      HAL1     0.900000E-01   1.00800           0
      7786 MEMB     110      CHL1     C21      CTL3    -0.270000       12.0110           0
      7787 MEMB     110      CHL1     H21A     HAL3     0.900000E-01   1.00800           0
      7788 MEMB     110      CHL1     H21B     HAL3     0.900000E-01   1.00800           0
      7789 MEMB     110      CHL1     H21C     HAL3     0.900000E-01   1.00800           0
      7790 MEMB     110      CHL1     C22      CTL2    -0.180000       12.0110           0
      7791 MEMB     110      CHL1     H22A     HAL2     0.900000E-01   1.00800           0
      7792 MEMB     110      CHL1     H22B     HAL2     0.900000E-01   1.00800           0
      7793 MEMB     110      CHL1     C23      CTL2    -0.180000       12.0110           0
      7794 MEMB     110      CHL1     H23A     HAL2     0.900000E-01   1.00800           0
      7795 MEMB     110      CHL1     H23B     HAL2     0.900000E-01   1.00800           0
      7796 MEMB     110      CHL1     C24      CTL2    -0.180000       12.0110           0
      7797 MEMB     110      CHL1     H24A     HAL2     0.900000E-01   1.00800           0
      7798 MEMB     110      CHL1     H24B     HAL2     0.900000E-01   1.00800           0
      7799 MEMB     110      CHL1     C25      CTL1    -0.900000E-01   12.0110           0
      7800 MEMB     110      CHL1     H25      HAL1     0.900000E-01   1.00800           0
      7801 MEMB     110      CHL1     C26      CTL3    -0.270000       12.0110           0
      7802 MEMB     110      CHL1     H26A     HAL3     0.900000E-01   1.00800           0
      7803 MEMB     110      CHL1     H26B     HAL3     0.900000E-01   1.00800           0
      7804 MEMB     110      CHL1     H26C     HAL3     0.900000E-01   1.00800           0
      7805 MEMB     110      CHL1     C27      CTL3    -0.270000       12.0110           0
      7806 MEMB     110      CHL1     H27A     HAL3     0.900000E-01   1.00800           0
      7807 MEMB     110      CHL1     H27B     HAL3     0.900000E-01   1.00800           0
      7808 MEMB     110      CHL1     H27C     HAL3     0.900000E-01   1.00800           0
      7809 MEMB     112      CHL1     C3       CRL1     0.140000       12.0110           0
      7810 MEMB     112      CHL1     H3       HGA1     0.900000E-01   1.00800           0
      7811 MEMB     112      CHL1     O3       OHL     -0.660000       15.9994           0
      7812 MEMB     112      CHL1     H3'      HOL      0.430000       1.00800           0
      7813 MEMB     112      CHL1     C4       CRL2    -0.180000       12.0110           0
      7814 MEMB     112      CHL1     H4A      HGA2     0.900000E-01   1.00800           0
      7815 MEMB     112      CHL1     H4B      HGA2     0.900000E-01   1.00800           0
      7816 MEMB     112      CHL1     C5       CEL1     0.000000       12.0110           0
      7817 MEMB     112      CHL1     C6       CEL1    -0.150000       12.0110           0
      7818 MEMB     112      CHL1     H6       HEL1     0.150000       1.00800           0
      7819 MEMB     112      CHL1     C7       CRL2    -0.180000       12.0110           0
      7820 MEMB     112      CHL1     H7A      HGA2     0.900000E-01   1.00800           0
      7821 MEMB     112      CHL1     H7B      HGA2     0.900000E-01   1.00800           0
      7822 MEMB     112      CHL1     C8       CRL1    -0.900000E-01   12.0110           0
      7823 MEMB     112      CHL1     H8       HGA1     0.900000E-01   1.00800           0
      7824 MEMB     112      CHL1     C14      CRL1    -0.900000E-01   12.0110           0
      7825 MEMB     112      CHL1     H14      HGA1     0.900000E-01   1.00800           0
      7826 MEMB     112      CHL1     C15      CRL2    -0.180000       12.0110           0
      7827 MEMB     112      CHL1     H15A     HGA2     0.900000E-01   1.00800           0
      7828 MEMB     112      CHL1     H15B     HGA2     0.900000E-01   1.00800           0
      7829 MEMB     112      CHL1     C16      CRL2    -0.180000       12.0110           0
      7830 MEMB     112      CHL1     H16A     HGA2     0.900000E-01   1.00800           0
      7831 MEMB     112      CHL1     H16B     HGA2     0.900000E-01   1.00800           0
      7832 MEMB     112      CHL1     C17      CRL1    -0.900000E-01   12.0110           0
      7833 MEMB     112      CHL1     H17      HGA1     0.900000E-01   1.00800           0
      7834 MEMB     112      CHL1     C13      CRL1     0.000000       12.0110           0
      7835 MEMB     112      CHL1     C18      CTL3    -0.270000       12.0110           0
      7836 MEMB     112      CHL1     H18A     HAL3     0.900000E-01   1.00800           0
      7837 MEMB     112      CHL1     H18B     HAL3     0.900000E-01   1.00800           0
      7838 MEMB     112      CHL1     H18C     HAL3     0.900000E-01   1.00800           0
      7839 MEMB     112      CHL1     C12      CRL2    -0.180000       12.0110           0
      7840 MEMB     112      CHL1     H12A     HGA2     0.900000E-01   1.00800           0
      7841 MEMB     112      CHL1     H12B     HGA2     0.900000E-01   1.00800           0
      7842 MEMB     112      CHL1     C11      CRL2    -0.180000       12.0110           0
      7843 MEMB     112      CHL1     H11A     HGA2     0.900000E-01   1.00800           0
      7844 MEMB     112      CHL1     H11B     HGA2     0.900000E-01   1.00800           0
      7845 MEMB     112      CHL1     C9       CRL1    -0.900000E-01   12.0110           0
      7846 MEMB     112      CHL1     H9       HGA1     0.900000E-01   1.00800           0
      7847 MEMB     112      CHL1     C10      CRL1     0.000000       12.0110           0
      7848 MEMB     112      CHL1     C19      CTL3    -0.270000       12.0110           0
      7849 MEMB     112      CHL1     H19A     HAL3     0.900000E-01   1.00800           0
      7850 MEMB     112      CHL1     H19B     HAL3     0.900000E-01   1.00800           0
      7851 MEMB     112      CHL1     H19C     HAL3     0.900000E-01   1.00800           0
      7852 MEMB     112      CHL1     C1       CRL2    -0.180000       12.0110           0
      7853 MEMB     112      CHL1     H1A      HGA2     0.900000E-01   1.00800           0
      7854 MEMB     112      CHL1     H1B      HGA2     0.900000E-01   1.00800           0
      7855 MEMB     112      CHL1     C2       CRL2    -0.180000       12.0110           0
      7856 MEMB     112      CHL1     H2A      HGA2     0.900000E-01   1.00800           0
      7857 MEMB     112      CHL1     H2B      HGA2     0.900000E-01   1.00800           0
      7858 MEMB     112      CHL1     C20      CTL1    -0.900000E-01   12.0110           0
      7859 MEMB     112      CHL1     H20      HAL1     0.900000E-01   1.00800           0
      7860 MEMB     112      CHL1     C21      CTL3    -0.270000       12.0110           0
      7861 MEMB     112      CHL1     H21A     HAL3     0.900000E-01   1.00800           0
      7862 MEMB     112      CHL1     H21B     HAL3     0.900000E-01   1.00800           0
      7863 MEMB     112      CHL1     H21C     HAL3     0.900000E-01   1.00800           0
      7864 MEMB     112      CHL1     C22      CTL2    -0.180000       12.0110           0
      7865 MEMB     112      CHL1     H22A     HAL2     0.900000E-01   1.00800           0
      7866 MEMB     112      CHL1     H22B     HAL2     0.900000E-01   1.00800           0
      7867 MEMB     112      CHL1     C23      CTL2    -0.180000       12.0110           0
      7868 MEMB     112      CHL1     H23A     HAL2     0.900000E-01   1.00800           0
      7869 MEMB     112      CHL1     H23B     HAL2     0.900000E-01   1.00800           0
      7870 MEMB     112      CHL1     C24      CTL2    -0.180000       12.0110           0
      7871 MEMB     112      CHL1     H24A     HAL2     0.900000E-01   1.00800           0
      7872 MEMB     112      CHL1     H24B     HAL2     0.900000E-01   1.00800           0
      7873 MEMB     112      CHL1     C25      CTL1    -0.900000E-01   12.0110           0
      7874 MEMB     112      CHL1     H25      HAL1     0.900000E-01   1.00800           0
      7875 MEMB     112      CHL1     C26      CTL3    -0.270000       12.0110           0
      7876 MEMB     112      CHL1     H26A     HAL3     0.900000E-01   1.00800           0
      7877 MEMB     112      CHL1     H26B     HAL3     0.900000E-01   1.00800           0
      7878 MEMB     112      CHL1     H26C     HAL3     0.900000E-01   1.00800           0
      7879 MEMB     112      CHL1     C27      CTL3    -0.270000       12.0110           0
      7880 MEMB     112      CHL1     H27A     HAL3     0.900000E-01   1.00800           0
      7881 MEMB     112      CHL1     H27B     HAL3     0.900000E-01   1.00800           0
      7882 MEMB     112      CHL1     H27C     HAL3     0.900000E-01   1.00800           0
      7883 MEMB     119      CHL1     C3       CRL1     0.140000       12.0110           0
      7884 MEMB     119      CHL1     H3       HGA1     0.900000E-01   1.00800           0
      7885 MEMB     119      CHL1     O3       OHL     -0.660000       15.9994           0
      7886 MEMB     119      CHL1     H3'      HOL      0.430000       1.00800           0
      7887 MEMB     119      CHL1     C4       CRL2    -0.180000       12.0110           0
      7888 MEMB     119      CHL1     H4A      HGA2     0.900000E-01   1.00800           0
      7889 MEMB     119      CHL1     H4B      HGA2     0.900000E-01   1.00800           0
      7890 MEMB     119      CHL1     C5       CEL1     0.000000       12.0110           0
      7891 MEMB     119      CHL1     C6       CEL1    -0.150000       12.0110           0
      7892 MEMB     119      CHL1     H6       HEL1     0.150000       1.00800           0
      7893 MEMB     119      CHL1     C7       CRL2    -0.180000       12.0110           0
      7894 MEMB     119      CHL1     H7A      HGA2     0.900000E-01   1.00800           0
      7895 MEMB     119      CHL1     H7B      HGA2     0.900000E-01   1.00800           0
      7896 MEMB     119      CHL1     C8       CRL1    -0.900000E-01   12.0110           0
      7897 MEMB     119      CHL1     H8       HGA1     0.900000E-01   1.00800           0
      7898 MEMB     119      CHL1     C14      CRL1    -0.900000E-01   12.0110           0
      7899 MEMB     119      CHL1     H14      HGA1     0.900000E-01   1.00800           0
      7900 MEMB     119      CHL1     C15      CRL2    -0.180000       12.0110           0
      7901 MEMB     119      CHL1     H15A     HGA2     0.900000E-01   1.00800           0
      7902 MEMB     119      CHL1     H15B     HGA2     0.900000E-01   1.00800           0
      7903 MEMB     119      CHL1     C16      CRL2    -0.180000       12.0110           0
      7904 MEMB     119      CHL1     H16A     HGA2     0.900000E-01   1.00800           0
      7905 MEMB     119      CHL1     H16B     HGA2     0.900000E-01   1.00800           0
      7906 MEMB     119      CHL1     C17      CRL1    -0.900000E-01   12.0110           0
      7907 MEMB     119      CHL1     H17      HGA1     0.900000E-01   1.00800           0
      7908 MEMB     119      CHL1     C13      CRL1     0.000000       12.0110           0
      7909 MEMB     119      CHL1     C18      CTL3    -0.270000       12.0110           0
      7910 MEMB     119      CHL1     H18A     HAL3     0.900000E-01   1.00800           0
      7911 MEMB     119      CHL1     H18B     HAL3     0.900000E-01   1.00800           0
      7912 MEMB     119      CHL1     H18C     HAL3     0.900000E-01   1.00800           0
      7913 MEMB     119      CHL1     C12      CRL2    -0.180000       12.0110           0
      7914 MEMB     119      CHL1     H12A     HGA2     0.900000E-01   1.00800           0
      7915 MEMB     119      CHL1     H12B     HGA2     0.900000E-01   1.00800           0
      7916 MEMB     119      CHL1     C11      CRL2    -0.180000       12.0110           0
      7917 MEMB     119      CHL1     H11A     HGA2     0.900000E-01   1.00800           0
      7918 MEMB     119      CHL1     H11B     HGA2     0.900000E-01   1.00800           0
      7919 MEMB     119      CHL1     C9       CRL1    -0.900000E-01   12.0110           0
      7920 MEMB     119      CHL1     H9       HGA1     0.900000E-01   1.00800           0
      7921 MEMB     119      CHL1     C10      CRL1     0.000000       12.0110           0
      7922 MEMB     119      CHL1     C19      CTL3    -0.270000       12.0110           0
      7923 MEMB     119      CHL1     H19A     HAL3     0.900000E-01   1.00800           0
      7924 MEMB     119      CHL1     H19B     HAL3     0.900000E-01   1.00800           0
      7925 MEMB     119      CHL1     H19C     HAL3     0.900000E-01   1.00800           0
      7926 MEMB     119      CHL1     C1       CRL2    -0.180000       12.0110           0
      7927 MEMB     119      CHL1     H1A      HGA2     0.900000E-01   1.00800           0
      7928 MEMB     119      CHL1     H1B      HGA2     0.900000E-01   1.00800           0
      7929 MEMB     119      CHL1     C2       CRL2    -0.180000       12.0110           0
      7930 MEMB     119      CHL1     H2A      HGA2     0.900000E-01   1.00800           0
      7931 MEMB     119      CHL1     H2B      HGA2     0.900000E-01   1.00800           0
      7932 MEMB     119      CHL1     C20      CTL1    -0.900000E-01   12.0110           0
      7933 MEMB     119      CHL1     H20      HAL1     0.900000E-01   1.00800           0
      7934 MEMB     119      CHL1     C21      CTL3    -0.270000       12.0110           0
      7935 MEMB     119      CHL1     H21A     HAL3     0.900000E-01   1.00800           0
      7936 MEMB     119      CHL1     H21B     HAL3     0.900000E-01   1.00800           0
      7937 MEMB     119      CHL1     H21C     HAL3     0.900000E-01   1.00800           0
      7938 MEMB     119      CHL1     C22      CTL2    -0.180000       12.0110           0
      7939 MEMB     119      CHL1     H22A     HAL2     0.900000E-01   1.00800           0
      7940 MEMB     119      CHL1     H22B     HAL2     0.900000E-01   1.00800           0
      7941 MEMB     119      CHL1     C23      CTL2    -0.180000       12.0110           0
      7942 MEMB     119      CHL1     H23A     HAL2     0.900000E-01   1.00800           0
      7943 MEMB     119      CHL1     H23B     HAL2     0.900000E-01   1.00800           0
      7944 MEMB     119      CHL1     C24      CTL2    -0.180000       12.0110           0
      7945 MEMB     119      CHL1     H24A     HAL2     0.900000E-01   1.00800           0
      7946 MEMB     119      CHL1     H24B     HAL2     0.900000E-01   1.00800           0
      7947 MEMB     119      CHL1     C25      CTL1    -0.900000E-01   12.0110           0
      7948 MEMB     119      CHL1     H25      HAL1     0.900000E-01   1.00800           0
      7949 MEMB     119      CHL1     C26      CTL3    -0.270000       12.0110           0
      7950 MEMB     119      CHL1     H26A     HAL3     0.900000E-01   1.00800           0
      7951 MEMB     119      CHL1     H26B     HAL3     0.900000E-01   1.00800           0
      7952 MEMB     119      CHL1     H26C     HAL3     0.900000E-01   1.00800           0
      7953 MEMB     119      CHL1     C27      CTL3    -0.270000       12.0110           0
      7954 MEMB     119      CHL1     H27A     HAL3     0.900000E-01   1.00800           0
      7955 MEMB     119      CHL1     H27B     HAL3     0.900000E-01   1.00800           0
      7956 MEMB     119      CHL1     H27C     HAL3     0.900000E-01   1.00800           0
      7957 MEMB     130      CHL1     C3       CRL1     0.140000       12.0110           0
      7958 MEMB     130      CHL1     H3       HGA1     0.900000E-01   1.00800           0
      7959 MEMB     130      CHL1     O3       OHL     -0.660000       15.9994           0
      7960 MEMB     130      CHL1     H3'      HOL      0.430000       1.00800           0
      7961 MEMB     130      CHL1     C4       CRL2    -0.180000       12.0110           0
      7962 MEMB     130      CHL1     H4A      HGA2     0.900000E-01   1.00800           0
      7963 MEMB     130      CHL1     H4B      HGA2     0.900000E-01   1.00800           0
      7964 MEMB     130      CHL1     C5       CEL1     0.000000       12.0110           0
      7965 MEMB     130      CHL1     C6       CEL1    -0.150000       12.0110           0
      7966 MEMB     130      CHL1     H6       HEL1     0.150000       1.00800           0
      7967 MEMB     130      CHL1     C7       CRL2    -0.180000       12.0110           0
      7968 MEMB     130      CHL1     H7A      HGA2     0.900000E-01   1.00800           0
      7969 MEMB     130      CHL1     H7B      HGA2     0.900000E-01   1.00800           0
      7970 MEMB     130      CHL1     C8       CRL1    -0.900000E-01   12.0110           0
      7971 MEMB     130      CHL1     H8       HGA1     0.900000E-01   1.00800           0
      7972 MEMB     130      CHL1     C14      CRL1    -0.900000E-01   12.0110           0
      7973 MEMB     130      CHL1     H14      HGA1     0.900000E-01   1.00800           0
      7974 MEMB     130      CHL1     C15      CRL2    -0.180000       12.0110           0
      7975 MEMB     130      CHL1     H15A     HGA2     0.900000E-01   1.00800           0
      7976 MEMB     130      CHL1     H15B     HGA2     0.900000E-01   1.00800           0
      7977 MEMB     130      CHL1     C16      CRL2    -0.180000       12.0110           0
      7978 MEMB     130      CHL1     H16A     HGA2     0.900000E-01   1.00800           0
      7979 MEMB     130      CHL1     H16B     HGA2     0.900000E-01   1.00800           0
      7980 MEMB     130      CHL1     C17      CRL1    -0.900000E-01   12.0110           0
      7981 MEMB     130      CHL1     H17      HGA1     0.900000E-01   1.00800           0
      7982 MEMB     130      CHL1     C13      CRL1     0.000000       12.0110           0
      7983 MEMB     130      CHL1     C18      CTL3    -0.270000       12.0110           0
      7984 MEMB     130      CHL1     H18A     HAL3     0.900000E-01   1.00800           0
      7985 MEMB     130      CHL1     H18B     HAL3     0.900000E-01   1.00800           0
      7986 MEMB     130      CHL1     H18C     HAL3     0.900000E-01   1.00800           0
      7987 MEMB     130      CHL1     C12      CRL2    -0.180000       12.0110           0
      7988 MEMB     130      CHL1     H12A     HGA2     0.900000E-01   1.00800           0
      7989 MEMB     130      CHL1     H12B     HGA2     0.900000E-01   1.00800           0
      7990 MEMB     130      CHL1     C11      CRL2    -0.180000       12.0110           0
      7991 MEMB     130      CHL1     H11A     HGA2     0.900000E-01   1.00800           0
      7992 MEMB     130      CHL1     H11B     HGA2     0.900000E-01   1.00800           0
      7993 MEMB     130      CHL1     C9       CRL1    -0.900000E-01   12.0110           0
      7994 MEMB     130      CHL1     H9       HGA1     0.900000E-01   1.00800           0
      7995 MEMB     130      CHL1     C10      CRL1     0.000000       12.0110           0
      7996 MEMB     130      CHL1     C19      CTL3    -0.270000       12.0110           0
      7997 MEMB     130      CHL1     H19A     HAL3     0.900000E-01   1.00800           0
      7998 MEMB     130      CHL1     H19B     HAL3     0.900000E-01   1.00800           0
      7999 MEMB     130      CHL1     H19C     HAL3     0.900000E-01   1.00800           0
      8000 MEMB     130      CHL1     C1       CRL2    -0.180000       12.0110           0
      8001 MEMB     130      CHL1     H1A      HGA2     0.900000E-01   1.00800           0
      8002 MEMB     130      CHL1     H1B      HGA2     0.900000E-01   1.00800           0
      8003 MEMB     130      CHL1     C2       CRL2    -0.180000       12.0110           0
      8004 MEMB     130      CHL1     H2A      HGA2     0.900000E-01   1.00800           0
      8005 MEMB     130      CHL1     H2B      HGA2     0.900000E-01   1.00800           0
      8006 MEMB     130      CHL1     C20      CTL1    -0.900000E-01   12.0110           0
      8007 MEMB     130      CHL1     H20      HAL1     0.900000E-01   1.00800           0
      8008 MEMB     130      CHL1     C21      CTL3    -0.270000       12.0110           0
      8009 MEMB     130      CHL1     H21A     HAL3     0.900000E-01   1.00800           0
      8010 MEMB     130      CHL1     H21B     HAL3     0.900000E-01   1.00800           0
      8011 MEMB     130      CHL1     H21C     HAL3     0.900000E-01   1.00800           0
      8012 MEMB     130      CHL1     C22      CTL2    -0.180000       12.0110           0
      8013 MEMB     130      CHL1     H22A     HAL2     0.900000E-01   1.00800           0
      8014 MEMB     130      CHL1     H22B     HAL2     0.900000E-01   1.00800           0
      8015 MEMB     130      CHL1     C23      CTL2    -0.180000       12.0110           0
      8016 MEMB     130      CHL1     H23A     HAL2     0.900000E-01   1.00800           0
      8017 MEMB     130      CHL1     H23B     HAL2     0.900000E-01   1.00800           0
      8018 MEMB     130      CHL1     C24      CTL2    -0.180000       12.0110           0
      8019 MEMB     130      CHL1     H24A     HAL2     0.900000E-01   1.00800           0
      8020 MEMB     130      CHL1     H24B     HAL2     0.900000E-01   1.00800           0
      8021 MEMB     130      CHL1     C25      CTL1    -0.900000E-01   12.0110           0
      8022 MEMB     130      CHL1     H25      HAL1     0.900000E-01   1.00800           0
      8023 MEMB     130      CHL1     C26      CTL3    -0.270000       12.0110           0
      8024 MEMB     130      CHL1     H26A     HAL3     0.900000E-01   1.00800           0
      8025 MEMB     130      CHL1     H26B     HAL3     0.900000E-01   1.00800           0
      8026 MEMB     130      CHL1     H26C     HAL3     0.900000E-01   1.00800           0
      8027 MEMB     130      CHL1     C27      CTL3    -0.270000       12.0110           0
      8028 MEMB     130      CHL1     H27A     HAL3     0.900000E-01   1.00800           0
      8029 MEMB     130      CHL1     H27B     HAL3     0.900000E-01   1.00800           0
      8030 MEMB     130      CHL1     H27C     HAL3     0.900000E-01   1.00800           0
      8031 MEMB     133      CHL1     C3       CRL1     0.140000       12.0110           0
      8032 MEMB     133      CHL1     H3       HGA1     0.900000E-01   1.00800           0
      8033 MEMB     133      CHL1     O3       OHL     -0.660000       15.9994           0
      8034 MEMB     133      CHL1     H3'      HOL      0.430000       1.00800           0
      8035 MEMB     133      CHL1     C4       CRL2    -0.180000       12.0110           0
      8036 MEMB     133      CHL1     H4A      HGA2     0.900000E-01   1.00800           0
      8037 MEMB     133      CHL1     H4B      HGA2     0.900000E-01   1.00800           0
      8038 MEMB     133      CHL1     C5       CEL1     0.000000       12.0110           0
      8039 MEMB     133      CHL1     C6       CEL1    -0.150000       12.0110           0
      8040 MEMB     133      CHL1     H6       HEL1     0.150000       1.00800           0
      8041 MEMB     133      CHL1     C7       CRL2    -0.180000       12.0110           0
      8042 MEMB     133      CHL1     H7A      HGA2     0.900000E-01   1.00800           0
      8043 MEMB     133      CHL1     H7B      HGA2     0.900000E-01   1.00800           0
      8044 MEMB     133      CHL1     C8       CRL1    -0.900000E-01   12.0110           0
      8045 MEMB     133      CHL1     H8       HGA1     0.900000E-01   1.00800           0
      8046 MEMB     133      CHL1     C14      CRL1    -0.900000E-01   12.0110           0
      8047 MEMB     133      CHL1     H14      HGA1     0.900000E-01   1.00800           0
      8048 MEMB     133      CHL1     C15      CRL2    -0.180000       12.0110           0
      8049 MEMB     133      CHL1     H15A     HGA2     0.900000E-01   1.00800           0
      8050 MEMB     133      CHL1     H15B     HGA2     0.900000E-01   1.00800           0
      8051 MEMB     133      CHL1     C16      CRL2    -0.180000       12.0110           0
      8052 MEMB     133      CHL1     H16A     HGA2     0.900000E-01   1.00800           0
      8053 MEMB     133      CHL1     H16B     HGA2     0.900000E-01   1.00800           0
      8054 MEMB     133      CHL1     C17      CRL1    -0.900000E-01   12.0110           0
      8055 MEMB     133      CHL1     H17      HGA1     0.900000E-01   1.00800           0
      8056 MEMB     133      CHL1     C13      CRL1     0.000000       12.0110           0
      8057 MEMB     133      CHL1     C18      CTL3    -0.270000       12.0110           0
      8058 MEMB     133      CHL1     H18A     HAL3     0.900000E-01   1.00800           0
      8059 MEMB     133      CHL1     H18B     HAL3     0.900000E-01   1.00800           0
      8060 MEMB     133      CHL1     H18C     HAL3     0.900000E-01   1.00800           0
      8061 MEMB     133      CHL1     C12      CRL2    -0.180000       12.0110           0
      8062 MEMB     133      CHL1     H12A     HGA2     0.900000E-01   1.00800           0
      8063 MEMB     133      CHL1     H12B     HGA2     0.900000E-01   1.00800           0
      8064 MEMB     133      CHL1     C11      CRL2    -0.180000       12.0110           0
      8065 MEMB     133      CHL1     H11A     HGA2     0.900000E-01   1.00800           0
      8066 MEMB     133      CHL1     H11B     HGA2     0.900000E-01   1.00800           0
      8067 MEMB     133      CHL1     C9       CRL1    -0.900000E-01   12.0110           0
      8068 MEMB     133      CHL1     H9       HGA1     0.900000E-01   1.00800           0
      8069 MEMB     133      CHL1     C10      CRL1     0.000000       12.0110           0
      8070 MEMB     133      CHL1     C19      CTL3    -0.270000       12.0110           0
      8071 MEMB     133      CHL1     H19A     HAL3     0.900000E-01   1.00800           0
      8072 MEMB     133      CHL1     H19B     HAL3     0.900000E-01   1.00800           0
      8073 MEMB     133      CHL1     H19C     HAL3     0.900000E-01   1.00800           0
      8074 MEMB     133      CHL1     C1       CRL2    -0.180000       12.0110           0
      8075 MEMB     133      CHL1     H1A      HGA2     0.900000E-01   1.00800           0
      8076 MEMB     133      CHL1     H1B      HGA2     0.900000E-01   1.00800           0
      8077 MEMB     133      CHL1     C2       CRL2    -0.180000       12.0110           0
      8078 MEMB     133      CHL1     H2A      HGA2     0.900000E-01   1.00800           0
      8079 MEMB     133      CHL1     H2B      HGA2     0.900000E-01   1.00800           0
      8080 MEMB     133      CHL1     C20      CTL1    -0.900000E-01   12.0110           0
      8081 MEMB     133      CHL1     H20      HAL1     0.900000E-01   1.00800           0
      8082 MEMB     133      CHL1     C21      CTL3    -0.270000       12.0110           0
      8083 MEMB     133      CHL1     H21A     HAL3     0.900000E-01   1.00800           0
      8084 MEMB     133      CHL1     H21B     HAL3     0.900000E-01   1.00800           0
      8085 MEMB     133      CHL1     H21C     HAL3     0.900000E-01   1.00800           0
      8086 MEMB     133      CHL1     C22      CTL2    -0.180000       12.0110           0
      8087 MEMB     133      CHL1     H22A     HAL2     0.900000E-01   1.00800           0
      8088 MEMB     133      CHL1     H22B     HAL2     0.900000E-01   1.00800           0
      8089 MEMB     133      CHL1     C23      CTL2    -0.180000       12.0110           0
      8090 MEMB     133      CHL1     H23A     HAL2     0.900000E-01   1.00800           0
      8091 MEMB     133      CHL1     H23B     HAL2     0.900000E-01   1.00800           0
      8092 MEMB     133      CHL1     C24      CTL2    -0.180000       12.0110           0
      8093 MEMB     133      CHL1     H24A     HAL2     0.900000E-01   1.00800           0
      8094 MEMB     133      CHL1     H24B     HAL2     0.900000E-01   1.00800           0
      8095 MEMB     133      CHL1     C25      CTL1    -0.900000E-01   12.0110           0
      8096 MEMB     133      CHL1     H25      HAL1     0.900000E-01   1.00800           0
      8097 MEMB     133      CHL1     C26      CTL3    -0.270000       12.0110           0
      8098 MEMB     133      CHL1     H26A     HAL3     0.900000E-01   1.00800           0
      8099 MEMB     133      CHL1     H26B     HAL3     0.900000E-01   1.00800           0
      8100 MEMB     133      CHL1     H26C     HAL3     0.900000E-01   1.00800           0
      8101 MEMB     133      CHL1     C27      CTL3    -0.270000       12.0110           0
      8102 MEMB     133      CHL1     H27A     HAL3     0.900000E-01   1.00800           0
      8103 MEMB     133      CHL1     H27B     HAL3     0.900000E-01   1.00800           0
      8104 MEMB     133      CHL1     H27C     HAL3     0.900000E-01   1.00800           0
      8105 MEMB     134      CHL1     C3       CRL1     0.140000       12.0110           0
      8106 MEMB     134      CHL1     H3       HGA1     0.900000E-01   1.00800           0
      8107 MEMB     134      CHL1     O3       OHL     -0.660000       15.9994           0
      8108 MEMB     134      CHL1     H3'      HOL      0.430000       1.00800           0
      8109 MEMB     134      CHL1     C4       CRL2    -0.180000       12.0110           0
      8110 MEMB     134      CHL1     H4A      HGA2     0.900000E-01   1.00800           0
      8111 MEMB     134      CHL1     H4B      HGA2     0.900000E-01   1.00800           0
      8112 MEMB     134      CHL1     C5       CEL1     0.000000       12.0110           0
      8113 MEMB     134      CHL1     C6       CEL1    -0.150000       12.0110           0
      8114 MEMB     134      CHL1     H6       HEL1     0.150000       1.00800           0
      8115 MEMB     134      CHL1     C7       CRL2    -0.180000       12.0110           0
      8116 MEMB     134      CHL1     H7A      HGA2     0.900000E-01   1.00800           0
      8117 MEMB     134      CHL1     H7B      HGA2     0.900000E-01   1.00800           0
      8118 MEMB     134      CHL1     C8       CRL1    -0.900000E-01   12.0110           0
      8119 MEMB     134      CHL1     H8       HGA1     0.900000E-01   1.00800           0
      8120 MEMB     134      CHL1     C14      CRL1    -0.900000E-01   12.0110           0
      8121 MEMB     134      CHL1     H14      HGA1     0.900000E-01   1.00800           0
      8122 MEMB     134      CHL1     C15      CRL2    -0.180000       12.0110           0
      8123 MEMB     134      CHL1     H15A     HGA2     0.900000E-01   1.00800           0
      8124 MEMB     134      CHL1     H15B     HGA2     0.900000E-01   1.00800           0
      8125 MEMB     134      CHL1     C16      CRL2    -0.180000       12.0110           0
      8126 MEMB     134      CHL1     H16A     HGA2     0.900000E-01   1.00800           0
      8127 MEMB     134      CHL1     H16B     HGA2     0.900000E-01   1.00800           0
      8128 MEMB     134      CHL1     C17      CRL1    -0.900000E-01   12.0110           0
      8129 MEMB     134      CHL1     H17      HGA1     0.900000E-01   1.00800           0
      8130 MEMB     134      CHL1     C13      CRL1     0.000000       12.0110           0
      8131 MEMB     134      CHL1     C18      CTL3    -0.270000       12.0110           0
      8132 MEMB     134      CHL1     H18A     HAL3     0.900000E-01   1.00800           0
      8133 MEMB     134      CHL1     H18B     HAL3     0.900000E-01   1.00800           0
      8134 MEMB     134      CHL1     H18C     HAL3     0.900000E-01   1.00800           0
      8135 MEMB     134      CHL1     C12      CRL2    -0.180000       12.0110           0
      8136 MEMB     134      CHL1     H12A     HGA2     0.900000E-01   1.00800           0
      8137 MEMB     134      CHL1     H12B     HGA2     0.900000E-01   1.00800           0
      8138 MEMB     134      CHL1     C11      CRL2    -0.180000       12.0110           0
      8139 MEMB     134      CHL1     H11A     HGA2     0.900000E-01   1.00800           0
      8140 MEMB     134      CHL1     H11B     HGA2     0.900000E-01   1.00800           0
      8141 MEMB     134      CHL1     C9       CRL1    -0.900000E-01   12.0110           0
      8142 MEMB     134      CHL1     H9       HGA1     0.900000E-01   1.00800           0
      8143 MEMB     134      CHL1     C10      CRL1     0.000000       12.0110           0
      8144 MEMB     134      CHL1     C19      CTL3    -0.270000       12.0110           0
      8145 MEMB     134      CHL1     H19A     HAL3     0.900000E-01   1.00800           0
      8146 MEMB     134      CHL1     H19B     HAL3     0.900000E-01   1.00800           0
      8147 MEMB     134      CHL1     H19C     HAL3     0.900000E-01   1.00800           0
      8148 MEMB     134      CHL1     C1       CRL2    -0.180000       12.0110           0
      8149 MEMB     134      CHL1     H1A      HGA2     0.900000E-01   1.00800           0
      8150 MEMB     134      CHL1     H1B      HGA2     0.900000E-01   1.00800           0
      8151 MEMB     134      CHL1     C2       CRL2    -0.180000       12.0110           0
      8152 MEMB     134      CHL1     H2A      HGA2     0.900000E-01   1.00800           0
      8153 MEMB     134      CHL1     H2B      HGA2     0.900000E-01   1.00800           0
      8154 MEMB     134      CHL1     C20      CTL1    -0.900000E-01   12.0110           0
      8155 MEMB     134      CHL1     H20      HAL1     0.900000E-01   1.00800           0
      8156 MEMB     134      CHL1     C21      CTL3    -0.270000       12.0110           0
      8157 MEMB     134      CHL1     H21A     HAL3     0.900000E-01   1.00800           0
      8158 MEMB     134      CHL1     H21B     HAL3     0.900000E-01   1.00800           0
      8159 MEMB     134      CHL1     H21C     HAL3     0.900000E-01   1.00800           0
      8160 MEMB     134      CHL1     C22      CTL2    -0.180000       12.0110           0
      8161 MEMB     134      CHL1     H22A     HAL2     0.900000E-01   1.00800           0
      8162 MEMB     134      CHL1     H22B     HAL2     0.900000E-01   1.00800           0
      8163 MEMB     134      CHL1     C23      CTL2    -0.180000       12.0110           0
      8164 MEMB     134      CHL1     H23A     HAL2     0.900000E-01   1.00800           0
      8165 MEMB     134      CHL1     H23B     HAL2     0.900000E-01   1.00800           0
      8166 MEMB     134      CHL1     C24      CTL2    -0.180000       12.0110           0
      8167 MEMB     134      CHL1     H24A     HAL2     0.900000E-01   1.00800           0
      8168 MEMB     134      CHL1     H24B     HAL2     0.900000E-01   1.00800           0
      8169 MEMB     134      CHL1     C25      CTL1    -0.900000E-01   12.0110           0
      8170 MEMB     134      CHL1     H25      HAL1     0.900000E-01   1.00800           0
      8171 MEMB     134      CHL1     C26      CTL3    -0.270000       12.0110           0
      8172 MEMB     134      CHL1     H26A     HAL3     0.900000E-01   1.00800           0
      8173 MEMB     134      CHL1     H26B     HAL3     0.900000E-01   1.00800           0
      8174 MEMB     134      CHL1     H26C     HAL3     0.900000E-01   1.00800           0
      8175 MEMB     134      CHL1     C27      CTL3    -0.270000       12.0110           0
      8176 MEMB     134      CHL1     H27A     HAL3     0.900000E-01   1.00800           0
      8177 MEMB     134      CHL1     H27B     HAL3     0.900000E-01   1.00800           0
      8178 MEMB     134      CHL1     H27C     HAL3     0.900000E-01   1.00800           0
      8179 MEMB     135      CHL1     C3       CRL1     0.140000       12.0110           0
      8180 MEMB     135      CHL1     H3       HGA1     0.900000E-01   1.00800           0
      8181 MEMB     135      CHL1     O3       OHL     -0.660000       15.9994           0
      8182 MEMB     135      CHL1     H3'      HOL      0.430000       1.00800           0
      8183 MEMB     135      CHL1     C4       CRL2    -0.180000       12.0110           0
      8184 MEMB     135      CHL1     H4A      HGA2     0.900000E-01   1.00800           0
      8185 MEMB     135      CHL1     H4B      HGA2     0.900000E-01   1.00800           0
      8186 MEMB     135      CHL1     C5       CEL1     0.000000       12.0110           0
      8187 MEMB     135      CHL1     C6       CEL1    -0.150000       12.0110           0
      8188 MEMB     135      CHL1     H6       HEL1     0.150000       1.00800           0
      8189 MEMB     135      CHL1     C7       CRL2    -0.180000       12.0110           0
      8190 MEMB     135      CHL1     H7A      HGA2     0.900000E-01   1.00800           0
      8191 MEMB     135      CHL1     H7B      HGA2     0.900000E-01   1.00800           0
      8192 MEMB     135      CHL1     C8       CRL1    -0.900000E-01   12.0110           0
      8193 MEMB     135      CHL1     H8       HGA1     0.900000E-01   1.00800           0
      8194 MEMB     135      CHL1     C14      CRL1    -0.900000E-01   12.0110           0
      8195 MEMB     135      CHL1     H14      HGA1     0.900000E-01   1.00800           0
      8196 MEMB     135      CHL1     C15      CRL2    -0.180000       12.0110           0
      8197 MEMB     135      CHL1     H15A     HGA2     0.900000E-01   1.00800           0
      8198 MEMB     135      CHL1     H15B     HGA2     0.900000E-01   1.00800           0
      8199 MEMB     135      CHL1     C16      CRL2    -0.180000       12.0110           0
      8200 MEMB     135      CHL1     H16A     HGA2     0.900000E-01   1.00800           0
      8201 MEMB     135      CHL1     H16B     HGA2     0.900000E-01   1.00800           0
      8202 MEMB     135      CHL1     C17      CRL1    -0.900000E-01   12.0110           0
      8203 MEMB     135      CHL1     H17      HGA1     0.900000E-01   1.00800           0
      8204 MEMB     135      CHL1     C13      CRL1     0.000000       12.0110           0
      8205 MEMB     135      CHL1     C18      CTL3    -0.270000       12.0110           0
      8206 MEMB     135      CHL1     H18A     HAL3     0.900000E-01   1.00800           0
      8207 MEMB     135      CHL1     H18B     HAL3     0.900000E-01   1.00800           0
      8208 MEMB     135      CHL1     H18C     HAL3     0.900000E-01   1.00800           0
      8209 MEMB     135      CHL1     C12      CRL2    -0.180000       12.0110           0
      8210 MEMB     135      CHL1     H12A     HGA2     0.900000E-01   1.00800           0
      8211 MEMB     135      CHL1     H12B     HGA2     0.900000E-01   1.00800           0
      8212 MEMB     135      CHL1     C11      CRL2    -0.180000       12.0110           0
      8213 MEMB     135      CHL1     H11A     HGA2     0.900000E-01   1.00800           0
      8214 MEMB     135      CHL1     H11B     HGA2     0.900000E-01   1.00800           0
      8215 MEMB     135      CHL1     C9       CRL1    -0.900000E-01   12.0110           0
      8216 MEMB     135      CHL1     H9       HGA1     0.900000E-01   1.00800           0
      8217 MEMB     135      CHL1     C10      CRL1     0.000000       12.0110           0
      8218 MEMB     135      CHL1     C19      CTL3    -0.270000       12.0110           0
      8219 MEMB     135      CHL1     H19A     HAL3     0.900000E-01   1.00800           0
      8220 MEMB     135      CHL1     H19B     HAL3     0.900000E-01   1.00800           0
      8221 MEMB     135      CHL1     H19C     HAL3     0.900000E-01   1.00800           0
      8222 MEMB     135      CHL1     C1       CRL2    -0.180000       12.0110           0
      8223 MEMB     135      CHL1     H1A      HGA2     0.900000E-01   1.00800           0
      8224 MEMB     135      CHL1     H1B      HGA2     0.900000E-01   1.00800           0
      8225 MEMB     135      CHL1     C2       CRL2    -0.180000       12.0110           0
      8226 MEMB     135      CHL1     H2A      HGA2     0.900000E-01   1.00800           0
      8227 MEMB     135      CHL1     H2B      HGA2     0.900000E-01   1.00800           0
      8228 MEMB     135      CHL1     C20      CTL1    -0.900000E-01   12.0110           0
      8229 MEMB     135      CHL1     H20      HAL1     0.900000E-01   1.00800           0
      8230 MEMB     135      CHL1     C21      CTL3    -0.270000       12.0110           0
      8231 MEMB     135      CHL1     H21A     HAL3     0.900000E-01   1.00800           0
      8232 MEMB     135      CHL1     H21B     HAL3     0.900000E-01   1.00800           0
      8233 MEMB     135      CHL1     H21C     HAL3     0.900000E-01   1.00800           0
      8234 MEMB     135      CHL1     C22      CTL2    -0.180000       12.0110           0
      8235 MEMB     135      CHL1     H22A     HAL2     0.900000E-01   1.00800           0
      8236 MEMB     135      CHL1     H22B     HAL2     0.900000E-01   1.00800           0
      8237 MEMB     135      CHL1     C23      CTL2    -0.180000       12.0110           0
      8238 MEMB     135      CHL1     H23A     HAL2     0.900000E-01   1.00800           0
      8239 MEMB     135      CHL1     H23B     HAL2     0.900000E-01   1.00800           0
      8240 MEMB     135      CHL1     C24      CTL2    -0.180000       12.0110           0
      8241 MEMB     135      CHL1     H24A     HAL2     0.900000E-01   1.00800           0
      8242 MEMB     135      CHL1     H24B     HAL2     0.900000E-01   1.00800           0
      8243 MEMB     135      CHL1     C25      CTL1    -0.900000E-01   12.0110           0
      8244 MEMB     135      CHL1     H25      HAL1     0.900000E-01   1.00800           0
      8245 MEMB     135      CHL1     C26      CTL3    -0.270000       12.0110           0
      8246 MEMB     135      CHL1     H26A     HAL3     0.900000E-01   1.00800           0
      8247 MEMB     135      CHL1     H26B     HAL3     0.900000E-01   1.00800           0
      8248 MEMB     135      CHL1     H26C     HAL3     0.900000E-01   1.00800           0
      8249 MEMB     135      CHL1     C27      CTL3    -0.270000       12.0110           0
      8250 MEMB     135      CHL1     H27A     HAL3     0.900000E-01   1.00800           0
      8251 MEMB     135      CHL1     H27B     HAL3     0.900000E-01   1.00800           0
      8252 MEMB     135      CHL1     H27C     HAL3     0.900000E-01   1.00800           0
      8253 MEMB     138      CHL1     C3       CRL1     0.140000       12.0110           0
      8254 MEMB     138      CHL1     H3       HGA1     0.900000E-01   1.00800           0
      8255 MEMB     138      CHL1     O3       OHL     -0.660000       15.9994           0
      8256 MEMB     138      CHL1     H3'      HOL      0.430000       1.00800           0
      8257 MEMB     138      CHL1     C4       CRL2    -0.180000       12.0110           0
      8258 MEMB     138      CHL1     H4A      HGA2     0.900000E-01   1.00800           0
      8259 MEMB     138      CHL1     H4B      HGA2     0.900000E-01   1.00800           0
      8260 MEMB     138      CHL1     C5       CEL1     0.000000       12.0110           0
      8261 MEMB     138      CHL1     C6       CEL1    -0.150000       12.0110           0
      8262 MEMB     138      CHL1     H6       HEL1     0.150000       1.00800           0
      8263 MEMB     138      CHL1     C7       CRL2    -0.180000       12.0110           0
      8264 MEMB     138      CHL1     H7A      HGA2     0.900000E-01   1.00800           0
      8265 MEMB     138      CHL1     H7B      HGA2     0.900000E-01   1.00800           0
      8266 MEMB     138      CHL1     C8       CRL1    -0.900000E-01   12.0110           0
      8267 MEMB     138      CHL1     H8       HGA1     0.900000E-01   1.00800           0
      8268 MEMB     138      CHL1     C14      CRL1    -0.900000E-01   12.0110           0
      8269 MEMB     138      CHL1     H14      HGA1     0.900000E-01   1.00800           0
      8270 MEMB     138      CHL1     C15      CRL2    -0.180000       12.0110           0
      8271 MEMB     138      CHL1     H15A     HGA2     0.900000E-01   1.00800           0
      8272 MEMB     138      CHL1     H15B     HGA2     0.900000E-01   1.00800           0
      8273 MEMB     138      CHL1     C16      CRL2    -0.180000       12.0110           0
      8274 MEMB     138      CHL1     H16A     HGA2     0.900000E-01   1.00800           0
      8275 MEMB     138      CHL1     H16B     HGA2     0.900000E-01   1.00800           0
      8276 MEMB     138      CHL1     C17      CRL1    -0.900000E-01   12.0110           0
      8277 MEMB     138      CHL1     H17      HGA1     0.900000E-01   1.00800           0
      8278 MEMB     138      CHL1     C13      CRL1     0.000000       12.0110           0
      8279 MEMB     138      CHL1     C18      CTL3    -0.270000       12.0110           0
      8280 MEMB     138      CHL1     H18A     HAL3     0.900000E-01   1.00800           0
      8281 MEMB     138      CHL1     H18B     HAL3     0.900000E-01   1.00800           0
      8282 MEMB     138      CHL1     H18C     HAL3     0.900000E-01   1.00800           0
      8283 MEMB     138      CHL1     C12      CRL2    -0.180000       12.0110           0
      8284 MEMB     138      CHL1     H12A     HGA2     0.900000E-01   1.00800           0
      8285 MEMB     138      CHL1     H12B     HGA2     0.900000E-01   1.00800           0
      8286 MEMB     138      CHL1     C11      CRL2    -0.180000       12.0110           0
      8287 MEMB     138      CHL1     H11A     HGA2     0.900000E-01   1.00800           0
      8288 MEMB     138      CHL1     H11B     HGA2     0.900000E-01   1.00800           0
      8289 MEMB     138      CHL1     C9       CRL1    -0.900000E-01   12.0110           0
      8290 MEMB     138      CHL1     H9       HGA1     0.900000E-01   1.00800           0
      8291 MEMB     138      CHL1     C10      CRL1     0.000000       12.0110           0
      8292 MEMB     138      CHL1     C19      CTL3    -0.270000       12.0110           0
      8293 MEMB     138      CHL1     H19A     HAL3     0.900000E-01   1.00800           0
      8294 MEMB     138      CHL1     H19B     HAL3     0.900000E-01   1.00800           0
      8295 MEMB     138      CHL1     H19C     HAL3     0.900000E-01   1.00800           0
      8296 MEMB     138      CHL1     C1       CRL2    -0.180000       12.0110           0
      8297 MEMB     138      CHL1     H1A      HGA2     0.900000E-01   1.00800           0
      8298 MEMB     138      CHL1     H1B      HGA2     0.900000E-01   1.00800           0
      8299 MEMB     138      CHL1     C2       CRL2    -0.180000       12.0110           0
      8300 MEMB     138      CHL1     H2A      HGA2     0.900000E-01   1.00800           0
      8301 MEMB     138      CHL1     H2B      HGA2     0.900000E-01   1.00800           0
      8302 MEMB     138      CHL1     C20      CTL1    -0.900000E-01   12.0110           0
      8303 MEMB     138      CHL1     H20      HAL1     0.900000E-01   1.00800           0
      8304 MEMB     138      CHL1     C21      CTL3    -0.270000       12.0110           0
      8305 MEMB     138      CHL1     H21A     HAL3     0.900000E-01   1.00800           0
      8306 MEMB     138      CHL1     H21B     HAL3     0.900000E-01   1.00800           0
      8307 MEMB     138      CHL1     H21C     HAL3     0.900000E-01   1.00800           0
      8308 MEMB     138      CHL1     C22      CTL2    -0.180000       12.0110           0
      8309 MEMB     138      CHL1     H22A     HAL2     0.900000E-01   1.00800           0
      8310 MEMB     138      CHL1     H22B     HAL2     0.900000E-01   1.00800           0
      8311 MEMB     138      CHL1     C23      CTL2    -0.180000       12.0110           0
      8312 MEMB     138      CHL1     H23A     HAL2     0.900000E-01   1.00800           0
      8313 MEMB     138      CHL1     H23B     HAL2     0.900000E-01   1.00800           0
      8314 MEMB     138      CHL1     C24      CTL2    -0.180000       12.0110           0
      8315 MEMB     138      CHL1     H24A     HAL2     0.900000E-01   1.00800           0
      8316 MEMB     138      CHL1     H24B     HAL2     0.900000E-01   1.00800           0
      8317 MEMB     138      CHL1     C25      CTL1    -0.900000E-01   12.0110           0
      8318 MEMB     138      CHL1     H25      HAL1     0.900000E-01   1.00800           0
      8319 MEMB     138      CHL1     C26      CTL3    -0.270000       12.0110           0
      8320 MEMB     138      CHL1     H26A     HAL3     0.900000E-01   1.00800           0
      8321 MEMB     138      CHL1     H26B     HAL3     0.900000E-01   1.00800           0
      8322 MEMB     138      CHL1     H26C     HAL3     0.900000E-01   1.00800           0
      8323 MEMB     138      CHL1     C27      CTL3    -0.270000       12.0110           0
      8324 MEMB     138      CHL1     H27A     HAL3     0.900000E-01   1.00800           0
      8325 MEMB     138      CHL1     H27B     HAL3     0.900000E-01   1.00800           0
      8326 MEMB     138      CHL1     H27C     HAL3     0.900000E-01   1.00800           0
      8327 MEMB     139      CHL1     C3       CRL1     0.140000       12.0110           0
      8328 MEMB     139      CHL1     H3       HGA1     0.900000E-01   1.00800           0
      8329 MEMB     139      CHL1     O3       OHL     -0.660000       15.9994           0
      8330 MEMB     139      CHL1     H3'      HOL      0.430000       1.00800           0
      8331 MEMB     139      CHL1     C4       CRL2    -0.180000       12.0110           0
      8332 MEMB     139      CHL1     H4A      HGA2     0.900000E-01   1.00800           0
      8333 MEMB     139      CHL1     H4B      HGA2     0.900000E-01   1.00800           0
      8334 MEMB     139      CHL1     C5       CEL1     0.000000       12.0110           0
      8335 MEMB     139      CHL1     C6       CEL1    -0.150000       12.0110           0
      8336 MEMB     139      CHL1     H6       HEL1     0.150000       1.00800           0
      8337 MEMB     139      CHL1     C7       CRL2    -0.180000       12.0110           0
      8338 MEMB     139      CHL1     H7A      HGA2     0.900000E-01   1.00800           0
      8339 MEMB     139      CHL1     H7B      HGA2     0.900000E-01   1.00800           0
      8340 MEMB     139      CHL1     C8       CRL1    -0.900000E-01   12.0110           0
      8341 MEMB     139      CHL1     H8       HGA1     0.900000E-01   1.00800           0
      8342 MEMB     139      CHL1     C14      CRL1    -0.900000E-01   12.0110           0
      8343 MEMB     139      CHL1     H14      HGA1     0.900000E-01   1.00800           0
      8344 MEMB     139      CHL1     C15      CRL2    -0.180000       12.0110           0
      8345 MEMB     139      CHL1     H15A     HGA2     0.900000E-01   1.00800           0
      8346 MEMB     139      CHL1     H15B     HGA2     0.900000E-01   1.00800           0
      8347 MEMB     139      CHL1     C16      CRL2    -0.180000       12.0110           0
      8348 MEMB     139      CHL1     H16A     HGA2     0.900000E-01   1.00800           0
      8349 MEMB     139      CHL1     H16B     HGA2     0.900000E-01   1.00800           0
      8350 MEMB     139      CHL1     C17      CRL1    -0.900000E-01   12.0110           0
      8351 MEMB     139      CHL1     H17      HGA1     0.900000E-01   1.00800           0
      8352 MEMB     139      CHL1     C13      CRL1     0.000000       12.0110           0
      8353 MEMB     139      CHL1     C18      CTL3    -0.270000       12.0110           0
      8354 MEMB     139      CHL1     H18A     HAL3     0.900000E-01   1.00800           0
      8355 MEMB     139      CHL1     H18B     HAL3     0.900000E-01   1.00800           0
      8356 MEMB     139      CHL1     H18C     HAL3     0.900000E-01   1.00800           0
      8357 MEMB     139      CHL1     C12      CRL2    -0.180000       12.0110           0
      8358 MEMB     139      CHL1     H12A     HGA2     0.900000E-01   1.00800           0
      8359 MEMB     139      CHL1     H12B     HGA2     0.900000E-01   1.00800           0
      8360 MEMB     139      CHL1     C11      CRL2    -0.180000       12.0110           0
      8361 MEMB     139      CHL1     H11A     HGA2     0.900000E-01   1.00800           0
      8362 MEMB     139      CHL1     H11B     HGA2     0.900000E-01   1.00800           0
      8363 MEMB     139      CHL1     C9       CRL1    -0.900000E-01   12.0110           0
      8364 MEMB     139      CHL1     H9       HGA1     0.900000E-01   1.00800           0
      8365 MEMB     139      CHL1     C10      CRL1     0.000000       12.0110           0
      8366 MEMB     139      CHL1     C19      CTL3    -0.270000       12.0110           0
      8367 MEMB     139      CHL1     H19A     HAL3     0.900000E-01   1.00800           0
      8368 MEMB     139      CHL1     H19B     HAL3     0.900000E-01   1.00800           0
      8369 MEMB     139      CHL1     H19C     HAL3     0.900000E-01   1.00800           0
      8370 MEMB     139      CHL1     C1       CRL2    -0.180000       12.0110           0
      8371 MEMB     139      CHL1     H1A      HGA2     0.900000E-01   1.00800           0
      8372 MEMB     139      CHL1     H1B      HGA2     0.900000E-01   1.00800           0
      8373 MEMB     139      CHL1     C2       CRL2    -0.180000       12.0110           0
      8374 MEMB     139      CHL1     H2A      HGA2     0.900000E-01   1.00800           0
      8375 MEMB     139      CHL1     H2B      HGA2     0.900000E-01   1.00800           0
      8376 MEMB     139      CHL1     C20      CTL1    -0.900000E-01   12.0110           0
      8377 MEMB     139      CHL1     H20      HAL1     0.900000E-01   1.00800           0
      8378 MEMB     139      CHL1     C21      CTL3    -0.270000       12.0110           0
      8379 MEMB     139      CHL1     H21A     HAL3     0.900000E-01   1.00800           0
      8380 MEMB     139      CHL1     H21B     HAL3     0.900000E-01   1.00800           0
      8381 MEMB     139      CHL1     H21C     HAL3     0.900000E-01   1.00800           0
      8382 MEMB     139      CHL1     C22      CTL2    -0.180000       12.0110           0
      8383 MEMB     139      CHL1     H22A     HAL2     0.900000E-01   1.00800           0
      8384 MEMB     139      CHL1     H22B     HAL2     0.900000E-01   1.00800           0
      8385 MEMB     139      CHL1     C23      CTL2    -0.180000       12.0110           0
      8386 MEMB     139      CHL1     H23A     HAL2     0.900000E-01   1.00800           0
      8387 MEMB     139      CHL1     H23B     HAL2     0.900000E-01   1.00800           0
      8388 MEMB     139      CHL1     C24      CTL2    -0.180000       12.0110           0
      8389 MEMB     139      CHL1     H24A     HAL2     0.900000E-01   1.00800           0
      8390 MEMB     139      CHL1     H24B     HAL2     0.900000E-01   1.00800           0
      8391 MEMB     139      CHL1     C25      CTL1    -0.900000E-01   12.0110           0
      8392 MEMB     139      CHL1     H25      HAL1     0.900000E-01   1.00800           0
      8393 MEMB     139      CHL1     C26      CTL3    -0.270000       12.0110           0
      8394 MEMB     139      CHL1     H26A     HAL3     0.900000E-01   1.00800           0
      8395 MEMB     139      CHL1     H26B     HAL3     0.900000E-01   1.00800           0
      8396 MEMB     139      CHL1     H26C     HAL3     0.900000E-01   1.00800           0
      8397 MEMB     139      CHL1     C27      CTL3    -0.270000       12.0110           0
      8398 MEMB     139      CHL1     H27A     HAL3     0.900000E-01   1.00800           0
      8399 MEMB     139      CHL1     H27B     HAL3     0.900000E-01   1.00800           0
      8400 MEMB     139      CHL1     H27C     HAL3     0.900000E-01   1.00800           0
      8401 MEMB     143      CHL1     C3       CRL1     0.140000       12.0110           0
      8402 MEMB     143      CHL1     H3       HGA1     0.900000E-01   1.00800           0
      8403 MEMB     143      CHL1     O3       OHL     -0.660000       15.9994           0
      8404 MEMB     143      CHL1     H3'      HOL      0.430000       1.00800           0
      8405 MEMB     143      CHL1     C4       CRL2    -0.180000       12.0110           0
      8406 MEMB     143      CHL1     H4A      HGA2     0.900000E-01   1.00800           0
      8407 MEMB     143      CHL1     H4B      HGA2     0.900000E-01   1.00800           0
      8408 MEMB     143      CHL1     C5       CEL1     0.000000       12.0110           0
      8409 MEMB     143      CHL1     C6       CEL1    -0.150000       12.0110           0
      8410 MEMB     143      CHL1     H6       HEL1     0.150000       1.00800           0
      8411 MEMB     143      CHL1     C7       CRL2    -0.180000       12.0110           0
      8412 MEMB     143      CHL1     H7A      HGA2     0.900000E-01   1.00800           0
      8413 MEMB     143      CHL1     H7B      HGA2     0.900000E-01   1.00800           0
      8414 MEMB     143      CHL1     C8       CRL1    -0.900000E-01   12.0110           0
      8415 MEMB     143      CHL1     H8       HGA1     0.900000E-01   1.00800           0
      8416 MEMB     143      CHL1     C14      CRL1    -0.900000E-01   12.0110           0
      8417 MEMB     143      CHL1     H14      HGA1     0.900000E-01   1.00800           0
      8418 MEMB     143      CHL1     C15      CRL2    -0.180000       12.0110           0
      8419 MEMB     143      CHL1     H15A     HGA2     0.900000E-01   1.00800           0
      8420 MEMB     143      CHL1     H15B     HGA2     0.900000E-01   1.00800           0
      8421 MEMB     143      CHL1     C16      CRL2    -0.180000       12.0110           0
      8422 MEMB     143      CHL1     H16A     HGA2     0.900000E-01   1.00800           0
      8423 MEMB     143      CHL1     H16B     HGA2     0.900000E-01   1.00800           0
      8424 MEMB     143      CHL1     C17      CRL1    -0.900000E-01   12.0110           0
      8425 MEMB     143      CHL1     H17      HGA1     0.900000E-01   1.00800           0
      8426 MEMB     143      CHL1     C13      CRL1     0.000000       12.0110           0
      8427 MEMB     143      CHL1     C18      CTL3    -0.270000       12.0110           0
      8428 MEMB     143      CHL1     H18A     HAL3     0.900000E-01   1.00800           0
      8429 MEMB     143      CHL1     H18B     HAL3     0.900000E-01   1.00800           0
      8430 MEMB     143      CHL1     H18C     HAL3     0.900000E-01   1.00800           0
      8431 MEMB     143      CHL1     C12      CRL2    -0.180000       12.0110           0
      8432 MEMB     143      CHL1     H12A     HGA2     0.900000E-01   1.00800           0
      8433 MEMB     143      CHL1     H12B     HGA2     0.900000E-01   1.00800           0
      8434 MEMB     143      CHL1     C11      CRL2    -0.180000       12.0110           0
      8435 MEMB     143      CHL1     H11A     HGA2     0.900000E-01   1.00800           0
      8436 MEMB     143      CHL1     H11B     HGA2     0.900000E-01   1.00800           0
      8437 MEMB     143      CHL1     C9       CRL1    -0.900000E-01   12.0110           0
      8438 MEMB     143      CHL1     H9       HGA1     0.900000E-01   1.00800           0
      8439 MEMB     143      CHL1     C10      CRL1     0.000000       12.0110           0
      8440 MEMB     143      CHL1     C19      CTL3    -0.270000       12.0110           0
      8441 MEMB     143      CHL1     H19A     HAL3     0.900000E-01   1.00800           0
      8442 MEMB     143      CHL1     H19B     HAL3     0.900000E-01   1.00800           0
      8443 MEMB     143      CHL1     H19C     HAL3     0.900000E-01   1.00800           0
      8444 MEMB     143      CHL1     C1       CRL2    -0.180000       12.0110           0
      8445 MEMB     143      CHL1     H1A      HGA2     0.900000E-01   1.00800           0
      8446 MEMB     143      CHL1     H1B      HGA2     0.900000E-01   1.00800           0
      8447 MEMB     143      CHL1     C2       CRL2    -0.180000       12.0110           0
      8448 MEMB     143      CHL1     H2A      HGA2     0.900000E-01   1.00800           0
      8449 MEMB     143      CHL1     H2B      HGA2     0.900000E-01   1.00800           0
      8450 MEMB     143      CHL1     C20      CTL1    -0.900000E-01   12.0110           0
      8451 MEMB     143      CHL1     H20      HAL1     0.900000E-01   1.00800           0
      8452 MEMB     143      CHL1     C21      CTL3    -0.270000       12.0110           0
      8453 MEMB     143      CHL1     H21A     HAL3     0.900000E-01   1.00800           0
      8454 MEMB     143      CHL1     H21B     HAL3     0.900000E-01   1.00800           0
      8455 MEMB     143      CHL1     H21C     HAL3     0.900000E-01   1.00800           0
      8456 MEMB     143      CHL1     C22      CTL2    -0.180000       12.0110           0
      8457 MEMB     143      CHL1     H22A     HAL2     0.900000E-01   1.00800           0
      8458 MEMB     143      CHL1     H22B     HAL2     0.900000E-01   1.00800           0
      8459 MEMB     143      CHL1     C23      CTL2    -0.180000       12.0110           0
      8460 MEMB     143      CHL1     H23A     HAL2     0.900000E-01   1.00800           0
      8461 MEMB     143      CHL1     H23B     HAL2     0.900000E-01   1.00800           0
      8462 MEMB     143      CHL1     C24      CTL2    -0.180000       12.0110           0
      8463 MEMB     143      CHL1     H24A     HAL2     0.900000E-01   1.00800           0
      8464 MEMB     143      CHL1     H24B     HAL2     0.900000E-01   1.00800           0
      8465 MEMB     143      CHL1     C25      CTL1    -0.900000E-01   12.0110           0
      8466 MEMB     143      CHL1     H25      HAL1     0.900000E-01   1.00800           0
      8467 MEMB     143      CHL1     C26      CTL3    -0.270000       12.0110           0
      8468 MEMB     143      CHL1     H26A     HAL3     0.900000E-01   1.00800           0
      8469 MEMB     143      CHL1     H26B     HAL3     0.900000E-01   1.00800           0
      8470 MEMB     143      CHL1     H26C     HAL3     0.900000E-01   1.00800           0
      8471 MEMB     143      CHL1     C27      CTL3    -0.270000       12.0110           0
      8472 MEMB     143      CHL1     H27A     HAL3     0.900000E-01   1.00800           0
      8473 MEMB     143      CHL1     H27B     HAL3     0.900000E-01   1.00800           0
      8474 MEMB     143      CHL1     H27C     HAL3     0.900000E-01   1.00800           0
      8475 MEMB     151      CHL1     C3       CRL1     0.140000       12.0110           0
      8476 MEMB     151      CHL1     H3       HGA1     0.900000E-01   1.00800           0
      8477 MEMB     151      CHL1     O3       OHL     -0.660000       15.9994           0
      8478 MEMB     151      CHL1     H3'      HOL      0.430000       1.00800           0
      8479 MEMB     151      CHL1     C4       CRL2    -0.180000       12.0110           0
      8480 MEMB     151      CHL1     H4A      HGA2     0.900000E-01   1.00800           0
      8481 MEMB     151      CHL1     H4B      HGA2     0.900000E-01   1.00800           0
      8482 MEMB     151      CHL1     C5       CEL1     0.000000       12.0110           0
      8483 MEMB     151      CHL1     C6       CEL1    -0.150000       12.0110           0
      8484 MEMB     151      CHL1     H6       HEL1     0.150000       1.00800           0
      8485 MEMB     151      CHL1     C7       CRL2    -0.180000       12.0110           0
      8486 MEMB     151      CHL1     H7A      HGA2     0.900000E-01   1.00800           0
      8487 MEMB     151      CHL1     H7B      HGA2     0.900000E-01   1.00800           0
      8488 MEMB     151      CHL1     C8       CRL1    -0.900000E-01   12.0110           0
      8489 MEMB     151      CHL1     H8       HGA1     0.900000E-01   1.00800           0
      8490 MEMB     151      CHL1     C14      CRL1    -0.900000E-01   12.0110           0
      8491 MEMB     151      CHL1     H14      HGA1     0.900000E-01   1.00800           0
      8492 MEMB     151      CHL1     C15      CRL2    -0.180000       12.0110           0
      8493 MEMB     151      CHL1     H15A     HGA2     0.900000E-01   1.00800           0
      8494 MEMB     151      CHL1     H15B     HGA2     0.900000E-01   1.00800           0
      8495 MEMB     151      CHL1     C16      CRL2    -0.180000       12.0110           0
      8496 MEMB     151      CHL1     H16A     HGA2     0.900000E-01   1.00800           0
      8497 MEMB     151      CHL1     H16B     HGA2     0.900000E-01   1.00800           0
      8498 MEMB     151      CHL1     C17      CRL1    -0.900000E-01   12.0110           0
      8499 MEMB     151      CHL1     H17      HGA1     0.900000E-01   1.00800           0
      8500 MEMB     151      CHL1     C13      CRL1     0.000000       12.0110           0
      8501 MEMB     151      CHL1     C18      CTL3    -0.270000       12.0110           0
      8502 MEMB     151      CHL1     H18A     HAL3     0.900000E-01   1.00800           0
      8503 MEMB     151      CHL1     H18B     HAL3     0.900000E-01   1.00800           0
      8504 MEMB     151      CHL1     H18C     HAL3     0.900000E-01   1.00800           0
      8505 MEMB     151      CHL1     C12      CRL2    -0.180000       12.0110           0
      8506 MEMB     151      CHL1     H12A     HGA2     0.900000E-01   1.00800           0
      8507 MEMB     151      CHL1     H12B     HGA2     0.900000E-01   1.00800           0
      8508 MEMB     151      CHL1     C11      CRL2    -0.180000       12.0110           0
      8509 MEMB     151      CHL1     H11A     HGA2     0.900000E-01   1.00800           0
      8510 MEMB     151      CHL1     H11B     HGA2     0.900000E-01   1.00800           0
      8511 MEMB     151      CHL1     C9       CRL1    -0.900000E-01   12.0110           0
      8512 MEMB     151      CHL1     H9       HGA1     0.900000E-01   1.00800           0
      8513 MEMB     151      CHL1     C10      CRL1     0.000000       12.0110           0
      8514 MEMB     151      CHL1     C19      CTL3    -0.270000       12.0110           0
      8515 MEMB     151      CHL1     H19A     HAL3     0.900000E-01   1.00800           0
      8516 MEMB     151      CHL1     H19B     HAL3     0.900000E-01   1.00800           0
      8517 MEMB     151      CHL1     H19C     HAL3     0.900000E-01   1.00800           0
      8518 MEMB     151      CHL1     C1       CRL2    -0.180000       12.0110           0
      8519 MEMB     151      CHL1     H1A      HGA2     0.900000E-01   1.00800           0
      8520 MEMB     151      CHL1     H1B      HGA2     0.900000E-01   1.00800           0
      8521 MEMB     151      CHL1     C2       CRL2    -0.180000       12.0110           0
      8522 MEMB     151      CHL1     H2A      HGA2     0.900000E-01   1.00800           0
      8523 MEMB     151      CHL1     H2B      HGA2     0.900000E-01   1.00800           0
      8524 MEMB     151      CHL1     C20      CTL1    -0.900000E-01   12.0110           0
      8525 MEMB     151      CHL1     H20      HAL1     0.900000E-01   1.00800           0
      8526 MEMB     151      CHL1     C21      CTL3    -0.270000       12.0110           0
      8527 MEMB     151      CHL1     H21A     HAL3     0.900000E-01   1.00800           0
      8528 MEMB     151      CHL1     H21B     HAL3     0.900000E-01   1.00800           0
      8529 MEMB     151      CHL1     H21C     HAL3     0.900000E-01   1.00800           0
      8530 MEMB     151      CHL1     C22      CTL2    -0.180000       12.0110           0
      8531 MEMB     151      CHL1     H22A     HAL2     0.900000E-01   1.00800           0
      8532 MEMB     151      CHL1     H22B     HAL2     0.900000E-01   1.00800           0
      8533 MEMB     151      CHL1     C23      CTL2    -0.180000       12.0110           0
      8534 MEMB     151      CHL1     H23A     HAL2     0.900000E-01   1.00800           0
      8535 MEMB     151      CHL1     H23B     HAL2     0.900000E-01   1.00800           0
      8536 MEMB     151      CHL1     C24      CTL2    -0.180000       12.0110           0
      8537 MEMB     151      CHL1     H24A     HAL2     0.900000E-01   1.00800           0
      8538 MEMB     151      CHL1     H24B     HAL2     0.900000E-01   1.00800           0
      8539 MEMB     151      CHL1     C25      CTL1    -0.900000E-01   12.0110           0
      8540 MEMB     151      CHL1     H25      HAL1     0.900000E-01   1.00800           0
      8541 MEMB     151      CHL1     C26      CTL3    -0.270000       12.0110           0
      8542 MEMB     151      CHL1     H26A     HAL3     0.900000E-01   1.00800           0
      8543 MEMB     151      CHL1     H26B     HAL3     0.900000E-01   1.00800           0
      8544 MEMB     151      CHL1     H26C     HAL3     0.900000E-01   1.00800           0
      8545 MEMB     151      CHL1     C27      CTL3    -0.270000       12.0110           0
      8546 MEMB     151      CHL1     H27A     HAL3     0.900000E-01   1.00800           0
      8547 MEMB     151      CHL1     H27B     HAL3     0.900000E-01   1.00800           0
      8548 MEMB     151      CHL1     H27C     HAL3     0.900000E-01   1.00800           0
      8549 MEMB     152      CHL1     C3       CRL1     0.140000       12.0110           0
      8550 MEMB     152      CHL1     H3       HGA1     0.900000E-01   1.00800           0
      8551 MEMB     152      CHL1     O3       OHL     -0.660000       15.9994           0
      8552 MEMB     152      CHL1     H3'      HOL      0.430000       1.00800           0
      8553 MEMB     152      CHL1     C4       CRL2    -0.180000       12.0110           0
      8554 MEMB     152      CHL1     H4A      HGA2     0.900000E-01   1.00800           0
      8555 MEMB     152      CHL1     H4B      HGA2     0.900000E-01   1.00800           0
      8556 MEMB     152      CHL1     C5       CEL1     0.000000       12.0110           0
      8557 MEMB     152      CHL1     C6       CEL1    -0.150000       12.0110           0
      8558 MEMB     152      CHL1     H6       HEL1     0.150000       1.00800           0
      8559 MEMB     152      CHL1     C7       CRL2    -0.180000       12.0110           0
      8560 MEMB     152      CHL1     H7A      HGA2     0.900000E-01   1.00800           0
      8561 MEMB     152      CHL1     H7B      HGA2     0.900000E-01   1.00800           0
      8562 MEMB     152      CHL1     C8       CRL1    -0.900000E-01   12.0110           0
      8563 MEMB     152      CHL1     H8       HGA1     0.900000E-01   1.00800           0
      8564 MEMB     152      CHL1     C14      CRL1    -0.900000E-01   12.0110           0
      8565 MEMB     152      CHL1     H14      HGA1     0.900000E-01   1.00800           0
      8566 MEMB     152      CHL1     C15      CRL2    -0.180000       12.0110           0
      8567 MEMB     152      CHL1     H15A     HGA2     0.900000E-01   1.00800           0
      8568 MEMB     152      CHL1     H15B     HGA2     0.900000E-01   1.00800           0
      8569 MEMB     152      CHL1     C16      CRL2    -0.180000       12.0110           0
      8570 MEMB     152      CHL1     H16A     HGA2     0.900000E-01   1.00800           0
      8571 MEMB     152      CHL1     H16B     HGA2     0.900000E-01   1.00800           0
      8572 MEMB     152      CHL1     C17      CRL1    -0.900000E-01   12.0110           0
      8573 MEMB     152      CHL1     H17      HGA1     0.900000E-01   1.00800           0
      8574 MEMB     152      CHL1     C13      CRL1     0.000000       12.0110           0
      8575 MEMB     152      CHL1     C18      CTL3    -0.270000       12.0110           0
      8576 MEMB     152      CHL1     H18A     HAL3     0.900000E-01   1.00800           0
      8577 MEMB     152      CHL1     H18B     HAL3     0.900000E-01   1.00800           0
      8578 MEMB     152      CHL1     H18C     HAL3     0.900000E-01   1.00800           0
      8579 MEMB     152      CHL1     C12      CRL2    -0.180000       12.0110           0
      8580 MEMB     152      CHL1     H12A     HGA2     0.900000E-01   1.00800           0
      8581 MEMB     152      CHL1     H12B     HGA2     0.900000E-01   1.00800           0
      8582 MEMB     152      CHL1     C11      CRL2    -0.180000       12.0110           0
      8583 MEMB     152      CHL1     H11A     HGA2     0.900000E-01   1.00800           0
      8584 MEMB     152      CHL1     H11B     HGA2     0.900000E-01   1.00800           0
      8585 MEMB     152      CHL1     C9       CRL1    -0.900000E-01   12.0110           0
      8586 MEMB     152      CHL1     H9       HGA1     0.900000E-01   1.00800           0
      8587 MEMB     152      CHL1     C10      CRL1     0.000000       12.0110           0
      8588 MEMB     152      CHL1     C19      CTL3    -0.270000       12.0110           0
      8589 MEMB     152      CHL1     H19A     HAL3     0.900000E-01   1.00800           0
      8590 MEMB     152      CHL1     H19B     HAL3     0.900000E-01   1.00800           0
      8591 MEMB     152      CHL1     H19C     HAL3     0.900000E-01   1.00800           0
      8592 MEMB     152      CHL1     C1       CRL2    -0.180000       12.0110           0
      8593 MEMB     152      CHL1     H1A      HGA2     0.900000E-01   1.00800           0
      8594 MEMB     152      CHL1     H1B      HGA2     0.900000E-01   1.00800           0
      8595 MEMB     152      CHL1     C2       CRL2    -0.180000       12.0110           0
      8596 MEMB     152      CHL1     H2A      HGA2     0.900000E-01   1.00800           0
      8597 MEMB     152      CHL1     H2B      HGA2     0.900000E-01   1.00800           0
      8598 MEMB     152      CHL1     C20      CTL1    -0.900000E-01   12.0110           0
      8599 MEMB     152      CHL1     H20      HAL1     0.900000E-01   1.00800           0
      8600 MEMB     152      CHL1     C21      CTL3    -0.270000       12.0110           0
      8601 MEMB     152      CHL1     H21A     HAL3     0.900000E-01   1.00800           0
      8602 MEMB     152      CHL1     H21B     HAL3     0.900000E-01   1.00800           0
      8603 MEMB     152      CHL1     H21C     HAL3     0.900000E-01   1.00800           0
      8604 MEMB     152      CHL1     C22      CTL2    -0.180000       12.0110           0
      8605 MEMB     152      CHL1     H22A     HAL2     0.900000E-01   1.00800           0
      8606 MEMB     152      CHL1     H22B     HAL2     0.900000E-01   1.00800           0
      8607 MEMB     152      CHL1     C23      CTL2    -0.180000       12.0110           0
      8608 MEMB     152      CHL1     H23A     HAL2     0.900000E-01   1.00800           0
      8609 MEMB     152      CHL1     H23B     HAL2     0.900000E-01   1.00800           0
      8610 MEMB     152      CHL1     C24      CTL2    -0.180000       12.0110           0
      8611 MEMB     152      CHL1     H24A     HAL2     0.900000E-01   1.00800           0
      8612 MEMB     152      CHL1     H24B     HAL2     0.900000E-01   1.00800           0
      8613 MEMB     152      CHL1     C25      CTL1    -0.900000E-01   12.0110           0
      8614 MEMB     152      CHL1     H25      HAL1     0.900000E-01   1.00800           0
      8615 MEMB     152      CHL1     C26      CTL3    -0.270000       12.0110           0
      8616 MEMB     152      CHL1     H26A     HAL3     0.900000E-01   1.00800           0
      8617 MEMB     152      CHL1     H26B     HAL3     0.900000E-01   1.00800           0
      8618 MEMB     152      CHL1     H26C     HAL3     0.900000E-01   1.00800           0
      8619 MEMB     152      CHL1     C27      CTL3    -0.270000       12.0110           0
      8620 MEMB     152      CHL1     H27A     HAL3     0.900000E-01   1.00800           0
      8621 MEMB     152      CHL1     H27B     HAL3     0.900000E-01   1.00800           0
      8622 MEMB     152      CHL1     H27C     HAL3     0.900000E-01   1.00800           0
      8623 MEMB     153      CHL1     C3       CRL1     0.140000       12.0110           0
      8624 MEMB     153      CHL1     H3       HGA1     0.900000E-01   1.00800           0
      8625 MEMB     153      CHL1     O3       OHL     -0.660000       15.9994           0
      8626 MEMB     153      CHL1     H3'      HOL      0.430000       1.00800           0
      8627 MEMB     153      CHL1     C4       CRL2    -0.180000       12.0110           0
      8628 MEMB     153      CHL1     H4A      HGA2     0.900000E-01   1.00800           0
      8629 MEMB     153      CHL1     H4B      HGA2     0.900000E-01   1.00800           0
      8630 MEMB     153      CHL1     C5       CEL1     0.000000       12.0110           0
      8631 MEMB     153      CHL1     C6       CEL1    -0.150000       12.0110           0
      8632 MEMB     153      CHL1     H6       HEL1     0.150000       1.00800           0
      8633 MEMB     153      CHL1     C7       CRL2    -0.180000       12.0110           0
      8634 MEMB     153      CHL1     H7A      HGA2     0.900000E-01   1.00800           0
      8635 MEMB     153      CHL1     H7B      HGA2     0.900000E-01   1.00800           0
      8636 MEMB     153      CHL1     C8       CRL1    -0.900000E-01   12.0110           0
      8637 MEMB     153      CHL1     H8       HGA1     0.900000E-01   1.00800           0
      8638 MEMB     153      CHL1     C14      CRL1    -0.900000E-01   12.0110           0
      8639 MEMB     153      CHL1     H14      HGA1     0.900000E-01   1.00800           0
      8640 MEMB     153      CHL1     C15      CRL2    -0.180000       12.0110           0
      8641 MEMB     153      CHL1     H15A     HGA2     0.900000E-01   1.00800           0
      8642 MEMB     153      CHL1     H15B     HGA2     0.900000E-01   1.00800           0
      8643 MEMB     153      CHL1     C16      CRL2    -0.180000       12.0110           0
      8644 MEMB     153      CHL1     H16A     HGA2     0.900000E-01   1.00800           0
      8645 MEMB     153      CHL1     H16B     HGA2     0.900000E-01   1.00800           0
      8646 MEMB     153      CHL1     C17      CRL1    -0.900000E-01   12.0110           0
      8647 MEMB     153      CHL1     H17      HGA1     0.900000E-01   1.00800           0
      8648 MEMB     153      CHL1     C13      CRL1     0.000000       12.0110           0
      8649 MEMB     153      CHL1     C18      CTL3    -0.270000       12.0110           0
      8650 MEMB     153      CHL1     H18A     HAL3     0.900000E-01   1.00800           0
      8651 MEMB     153      CHL1     H18B     HAL3     0.900000E-01   1.00800           0
      8652 MEMB     153      CHL1     H18C     HAL3     0.900000E-01   1.00800           0
      8653 MEMB     153      CHL1     C12      CRL2    -0.180000       12.0110           0
      8654 MEMB     153      CHL1     H12A     HGA2     0.900000E-01   1.00800           0
      8655 MEMB     153      CHL1     H12B     HGA2     0.900000E-01   1.00800           0
      8656 MEMB     153      CHL1     C11      CRL2    -0.180000       12.0110           0
      8657 MEMB     153      CHL1     H11A     HGA2     0.900000E-01   1.00800           0
      8658 MEMB     153      CHL1     H11B     HGA2     0.900000E-01   1.00800           0
      8659 MEMB     153      CHL1     C9       CRL1    -0.900000E-01   12.0110           0
      8660 MEMB     153      CHL1     H9       HGA1     0.900000E-01   1.00800           0
      8661 MEMB     153      CHL1     C10      CRL1     0.000000       12.0110           0
      8662 MEMB     153      CHL1     C19      CTL3    -0.270000       12.0110           0
      8663 MEMB     153      CHL1     H19A     HAL3     0.900000E-01   1.00800           0
      8664 MEMB     153      CHL1     H19B     HAL3     0.900000E-01   1.00800           0
      8665 MEMB     153      CHL1     H19C     HAL3     0.900000E-01   1.00800           0
      8666 MEMB     153      CHL1     C1       CRL2    -0.180000       12.0110           0
      8667 MEMB     153      CHL1     H1A      HGA2     0.900000E-01   1.00800           0
      8668 MEMB     153      CHL1     H1B      HGA2     0.900000E-01   1.00800           0
      8669 MEMB     153      CHL1     C2       CRL2    -0.180000       12.0110           0
      8670 MEMB     153      CHL1     H2A      HGA2     0.900000E-01   1.00800           0
      8671 MEMB     153      CHL1     H2B      HGA2     0.900000E-01   1.00800           0
      8672 MEMB     153      CHL1     C20      CTL1    -0.900000E-01   12.0110           0
      8673 MEMB     153      CHL1     H20      HAL1     0.900000E-01   1.00800           0
      8674 MEMB     153      CHL1     C21      CTL3    -0.270000       12.0110           0
      8675 MEMB     153      CHL1     H21A     HAL3     0.900000E-01   1.00800           0
      8676 MEMB     153      CHL1     H21B     HAL3     0.900000E-01   1.00800           0
      8677 MEMB     153      CHL1     H21C     HAL3     0.900000E-01   1.00800           0
      8678 MEMB     153      CHL1     C22      CTL2    -0.180000       12.0110           0
      8679 MEMB     153      CHL1     H22A     HAL2     0.900000E-01   1.00800           0
      8680 MEMB     153      CHL1     H22B     HAL2     0.900000E-01   1.00800           0
      8681 MEMB     153      CHL1     C23      CTL2    -0.180000       12.0110           0
      8682 MEMB     153      CHL1     H23A     HAL2     0.900000E-01   1.00800           0
      8683 MEMB     153      CHL1     H23B     HAL2     0.900000E-01   1.00800           0
      8684 MEMB     153      CHL1     C24      CTL2    -0.180000       12.0110           0
      8685 MEMB     153      CHL1     H24A     HAL2     0.900000E-01   1.00800           0
      8686 MEMB     153      CHL1     H24B     HAL2     0.900000E-01   1.00800           0
      8687 MEMB     153      CHL1     C25      CTL1    -0.900000E-01   12.0110           0
      8688 MEMB     153      CHL1     H25      HAL1     0.900000E-01   1.00800           0
      8689 MEMB     153      CHL1     C26      CTL3    -0.270000       12.0110           0
      8690 MEMB     153      CHL1     H26A     HAL3     0.900000E-01   1.00800           0
      8691 MEMB     153      CHL1     H26B     HAL3     0.900000E-01   1.00800           0
      8692 MEMB     153      CHL1     H26C     HAL3     0.900000E-01   1.00800           0
      8693 MEMB     153      CHL1     C27      CTL3    -0.270000       12.0110           0
      8694 MEMB     153      CHL1     H27A     HAL3     0.900000E-01   1.00800           0
      8695 MEMB     153      CHL1     H27B     HAL3     0.900000E-01   1.00800           0
      8696 MEMB     153      CHL1     H27C     HAL3     0.900000E-01   1.00800           0
      8697 MEMB     154      CHL1     C3       CRL1     0.140000       12.0110           0
      8698 MEMB     154      CHL1     H3       HGA1     0.900000E-01   1.00800           0
      8699 MEMB     154      CHL1     O3       OHL     -0.660000       15.9994           0
      8700 MEMB     154      CHL1     H3'      HOL      0.430000       1.00800           0
      8701 MEMB     154      CHL1     C4       CRL2    -0.180000       12.0110           0
      8702 MEMB     154      CHL1     H4A      HGA2     0.900000E-01   1.00800           0
      8703 MEMB     154      CHL1     H4B      HGA2     0.900000E-01   1.00800           0
      8704 MEMB     154      CHL1     C5       CEL1     0.000000       12.0110           0
      8705 MEMB     154      CHL1     C6       CEL1    -0.150000       12.0110           0
      8706 MEMB     154      CHL1     H6       HEL1     0.150000       1.00800           0
      8707 MEMB     154      CHL1     C7       CRL2    -0.180000       12.0110           0
      8708 MEMB     154      CHL1     H7A      HGA2     0.900000E-01   1.00800           0
      8709 MEMB     154      CHL1     H7B      HGA2     0.900000E-01   1.00800           0
      8710 MEMB     154      CHL1     C8       CRL1    -0.900000E-01   12.0110           0
      8711 MEMB     154      CHL1     H8       HGA1     0.900000E-01   1.00800           0
      8712 MEMB     154      CHL1     C14      CRL1    -0.900000E-01   12.0110           0
      8713 MEMB     154      CHL1     H14      HGA1     0.900000E-01   1.00800           0
      8714 MEMB     154      CHL1     C15      CRL2    -0.180000       12.0110           0
      8715 MEMB     154      CHL1     H15A     HGA2     0.900000E-01   1.00800           0
      8716 MEMB     154      CHL1     H15B     HGA2     0.900000E-01   1.00800           0
      8717 MEMB     154      CHL1     C16      CRL2    -0.180000       12.0110           0
      8718 MEMB     154      CHL1     H16A     HGA2     0.900000E-01   1.00800           0
      8719 MEMB     154      CHL1     H16B     HGA2     0.900000E-01   1.00800           0
      8720 MEMB     154      CHL1     C17      CRL1    -0.900000E-01   12.0110           0
      8721 MEMB     154      CHL1     H17      HGA1     0.900000E-01   1.00800           0
      8722 MEMB     154      CHL1     C13      CRL1     0.000000       12.0110           0
      8723 MEMB     154      CHL1     C18      CTL3    -0.270000       12.0110           0
      8724 MEMB     154      CHL1     H18A     HAL3     0.900000E-01   1.00800           0
      8725 MEMB     154      CHL1     H18B     HAL3     0.900000E-01   1.00800           0
      8726 MEMB     154      CHL1     H18C     HAL3     0.900000E-01   1.00800           0
      8727 MEMB     154      CHL1     C12      CRL2    -0.180000       12.0110           0
      8728 MEMB     154      CHL1     H12A     HGA2     0.900000E-01   1.00800           0
      8729 MEMB     154      CHL1     H12B     HGA2     0.900000E-01   1.00800           0
      8730 MEMB     154      CHL1     C11      CRL2    -0.180000       12.0110           0
      8731 MEMB     154      CHL1     H11A     HGA2     0.900000E-01   1.00800           0
      8732 MEMB     154      CHL1     H11B     HGA2     0.900000E-01   1.00800           0
      8733 MEMB     154      CHL1     C9       CRL1    -0.900000E-01   12.0110           0
      8734 MEMB     154      CHL1     H9       HGA1     0.900000E-01   1.00800           0
      8735 MEMB     154      CHL1     C10      CRL1     0.000000       12.0110           0
      8736 MEMB     154      CHL1     C19      CTL3    -0.270000       12.0110           0
      8737 MEMB     154      CHL1     H19A     HAL3     0.900000E-01   1.00800           0
      8738 MEMB     154      CHL1     H19B     HAL3     0.900000E-01   1.00800           0
      8739 MEMB     154      CHL1     H19C     HAL3     0.900000E-01   1.00800           0
      8740 MEMB     154      CHL1     C1       CRL2    -0.180000       12.0110           0
      8741 MEMB     154      CHL1     H1A      HGA2     0.900000E-01   1.00800           0
      8742 MEMB     154      CHL1     H1B      HGA2     0.900000E-01   1.00800           0
      8743 MEMB     154      CHL1     C2       CRL2    -0.180000       12.0110           0
      8744 MEMB     154      CHL1     H2A      HGA2     0.900000E-01   1.00800           0
      8745 MEMB     154      CHL1     H2B      HGA2     0.900000E-01   1.00800           0
      8746 MEMB     154      CHL1     C20      CTL1    -0.900000E-01   12.0110           0
      8747 MEMB     154      CHL1     H20      HAL1     0.900000E-01   1.00800           0
      8748 MEMB     154      CHL1     C21      CTL3    -0.270000       12.0110           0
      8749 MEMB     154      CHL1     H21A     HAL3     0.900000E-01   1.00800           0
      8750 MEMB     154      CHL1     H21B     HAL3     0.900000E-01   1.00800           0
      8751 MEMB     154      CHL1     H21C     HAL3     0.900000E-01   1.00800           0
      8752 MEMB     154      CHL1     C22      CTL2    -0.180000       12.0110           0
      8753 MEMB     154      CHL1     H22A     HAL2     0.900000E-01   1.00800           0
      8754 MEMB     154      CHL1     H22B     HAL2     0.900000E-01   1.00800           0
      8755 MEMB     154      CHL1     C23      CTL2    -0.180000       12.0110           0
      8756 MEMB     154      CHL1     H23A     HAL2     0.900000E-01   1.00800           0
      8757 MEMB     154      CHL1     H23B     HAL2     0.900000E-01   1.00800           0
      8758 MEMB     154      CHL1     C24      CTL2    -0.180000       12.0110           0
      8759 MEMB     154      CHL1     H24A     HAL2     0.900000E-01   1.00800           0
      8760 MEMB     154      CHL1     H24B     HAL2     0.900000E-01   1.00800           0
      8761 MEMB     154      CHL1     C25      CTL1    -0.900000E-01   12.0110           0
      8762 MEMB     154      CHL1     H25      HAL1     0.900000E-01   1.00800           0
      8763 MEMB     154      CHL1     C26      CTL3    -0.270000       12.0110           0
      8764 MEMB     154      CHL1     H26A     HAL3     0.900000E-01   1.00800           0
      8765 MEMB     154      CHL1     H26B     HAL3     0.900000E-01   1.00800           0
      8766 MEMB     154      CHL1     H26C     HAL3     0.900000E-01   1.00800           0
      8767 MEMB     154      CHL1     C27      CTL3    -0.270000       12.0110           0
      8768 MEMB     154      CHL1     H27A     HAL3     0.900000E-01   1.00800           0
      8769 MEMB     154      CHL1     H27B     HAL3     0.900000E-01   1.00800           0
      8770 MEMB     154      CHL1     H27C     HAL3     0.900000E-01   1.00800           0
      8771 MEMB     155      CHL1     C3       CRL1     0.140000       12.0110           0
      8772 MEMB     155      CHL1     H3       HGA1     0.900000E-01   1.00800           0
      8773 MEMB     155      CHL1     O3       OHL     -0.660000       15.9994           0
      8774 MEMB     155      CHL1     H3'      HOL      0.430000       1.00800           0
      8775 MEMB     155      CHL1     C4       CRL2    -0.180000       12.0110           0
      8776 MEMB     155      CHL1     H4A      HGA2     0.900000E-01   1.00800           0
      8777 MEMB     155      CHL1     H4B      HGA2     0.900000E-01   1.00800           0
      8778 MEMB     155      CHL1     C5       CEL1     0.000000       12.0110           0
      8779 MEMB     155      CHL1     C6       CEL1    -0.150000       12.0110           0
      8780 MEMB     155      CHL1     H6       HEL1     0.150000       1.00800           0
      8781 MEMB     155      CHL1     C7       CRL2    -0.180000       12.0110           0
      8782 MEMB     155      CHL1     H7A      HGA2     0.900000E-01   1.00800           0
      8783 MEMB     155      CHL1     H7B      HGA2     0.900000E-01   1.00800           0
      8784 MEMB     155      CHL1     C8       CRL1    -0.900000E-01   12.0110           0
      8785 MEMB     155      CHL1     H8       HGA1     0.900000E-01   1.00800           0
      8786 MEMB     155      CHL1     C14      CRL1    -0.900000E-01   12.0110           0
      8787 MEMB     155      CHL1     H14      HGA1     0.900000E-01   1.00800           0
      8788 MEMB     155      CHL1     C15      CRL2    -0.180000       12.0110           0
      8789 MEMB     155      CHL1     H15A     HGA2     0.900000E-01   1.00800           0
      8790 MEMB     155      CHL1     H15B     HGA2     0.900000E-01   1.00800           0
      8791 MEMB     155      CHL1     C16      CRL2    -0.180000       12.0110           0
      8792 MEMB     155      CHL1     H16A     HGA2     0.900000E-01   1.00800           0
      8793 MEMB     155      CHL1     H16B     HGA2     0.900000E-01   1.00800           0
      8794 MEMB     155      CHL1     C17      CRL1    -0.900000E-01   12.0110           0
      8795 MEMB     155      CHL1     H17      HGA1     0.900000E-01   1.00800           0
      8796 MEMB     155      CHL1     C13      CRL1     0.000000       12.0110           0
      8797 MEMB     155      CHL1     C18      CTL3    -0.270000       12.0110           0
      8798 MEMB     155      CHL1     H18A     HAL3     0.900000E-01   1.00800           0
      8799 MEMB     155      CHL1     H18B     HAL3     0.900000E-01   1.00800           0
      8800 MEMB     155      CHL1     H18C     HAL3     0.900000E-01   1.00800           0
      8801 MEMB     155      CHL1     C12      CRL2    -0.180000       12.0110           0
      8802 MEMB     155      CHL1     H12A     HGA2     0.900000E-01   1.00800           0
      8803 MEMB     155      CHL1     H12B     HGA2     0.900000E-01   1.00800           0
      8804 MEMB     155      CHL1     C11      CRL2    -0.180000       12.0110           0
      8805 MEMB     155      CHL1     H11A     HGA2     0.900000E-01   1.00800           0
      8806 MEMB     155      CHL1     H11B     HGA2     0.900000E-01   1.00800           0
      8807 MEMB     155      CHL1     C9       CRL1    -0.900000E-01   12.0110           0
      8808 MEMB     155      CHL1     H9       HGA1     0.900000E-01   1.00800           0
      8809 MEMB     155      CHL1     C10      CRL1     0.000000       12.0110           0
      8810 MEMB     155      CHL1     C19      CTL3    -0.270000       12.0110           0
      8811 MEMB     155      CHL1     H19A     HAL3     0.900000E-01   1.00800           0
      8812 MEMB     155      CHL1     H19B     HAL3     0.900000E-01   1.00800           0
      8813 MEMB     155      CHL1     H19C     HAL3     0.900000E-01   1.00800           0
      8814 MEMB     155      CHL1     C1       CRL2    -0.180000       12.0110           0
      8815 MEMB     155      CHL1     H1A      HGA2     0.900000E-01   1.00800           0
      8816 MEMB     155      CHL1     H1B      HGA2     0.900000E-01   1.00800           0
      8817 MEMB     155      CHL1     C2       CRL2    -0.180000       12.0110           0
      8818 MEMB     155      CHL1     H2A      HGA2     0.900000E-01   1.00800           0
      8819 MEMB     155      CHL1     H2B      HGA2     0.900000E-01   1.00800           0
      8820 MEMB     155      CHL1     C20      CTL1    -0.900000E-01   12.0110           0
      8821 MEMB     155      CHL1     H20      HAL1     0.900000E-01   1.00800           0
      8822 MEMB     155      CHL1     C21      CTL3    -0.270000       12.0110           0
      8823 MEMB     155      CHL1     H21A     HAL3     0.900000E-01   1.00800           0
      8824 MEMB     155      CHL1     H21B     HAL3     0.900000E-01   1.00800           0
      8825 MEMB     155      CHL1     H21C     HAL3     0.900000E-01   1.00800           0
      8826 MEMB     155      CHL1     C22      CTL2    -0.180000       12.0110           0
      8827 MEMB     155      CHL1     H22A     HAL2     0.900000E-01   1.00800           0
      8828 MEMB     155      CHL1     H22B     HAL2     0.900000E-01   1.00800           0
      8829 MEMB     155      CHL1     C23      CTL2    -0.180000       12.0110           0
      8830 MEMB     155      CHL1     H23A     HAL2     0.900000E-01   1.00800           0
      8831 MEMB     155      CHL1     H23B     HAL2     0.900000E-01   1.00800           0
      8832 MEMB     155      CHL1     C24      CTL2    -0.180000       12.0110           0
      8833 MEMB     155      CHL1     H24A     HAL2     0.900000E-01   1.00800           0
      8834 MEMB     155      CHL1     H24B     HAL2     0.900000E-01   1.00800           0
      8835 MEMB     155      CHL1     C25      CTL1    -0.900000E-01   12.0110           0
      8836 MEMB     155      CHL1     H25      HAL1     0.900000E-01   1.00800           0
      8837 MEMB     155      CHL1     C26      CTL3    -0.270000       12.0110           0
      8838 MEMB     155      CHL1     H26A     HAL3     0.900000E-01   1.00800           0
      8839 MEMB     155      CHL1     H26B     HAL3     0.900000E-01   1.00800           0
      8840 MEMB     155      CHL1     H26C     HAL3     0.900000E-01   1.00800           0
      8841 MEMB     155      CHL1     C27      CTL3    -0.270000       12.0110           0
      8842 MEMB     155      CHL1     H27A     HAL3     0.900000E-01   1.00800           0
      8843 MEMB     155      CHL1     H27B     HAL3     0.900000E-01   1.00800           0
      8844 MEMB     155      CHL1     H27C     HAL3     0.900000E-01   1.00800           0
      8845 MEMB     156      CHL1     C3       CRL1     0.140000       12.0110           0
      8846 MEMB     156      CHL1     H3       HGA1     0.900000E-01   1.00800           0
      8847 MEMB     156      CHL1     O3       OHL     -0.660000       15.9994           0
      8848 MEMB     156      CHL1     H3'      HOL      0.430000       1.00800           0
      8849 MEMB     156      CHL1     C4       CRL2    -0.180000       12.0110           0
      8850 MEMB     156      CHL1     H4A      HGA2     0.900000E-01   1.00800           0
      8851 MEMB     156      CHL1     H4B      HGA2     0.900000E-01   1.00800           0
      8852 MEMB     156      CHL1     C5       CEL1     0.000000       12.0110           0
      8853 MEMB     156      CHL1     C6       CEL1    -0.150000       12.0110           0
      8854 MEMB     156      CHL1     H6       HEL1     0.150000       1.00800           0
      8855 MEMB     156      CHL1     C7       CRL2    -0.180000       12.0110           0
      8856 MEMB     156      CHL1     H7A      HGA2     0.900000E-01   1.00800           0
      8857 MEMB     156      CHL1     H7B      HGA2     0.900000E-01   1.00800           0
      8858 MEMB     156      CHL1     C8       CRL1    -0.900000E-01   12.0110           0
      8859 MEMB     156      CHL1     H8       HGA1     0.900000E-01   1.00800           0
      8860 MEMB     156      CHL1     C14      CRL1    -0.900000E-01   12.0110           0
      8861 MEMB     156      CHL1     H14      HGA1     0.900000E-01   1.00800           0
      8862 MEMB     156      CHL1     C15      CRL2    -0.180000       12.0110           0
      8863 MEMB     156      CHL1     H15A     HGA2     0.900000E-01   1.00800           0
      8864 MEMB     156      CHL1     H15B     HGA2     0.900000E-01   1.00800           0
      8865 MEMB     156      CHL1     C16      CRL2    -0.180000       12.0110           0
      8866 MEMB     156      CHL1     H16A     HGA2     0.900000E-01   1.00800           0
      8867 MEMB     156      CHL1     H16B     HGA2     0.900000E-01   1.00800           0
      8868 MEMB     156      CHL1     C17      CRL1    -0.900000E-01   12.0110           0
      8869 MEMB     156      CHL1     H17      HGA1     0.900000E-01   1.00800           0
      8870 MEMB     156      CHL1     C13      CRL1     0.000000       12.0110           0
      8871 MEMB     156      CHL1     C18      CTL3    -0.270000       12.0110           0
      8872 MEMB     156      CHL1     H18A     HAL3     0.900000E-01   1.00800           0
      8873 MEMB     156      CHL1     H18B     HAL3     0.900000E-01   1.00800           0
      8874 MEMB     156      CHL1     H18C     HAL3     0.900000E-01   1.00800           0
      8875 MEMB     156      CHL1     C12      CRL2    -0.180000       12.0110           0
      8876 MEMB     156      CHL1     H12A     HGA2     0.900000E-01   1.00800           0
      8877 MEMB     156      CHL1     H12B     HGA2     0.900000E-01   1.00800           0
      8878 MEMB     156      CHL1     C11      CRL2    -0.180000       12.0110           0
      8879 MEMB     156      CHL1     H11A     HGA2     0.900000E-01   1.00800           0
      8880 MEMB     156      CHL1     H11B     HGA2     0.900000E-01   1.00800           0
      8881 MEMB     156      CHL1     C9       CRL1    -0.900000E-01   12.0110           0
      8882 MEMB     156      CHL1     H9       HGA1     0.900000E-01   1.00800           0
      8883 MEMB     156      CHL1     C10      CRL1     0.000000       12.0110           0
      8884 MEMB     156      CHL1     C19      CTL3    -0.270000       12.0110           0
      8885 MEMB     156      CHL1     H19A     HAL3     0.900000E-01   1.00800           0
      8886 MEMB     156      CHL1     H19B     HAL3     0.900000E-01   1.00800           0
      8887 MEMB     156      CHL1     H19C     HAL3     0.900000E-01   1.00800           0
      8888 MEMB     156      CHL1     C1       CRL2    -0.180000       12.0110           0
      8889 MEMB     156      CHL1     H1A      HGA2     0.900000E-01   1.00800           0
      8890 MEMB     156      CHL1     H1B      HGA2     0.900000E-01   1.00800           0
      8891 MEMB     156      CHL1     C2       CRL2    -0.180000       12.0110           0
      8892 MEMB     156      CHL1     H2A      HGA2     0.900000E-01   1.00800           0
      8893 MEMB     156      CHL1     H2B      HGA2     0.900000E-01   1.00800           0
      8894 MEMB     156      CHL1     C20      CTL1    -0.900000E-01   12.0110           0
      8895 MEMB     156      CHL1     H20      HAL1     0.900000E-01   1.00800           0
      8896 MEMB     156      CHL1     C21      CTL3    -0.270000       12.0110           0
      8897 MEMB     156      CHL1     H21A     HAL3     0.900000E-01   1.00800           0
      8898 MEMB     156      CHL1     H21B     HAL3     0.900000E-01   1.00800           0
      8899 MEMB     156      CHL1     H21C     HAL3     0.900000E-01   1.00800           0
      8900 MEMB     156      CHL1     C22      CTL2    -0.180000       12.0110           0
      8901 MEMB     156      CHL1     H22A     HAL2     0.900000E-01   1.00800           0
      8902 MEMB     156      CHL1     H22B     HAL2     0.900000E-01   1.00800           0
      8903 MEMB     156      CHL1     C23      CTL2    -0.180000       12.0110           0
      8904 MEMB     156      CHL1     H23A     HAL2     0.900000E-01   1.00800           0
      8905 MEMB     156      CHL1     H23B     HAL2     0.900000E-01   1.00800           0
      8906 MEMB     156      CHL1     C24      CTL2    -0.180000       12.0110           0
      8907 MEMB     156      CHL1     H24A     HAL2     0.900000E-01   1.00800           0
      8908 MEMB     156      CHL1     H24B     HAL2     0.900000E-01   1.00800           0
      8909 MEMB     156      CHL1     C25      CTL1    -0.900000E-01   12.0110           0
      8910 MEMB     156      CHL1     H25      HAL1     0.900000E-01   1.00800           0
      8911 MEMB     156      CHL1     C26      CTL3    -0.270000       12.0110           0
      8912 MEMB     156      CHL1     H26A     HAL3     0.900000E-01   1.00800           0
      8913 MEMB     156      CHL1     H26B     HAL3     0.900000E-01   1.00800           0
      8914 MEMB     156      CHL1     H26C     HAL3     0.900000E-01   1.00800           0
      8915 MEMB     156      CHL1     C27      CTL3    -0.270000       12.0110           0
      8916 MEMB     156      CHL1     H27A     HAL3     0.900000E-01   1.00800           0
      8917 MEMB     156      CHL1     H27B     HAL3     0.900000E-01   1.00800           0
      8918 MEMB     156      CHL1     H27C     HAL3     0.900000E-01   1.00800           0
      8919 MEMB     160      CHL1     C3       CRL1     0.140000       12.0110           0
      8920 MEMB     160      CHL1     H3       HGA1     0.900000E-01   1.00800           0
      8921 MEMB     160      CHL1     O3       OHL     -0.660000       15.9994           0
      8922 MEMB     160      CHL1     H3'      HOL      0.430000       1.00800           0
      8923 MEMB     160      CHL1     C4       CRL2    -0.180000       12.0110           0
      8924 MEMB     160      CHL1     H4A      HGA2     0.900000E-01   1.00800           0
      8925 MEMB     160      CHL1     H4B      HGA2     0.900000E-01   1.00800           0
      8926 MEMB     160      CHL1     C5       CEL1     0.000000       12.0110           0
      8927 MEMB     160      CHL1     C6       CEL1    -0.150000       12.0110           0
      8928 MEMB     160      CHL1     H6       HEL1     0.150000       1.00800           0
      8929 MEMB     160      CHL1     C7       CRL2    -0.180000       12.0110           0
      8930 MEMB     160      CHL1     H7A      HGA2     0.900000E-01   1.00800           0
      8931 MEMB     160      CHL1     H7B      HGA2     0.900000E-01   1.00800           0
      8932 MEMB     160      CHL1     C8       CRL1    -0.900000E-01   12.0110           0
      8933 MEMB     160      CHL1     H8       HGA1     0.900000E-01   1.00800           0
      8934 MEMB     160      CHL1     C14      CRL1    -0.900000E-01   12.0110           0
      8935 MEMB     160      CHL1     H14      HGA1     0.900000E-01   1.00800           0
      8936 MEMB     160      CHL1     C15      CRL2    -0.180000       12.0110           0
      8937 MEMB     160      CHL1     H15A     HGA2     0.900000E-01   1.00800           0
      8938 MEMB     160      CHL1     H15B     HGA2     0.900000E-01   1.00800           0
      8939 MEMB     160      CHL1     C16      CRL2    -0.180000       12.0110           0
      8940 MEMB     160      CHL1     H16A     HGA2     0.900000E-01   1.00800           0
      8941 MEMB     160      CHL1     H16B     HGA2     0.900000E-01   1.00800           0
      8942 MEMB     160      CHL1     C17      CRL1    -0.900000E-01   12.0110           0
      8943 MEMB     160      CHL1     H17      HGA1     0.900000E-01   1.00800           0
      8944 MEMB     160      CHL1     C13      CRL1     0.000000       12.0110           0
      8945 MEMB     160      CHL1     C18      CTL3    -0.270000       12.0110           0
      8946 MEMB     160      CHL1     H18A     HAL3     0.900000E-01   1.00800           0
      8947 MEMB     160      CHL1     H18B     HAL3     0.900000E-01   1.00800           0
      8948 MEMB     160      CHL1     H18C     HAL3     0.900000E-01   1.00800           0
      8949 MEMB     160      CHL1     C12      CRL2    -0.180000       12.0110           0
      8950 MEMB     160      CHL1     H12A     HGA2     0.900000E-01   1.00800           0
      8951 MEMB     160      CHL1     H12B     HGA2     0.900000E-01   1.00800           0
      8952 MEMB     160      CHL1     C11      CRL2    -0.180000       12.0110           0
      8953 MEMB     160      CHL1     H11A     HGA2     0.900000E-01   1.00800           0
      8954 MEMB     160      CHL1     H11B     HGA2     0.900000E-01   1.00800           0
      8955 MEMB     160      CHL1     C9       CRL1    -0.900000E-01   12.0110           0
      8956 MEMB     160      CHL1     H9       HGA1     0.900000E-01   1.00800           0
      8957 MEMB     160      CHL1     C10      CRL1     0.000000       12.0110           0
      8958 MEMB     160      CHL1     C19      CTL3    -0.270000       12.0110           0
      8959 MEMB     160      CHL1     H19A     HAL3     0.900000E-01   1.00800           0
      8960 MEMB     160      CHL1     H19B     HAL3     0.900000E-01   1.00800           0
      8961 MEMB     160      CHL1     H19C     HAL3     0.900000E-01   1.00800           0
      8962 MEMB     160      CHL1     C1       CRL2    -0.180000       12.0110           0
      8963 MEMB     160      CHL1     H1A      HGA2     0.900000E-01   1.00800           0
      8964 MEMB     160      CHL1     H1B      HGA2     0.900000E-01   1.00800           0
      8965 MEMB     160      CHL1     C2       CRL2    -0.180000       12.0110           0
      8966 MEMB     160      CHL1     H2A      HGA2     0.900000E-01   1.00800           0
      8967 MEMB     160      CHL1     H2B      HGA2     0.900000E-01   1.00800           0
      8968 MEMB     160      CHL1     C20      CTL1    -0.900000E-01   12.0110           0
      8969 MEMB     160      CHL1     H20      HAL1     0.900000E-01   1.00800           0
      8970 MEMB     160      CHL1     C21      CTL3    -0.270000       12.0110           0
      8971 MEMB     160      CHL1     H21A     HAL3     0.900000E-01   1.00800           0
      8972 MEMB     160      CHL1     H21B     HAL3     0.900000E-01   1.00800           0
      8973 MEMB     160      CHL1     H21C     HAL3     0.900000E-01   1.00800           0
      8974 MEMB     160      CHL1     C22      CTL2    -0.180000       12.0110           0
      8975 MEMB     160      CHL1     H22A     HAL2     0.900000E-01   1.00800           0
      8976 MEMB     160      CHL1     H22B     HAL2     0.900000E-01   1.00800           0
      8977 MEMB     160      CHL1     C23      CTL2    -0.180000       12.0110           0
      8978 MEMB     160      CHL1     H23A     HAL2     0.900000E-01   1.00800           0
      8979 MEMB     160      CHL1     H23B     HAL2     0.900000E-01   1.00800           0
      8980 MEMB     160      CHL1     C24      CTL2    -0.180000       12.0110           0
      8981 MEMB     160      CHL1     H24A     HAL2     0.900000E-01   1.00800           0
      8982 MEMB     160      CHL1     H24B     HAL2     0.900000E-01   1.00800           0
      8983 MEMB     160      CHL1     C25      CTL1    -0.900000E-01   12.0110           0
      8984 MEMB     160      CHL1     H25      HAL1     0.900000E-01   1.00800           0
      8985 MEMB     160      CHL1     C26      CTL3    -0.270000       12.0110           0
      8986 MEMB     160      CHL1     H26A     HAL3     0.900000E-01   1.00800           0
      8987 MEMB     160      CHL1     H26B     HAL3     0.900000E-01   1.00800           0
      8988 MEMB     160      CHL1     H26C     HAL3     0.900000E-01   1.00800           0
      8989 MEMB     160      CHL1     C27      CTL3    -0.270000       12.0110           0
      8990 MEMB     160      CHL1     H27A     HAL3     0.900000E-01   1.00800           0
      8991 MEMB     160      CHL1     H27B     HAL3     0.900000E-01   1.00800           0
      8992 MEMB     160      CHL1     H27C     HAL3     0.900000E-01   1.00800           0
      8993 MEMB     162      CHL1     C3       CRL1     0.140000       12.0110           0
      8994 MEMB     162      CHL1     H3       HGA1     0.900000E-01   1.00800           0
      8995 MEMB     162      CHL1     O3       OHL     -0.660000       15.9994           0
      8996 MEMB     162      CHL1     H3'      HOL      0.430000       1.00800           0
      8997 MEMB     162      CHL1     C4       CRL2    -0.180000       12.0110           0
      8998 MEMB     162      CHL1     H4A      HGA2     0.900000E-01   1.00800           0
      8999 MEMB     162      CHL1     H4B      HGA2     0.900000E-01   1.00800           0
      9000 MEMB     162      CHL1     C5       CEL1     0.000000       12.0110           0
      9001 MEMB     162      CHL1     C6       CEL1    -0.150000       12.0110           0
      9002 MEMB     162      CHL1     H6       HEL1     0.150000       1.00800           0
      9003 MEMB     162      CHL1     C7       CRL2    -0.180000       12.0110           0
      9004 MEMB     162      CHL1     H7A      HGA2     0.900000E-01   1.00800           0
      9005 MEMB     162      CHL1     H7B      HGA2     0.900000E-01   1.00800           0
      9006 MEMB     162      CHL1     C8       CRL1    -0.900000E-01   12.0110           0
      9007 MEMB     162      CHL1     H8       HGA1     0.900000E-01   1.00800           0
      9008 MEMB     162      CHL1     C14      CRL1    -0.900000E-01   12.0110           0
      9009 MEMB     162      CHL1     H14      HGA1     0.900000E-01   1.00800           0
      9010 MEMB     162      CHL1     C15      CRL2    -0.180000       12.0110           0
      9011 MEMB     162      CHL1     H15A     HGA2     0.900000E-01   1.00800           0
      9012 MEMB     162      CHL1     H15B     HGA2     0.900000E-01   1.00800           0
      9013 MEMB     162      CHL1     C16      CRL2    -0.180000       12.0110           0
      9014 MEMB     162      CHL1     H16A     HGA2     0.900000E-01   1.00800           0
      9015 MEMB     162      CHL1     H16B     HGA2     0.900000E-01   1.00800           0
      9016 MEMB     162      CHL1     C17      CRL1    -0.900000E-01   12.0110           0
      9017 MEMB     162      CHL1     H17      HGA1     0.900000E-01   1.00800           0
      9018 MEMB     162      CHL1     C13      CRL1     0.000000       12.0110           0
      9019 MEMB     162      CHL1     C18      CTL3    -0.270000       12.0110           0
      9020 MEMB     162      CHL1     H18A     HAL3     0.900000E-01   1.00800           0
      9021 MEMB     162      CHL1     H18B     HAL3     0.900000E-01   1.00800           0
      9022 MEMB     162      CHL1     H18C     HAL3     0.900000E-01   1.00800           0
      9023 MEMB     162      CHL1     C12      CRL2    -0.180000       12.0110           0
      9024 MEMB     162      CHL1     H12A     HGA2     0.900000E-01   1.00800           0
      9025 MEMB     162      CHL1     H12B     HGA2     0.900000E-01   1.00800           0
      9026 MEMB     162      CHL1     C11      CRL2    -0.180000       12.0110           0
      9027 MEMB     162      CHL1     H11A     HGA2     0.900000E-01   1.00800           0
      9028 MEMB     162      CHL1     H11B     HGA2     0.900000E-01   1.00800           0
      9029 MEMB     162      CHL1     C9       CRL1    -0.900000E-01   12.0110           0
      9030 MEMB     162      CHL1     H9       HGA1     0.900000E-01   1.00800           0
      9031 MEMB     162      CHL1     C10      CRL1     0.000000       12.0110           0
      9032 MEMB     162      CHL1     C19      CTL3    -0.270000       12.0110           0
      9033 MEMB     162      CHL1     H19A     HAL3     0.900000E-01   1.00800           0
      9034 MEMB     162      CHL1     H19B     HAL3     0.900000E-01   1.00800           0
      9035 MEMB     162      CHL1     H19C     HAL3     0.900000E-01   1.00800           0
      9036 MEMB     162      CHL1     C1       CRL2    -0.180000       12.0110           0
      9037 MEMB     162      CHL1     H1A      HGA2     0.900000E-01   1.00800           0
      9038 MEMB     162      CHL1     H1B      HGA2     0.900000E-01   1.00800           0
      9039 MEMB     162      CHL1     C2       CRL2    -0.180000       12.0110           0
      9040 MEMB     162      CHL1     H2A      HGA2     0.900000E-01   1.00800           0
      9041 MEMB     162      CHL1     H2B      HGA2     0.900000E-01   1.00800           0
      9042 MEMB     162      CHL1     C20      CTL1    -0.900000E-01   12.0110           0
      9043 MEMB     162      CHL1     H20      HAL1     0.900000E-01   1.00800           0
      9044 MEMB     162      CHL1     C21      CTL3    -0.270000       12.0110           0
      9045 MEMB     162      CHL1     H21A     HAL3     0.900000E-01   1.00800           0
      9046 MEMB     162      CHL1     H21B     HAL3     0.900000E-01   1.00800           0
      9047 MEMB     162      CHL1     H21C     HAL3     0.900000E-01   1.00800           0
      9048 MEMB     162      CHL1     C22      CTL2    -0.180000       12.0110           0
      9049 MEMB     162      CHL1     H22A     HAL2     0.900000E-01   1.00800           0
      9050 MEMB     162      CHL1     H22B     HAL2     0.900000E-01   1.00800           0
      9051 MEMB     162      CHL1     C23      CTL2    -0.180000       12.0110           0
      9052 MEMB     162      CHL1     H23A     HAL2     0.900000E-01   1.00800           0
      9053 MEMB     162      CHL1     H23B     HAL2     0.900000E-01   1.00800           0
      9054 MEMB     162      CHL1     C24      CTL2    -0.180000       12.0110           0
      9055 MEMB     162      CHL1     H24A     HAL2     0.900000E-01   1.00800           0
      9056 MEMB     162      CHL1     H24B     HAL2     0.900000E-01   1.00800           0
      9057 MEMB     162      CHL1     C25      CTL1    -0.900000E-01   12.0110           0
      9058 MEMB     162      CHL1     H25      HAL1     0.900000E-01   1.00800           0
      9059 MEMB     162      CHL1     C26      CTL3    -0.270000       12.0110           0
      9060 MEMB     162      CHL1     H26A     HAL3     0.900000E-01   1.00800           0
      9061 MEMB     162      CHL1     H26B     HAL3     0.900000E-01   1.00800           0
      9062 MEMB     162      CHL1     H26C     HAL3     0.900000E-01   1.00800           0
      9063 MEMB     162      CHL1     C27      CTL3    -0.270000       12.0110           0
      9064 MEMB     162      CHL1     H27A     HAL3     0.900000E-01   1.00800           0
      9065 MEMB     162      CHL1     H27B     HAL3     0.900000E-01   1.00800           0
      9066 MEMB     162      CHL1     H27C     HAL3     0.900000E-01   1.00800           0
      9067 MEMB     167      CHL1     C3       CRL1     0.140000       12.0110           0
      9068 MEMB     167      CHL1     H3       HGA1     0.900000E-01   1.00800           0
      9069 MEMB     167      CHL1     O3       OHL     -0.660000       15.9994           0
      9070 MEMB     167      CHL1     H3'      HOL      0.430000       1.00800           0
      9071 MEMB     167      CHL1     C4       CRL2    -0.180000       12.0110           0
      9072 MEMB     167      CHL1     H4A      HGA2     0.900000E-01   1.00800           0
      9073 MEMB     167      CHL1     H4B      HGA2     0.900000E-01   1.00800           0
      9074 MEMB     167      CHL1     C5       CEL1     0.000000       12.0110           0
      9075 MEMB     167      CHL1     C6       CEL1    -0.150000       12.0110           0
      9076 MEMB     167      CHL1     H6       HEL1     0.150000       1.00800           0
      9077 MEMB     167      CHL1     C7       CRL2    -0.180000       12.0110           0
      9078 MEMB     167      CHL1     H7A      HGA2     0.900000E-01   1.00800           0
      9079 MEMB     167      CHL1     H7B      HGA2     0.900000E-01   1.00800           0
      9080 MEMB     167      CHL1     C8       CRL1    -0.900000E-01   12.0110           0
      9081 MEMB     167      CHL1     H8       HGA1     0.900000E-01   1.00800           0
      9082 MEMB     167      CHL1     C14      CRL1    -0.900000E-01   12.0110           0
      9083 MEMB     167      CHL1     H14      HGA1     0.900000E-01   1.00800           0
      9084 MEMB     167      CHL1     C15      CRL2    -0.180000       12.0110           0
      9085 MEMB     167      CHL1     H15A     HGA2     0.900000E-01   1.00800           0
      9086 MEMB     167      CHL1     H15B     HGA2     0.900000E-01   1.00800           0
      9087 MEMB     167      CHL1     C16      CRL2    -0.180000       12.0110           0
      9088 MEMB     167      CHL1     H16A     HGA2     0.900000E-01   1.00800           0
      9089 MEMB     167      CHL1     H16B     HGA2     0.900000E-01   1.00800           0
      9090 MEMB     167      CHL1     C17      CRL1    -0.900000E-01   12.0110           0
      9091 MEMB     167      CHL1     H17      HGA1     0.900000E-01   1.00800           0
      9092 MEMB     167      CHL1     C13      CRL1     0.000000       12.0110           0
      9093 MEMB     167      CHL1     C18      CTL3    -0.270000       12.0110           0
      9094 MEMB     167      CHL1     H18A     HAL3     0.900000E-01   1.00800           0
      9095 MEMB     167      CHL1     H18B     HAL3     0.900000E-01   1.00800           0
      9096 MEMB     167      CHL1     H18C     HAL3     0.900000E-01   1.00800           0
      9097 MEMB     167      CHL1     C12      CRL2    -0.180000       12.0110           0
      9098 MEMB     167      CHL1     H12A     HGA2     0.900000E-01   1.00800           0
      9099 MEMB     167      CHL1     H12B     HGA2     0.900000E-01   1.00800           0
      9100 MEMB     167      CHL1     C11      CRL2    -0.180000       12.0110           0
      9101 MEMB     167      CHL1     H11A     HGA2     0.900000E-01   1.00800           0
      9102 MEMB     167      CHL1     H11B     HGA2     0.900000E-01   1.00800           0
      9103 MEMB     167      CHL1     C9       CRL1    -0.900000E-01   12.0110           0
      9104 MEMB     167      CHL1     H9       HGA1     0.900000E-01   1.00800           0
      9105 MEMB     167      CHL1     C10      CRL1     0.000000       12.0110           0
      9106 MEMB     167      CHL1     C19      CTL3    -0.270000       12.0110           0
      9107 MEMB     167      CHL1     H19A     HAL3     0.900000E-01   1.00800           0
      9108 MEMB     167      CHL1     H19B     HAL3     0.900000E-01   1.00800           0
      9109 MEMB     167      CHL1     H19C     HAL3     0.900000E-01   1.00800           0
      9110 MEMB     167      CHL1     C1       CRL2    -0.180000       12.0110           0
      9111 MEMB     167      CHL1     H1A      HGA2     0.900000E-01   1.00800           0
      9112 MEMB     167      CHL1     H1B      HGA2     0.900000E-01   1.00800           0
      9113 MEMB     167      CHL1     C2       CRL2    -0.180000       12.0110           0
      9114 MEMB     167      CHL1     H2A      HGA2     0.900000E-01   1.00800           0
      9115 MEMB     167      CHL1     H2B      HGA2     0.900000E-01   1.00800           0
      9116 MEMB     167      CHL1     C20      CTL1    -0.900000E-01   12.0110           0
      9117 MEMB     167      CHL1     H20      HAL1     0.900000E-01   1.00800           0
      9118 MEMB     167      CHL1     C21      CTL3    -0.270000       12.0110           0
      9119 MEMB     167      CHL1     H21A     HAL3     0.900000E-01   1.00800           0
      9120 MEMB     167      CHL1     H21B     HAL3     0.900000E-01   1.00800           0
      9121 MEMB     167      CHL1     H21C     HAL3     0.900000E-01   1.00800           0
      9122 MEMB     167      CHL1     C22      CTL2    -0.180000       12.0110           0
      9123 MEMB     167      CHL1     H22A     HAL2     0.900000E-01   1.00800           0
      9124 MEMB     167      CHL1     H22B     HAL2     0.900000E-01   1.00800           0
      9125 MEMB     167      CHL1     C23      CTL2    -0.180000       12.0110           0
      9126 MEMB     167      CHL1     H23A     HAL2     0.900000E-01   1.00800           0
      9127 MEMB     167      CHL1     H23B     HAL2     0.900000E-01   1.00800           0
      9128 MEMB     167      CHL1     C24      CTL2    -0.180000       12.0110           0
      9129 MEMB     167      CHL1     H24A     HAL2     0.900000E-01   1.00800           0
      9130 MEMB     167      CHL1     H24B     HAL2     0.900000E-01   1.00800           0
      9131 MEMB     167      CHL1     C25      CTL1    -0.900000E-01   12.0110           0
      9132 MEMB     167      CHL1     H25      HAL1     0.900000E-01   1.00800           0
      9133 MEMB     167      CHL1     C26      CTL3    -0.270000       12.0110           0
      9134 MEMB     167      CHL1     H26A     HAL3     0.900000E-01   1.00800           0
      9135 MEMB     167      CHL1     H26B     HAL3     0.900000E-01   1.00800           0
      9136 MEMB     167      CHL1     H26C     HAL3     0.900000E-01   1.00800           0
      9137 MEMB     167      CHL1     C27      CTL3    -0.270000       12.0110           0
      9138 MEMB     167      CHL1     H27A     HAL3     0.900000E-01   1.00800           0
      9139 MEMB     167      CHL1     H27B     HAL3     0.900000E-01   1.00800           0
      9140 MEMB     167      CHL1     H27C     HAL3     0.900000E-01   1.00800           0
      9141 MEMB     171      CHL1     C3       CRL1     0.140000       12.0110           0
      9142 MEMB     171      CHL1     H3       HGA1     0.900000E-01   1.00800           0
      9143 MEMB     171      CHL1     O3       OHL     -0.660000       15.9994           0
      9144 MEMB     171      CHL1     H3'      HOL      0.430000       1.00800           0
      9145 MEMB     171      CHL1     C4       CRL2    -0.180000       12.0110           0
      9146 MEMB     171      CHL1     H4A      HGA2     0.900000E-01   1.00800           0
      9147 MEMB     171      CHL1     H4B      HGA2     0.900000E-01   1.00800           0
      9148 MEMB     171      CHL1     C5       CEL1     0.000000       12.0110           0
      9149 MEMB     171      CHL1     C6       CEL1    -0.150000       12.0110           0
      9150 MEMB     171      CHL1     H6       HEL1     0.150000       1.00800           0
      9151 MEMB     171      CHL1     C7       CRL2    -0.180000       12.0110           0
      9152 MEMB     171      CHL1     H7A      HGA2     0.900000E-01   1.00800           0
      9153 MEMB     171      CHL1     H7B      HGA2     0.900000E-01   1.00800           0
      9154 MEMB     171      CHL1     C8       CRL1    -0.900000E-01   12.0110           0
      9155 MEMB     171      CHL1     H8       HGA1     0.900000E-01   1.00800           0
      9156 MEMB     171      CHL1     C14      CRL1    -0.900000E-01   12.0110           0
      9157 MEMB     171      CHL1     H14      HGA1     0.900000E-01   1.00800           0
      9158 MEMB     171      CHL1     C15      CRL2    -0.180000       12.0110           0
      9159 MEMB     171      CHL1     H15A     HGA2     0.900000E-01   1.00800           0
      9160 MEMB     171      CHL1     H15B     HGA2     0.900000E-01   1.00800           0
      9161 MEMB     171      CHL1     C16      CRL2    -0.180000       12.0110           0
      9162 MEMB     171      CHL1     H16A     HGA2     0.900000E-01   1.00800           0
      9163 MEMB     171      CHL1     H16B     HGA2     0.900000E-01   1.00800           0
      9164 MEMB     171      CHL1     C17      CRL1    -0.900000E-01   12.0110           0
      9165 MEMB     171      CHL1     H17      HGA1     0.900000E-01   1.00800           0
      9166 MEMB     171      CHL1     C13      CRL1     0.000000       12.0110           0
      9167 MEMB     171      CHL1     C18      CTL3    -0.270000       12.0110           0
      9168 MEMB     171      CHL1     H18A     HAL3     0.900000E-01   1.00800           0
      9169 MEMB     171      CHL1     H18B     HAL3     0.900000E-01   1.00800           0
      9170 MEMB     171      CHL1     H18C     HAL3     0.900000E-01   1.00800           0
      9171 MEMB     171      CHL1     C12      CRL2    -0.180000       12.0110           0
      9172 MEMB     171      CHL1     H12A     HGA2     0.900000E-01   1.00800           0
      9173 MEMB     171      CHL1     H12B     HGA2     0.900000E-01   1.00800           0
      9174 MEMB     171      CHL1     C11      CRL2    -0.180000       12.0110           0
      9175 MEMB     171      CHL1     H11A     HGA2     0.900000E-01   1.00800           0
      9176 MEMB     171      CHL1     H11B     HGA2     0.900000E-01   1.00800           0
      9177 MEMB     171      CHL1     C9       CRL1    -0.900000E-01   12.0110           0
      9178 MEMB     171      CHL1     H9       HGA1     0.900000E-01   1.00800           0
      9179 MEMB     171      CHL1     C10      CRL1     0.000000       12.0110           0
      9180 MEMB     171      CHL1     C19      CTL3    -0.270000       12.0110           0
      9181 MEMB     171      CHL1     H19A     HAL3     0.900000E-01   1.00800           0
      9182 MEMB     171      CHL1     H19B     HAL3     0.900000E-01   1.00800           0
      9183 MEMB     171      CHL1     H19C     HAL3     0.900000E-01   1.00800           0
      9184 MEMB     171      CHL1     C1       CRL2    -0.180000       12.0110           0
      9185 MEMB     171      CHL1     H1A      HGA2     0.900000E-01   1.00800           0
      9186 MEMB     171      CHL1     H1B      HGA2     0.900000E-01   1.00800           0
      9187 MEMB     171      CHL1     C2       CRL2    -0.180000       12.0110           0
      9188 MEMB     171      CHL1     H2A      HGA2     0.900000E-01   1.00800           0
      9189 MEMB     171      CHL1     H2B      HGA2     0.900000E-01   1.00800           0
      9190 MEMB     171      CHL1     C20      CTL1    -0.900000E-01   12.0110           0
      9191 MEMB     171      CHL1     H20      HAL1     0.900000E-01   1.00800           0
      9192 MEMB     171      CHL1     C21      CTL3    -0.270000       12.0110           0
      9193 MEMB     171      CHL1     H21A     HAL3     0.900000E-01   1.00800           0
      9194 MEMB     171      CHL1     H21B     HAL3     0.900000E-01   1.00800           0
      9195 MEMB     171      CHL1     H21C     HAL3     0.900000E-01   1.00800           0
      9196 MEMB     171      CHL1     C22      CTL2    -0.180000       12.0110           0
      9197 MEMB     171      CHL1     H22A     HAL2     0.900000E-01   1.00800           0
      9198 MEMB     171      CHL1     H22B     HAL2     0.900000E-01   1.00800           0
      9199 MEMB     171      CHL1     C23      CTL2    -0.180000       12.0110           0
      9200 MEMB     171      CHL1     H23A     HAL2     0.900000E-01   1.00800           0
      9201 MEMB     171      CHL1     H23B     HAL2     0.900000E-01   1.00800           0
      9202 MEMB     171      CHL1     C24      CTL2    -0.180000       12.0110           0
      9203 MEMB     171      CHL1     H24A     HAL2     0.900000E-01   1.00800           0
      9204 MEMB     171      CHL1     H24B     HAL2     0.900000E-01   1.00800           0
      9205 MEMB     171      CHL1     C25      CTL1    -0.900000E-01   12.0110           0
      9206 MEMB     171      CHL1     H25      HAL1     0.900000E-01   1.00800           0
      9207 MEMB     171      CHL1     C26      CTL3    -0.270000       12.0110           0
      9208 MEMB     171      CHL1     H26A     HAL3     0.900000E-01   1.00800           0
      9209 MEMB     171      CHL1     H26B     HAL3     0.900000E-01   1.00800           0
      9210 MEMB     171      CHL1     H26C     HAL3     0.900000E-01   1.00800           0
      9211 MEMB     171      CHL1     C27      CTL3    -0.270000       12.0110           0
      9212 MEMB     171      CHL1     H27A     HAL3     0.900000E-01   1.00800           0
      9213 MEMB     171      CHL1     H27B     HAL3     0.900000E-01   1.00800           0
      9214 MEMB     171      CHL1     H27C     HAL3     0.900000E-01   1.00800           0
      9215 MEMB     172      CHL1     C3       CRL1     0.140000       12.0110           0
      9216 MEMB     172      CHL1     H3       HGA1     0.900000E-01   1.00800           0
      9217 MEMB     172      CHL1     O3       OHL     -0.660000       15.9994           0
      9218 MEMB     172      CHL1     H3'      HOL      0.430000       1.00800           0
      9219 MEMB     172      CHL1     C4       CRL2    -0.180000       12.0110           0
      9220 MEMB     172      CHL1     H4A      HGA2     0.900000E-01   1.00800           0
      9221 MEMB     172      CHL1     H4B      HGA2     0.900000E-01   1.00800           0
      9222 MEMB     172      CHL1     C5       CEL1     0.000000       12.0110           0
      9223 MEMB     172      CHL1     C6       CEL1    -0.150000       12.0110           0
      9224 MEMB     172      CHL1     H6       HEL1     0.150000       1.00800           0
      9225 MEMB     172      CHL1     C7       CRL2    -0.180000       12.0110           0
      9226 MEMB     172      CHL1     H7A      HGA2     0.900000E-01   1.00800           0
      9227 MEMB     172      CHL1     H7B      HGA2     0.900000E-01   1.00800           0
      9228 MEMB     172      CHL1     C8       CRL1    -0.900000E-01   12.0110           0
      9229 MEMB     172      CHL1     H8       HGA1     0.900000E-01   1.00800           0
      9230 MEMB     172      CHL1     C14      CRL1    -0.900000E-01   12.0110           0
      9231 MEMB     172      CHL1     H14      HGA1     0.900000E-01   1.00800           0
      9232 MEMB     172      CHL1     C15      CRL2    -0.180000       12.0110           0
      9233 MEMB     172      CHL1     H15A     HGA2     0.900000E-01   1.00800           0
      9234 MEMB     172      CHL1     H15B     HGA2     0.900000E-01   1.00800           0
      9235 MEMB     172      CHL1     C16      CRL2    -0.180000       12.0110           0
      9236 MEMB     172      CHL1     H16A     HGA2     0.900000E-01   1.00800           0
      9237 MEMB     172      CHL1     H16B     HGA2     0.900000E-01   1.00800           0
      9238 MEMB     172      CHL1     C17      CRL1    -0.900000E-01   12.0110           0
      9239 MEMB     172      CHL1     H17      HGA1     0.900000E-01   1.00800           0
      9240 MEMB     172      CHL1     C13      CRL1     0.000000       12.0110           0
      9241 MEMB     172      CHL1     C18      CTL3    -0.270000       12.0110           0
      9242 MEMB     172      CHL1     H18A     HAL3     0.900000E-01   1.00800           0
      9243 MEMB     172      CHL1     H18B     HAL3     0.900000E-01   1.00800           0
      9244 MEMB     172      CHL1     H18C     HAL3     0.900000E-01   1.00800           0
      9245 MEMB     172      CHL1     C12      CRL2    -0.180000       12.0110           0
      9246 MEMB     172      CHL1     H12A     HGA2     0.900000E-01   1.00800           0
      9247 MEMB     172      CHL1     H12B     HGA2     0.900000E-01   1.00800           0
      9248 MEMB     172      CHL1     C11      CRL2    -0.180000       12.0110           0
      9249 MEMB     172      CHL1     H11A     HGA2     0.900000E-01   1.00800           0
      9250 MEMB     172      CHL1     H11B     HGA2     0.900000E-01   1.00800           0
      9251 MEMB     172      CHL1     C9       CRL1    -0.900000E-01   12.0110           0
      9252 MEMB     172      CHL1     H9       HGA1     0.900000E-01   1.00800           0
      9253 MEMB     172      CHL1     C10      CRL1     0.000000       12.0110           0
      9254 MEMB     172      CHL1     C19      CTL3    -0.270000       12.0110           0
      9255 MEMB     172      CHL1     H19A     HAL3     0.900000E-01   1.00800           0
      9256 MEMB     172      CHL1     H19B     HAL3     0.900000E-01   1.00800           0
      9257 MEMB     172      CHL1     H19C     HAL3     0.900000E-01   1.00800           0
      9258 MEMB     172      CHL1     C1       CRL2    -0.180000       12.0110           0
      9259 MEMB     172      CHL1     H1A      HGA2     0.900000E-01   1.00800           0
      9260 MEMB     172      CHL1     H1B      HGA2     0.900000E-01   1.00800           0
      9261 MEMB     172      CHL1     C2       CRL2    -0.180000       12.0110           0
      9262 MEMB     172      CHL1     H2A      HGA2     0.900000E-01   1.00800           0
      9263 MEMB     172      CHL1     H2B      HGA2     0.900000E-01   1.00800           0
      9264 MEMB     172      CHL1     C20      CTL1    -0.900000E-01   12.0110           0
      9265 MEMB     172      CHL1     H20      HAL1     0.900000E-01   1.00800           0
      9266 MEMB     172      CHL1     C21      CTL3    -0.270000       12.0110           0
      9267 MEMB     172      CHL1     H21A     HAL3     0.900000E-01   1.00800           0
      9268 MEMB     172      CHL1     H21B     HAL3     0.900000E-01   1.00800           0
      9269 MEMB     172      CHL1     H21C     HAL3     0.900000E-01   1.00800           0
      9270 MEMB     172      CHL1     C22      CTL2    -0.180000       12.0110           0
      9271 MEMB     172      CHL1     H22A     HAL2     0.900000E-01   1.00800           0
      9272 MEMB     172      CHL1     H22B     HAL2     0.900000E-01   1.00800           0
      9273 MEMB     172      CHL1     C23      CTL2    -0.180000       12.0110           0
      9274 MEMB     172      CHL1     H23A     HAL2     0.900000E-01   1.00800           0
      9275 MEMB     172      CHL1     H23B     HAL2     0.900000E-01   1.00800           0
      9276 MEMB     172      CHL1     C24      CTL2    -0.180000       12.0110           0
      9277 MEMB     172      CHL1     H24A     HAL2     0.900000E-01   1.00800           0
      9278 MEMB     172      CHL1     H24B     HAL2     0.900000E-01   1.00800           0
      9279 MEMB     172      CHL1     C25      CTL1    -0.900000E-01   12.0110           0
      9280 MEMB     172      CHL1     H25      HAL1     0.900000E-01   1.00800           0
      9281 MEMB     172      CHL1     C26      CTL3    -0.270000       12.0110           0
      9282 MEMB     172      CHL1     H26A     HAL3     0.900000E-01   1.00800           0
      9283 MEMB     172      CHL1     H26B     HAL3     0.900000E-01   1.00800           0
      9284 MEMB     172      CHL1     H26C     HAL3     0.900000E-01   1.00800           0
      9285 MEMB     172      CHL1     C27      CTL3    -0.270000       12.0110           0
      9286 MEMB     172      CHL1     H27A     HAL3     0.900000E-01   1.00800           0
      9287 MEMB     172      CHL1     H27B     HAL3     0.900000E-01   1.00800           0
      9288 MEMB     172      CHL1     H27C     HAL3     0.900000E-01   1.00800           0
      9289 MEMB     178      CHL1     C3       CRL1     0.140000       12.0110           0
      9290 MEMB     178      CHL1     H3       HGA1     0.900000E-01   1.00800           0
      9291 MEMB     178      CHL1     O3       OHL     -0.660000       15.9994           0
      9292 MEMB     178      CHL1     H3'      HOL      0.430000       1.00800           0
      9293 MEMB     178      CHL1     C4       CRL2    -0.180000       12.0110           0
      9294 MEMB     178      CHL1     H4A      HGA2     0.900000E-01   1.00800           0
      9295 MEMB     178      CHL1     H4B      HGA2     0.900000E-01   1.00800           0
      9296 MEMB     178      CHL1     C5       CEL1     0.000000       12.0110           0
      9297 MEMB     178      CHL1     C6       CEL1    -0.150000       12.0110           0
      9298 MEMB     178      CHL1     H6       HEL1     0.150000       1.00800           0
      9299 MEMB     178      CHL1     C7       CRL2    -0.180000       12.0110           0
      9300 MEMB     178      CHL1     H7A      HGA2     0.900000E-01   1.00800           0
      9301 MEMB     178      CHL1     H7B      HGA2     0.900000E-01   1.00800           0
      9302 MEMB     178      CHL1     C8       CRL1    -0.900000E-01   12.0110           0
      9303 MEMB     178      CHL1     H8       HGA1     0.900000E-01   1.00800           0
      9304 MEMB     178      CHL1     C14      CRL1    -0.900000E-01   12.0110           0
      9305 MEMB     178      CHL1     H14      HGA1     0.900000E-01   1.00800           0
      9306 MEMB     178      CHL1     C15      CRL2    -0.180000       12.0110           0
      9307 MEMB     178      CHL1     H15A     HGA2     0.900000E-01   1.00800           0
      9308 MEMB     178      CHL1     H15B     HGA2     0.900000E-01   1.00800           0
      9309 MEMB     178      CHL1     C16      CRL2    -0.180000       12.0110           0
      9310 MEMB     178      CHL1     H16A     HGA2     0.900000E-01   1.00800           0
      9311 MEMB     178      CHL1     H16B     HGA2     0.900000E-01   1.00800           0
      9312 MEMB     178      CHL1     C17      CRL1    -0.900000E-01   12.0110           0
      9313 MEMB     178      CHL1     H17      HGA1     0.900000E-01   1.00800           0
      9314 MEMB     178      CHL1     C13      CRL1     0.000000       12.0110           0
      9315 MEMB     178      CHL1     C18      CTL3    -0.270000       12.0110           0
      9316 MEMB     178      CHL1     H18A     HAL3     0.900000E-01   1.00800           0
      9317 MEMB     178      CHL1     H18B     HAL3     0.900000E-01   1.00800           0
      9318 MEMB     178      CHL1     H18C     HAL3     0.900000E-01   1.00800           0
      9319 MEMB     178      CHL1     C12      CRL2    -0.180000       12.0110           0
      9320 MEMB     178      CHL1     H12A     HGA2     0.900000E-01   1.00800           0
      9321 MEMB     178      CHL1     H12B     HGA2     0.900000E-01   1.00800           0
      9322 MEMB     178      CHL1     C11      CRL2    -0.180000       12.0110           0
      9323 MEMB     178      CHL1     H11A     HGA2     0.900000E-01   1.00800           0
      9324 MEMB     178      CHL1     H11B     HGA2     0.900000E-01   1.00800           0
      9325 MEMB     178      CHL1     C9       CRL1    -0.900000E-01   12.0110           0
      9326 MEMB     178      CHL1     H9       HGA1     0.900000E-01   1.00800           0
      9327 MEMB     178      CHL1     C10      CRL1     0.000000       12.0110           0
      9328 MEMB     178      CHL1     C19      CTL3    -0.270000       12.0110           0
      9329 MEMB     178      CHL1     H19A     HAL3     0.900000E-01   1.00800           0
      9330 MEMB     178      CHL1     H19B     HAL3     0.900000E-01   1.00800           0
      9331 MEMB     178      CHL1     H19C     HAL3     0.900000E-01   1.00800           0
      9332 MEMB     178      CHL1     C1       CRL2    -0.180000       12.0110           0
      9333 MEMB     178      CHL1     H1A      HGA2     0.900000E-01   1.00800           0
      9334 MEMB     178      CHL1     H1B      HGA2     0.900000E-01   1.00800           0
      9335 MEMB     178      CHL1     C2       CRL2    -0.180000       12.0110           0
      9336 MEMB     178      CHL1     H2A      HGA2     0.900000E-01   1.00800           0
      9337 MEMB     178      CHL1     H2B      HGA2     0.900000E-01   1.00800           0
      9338 MEMB     178      CHL1     C20      CTL1    -0.900000E-01   12.0110           0
      9339 MEMB     178      CHL1     H20      HAL1     0.900000E-01   1.00800           0
      9340 MEMB     178      CHL1     C21      CTL3    -0.270000       12.0110           0
      9341 MEMB     178      CHL1     H21A     HAL3     0.900000E-01   1.00800           0
      9342 MEMB     178      CHL1     H21B     HAL3     0.900000E-01   1.00800           0
      9343 MEMB     178      CHL1     H21C     HAL3     0.900000E-01   1.00800           0
      9344 MEMB     178      CHL1     C22      CTL2    -0.180000       12.0110           0
      9345 MEMB     178      CHL1     H22A     HAL2     0.900000E-01   1.00800           0
      9346 MEMB     178      CHL1     H22B     HAL2     0.900000E-01   1.00800           0
      9347 MEMB     178      CHL1     C23      CTL2    -0.180000       12.0110           0
      9348 MEMB     178      CHL1     H23A     HAL2     0.900000E-01   1.00800           0
      9349 MEMB     178      CHL1     H23B     HAL2     0.900000E-01   1.00800           0
      9350 MEMB     178      CHL1     C24      CTL2    -0.180000       12.0110           0
      9351 MEMB     178      CHL1     H24A     HAL2     0.900000E-01   1.00800           0
      9352 MEMB     178      CHL1     H24B     HAL2     0.900000E-01   1.00800           0
      9353 MEMB     178      CHL1     C25      CTL1    -0.900000E-01   12.0110           0
      9354 MEMB     178      CHL1     H25      HAL1     0.900000E-01   1.00800           0
      9355 MEMB     178      CHL1     C26      CTL3    -0.270000       12.0110           0
      9356 MEMB     178      CHL1     H26A     HAL3     0.900000E-01   1.00800           0
      9357 MEMB     178      CHL1     H26B     HAL3     0.900000E-01   1.00800           0
      9358 MEMB     178      CHL1     H26C     HAL3     0.900000E-01   1.00800           0
      9359 MEMB     178      CHL1     C27      CTL3    -0.270000       12.0110           0
      9360 MEMB     178      CHL1     H27A     HAL3     0.900000E-01   1.00800           0
      9361 MEMB     178      CHL1     H27B     HAL3     0.900000E-01   1.00800           0
      9362 MEMB     178      CHL1     H27C     HAL3     0.900000E-01   1.00800           0
      9363 MEMB     182      CHL1     C3       CRL1     0.140000       12.0110           0
      9364 MEMB     182      CHL1     H3       HGA1     0.900000E-01   1.00800           0
      9365 MEMB     182      CHL1     O3       OHL     -0.660000       15.9994           0
      9366 MEMB     182      CHL1     H3'      HOL      0.430000       1.00800           0
      9367 MEMB     182      CHL1     C4       CRL2    -0.180000       12.0110           0
      9368 MEMB     182      CHL1     H4A      HGA2     0.900000E-01   1.00800           0
      9369 MEMB     182      CHL1     H4B      HGA2     0.900000E-01   1.00800           0
      9370 MEMB     182      CHL1     C5       CEL1     0.000000       12.0110           0
      9371 MEMB     182      CHL1     C6       CEL1    -0.150000       12.0110           0
      9372 MEMB     182      CHL1     H6       HEL1     0.150000       1.00800           0
      9373 MEMB     182      CHL1     C7       CRL2    -0.180000       12.0110           0
      9374 MEMB     182      CHL1     H7A      HGA2     0.900000E-01   1.00800           0
      9375 MEMB     182      CHL1     H7B      HGA2     0.900000E-01   1.00800           0
      9376 MEMB     182      CHL1     C8       CRL1    -0.900000E-01   12.0110           0
      9377 MEMB     182      CHL1     H8       HGA1     0.900000E-01   1.00800           0
      9378 MEMB     182      CHL1     C14      CRL1    -0.900000E-01   12.0110           0
      9379 MEMB     182      CHL1     H14      HGA1     0.900000E-01   1.00800           0
      9380 MEMB     182      CHL1     C15      CRL2    -0.180000       12.0110           0
      9381 MEMB     182      CHL1     H15A     HGA2     0.900000E-01   1.00800           0
      9382 MEMB     182      CHL1     H15B     HGA2     0.900000E-01   1.00800           0
      9383 MEMB     182      CHL1     C16      CRL2    -0.180000       12.0110           0
      9384 MEMB     182      CHL1     H16A     HGA2     0.900000E-01   1.00800           0
      9385 MEMB     182      CHL1     H16B     HGA2     0.900000E-01   1.00800           0
      9386 MEMB     182      CHL1     C17      CRL1    -0.900000E-01   12.0110           0
      9387 MEMB     182      CHL1     H17      HGA1     0.900000E-01   1.00800           0
      9388 MEMB     182      CHL1     C13      CRL1     0.000000       12.0110           0
      9389 MEMB     182      CHL1     C18      CTL3    -0.270000       12.0110           0
      9390 MEMB     182      CHL1     H18A     HAL3     0.900000E-01   1.00800           0
      9391 MEMB     182      CHL1     H18B     HAL3     0.900000E-01   1.00800           0
      9392 MEMB     182      CHL1     H18C     HAL3     0.900000E-01   1.00800           0
      9393 MEMB     182      CHL1     C12      CRL2    -0.180000       12.0110           0
      9394 MEMB     182      CHL1     H12A     HGA2     0.900000E-01   1.00800           0
      9395 MEMB     182      CHL1     H12B     HGA2     0.900000E-01   1.00800           0
      9396 MEMB     182      CHL1     C11      CRL2    -0.180000       12.0110           0
      9397 MEMB     182      CHL1     H11A     HGA2     0.900000E-01   1.00800           0
      9398 MEMB     182      CHL1     H11B     HGA2     0.900000E-01   1.00800           0
      9399 MEMB     182      CHL1     C9       CRL1    -0.900000E-01   12.0110           0
      9400 MEMB     182      CHL1     H9       HGA1     0.900000E-01   1.00800           0
      9401 MEMB     182      CHL1     C10      CRL1     0.000000       12.0110           0
      9402 MEMB     182      CHL1     C19      CTL3    -0.270000       12.0110           0
      9403 MEMB     182      CHL1     H19A     HAL3     0.900000E-01   1.00800           0
      9404 MEMB     182      CHL1     H19B     HAL3     0.900000E-01   1.00800           0
      9405 MEMB     182      CHL1     H19C     HAL3     0.900000E-01   1.00800           0
      9406 MEMB     182      CHL1     C1       CRL2    -0.180000       12.0110           0
      9407 MEMB     182      CHL1     H1A      HGA2     0.900000E-01   1.00800           0
      9408 MEMB     182      CHL1     H1B      HGA2     0.900000E-01   1.00800           0
      9409 MEMB     182      CHL1     C2       CRL2    -0.180000       12.0110           0
      9410 MEMB     182      CHL1     H2A      HGA2     0.900000E-01   1.00800           0
      9411 MEMB     182      CHL1     H2B      HGA2     0.900000E-01   1.00800           0
      9412 MEMB     182      CHL1     C20      CTL1    -0.900000E-01   12.0110           0
      9413 MEMB     182      CHL1     H20      HAL1     0.900000E-01   1.00800           0
      9414 MEMB     182      CHL1     C21      CTL3    -0.270000       12.0110           0
      9415 MEMB     182      CHL1     H21A     HAL3     0.900000E-01   1.00800           0
      9416 MEMB     182      CHL1     H21B     HAL3     0.900000E-01   1.00800           0
      9417 MEMB     182      CHL1     H21C     HAL3     0.900000E-01   1.00800           0
      9418 MEMB     182      CHL1     C22      CTL2    -0.180000       12.0110           0
      9419 MEMB     182      CHL1     H22A     HAL2     0.900000E-01   1.00800           0
      9420 MEMB     182      CHL1     H22B     HAL2     0.900000E-01   1.00800           0
      9421 MEMB     182      CHL1     C23      CTL2    -0.180000       12.0110           0
      9422 MEMB     182      CHL1     H23A     HAL2     0.900000E-01   1.00800           0
      9423 MEMB     182      CHL1     H23B     HAL2     0.900000E-01   1.00800           0
      9424 MEMB     182      CHL1     C24      CTL2    -0.180000       12.0110           0
      9425 MEMB     182      CHL1     H24A     HAL2     0.900000E-01   1.00800           0
      9426 MEMB     182      CHL1     H24B     HAL2     0.900000E-01   1.00800           0
      9427 MEMB     182      CHL1     C25      CTL1    -0.900000E-01   12.0110           0
      9428 MEMB     182      CHL1     H25      HAL1     0.900000E-01   1.00800           0
      9429 MEMB     182      CHL1     C26      CTL3    -0.270000       12.0110           0
      9430 MEMB     182      CHL1     H26A     HAL3     0.900000E-01   1.00800           0
      9431 MEMB     182      CHL1     H26B     HAL3     0.900000E-01   1.00800           0
      9432 MEMB     182      CHL1     H26C     HAL3     0.900000E-01   1.00800           0
      9433 MEMB     182      CHL1     C27      CTL3    -0.270000       12.0110           0
      9434 MEMB     182      CHL1     H27A     HAL3     0.900000E-01   1.00800           0
      9435 MEMB     182      CHL1     H27B     HAL3     0.900000E-01   1.00800           0
      9436 MEMB     182      CHL1     H27C     HAL3     0.900000E-01   1.00800           0
      9437 MEMB     186      CHL1     C3       CRL1     0.140000       12.0110           0
      9438 MEMB     186      CHL1     H3       HGA1     0.900000E-01   1.00800           0
      9439 MEMB     186      CHL1     O3       OHL     -0.660000       15.9994           0
      9440 MEMB     186      CHL1     H3'      HOL      0.430000       1.00800           0
      9441 MEMB     186      CHL1     C4       CRL2    -0.180000       12.0110           0
      9442 MEMB     186      CHL1     H4A      HGA2     0.900000E-01   1.00800           0
      9443 MEMB     186      CHL1     H4B      HGA2     0.900000E-01   1.00800           0
      9444 MEMB     186      CHL1     C5       CEL1     0.000000       12.0110           0
      9445 MEMB     186      CHL1     C6       CEL1    -0.150000       12.0110           0
      9446 MEMB     186      CHL1     H6       HEL1     0.150000       1.00800           0
      9447 MEMB     186      CHL1     C7       CRL2    -0.180000       12.0110           0
      9448 MEMB     186      CHL1     H7A      HGA2     0.900000E-01   1.00800           0
      9449 MEMB     186      CHL1     H7B      HGA2     0.900000E-01   1.00800           0
      9450 MEMB     186      CHL1     C8       CRL1    -0.900000E-01   12.0110           0
      9451 MEMB     186      CHL1     H8       HGA1     0.900000E-01   1.00800           0
      9452 MEMB     186      CHL1     C14      CRL1    -0.900000E-01   12.0110           0
      9453 MEMB     186      CHL1     H14      HGA1     0.900000E-01   1.00800           0
      9454 MEMB     186      CHL1     C15      CRL2    -0.180000       12.0110           0
      9455 MEMB     186      CHL1     H15A     HGA2     0.900000E-01   1.00800           0
      9456 MEMB     186      CHL1     H15B     HGA2     0.900000E-01   1.00800           0
      9457 MEMB     186      CHL1     C16      CRL2    -0.180000       12.0110           0
      9458 MEMB     186      CHL1     H16A     HGA2     0.900000E-01   1.00800           0
      9459 MEMB     186      CHL1     H16B     HGA2     0.900000E-01   1.00800           0
      9460 MEMB     186      CHL1     C17      CRL1    -0.900000E-01   12.0110           0
      9461 MEMB     186      CHL1     H17      HGA1     0.900000E-01   1.00800           0
      9462 MEMB     186      CHL1     C13      CRL1     0.000000       12.0110           0
      9463 MEMB     186      CHL1     C18      CTL3    -0.270000       12.0110           0
      9464 MEMB     186      CHL1     H18A     HAL3     0.900000E-01   1.00800           0
      9465 MEMB     186      CHL1     H18B     HAL3     0.900000E-01   1.00800           0
      9466 MEMB     186      CHL1     H18C     HAL3     0.900000E-01   1.00800           0
      9467 MEMB     186      CHL1     C12      CRL2    -0.180000       12.0110           0
      9468 MEMB     186      CHL1     H12A     HGA2     0.900000E-01   1.00800           0
      9469 MEMB     186      CHL1     H12B     HGA2     0.900000E-01   1.00800           0
      9470 MEMB     186      CHL1     C11      CRL2    -0.180000       12.0110           0
      9471 MEMB     186      CHL1     H11A     HGA2     0.900000E-01   1.00800           0
      9472 MEMB     186      CHL1     H11B     HGA2     0.900000E-01   1.00800           0
      9473 MEMB     186      CHL1     C9       CRL1    -0.900000E-01   12.0110           0
      9474 MEMB     186      CHL1     H9       HGA1     0.900000E-01   1.00800           0
      9475 MEMB     186      CHL1     C10      CRL1     0.000000       12.0110           0
      9476 MEMB     186      CHL1     C19      CTL3    -0.270000       12.0110           0
      9477 MEMB     186      CHL1     H19A     HAL3     0.900000E-01   1.00800           0
      9478 MEMB     186      CHL1     H19B     HAL3     0.900000E-01   1.00800           0
      9479 MEMB     186      CHL1     H19C     HAL3     0.900000E-01   1.00800           0
      9480 MEMB     186      CHL1     C1       CRL2    -0.180000       12.0110           0
      9481 MEMB     186      CHL1     H1A      HGA2     0.900000E-01   1.00800           0
      9482 MEMB     186      CHL1     H1B      HGA2     0.900000E-01   1.00800           0
      9483 MEMB     186      CHL1     C2       CRL2    -0.180000       12.0110           0
      9484 MEMB     186      CHL1     H2A      HGA2     0.900000E-01   1.00800           0
      9485 MEMB     186      CHL1     H2B      HGA2     0.900000E-01   1.00800           0
      9486 MEMB     186      CHL1     C20      CTL1    -0.900000E-01   12.0110           0
      9487 MEMB     186      CHL1     H20      HAL1     0.900000E-01   1.00800           0
      9488 MEMB     186      CHL1     C21      CTL3    -0.270000       12.0110           0
      9489 MEMB     186      CHL1     H21A     HAL3     0.900000E-01   1.00800           0
      9490 MEMB     186      CHL1     H21B     HAL3     0.900000E-01   1.00800           0
      9491 MEMB     186      CHL1     H21C     HAL3     0.900000E-01   1.00800           0
      9492 MEMB     186      CHL1     C22      CTL2    -0.180000       12.0110           0
      9493 MEMB     186      CHL1     H22A     HAL2     0.900000E-01   1.00800           0
      9494 MEMB     186      CHL1     H22B     HAL2     0.900000E-01   1.00800           0
      9495 MEMB     186      CHL1     C23      CTL2    -0.180000       12.0110           0
      9496 MEMB     186      CHL1     H23A     HAL2     0.900000E-01   1.00800           0
      9497 MEMB     186      CHL1     H23B     HAL2     0.900000E-01   1.00800           0
      9498 MEMB     186      CHL1     C24      CTL2    -0.180000       12.0110           0
      9499 MEMB     186      CHL1     H24A     HAL2     0.900000E-01   1.00800           0
      9500 MEMB     186      CHL1     H24B     HAL2     0.900000E-01   1.00800           0
      9501 MEMB     186      CHL1     C25      CTL1    -0.900000E-01   12.0110           0
      9502 MEMB     186      CHL1     H25      HAL1     0.900000E-01   1.00800           0
      9503 MEMB     186      CHL1     C26      CTL3    -0.270000       12.0110           0
      9504 MEMB     186      CHL1     H26A     HAL3     0.900000E-01   1.00800           0
      9505 MEMB     186      CHL1     H26B     HAL3     0.900000E-01   1.00800           0
      9506 MEMB     186      CHL1     H26C     HAL3     0.900000E-01   1.00800           0
      9507 MEMB     186      CHL1     C27      CTL3    -0.270000       12.0110           0
      9508 MEMB     186      CHL1     H27A     HAL3     0.900000E-01   1.00800           0
      9509 MEMB     186      CHL1     H27B     HAL3     0.900000E-01   1.00800           0
      9510 MEMB     186      CHL1     H27C     HAL3     0.900000E-01   1.00800           0
      9511 MEMB     187      CHL1     C3       CRL1     0.140000       12.0110           0
      9512 MEMB     187      CHL1     H3       HGA1     0.900000E-01   1.00800           0
      9513 MEMB     187      CHL1     O3       OHL     -0.660000       15.9994           0
      9514 MEMB     187      CHL1     H3'      HOL      0.430000       1.00800           0
      9515 MEMB     187      CHL1     C4       CRL2    -0.180000       12.0110           0
      9516 MEMB     187      CHL1     H4A      HGA2     0.900000E-01   1.00800           0
      9517 MEMB     187      CHL1     H4B      HGA2     0.900000E-01   1.00800           0
      9518 MEMB     187      CHL1     C5       CEL1     0.000000       12.0110           0
      9519 MEMB     187      CHL1     C6       CEL1    -0.150000       12.0110           0
      9520 MEMB     187      CHL1     H6       HEL1     0.150000       1.00800           0
      9521 MEMB     187      CHL1     C7       CRL2    -0.180000       12.0110           0
      9522 MEMB     187      CHL1     H7A      HGA2     0.900000E-01   1.00800           0
      9523 MEMB     187      CHL1     H7B      HGA2     0.900000E-01   1.00800           0
      9524 MEMB     187      CHL1     C8       CRL1    -0.900000E-01   12.0110           0
      9525 MEMB     187      CHL1     H8       HGA1     0.900000E-01   1.00800           0
      9526 MEMB     187      CHL1     C14      CRL1    -0.900000E-01   12.0110           0
      9527 MEMB     187      CHL1     H14      HGA1     0.900000E-01   1.00800           0
      9528 MEMB     187      CHL1     C15      CRL2    -0.180000       12.0110           0
      9529 MEMB     187      CHL1     H15A     HGA2     0.900000E-01   1.00800           0
      9530 MEMB     187      CHL1     H15B     HGA2     0.900000E-01   1.00800           0
      9531 MEMB     187      CHL1     C16      CRL2    -0.180000       12.0110           0
      9532 MEMB     187      CHL1     H16A     HGA2     0.900000E-01   1.00800           0
      9533 MEMB     187      CHL1     H16B     HGA2     0.900000E-01   1.00800           0
      9534 MEMB     187      CHL1     C17      CRL1    -0.900000E-01   12.0110           0
      9535 MEMB     187      CHL1     H17      HGA1     0.900000E-01   1.00800           0
      9536 MEMB     187      CHL1     C13      CRL1     0.000000       12.0110           0
      9537 MEMB     187      CHL1     C18      CTL3    -0.270000       12.0110           0
      9538 MEMB     187      CHL1     H18A     HAL3     0.900000E-01   1.00800           0
      9539 MEMB     187      CHL1     H18B     HAL3     0.900000E-01   1.00800           0
      9540 MEMB     187      CHL1     H18C     HAL3     0.900000E-01   1.00800           0
      9541 MEMB     187      CHL1     C12      CRL2    -0.180000       12.0110           0
      9542 MEMB     187      CHL1     H12A     HGA2     0.900000E-01   1.00800           0
      9543 MEMB     187      CHL1     H12B     HGA2     0.900000E-01   1.00800           0
      9544 MEMB     187      CHL1     C11      CRL2    -0.180000       12.0110           0
      9545 MEMB     187      CHL1     H11A     HGA2     0.900000E-01   1.00800           0
      9546 MEMB     187      CHL1     H11B     HGA2     0.900000E-01   1.00800           0
      9547 MEMB     187      CHL1     C9       CRL1    -0.900000E-01   12.0110           0
      9548 MEMB     187      CHL1     H9       HGA1     0.900000E-01   1.00800           0
      9549 MEMB     187      CHL1     C10      CRL1     0.000000       12.0110           0
      9550 MEMB     187      CHL1     C19      CTL3    -0.270000       12.0110           0
      9551 MEMB     187      CHL1     H19A     HAL3     0.900000E-01   1.00800           0
      9552 MEMB     187      CHL1     H19B     HAL3     0.900000E-01   1.00800           0
      9553 MEMB     187      CHL1     H19C     HAL3     0.900000E-01   1.00800           0
      9554 MEMB     187      CHL1     C1       CRL2    -0.180000       12.0110           0
      9555 MEMB     187      CHL1     H1A      HGA2     0.900000E-01   1.00800           0
      9556 MEMB     187      CHL1     H1B      HGA2     0.900000E-01   1.00800           0
      9557 MEMB     187      CHL1     C2       CRL2    -0.180000       12.0110           0
      9558 MEMB     187      CHL1     H2A      HGA2     0.900000E-01   1.00800           0
      9559 MEMB     187      CHL1     H2B      HGA2     0.900000E-01   1.00800           0
      9560 MEMB     187      CHL1     C20      CTL1    -0.900000E-01   12.0110           0
      9561 MEMB     187      CHL1     H20      HAL1     0.900000E-01   1.00800           0
      9562 MEMB     187      CHL1     C21      CTL3    -0.270000       12.0110           0
      9563 MEMB     187      CHL1     H21A     HAL3     0.900000E-01   1.00800           0
      9564 MEMB     187      CHL1     H21B     HAL3     0.900000E-01   1.00800           0
      9565 MEMB     187      CHL1     H21C     HAL3     0.900000E-01   1.00800           0
      9566 MEMB     187      CHL1     C22      CTL2    -0.180000       12.0110           0
      9567 MEMB     187      CHL1     H22A     HAL2     0.900000E-01   1.00800           0
      9568 MEMB     187      CHL1     H22B     HAL2     0.900000E-01   1.00800           0
      9569 MEMB     187      CHL1     C23      CTL2    -0.180000       12.0110           0
      9570 MEMB     187      CHL1     H23A     HAL2     0.900000E-01   1.00800           0
      9571 MEMB     187      CHL1     H23B     HAL2     0.900000E-01   1.00800           0
      9572 MEMB     187      CHL1     C24      CTL2    -0.180000       12.0110           0
      9573 MEMB     187      CHL1     H24A     HAL2     0.900000E-01   1.00800           0
      9574 MEMB     187      CHL1     H24B     HAL2     0.900000E-01   1.00800           0
      9575 MEMB     187      CHL1     C25      CTL1    -0.900000E-01   12.0110           0
      9576 MEMB     187      CHL1     H25      HAL1     0.900000E-01   1.00800           0
      9577 MEMB     187      CHL1     C26      CTL3    -0.270000       12.0110           0
      9578 MEMB     187      CHL1     H26A     HAL3     0.900000E-01   1.00800           0
      9579 MEMB     187      CHL1     H26B     HAL3     0.900000E-01   1.00800           0
      9580 MEMB     187      CHL1     H26C     HAL3     0.900000E-01   1.00800           0
      9581 MEMB     187      CHL1     C27      CTL3    -0.270000       12.0110           0
      9582 MEMB     187      CHL1     H27A     HAL3     0.900000E-01   1.00800           0
      9583 MEMB     187      CHL1     H27B     HAL3     0.900000E-01   1.00800           0
      9584 MEMB     187      CHL1     H27C     HAL3     0.900000E-01   1.00800           0
      9585 MEMB     5        OSM      N        NTL     -0.600000       14.0070           0
      9586 MEMB     5        OSM      C15      CTL5    -0.350000       12.0110           0
      9587 MEMB     5        OSM      H15A     HL       0.250000       1.00800           0
      9588 MEMB     5        OSM      H15B     HL       0.250000       1.00800           0
      9589 MEMB     5        OSM      H15C     HL       0.250000       1.00800           0
      9590 MEMB     5        OSM      C14      CTL5    -0.350000       12.0110           0
      9591 MEMB     5        OSM      H14A     HL       0.250000       1.00800           0
      9592 MEMB     5        OSM      H14B     HL       0.250000       1.00800           0
      9593 MEMB     5        OSM      H14C     HL       0.250000       1.00800           0
      9594 MEMB     5        OSM      C13      CTL5    -0.350000       12.0110           0
      9595 MEMB     5        OSM      H13A     HL       0.250000       1.00800           0
      9596 MEMB     5        OSM      H13B     HL       0.250000       1.00800           0
      9597 MEMB     5        OSM      H13C     HL       0.250000       1.00800           0
      9598 MEMB     5        OSM      C12      CTL2    -0.100000       12.0110           0
      9599 MEMB     5        OSM      H12A     HL       0.250000       1.00800           0
      9600 MEMB     5        OSM      H12B     HL       0.250000       1.00800           0
      9601 MEMB     5        OSM      C11      CTL2    -0.800000E-01   12.0110           0
      9602 MEMB     5        OSM      H11A     HAL2     0.900000E-01   1.00800           0
      9603 MEMB     5        OSM      H11B     HAL2     0.900000E-01   1.00800           0
      9604 MEMB     5        OSM      P        PL       1.500000       30.9740           0
      9605 MEMB     5        OSM      O13      O2L     -0.780000       15.9994           0
      9606 MEMB     5        OSM      O14      O2L     -0.780000       15.9994           0
      9607 MEMB     5        OSM      O11      OSLP    -0.570000       15.9994           0
      9608 MEMB     5        OSM      O12      OSLP    -0.570000       15.9994           0
      9609 MEMB     5        OSM      C1S      CTL2    -0.800000E-01   12.0110           0
      9610 MEMB     5        OSM      H1S      HAL2     0.900000E-01   1.00800           0
      9611 MEMB     5        OSM      H1T      HAL2     0.900000E-01   1.00800           0
      9612 MEMB     5        OSM      NF       NHL     -0.700000       14.0070           0
      9613 MEMB     5        OSM      HNF      H        0.350000       1.00800           0
      9614 MEMB     5        OSM      C2S      CTL1     0.300000       12.0110           0
      9615 MEMB     5        OSM      H2S      HAL1     0.500000E-01   1.00800           0
      9616 MEMB     5        OSM      C3S      CTO1     0.500000       12.0110           0
      9617 MEMB     5        OSM      H3S      HAL1    -0.110000       1.00800           0
      9618 MEMB     5        OSM      O3       OHL     -0.690000       15.9994           0
      9619 MEMB     5        OSM      HO3      HOL      0.300000       1.00800           0
      9620 MEMB     5        OSM      C4S      CEL3    -0.150000       12.0110           0
      9621 MEMB     5        OSM      H4S      HEL1     0.150000       1.00800           0
      9622 MEMB     5        OSM      C5S      CEL3    -0.150000       12.0110           0
      9623 MEMB     5        OSM      H5S      HEL1     0.150000       1.00800           0
      9624 MEMB     5        OSM      C6S      CTL2    -0.180000       12.0110           0
      9625 MEMB     5        OSM      H6S      HAL2     0.900000E-01   1.00800           0
      9626 MEMB     5        OSM      H6T      HAL2     0.900000E-01   1.00800           0
      9627 MEMB     5        OSM      C7S      CTL2    -0.180000       12.0110           0
      9628 MEMB     5        OSM      H7S      HAL2     0.900000E-01   1.00800           0
      9629 MEMB     5        OSM      H7T      HAL2     0.900000E-01   1.00800           0
      9630 MEMB     5        OSM      C8S      CTL2    -0.180000       12.0110           0
      9631 MEMB     5        OSM      H8S      HAL2     0.900000E-01   1.00800           0
      9632 MEMB     5        OSM      H8T      HAL2     0.900000E-01   1.00800           0
      9633 MEMB     5        OSM      C9S      CTL2    -0.180000       12.0110           0
      9634 MEMB     5        OSM      H9S      HAL2     0.900000E-01   1.00800           0
      9635 MEMB     5        OSM      H9T      HAL2     0.900000E-01   1.00800           0
      9636 MEMB     5        OSM      C10S     CTL2    -0.180000       12.0110           0
      9637 MEMB     5        OSM      H10S     HAL2     0.900000E-01   1.00800           0
      9638 MEMB     5        OSM      H10T     HAL2     0.900000E-01   1.00800           0
      9639 MEMB     5        OSM      C11S     CTL2    -0.180000       12.0110           0
      9640 MEMB     5        OSM      H11S     HAL2     0.900000E-01   1.00800           0
      9641 MEMB     5        OSM      H11T     HAL2     0.900000E-01   1.00800           0
      9642 MEMB     5        OSM      C12S     CTL2    -0.180000       12.0110           0
      9643 MEMB     5        OSM      H12S     HAL2     0.900000E-01   1.00800           0
      9644 MEMB     5        OSM      H12T     HAL2     0.900000E-01   1.00800           0
      9645 MEMB     5        OSM      C13S     CTL2    -0.180000       12.0110           0
      9646 MEMB     5        OSM      H13S     HAL2     0.900000E-01   1.00800           0
      9647 MEMB     5        OSM      H13T     HAL2     0.900000E-01   1.00800           0
      9648 MEMB     5        OSM      C14S     CTL2    -0.180000       12.0110           0
      9649 MEMB     5        OSM      H14S     HAL2     0.900000E-01   1.00800           0
      9650 MEMB     5        OSM      H14T     HAL2     0.900000E-01   1.00800           0
      9651 MEMB     5        OSM      C15S     CTL2    -0.180000       12.0110           0
      9652 MEMB     5        OSM      H15S     HAL2     0.900000E-01   1.00800           0
      9653 MEMB     5        OSM      H15T     HAL2     0.900000E-01   1.00800           0
      9654 MEMB     5        OSM      C16S     CTL2    -0.180000       12.0110           0
      9655 MEMB     5        OSM      H16S     HAL2     0.900000E-01   1.00800           0
      9656 MEMB     5        OSM      H16T     HAL2     0.900000E-01   1.00800           0
      9657 MEMB     5        OSM      C17S     CTL2    -0.180000       12.0110           0
      9658 MEMB     5        OSM      H17S     HAL2     0.900000E-01   1.00800           0
      9659 MEMB     5        OSM      H17T     HAL2     0.900000E-01   1.00800           0
      9660 MEMB     5        OSM      C18S     CTL3    -0.270000       12.0110           0
      9661 MEMB     5        OSM      H18S     HAL3     0.900000E-01   1.00800           0
      9662 MEMB     5        OSM      H18T     HAL3     0.900000E-01   1.00800           0
      9663 MEMB     5        OSM      H18U     HAL3     0.900000E-01   1.00800           0
      9664 MEMB     5        OSM      C1F      C        0.550000       12.0110           0
      9665 MEMB     5        OSM      OF       O       -0.600000       15.9994           0
      9666 MEMB     5        OSM      C2F      CTL2    -0.700000E-01   12.0110           0
      9667 MEMB     5        OSM      H2F      HAL2     0.600000E-01   1.00800           0
      9668 MEMB     5        OSM      H2G      HAL2     0.600000E-01   1.00800           0
      9669 MEMB     5        OSM      C3F      CTL2    -0.180000       12.0110           0
      9670 MEMB     5        OSM      H3F      HAL2     0.900000E-01   1.00800           0
      9671 MEMB     5        OSM      H3G      HAL2     0.900000E-01   1.00800           0
      9672 MEMB     5        OSM      C4F      CTL2    -0.180000       12.0110           0
      9673 MEMB     5        OSM      H4F      HAL2     0.900000E-01   1.00800           0
      9674 MEMB     5        OSM      H4G      HAL2     0.900000E-01   1.00800           0
      9675 MEMB     5        OSM      C5F      CTL2    -0.180000       12.0110           0
      9676 MEMB     5        OSM      H5F      HAL2     0.900000E-01   1.00800           0
      9677 MEMB     5        OSM      H5G      HAL2     0.900000E-01   1.00800           0
      9678 MEMB     5        OSM      C6F      CTL2    -0.180000       12.0110           0
      9679 MEMB     5        OSM      H6F      HAL2     0.900000E-01   1.00800           0
      9680 MEMB     5        OSM      H6G      HAL2     0.900000E-01   1.00800           0
      9681 MEMB     5        OSM      C7F      CTL2    -0.180000       12.0110           0
      9682 MEMB     5        OSM      H7F      HAL2     0.900000E-01   1.00800           0
      9683 MEMB     5        OSM      H7G      HAL2     0.900000E-01   1.00800           0
      9684 MEMB     5        OSM      C8F      CTL2    -0.180000       12.0110           0
      9685 MEMB     5        OSM      H8F      HAL2     0.900000E-01   1.00800           0
      9686 MEMB     5        OSM      H8G      HAL2     0.900000E-01   1.00800           0
      9687 MEMB     5        OSM      C9F      CEL1    -0.150000       12.0110           0
      9688 MEMB     5        OSM      H9F      HEL1     0.150000       1.00800           0
      9689 MEMB     5        OSM      C10F     CEL1    -0.150000       12.0110           0
      9690 MEMB     5        OSM      H10F     HEL1     0.150000       1.00800           0
      9691 MEMB     5        OSM      C11F     CTL2    -0.180000       12.0110           0
      9692 MEMB     5        OSM      H11F     HAL2     0.900000E-01   1.00800           0
      9693 MEMB     5        OSM      H11G     HAL2     0.900000E-01   1.00800           0
      9694 MEMB     5        OSM      C12F     CTL2    -0.180000       12.0110           0
      9695 MEMB     5        OSM      H12F     HAL2     0.900000E-01   1.00800           0
      9696 MEMB     5        OSM      H12G     HAL2     0.900000E-01   1.00800           0
      9697 MEMB     5        OSM      C13F     CTL2    -0.180000       12.0110           0
      9698 MEMB     5        OSM      H13F     HAL2     0.900000E-01   1.00800           0
      9699 MEMB     5        OSM      H13G     HAL2     0.900000E-01   1.00800           0
      9700 MEMB     5        OSM      C14F     CTL2    -0.180000       12.0110           0
      9701 MEMB     5        OSM      H14F     HAL2     0.900000E-01   1.00800           0
      9702 MEMB     5        OSM      H14G     HAL2     0.900000E-01   1.00800           0
      9703 MEMB     5        OSM      C15F     CTL2    -0.180000       12.0110           0
      9704 MEMB     5        OSM      H15F     HAL2     0.900000E-01   1.00800           0
      9705 MEMB     5        OSM      H15G     HAL2     0.900000E-01   1.00800           0
      9706 MEMB     5        OSM      C16F     CTL2    -0.180000       12.0110           0
      9707 MEMB     5        OSM      H16F     HAL2     0.900000E-01   1.00800           0
      9708 MEMB     5        OSM      H16G     HAL2     0.900000E-01   1.00800           0
      9709 MEMB     5        OSM      C17F     CTL2    -0.180000       12.0110           0
      9710 MEMB     5        OSM      H17F     HAL2     0.900000E-01   1.00800           0
      9711 MEMB     5        OSM      H17G     HAL2     0.900000E-01   1.00800           0
      9712 MEMB     5        OSM      C18F     CTL3    -0.270000       12.0110           0
      9713 MEMB     5        OSM      H18F     HAL3     0.900000E-01   1.00800           0
      9714 MEMB     5        OSM      H18G     HAL3     0.900000E-01   1.00800           0
      9715 MEMB     5        OSM      H18H     HAL3     0.900000E-01   1.00800           0
      9716 MEMB     12       OSM      N        NTL     -0.600000       14.0070           0
      9717 MEMB     12       OSM      C15      CTL5    -0.350000       12.0110           0
      9718 MEMB     12       OSM      H15A     HL       0.250000       1.00800           0
      9719 MEMB     12       OSM      H15B     HL       0.250000       1.00800           0
      9720 MEMB     12       OSM      H15C     HL       0.250000       1.00800           0
      9721 MEMB     12       OSM      C14      CTL5    -0.350000       12.0110           0
      9722 MEMB     12       OSM      H14A     HL       0.250000       1.00800           0
      9723 MEMB     12       OSM      H14B     HL       0.250000       1.00800           0
      9724 MEMB     12       OSM      H14C     HL       0.250000       1.00800           0
      9725 MEMB     12       OSM      C13      CTL5    -0.350000       12.0110           0
      9726 MEMB     12       OSM      H13A     HL       0.250000       1.00800           0
      9727 MEMB     12       OSM      H13B     HL       0.250000       1.00800           0
      9728 MEMB     12       OSM      H13C     HL       0.250000       1.00800           0
      9729 MEMB     12       OSM      C12      CTL2    -0.100000       12.0110           0
      9730 MEMB     12       OSM      H12A     HL       0.250000       1.00800           0
      9731 MEMB     12       OSM      H12B     HL       0.250000       1.00800           0
      9732 MEMB     12       OSM      C11      CTL2    -0.800000E-01   12.0110           0
      9733 MEMB     12       OSM      H11A     HAL2     0.900000E-01   1.00800           0
      9734 MEMB     12       OSM      H11B     HAL2     0.900000E-01   1.00800           0
      9735 MEMB     12       OSM      P        PL       1.500000       30.9740           0
      9736 MEMB     12       OSM      O13      O2L     -0.780000       15.9994           0
      9737 MEMB     12       OSM      O14      O2L     -0.780000       15.9994           0
      9738 MEMB     12       OSM      O11      OSLP    -0.570000       15.9994           0
      9739 MEMB     12       OSM      O12      OSLP    -0.570000       15.9994           0
      9740 MEMB     12       OSM      C1S      CTL2    -0.800000E-01   12.0110           0
      9741 MEMB     12       OSM      H1S      HAL2     0.900000E-01   1.00800           0
      9742 MEMB     12       OSM      H1T      HAL2     0.900000E-01   1.00800           0
      9743 MEMB     12       OSM      NF       NHL     -0.700000       14.0070           0
      9744 MEMB     12       OSM      HNF      H        0.350000       1.00800           0
      9745 MEMB     12       OSM      C2S      CTL1     0.300000       12.0110           0
      9746 MEMB     12       OSM      H2S      HAL1     0.500000E-01   1.00800           0
      9747 MEMB     12       OSM      C3S      CTO1     0.500000       12.0110           0
      9748 MEMB     12       OSM      H3S      HAL1    -0.110000       1.00800           0
      9749 MEMB     12       OSM      O3       OHL     -0.690000       15.9994           0
      9750 MEMB     12       OSM      HO3      HOL      0.300000       1.00800           0
      9751 MEMB     12       OSM      C4S      CEL3    -0.150000       12.0110           0
      9752 MEMB     12       OSM      H4S      HEL1     0.150000       1.00800           0
      9753 MEMB     12       OSM      C5S      CEL3    -0.150000       12.0110           0
      9754 MEMB     12       OSM      H5S      HEL1     0.150000       1.00800           0
      9755 MEMB     12       OSM      C6S      CTL2    -0.180000       12.0110           0
      9756 MEMB     12       OSM      H6S      HAL2     0.900000E-01   1.00800           0
      9757 MEMB     12       OSM      H6T      HAL2     0.900000E-01   1.00800           0
      9758 MEMB     12       OSM      C7S      CTL2    -0.180000       12.0110           0
      9759 MEMB     12       OSM      H7S      HAL2     0.900000E-01   1.00800           0
      9760 MEMB     12       OSM      H7T      HAL2     0.900000E-01   1.00800           0
      9761 MEMB     12       OSM      C8S      CTL2    -0.180000       12.0110           0
      9762 MEMB     12       OSM      H8S      HAL2     0.900000E-01   1.00800           0
      9763 MEMB     12       OSM      H8T      HAL2     0.900000E-01   1.00800           0
      9764 MEMB     12       OSM      C9S      CTL2    -0.180000       12.0110           0
      9765 MEMB     12       OSM      H9S      HAL2     0.900000E-01   1.00800           0
      9766 MEMB     12       OSM      H9T      HAL2     0.900000E-01   1.00800           0
      9767 MEMB     12       OSM      C10S     CTL2    -0.180000       12.0110           0
      9768 MEMB     12       OSM      H10S     HAL2     0.900000E-01   1.00800           0
      9769 MEMB     12       OSM      H10T     HAL2     0.900000E-01   1.00800           0
      9770 MEMB     12       OSM      C11S     CTL2    -0.180000       12.0110           0
      9771 MEMB     12       OSM      H11S     HAL2     0.900000E-01   1.00800           0
      9772 MEMB     12       OSM      H11T     HAL2     0.900000E-01   1.00800           0
      9773 MEMB     12       OSM      C12S     CTL2    -0.180000       12.0110           0
      9774 MEMB     12       OSM      H12S     HAL2     0.900000E-01   1.00800           0
      9775 MEMB     12       OSM      H12T     HAL2     0.900000E-01   1.00800           0
      9776 MEMB     12       OSM      C13S     CTL2    -0.180000       12.0110           0
      9777 MEMB     12       OSM      H13S     HAL2     0.900000E-01   1.00800           0
      9778 MEMB     12       OSM      H13T     HAL2     0.900000E-01   1.00800           0
      9779 MEMB     12       OSM      C14S     CTL2    -0.180000       12.0110           0
      9780 MEMB     12       OSM      H14S     HAL2     0.900000E-01   1.00800           0
      9781 MEMB     12       OSM      H14T     HAL2     0.900000E-01   1.00800           0
      9782 MEMB     12       OSM      C15S     CTL2    -0.180000       12.0110           0
      9783 MEMB     12       OSM      H15S     HAL2     0.900000E-01   1.00800           0
      9784 MEMB     12       OSM      H15T     HAL2     0.900000E-01   1.00800           0
      9785 MEMB     12       OSM      C16S     CTL2    -0.180000       12.0110           0
      9786 MEMB     12       OSM      H16S     HAL2     0.900000E-01   1.00800           0
      9787 MEMB     12       OSM      H16T     HAL2     0.900000E-01   1.00800           0
      9788 MEMB     12       OSM      C17S     CTL2    -0.180000       12.0110           0
      9789 MEMB     12       OSM      H17S     HAL2     0.900000E-01   1.00800           0
      9790 MEMB     12       OSM      H17T     HAL2     0.900000E-01   1.00800           0
      9791 MEMB     12       OSM      C18S     CTL3    -0.270000       12.0110           0
      9792 MEMB     12       OSM      H18S     HAL3     0.900000E-01   1.00800           0
      9793 MEMB     12       OSM      H18T     HAL3     0.900000E-01   1.00800           0
      9794 MEMB     12       OSM      H18U     HAL3     0.900000E-01   1.00800           0
      9795 MEMB     12       OSM      C1F      C        0.550000       12.0110           0
      9796 MEMB     12       OSM      OF       O       -0.600000       15.9994           0
      9797 MEMB     12       OSM      C2F      CTL2    -0.700000E-01   12.0110           0
      9798 MEMB     12       OSM      H2F      HAL2     0.600000E-01   1.00800           0
      9799 MEMB     12       OSM      H2G      HAL2     0.600000E-01   1.00800           0
      9800 MEMB     12       OSM      C3F      CTL2    -0.180000       12.0110           0
      9801 MEMB     12       OSM      H3F      HAL2     0.900000E-01   1.00800           0
      9802 MEMB     12       OSM      H3G      HAL2     0.900000E-01   1.00800           0
      9803 MEMB     12       OSM      C4F      CTL2    -0.180000       12.0110           0
      9804 MEMB     12       OSM      H4F      HAL2     0.900000E-01   1.00800           0
      9805 MEMB     12       OSM      H4G      HAL2     0.900000E-01   1.00800           0
      9806 MEMB     12       OSM      C5F      CTL2    -0.180000       12.0110           0
      9807 MEMB     12       OSM      H5F      HAL2     0.900000E-01   1.00800           0
      9808 MEMB     12       OSM      H5G      HAL2     0.900000E-01   1.00800           0
      9809 MEMB     12       OSM      C6F      CTL2    -0.180000       12.0110           0
      9810 MEMB     12       OSM      H6F      HAL2     0.900000E-01   1.00800           0
      9811 MEMB     12       OSM      H6G      HAL2     0.900000E-01   1.00800           0
      9812 MEMB     12       OSM      C7F      CTL2    -0.180000       12.0110           0
      9813 MEMB     12       OSM      H7F      HAL2     0.900000E-01   1.00800           0
      9814 MEMB     12       OSM      H7G      HAL2     0.900000E-01   1.00800           0
      9815 MEMB     12       OSM      C8F      CTL2    -0.180000       12.0110           0
      9816 MEMB     12       OSM      H8F      HAL2     0.900000E-01   1.00800           0
      9817 MEMB     12       OSM      H8G      HAL2     0.900000E-01   1.00800           0
      9818 MEMB     12       OSM      C9F      CEL1    -0.150000       12.0110           0
      9819 MEMB     12       OSM      H9F      HEL1     0.150000       1.00800           0
      9820 MEMB     12       OSM      C10F     CEL1    -0.150000       12.0110           0
      9821 MEMB     12       OSM      H10F     HEL1     0.150000       1.00800           0
      9822 MEMB     12       OSM      C11F     CTL2    -0.180000       12.0110           0
      9823 MEMB     12       OSM      H11F     HAL2     0.900000E-01   1.00800           0
      9824 MEMB     12       OSM      H11G     HAL2     0.900000E-01   1.00800           0
      9825 MEMB     12       OSM      C12F     CTL2    -0.180000       12.0110           0
      9826 MEMB     12       OSM      H12F     HAL2     0.900000E-01   1.00800           0
      9827 MEMB     12       OSM      H12G     HAL2     0.900000E-01   1.00800           0
      9828 MEMB     12       OSM      C13F     CTL2    -0.180000       12.0110           0
      9829 MEMB     12       OSM      H13F     HAL2     0.900000E-01   1.00800           0
      9830 MEMB     12       OSM      H13G     HAL2     0.900000E-01   1.00800           0
      9831 MEMB     12       OSM      C14F     CTL2    -0.180000       12.0110           0
      9832 MEMB     12       OSM      H14F     HAL2     0.900000E-01   1.00800           0
      9833 MEMB     12       OSM      H14G     HAL2     0.900000E-01   1.00800           0
      9834 MEMB     12       OSM      C15F     CTL2    -0.180000       12.0110           0
      9835 MEMB     12       OSM      H15F     HAL2     0.900000E-01   1.00800           0
      9836 MEMB     12       OSM      H15G     HAL2     0.900000E-01   1.00800           0
      9837 MEMB     12       OSM      C16F     CTL2    -0.180000       12.0110           0
      9838 MEMB     12       OSM      H16F     HAL2     0.900000E-01   1.00800           0
      9839 MEMB     12       OSM      H16G     HAL2     0.900000E-01   1.00800           0
      9840 MEMB     12       OSM      C17F     CTL2    -0.180000       12.0110           0
      9841 MEMB     12       OSM      H17F     HAL2     0.900000E-01   1.00800           0
      9842 MEMB     12       OSM      H17G     HAL2     0.900000E-01   1.00800           0
      9843 MEMB     12       OSM      C18F     CTL3    -0.270000       12.0110           0
      9844 MEMB     12       OSM      H18F     HAL3     0.900000E-01   1.00800           0
      9845 MEMB     12       OSM      H18G     HAL3     0.900000E-01   1.00800           0
      9846 MEMB     12       OSM      H18H     HAL3     0.900000E-01   1.00800           0
      9847 MEMB     18       OSM      N        NTL     -0.600000       14.0070           0
      9848 MEMB     18       OSM      C15      CTL5    -0.350000       12.0110           0
      9849 MEMB     18       OSM      H15A     HL       0.250000       1.00800           0
      9850 MEMB     18       OSM      H15B     HL       0.250000       1.00800           0
      9851 MEMB     18       OSM      H15C     HL       0.250000       1.00800           0
      9852 MEMB     18       OSM      C14      CTL5    -0.350000       12.0110           0
      9853 MEMB     18       OSM      H14A     HL       0.250000       1.00800           0
      9854 MEMB     18       OSM      H14B     HL       0.250000       1.00800           0
      9855 MEMB     18       OSM      H14C     HL       0.250000       1.00800           0
      9856 MEMB     18       OSM      C13      CTL5    -0.350000       12.0110           0
      9857 MEMB     18       OSM      H13A     HL       0.250000       1.00800           0
      9858 MEMB     18       OSM      H13B     HL       0.250000       1.00800           0
      9859 MEMB     18       OSM      H13C     HL       0.250000       1.00800           0
      9860 MEMB     18       OSM      C12      CTL2    -0.100000       12.0110           0
      9861 MEMB     18       OSM      H12A     HL       0.250000       1.00800           0
      9862 MEMB     18       OSM      H12B     HL       0.250000       1.00800           0
      9863 MEMB     18       OSM      C11      CTL2    -0.800000E-01   12.0110           0
      9864 MEMB     18       OSM      H11A     HAL2     0.900000E-01   1.00800           0
      9865 MEMB     18       OSM      H11B     HAL2     0.900000E-01   1.00800           0
      9866 MEMB     18       OSM      P        PL       1.500000       30.9740           0
      9867 MEMB     18       OSM      O13      O2L     -0.780000       15.9994           0
      9868 MEMB     18       OSM      O14      O2L     -0.780000       15.9994           0
      9869 MEMB     18       OSM      O11      OSLP    -0.570000       15.9994           0
      9870 MEMB     18       OSM      O12      OSLP    -0.570000       15.9994           0
      9871 MEMB     18       OSM      C1S      CTL2    -0.800000E-01   12.0110           0
      9872 MEMB     18       OSM      H1S      HAL2     0.900000E-01   1.00800           0
      9873 MEMB     18       OSM      H1T      HAL2     0.900000E-01   1.00800           0
      9874 MEMB     18       OSM      NF       NHL     -0.700000       14.0070           0
      9875 MEMB     18       OSM      HNF      H        0.350000       1.00800           0
      9876 MEMB     18       OSM      C2S      CTL1     0.300000       12.0110           0
      9877 MEMB     18       OSM      H2S      HAL1     0.500000E-01   1.00800           0
      9878 MEMB     18       OSM      C3S      CTO1     0.500000       12.0110           0
      9879 MEMB     18       OSM      H3S      HAL1    -0.110000       1.00800           0
      9880 MEMB     18       OSM      O3       OHL     -0.690000       15.9994           0
      9881 MEMB     18       OSM      HO3      HOL      0.300000       1.00800           0
      9882 MEMB     18       OSM      C4S      CEL3    -0.150000       12.0110           0
      9883 MEMB     18       OSM      H4S      HEL1     0.150000       1.00800           0
      9884 MEMB     18       OSM      C5S      CEL3    -0.150000       12.0110           0
      9885 MEMB     18       OSM      H5S      HEL1     0.150000       1.00800           0
      9886 MEMB     18       OSM      C6S      CTL2    -0.180000       12.0110           0
      9887 MEMB     18       OSM      H6S      HAL2     0.900000E-01   1.00800           0
      9888 MEMB     18       OSM      H6T      HAL2     0.900000E-01   1.00800           0
      9889 MEMB     18       OSM      C7S      CTL2    -0.180000       12.0110           0
      9890 MEMB     18       OSM      H7S      HAL2     0.900000E-01   1.00800           0
      9891 MEMB     18       OSM      H7T      HAL2     0.900000E-01   1.00800           0
      9892 MEMB     18       OSM      C8S      CTL2    -0.180000       12.0110           0
      9893 MEMB     18       OSM      H8S      HAL2     0.900000E-01   1.00800           0
      9894 MEMB     18       OSM      H8T      HAL2     0.900000E-01   1.00800           0
      9895 MEMB     18       OSM      C9S      CTL2    -0.180000       12.0110           0
      9896 MEMB     18       OSM      H9S      HAL2     0.900000E-01   1.00800           0
      9897 MEMB     18       OSM      H9T      HAL2     0.900000E-01   1.00800           0
      9898 MEMB     18       OSM      C10S     CTL2    -0.180000       12.0110           0
      9899 MEMB     18       OSM      H10S     HAL2     0.900000E-01   1.00800           0
      9900 MEMB     18       OSM      H10T     HAL2     0.900000E-01   1.00800           0
      9901 MEMB     18       OSM      C11S     CTL2    -0.180000       12.0110           0
      9902 MEMB     18       OSM      H11S     HAL2     0.900000E-01   1.00800           0
      9903 MEMB     18       OSM      H11T     HAL2     0.900000E-01   1.00800           0
      9904 MEMB     18       OSM      C12S     CTL2    -0.180000       12.0110           0
      9905 MEMB     18       OSM      H12S     HAL2     0.900000E-01   1.00800           0
      9906 MEMB     18       OSM      H12T     HAL2     0.900000E-01   1.00800           0
      9907 MEMB     18       OSM      C13S     CTL2    -0.180000       12.0110           0
      9908 MEMB     18       OSM      H13S     HAL2     0.900000E-01   1.00800           0
      9909 MEMB     18       OSM      H13T     HAL2     0.900000E-01   1.00800           0
      9910 MEMB     18       OSM      C14S     CTL2    -0.180000       12.0110           0
      9911 MEMB     18       OSM      H14S     HAL2     0.900000E-01   1.00800           0
      9912 MEMB     18       OSM      H14T     HAL2     0.900000E-01   1.00800           0
      9913 MEMB     18       OSM      C15S     CTL2    -0.180000       12.0110           0
      9914 MEMB     18       OSM      H15S     HAL2     0.900000E-01   1.00800           0
      9915 MEMB     18       OSM      H15T     HAL2     0.900000E-01   1.00800           0
      9916 MEMB     18       OSM      C16S     CTL2    -0.180000       12.0110           0
      9917 MEMB     18       OSM      H16S     HAL2     0.900000E-01   1.00800           0
      9918 MEMB     18       OSM      H16T     HAL2     0.900000E-01   1.00800           0
      9919 MEMB     18       OSM      C17S     CTL2    -0.180000       12.0110           0
      9920 MEMB     18       OSM      H17S     HAL2     0.900000E-01   1.00800           0
      9921 MEMB     18       OSM      H17T     HAL2     0.900000E-01   1.00800           0
      9922 MEMB     18       OSM      C18S     CTL3    -0.270000       12.0110           0
      9923 MEMB     18       OSM      H18S     HAL3     0.900000E-01   1.00800           0
      9924 MEMB     18       OSM      H18T     HAL3     0.900000E-01   1.00800           0
      9925 MEMB     18       OSM      H18U     HAL3     0.900000E-01   1.00800           0
      9926 MEMB     18       OSM      C1F      C        0.550000       12.0110           0
      9927 MEMB     18       OSM      OF       O       -0.600000       15.9994           0
      9928 MEMB     18       OSM      C2F      CTL2    -0.700000E-01   12.0110           0
      9929 MEMB     18       OSM      H2F      HAL2     0.600000E-01   1.00800           0
      9930 MEMB     18       OSM      H2G      HAL2     0.600000E-01   1.00800           0
      9931 MEMB     18       OSM      C3F      CTL2    -0.180000       12.0110           0
      9932 MEMB     18       OSM      H3F      HAL2     0.900000E-01   1.00800           0
      9933 MEMB     18       OSM      H3G      HAL2     0.900000E-01   1.00800           0
      9934 MEMB     18       OSM      C4F      CTL2    -0.180000       12.0110           0
      9935 MEMB     18       OSM      H4F      HAL2     0.900000E-01   1.00800           0
      9936 MEMB     18       OSM      H4G      HAL2     0.900000E-01   1.00800           0
      9937 MEMB     18       OSM      C5F      CTL2    -0.180000       12.0110           0
      9938 MEMB     18       OSM      H5F      HAL2     0.900000E-01   1.00800           0
      9939 MEMB     18       OSM      H5G      HAL2     0.900000E-01   1.00800           0
      9940 MEMB     18       OSM      C6F      CTL2    -0.180000       12.0110           0
      9941 MEMB     18       OSM      H6F      HAL2     0.900000E-01   1.00800           0
      9942 MEMB     18       OSM      H6G      HAL2     0.900000E-01   1.00800           0
      9943 MEMB     18       OSM      C7F      CTL2    -0.180000       12.0110           0
      9944 MEMB     18       OSM      H7F      HAL2     0.900000E-01   1.00800           0
      9945 MEMB     18       OSM      H7G      HAL2     0.900000E-01   1.00800           0
      9946 MEMB     18       OSM      C8F      CTL2    -0.180000       12.0110           0
      9947 MEMB     18       OSM      H8F      HAL2     0.900000E-01   1.00800           0
      9948 MEMB     18       OSM      H8G      HAL2     0.900000E-01   1.00800           0
      9949 MEMB     18       OSM      C9F      CEL1    -0.150000       12.0110           0
      9950 MEMB     18       OSM      H9F      HEL1     0.150000       1.00800           0
      9951 MEMB     18       OSM      C10F     CEL1    -0.150000       12.0110           0
      9952 MEMB     18       OSM      H10F     HEL1     0.150000       1.00800           0
      9953 MEMB     18       OSM      C11F     CTL2    -0.180000       12.0110           0
      9954 MEMB     18       OSM      H11F     HAL2     0.900000E-01   1.00800           0
      9955 MEMB     18       OSM      H11G     HAL2     0.900000E-01   1.00800           0
      9956 MEMB     18       OSM      C12F     CTL2    -0.180000       12.0110           0
      9957 MEMB     18       OSM      H12F     HAL2     0.900000E-01   1.00800           0
      9958 MEMB     18       OSM      H12G     HAL2     0.900000E-01   1.00800           0
      9959 MEMB     18       OSM      C13F     CTL2    -0.180000       12.0110           0
      9960 MEMB     18       OSM      H13F     HAL2     0.900000E-01   1.00800           0
      9961 MEMB     18       OSM      H13G     HAL2     0.900000E-01   1.00800           0
      9962 MEMB     18       OSM      C14F     CTL2    -0.180000       12.0110           0
      9963 MEMB     18       OSM      H14F     HAL2     0.900000E-01   1.00800           0
      9964 MEMB     18       OSM      H14G     HAL2     0.900000E-01   1.00800           0
      9965 MEMB     18       OSM      C15F     CTL2    -0.180000       12.0110           0
      9966 MEMB     18       OSM      H15F     HAL2     0.900000E-01   1.00800           0
      9967 MEMB     18       OSM      H15G     HAL2     0.900000E-01   1.00800           0
      9968 MEMB     18       OSM      C16F     CTL2    -0.180000       12.0110           0
      9969 MEMB     18       OSM      H16F     HAL2     0.900000E-01   1.00800           0
      9970 MEMB     18       OSM      H16G     HAL2     0.900000E-01   1.00800           0
      9971 MEMB     18       OSM      C17F     CTL2    -0.180000       12.0110           0
      9972 MEMB     18       OSM      H17F     HAL2     0.900000E-01   1.00800           0
      9973 MEMB     18       OSM      H17G     HAL2     0.900000E-01   1.00800           0
      9974 MEMB     18       OSM      C18F     CTL3    -0.270000       12.0110           0
      9975 MEMB     18       OSM      H18F     HAL3     0.900000E-01   1.00800           0
      9976 MEMB     18       OSM      H18G     HAL3     0.900000E-01   1.00800           0
      9977 MEMB     18       OSM      H18H     HAL3     0.900000E-01   1.00800           0
      9978 MEMB     24       OSM      N        NTL     -0.600000       14.0070           0
      9979 MEMB     24       OSM      C15      CTL5    -0.350000       12.0110           0
      9980 MEMB     24       OSM      H15A     HL       0.250000       1.00800           0
      9981 MEMB     24       OSM      H15B     HL       0.250000       1.00800           0
      9982 MEMB     24       OSM      H15C     HL       0.250000       1.00800           0
      9983 MEMB     24       OSM      C14      CTL5    -0.350000       12.0110           0
      9984 MEMB     24       OSM      H14A     HL       0.250000       1.00800           0
      9985 MEMB     24       OSM      H14B     HL       0.250000       1.00800           0
      9986 MEMB     24       OSM      H14C     HL       0.250000       1.00800           0
      9987 MEMB     24       OSM      C13      CTL5    -0.350000       12.0110           0
      9988 MEMB     24       OSM      H13A     HL       0.250000       1.00800           0
      9989 MEMB     24       OSM      H13B     HL       0.250000       1.00800           0
      9990 MEMB     24       OSM      H13C     HL       0.250000       1.00800           0
      9991 MEMB     24       OSM      C12      CTL2    -0.100000       12.0110           0
      9992 MEMB     24       OSM      H12A     HL       0.250000       1.00800           0
      9993 MEMB     24       OSM      H12B     HL       0.250000       1.00800           0
      9994 MEMB     24       OSM      C11      CTL2    -0.800000E-01   12.0110           0
      9995 MEMB     24       OSM      H11A     HAL2     0.900000E-01   1.00800           0
      9996 MEMB     24       OSM      H11B     HAL2     0.900000E-01   1.00800           0
      9997 MEMB     24       OSM      P        PL       1.500000       30.9740           0
      9998 MEMB     24       OSM      O13      O2L     -0.780000       15.9994           0
      9999 MEMB     24       OSM      O14      O2L     -0.780000       15.9994           0
     10000 MEMB     24       OSM      O11      OSLP    -0.570000       15.9994           0
     10001 MEMB     24       OSM      O12      OSLP    -0.570000       15.9994           0
     10002 MEMB     24       OSM      C1S      CTL2    -0.800000E-01   12.0110           0
     10003 MEMB     24       OSM      H1S      HAL2     0.900000E-01   1.00800           0
     10004 MEMB     24       OSM      H1T      HAL2     0.900000E-01   1.00800           0
     10005 MEMB     24       OSM      NF       NHL     -0.700000       14.0070           0
     10006 MEMB     24       OSM      HNF      H        0.350000       1.00800           0
     10007 MEMB     24       OSM      C2S      CTL1     0.300000       12.0110           0
     10008 MEMB     24       OSM      H2S      HAL1     0.500000E-01   1.00800           0
     10009 MEMB     24       OSM      C3S      CTO1     0.500000       12.0110           0
     10010 MEMB     24       OSM      H3S      HAL1    -0.110000       1.00800           0
     10011 MEMB     24       OSM      O3       OHL     -0.690000       15.9994           0
     10012 MEMB     24       OSM      HO3      HOL      0.300000       1.00800           0
     10013 MEMB     24       OSM      C4S      CEL3    -0.150000       12.0110           0
     10014 MEMB     24       OSM      H4S      HEL1     0.150000       1.00800           0
     10015 MEMB     24       OSM      C5S      CEL3    -0.150000       12.0110           0
     10016 MEMB     24       OSM      H5S      HEL1     0.150000       1.00800           0
     10017 MEMB     24       OSM      C6S      CTL2    -0.180000       12.0110           0
     10018 MEMB     24       OSM      H6S      HAL2     0.900000E-01   1.00800           0
     10019 MEMB     24       OSM      H6T      HAL2     0.900000E-01   1.00800           0
     10020 MEMB     24       OSM      C7S      CTL2    -0.180000       12.0110           0
     10021 MEMB     24       OSM      H7S      HAL2     0.900000E-01   1.00800           0
     10022 MEMB     24       OSM      H7T      HAL2     0.900000E-01   1.00800           0
     10023 MEMB     24       OSM      C8S      CTL2    -0.180000       12.0110           0
     10024 MEMB     24       OSM      H8S      HAL2     0.900000E-01   1.00800           0
     10025 MEMB     24       OSM      H8T      HAL2     0.900000E-01   1.00800           0
     10026 MEMB     24       OSM      C9S      CTL2    -0.180000       12.0110           0
     10027 MEMB     24       OSM      H9S      HAL2     0.900000E-01   1.00800           0
     10028 MEMB     24       OSM      H9T      HAL2     0.900000E-01   1.00800           0
     10029 MEMB     24       OSM      C10S     CTL2    -0.180000       12.0110           0
     10030 MEMB     24       OSM      H10S     HAL2     0.900000E-01   1.00800           0
     10031 MEMB     24       OSM      H10T     HAL2     0.900000E-01   1.00800           0
     10032 MEMB     24       OSM      C11S     CTL2    -0.180000       12.0110           0
     10033 MEMB     24       OSM      H11S     HAL2     0.900000E-01   1.00800           0
     10034 MEMB     24       OSM      H11T     HAL2     0.900000E-01   1.00800           0
     10035 MEMB     24       OSM      C12S     CTL2    -0.180000       12.0110           0
     10036 MEMB     24       OSM      H12S     HAL2     0.900000E-01   1.00800           0
     10037 MEMB     24       OSM      H12T     HAL2     0.900000E-01   1.00800           0
     10038 MEMB     24       OSM      C13S     CTL2    -0.180000       12.0110           0
     10039 MEMB     24       OSM      H13S     HAL2     0.900000E-01   1.00800           0
     10040 MEMB     24       OSM      H13T     HAL2     0.900000E-01   1.00800           0
     10041 MEMB     24       OSM      C14S     CTL2    -0.180000       12.0110           0
     10042 MEMB     24       OSM      H14S     HAL2     0.900000E-01   1.00800           0
     10043 MEMB     24       OSM      H14T     HAL2     0.900000E-01   1.00800           0
     10044 MEMB     24       OSM      C15S     CTL2    -0.180000       12.0110           0
     10045 MEMB     24       OSM      H15S     HAL2     0.900000E-01   1.00800           0
     10046 MEMB     24       OSM      H15T     HAL2     0.900000E-01   1.00800           0
     10047 MEMB     24       OSM      C16S     CTL2    -0.180000       12.0110           0
     10048 MEMB     24       OSM      H16S     HAL2     0.900000E-01   1.00800           0
     10049 MEMB     24       OSM      H16T     HAL2     0.900000E-01   1.00800           0
     10050 MEMB     24       OSM      C17S     CTL2    -0.180000       12.0110           0
     10051 MEMB     24       OSM      H17S     HAL2     0.900000E-01   1.00800           0
     10052 MEMB     24       OSM      H17T     HAL2     0.900000E-01   1.00800           0
     10053 MEMB     24       OSM      C18S     CTL3    -0.270000       12.0110           0
     10054 MEMB     24       OSM      H18S     HAL3     0.900000E-01   1.00800           0
     10055 MEMB     24       OSM      H18T     HAL3     0.900000E-01   1.00800           0
     10056 MEMB     24       OSM      H18U     HAL3     0.900000E-01   1.00800           0
     10057 MEMB     24       OSM      C1F      C        0.550000       12.0110           0
     10058 MEMB     24       OSM      OF       O       -0.600000       15.9994           0
     10059 MEMB     24       OSM      C2F      CTL2    -0.700000E-01   12.0110           0
     10060 MEMB     24       OSM      H2F      HAL2     0.600000E-01   1.00800           0
     10061 MEMB     24       OSM      H2G      HAL2     0.600000E-01   1.00800           0
     10062 MEMB     24       OSM      C3F      CTL2    -0.180000       12.0110           0
     10063 MEMB     24       OSM      H3F      HAL2     0.900000E-01   1.00800           0
     10064 MEMB     24       OSM      H3G      HAL2     0.900000E-01   1.00800           0
     10065 MEMB     24       OSM      C4F      CTL2    -0.180000       12.0110           0
     10066 MEMB     24       OSM      H4F      HAL2     0.900000E-01   1.00800           0
     10067 MEMB     24       OSM      H4G      HAL2     0.900000E-01   1.00800           0
     10068 MEMB     24       OSM      C5F      CTL2    -0.180000       12.0110           0
     10069 MEMB     24       OSM      H5F      HAL2     0.900000E-01   1.00800           0
     10070 MEMB     24       OSM      H5G      HAL2     0.900000E-01   1.00800           0
     10071 MEMB     24       OSM      C6F      CTL2    -0.180000       12.0110           0
     10072 MEMB     24       OSM      H6F      HAL2     0.900000E-01   1.00800           0
     10073 MEMB     24       OSM      H6G      HAL2     0.900000E-01   1.00800           0
     10074 MEMB     24       OSM      C7F      CTL2    -0.180000       12.0110           0
     10075 MEMB     24       OSM      H7F      HAL2     0.900000E-01   1.00800           0
     10076 MEMB     24       OSM      H7G      HAL2     0.900000E-01   1.00800           0
     10077 MEMB     24       OSM      C8F      CTL2    -0.180000       12.0110           0
     10078 MEMB     24       OSM      H8F      HAL2     0.900000E-01   1.00800           0
     10079 MEMB     24       OSM      H8G      HAL2     0.900000E-01   1.00800           0
     10080 MEMB     24       OSM      C9F      CEL1    -0.150000       12.0110           0
     10081 MEMB     24       OSM      H9F      HEL1     0.150000       1.00800           0
     10082 MEMB     24       OSM      C10F     CEL1    -0.150000       12.0110           0
     10083 MEMB     24       OSM      H10F     HEL1     0.150000       1.00800           0
     10084 MEMB     24       OSM      C11F     CTL2    -0.180000       12.0110           0
     10085 MEMB     24       OSM      H11F     HAL2     0.900000E-01   1.00800           0
     10086 MEMB     24       OSM      H11G     HAL2     0.900000E-01   1.00800           0
     10087 MEMB     24       OSM      C12F     CTL2    -0.180000       12.0110           0
     10088 MEMB     24       OSM      H12F     HAL2     0.900000E-01   1.00800           0
     10089 MEMB     24       OSM      H12G     HAL2     0.900000E-01   1.00800           0
     10090 MEMB     24       OSM      C13F     CTL2    -0.180000       12.0110           0
     10091 MEMB     24       OSM      H13F     HAL2     0.900000E-01   1.00800           0
     10092 MEMB     24       OSM      H13G     HAL2     0.900000E-01   1.00800           0
     10093 MEMB     24       OSM      C14F     CTL2    -0.180000       12.0110           0
     10094 MEMB     24       OSM      H14F     HAL2     0.900000E-01   1.00800           0
     10095 MEMB     24       OSM      H14G     HAL2     0.900000E-01   1.00800           0
     10096 MEMB     24       OSM      C15F     CTL2    -0.180000       12.0110           0
     10097 MEMB     24       OSM      H15F     HAL2     0.900000E-01   1.00800           0
     10098 MEMB     24       OSM      H15G     HAL2     0.900000E-01   1.00800           0
     10099 MEMB     24       OSM      C16F     CTL2    -0.180000       12.0110           0
     10100 MEMB     24       OSM      H16F     HAL2     0.900000E-01   1.00800           0
     10101 MEMB     24       OSM      H16G     HAL2     0.900000E-01   1.00800           0
     10102 MEMB     24       OSM      C17F     CTL2    -0.180000       12.0110           0
     10103 MEMB     24       OSM      H17F     HAL2     0.900000E-01   1.00800           0
     10104 MEMB     24       OSM      H17G     HAL2     0.900000E-01   1.00800           0
     10105 MEMB     24       OSM      C18F     CTL3    -0.270000       12.0110           0
     10106 MEMB     24       OSM      H18F     HAL3     0.900000E-01   1.00800           0
     10107 MEMB     24       OSM      H18G     HAL3     0.900000E-01   1.00800           0
     10108 MEMB     24       OSM      H18H     HAL3     0.900000E-01   1.00800           0
     10109 MEMB     29       OSM      N        NTL     -0.600000       14.0070           0
     10110 MEMB     29       OSM      C15      CTL5    -0.350000       12.0110           0
     10111 MEMB     29       OSM      H15A     HL       0.250000       1.00800           0
     10112 MEMB     29       OSM      H15B     HL       0.250000       1.00800           0
     10113 MEMB     29       OSM      H15C     HL       0.250000       1.00800           0
     10114 MEMB     29       OSM      C14      CTL5    -0.350000       12.0110           0
     10115 MEMB     29       OSM      H14A     HL       0.250000       1.00800           0
     10116 MEMB     29       OSM      H14B     HL       0.250000       1.00800           0
     10117 MEMB     29       OSM      H14C     HL       0.250000       1.00800           0
     10118 MEMB     29       OSM      C13      CTL5    -0.350000       12.0110           0
     10119 MEMB     29       OSM      H13A     HL       0.250000       1.00800           0
     10120 MEMB     29       OSM      H13B     HL       0.250000       1.00800           0
     10121 MEMB     29       OSM      H13C     HL       0.250000       1.00800           0
     10122 MEMB     29       OSM      C12      CTL2    -0.100000       12.0110           0
     10123 MEMB     29       OSM      H12A     HL       0.250000       1.00800           0
     10124 MEMB     29       OSM      H12B     HL       0.250000       1.00800           0
     10125 MEMB     29       OSM      C11      CTL2    -0.800000E-01   12.0110           0
     10126 MEMB     29       OSM      H11A     HAL2     0.900000E-01   1.00800           0
     10127 MEMB     29       OSM      H11B     HAL2     0.900000E-01   1.00800           0
     10128 MEMB     29       OSM      P        PL       1.500000       30.9740           0
     10129 MEMB     29       OSM      O13      O2L     -0.780000       15.9994           0
     10130 MEMB     29       OSM      O14      O2L     -0.780000       15.9994           0
     10131 MEMB     29       OSM      O11      OSLP    -0.570000       15.9994           0
     10132 MEMB     29       OSM      O12      OSLP    -0.570000       15.9994           0
     10133 MEMB     29       OSM      C1S      CTL2    -0.800000E-01   12.0110           0
     10134 MEMB     29       OSM      H1S      HAL2     0.900000E-01   1.00800           0
     10135 MEMB     29       OSM      H1T      HAL2     0.900000E-01   1.00800           0
     10136 MEMB     29       OSM      NF       NHL     -0.700000       14.0070           0
     10137 MEMB     29       OSM      HNF      H        0.350000       1.00800           0
     10138 MEMB     29       OSM      C2S      CTL1     0.300000       12.0110           0
     10139 MEMB     29       OSM      H2S      HAL1     0.500000E-01   1.00800           0
     10140 MEMB     29       OSM      C3S      CTO1     0.500000       12.0110           0
     10141 MEMB     29       OSM      H3S      HAL1    -0.110000       1.00800           0
     10142 MEMB     29       OSM      O3       OHL     -0.690000       15.9994           0
     10143 MEMB     29       OSM      HO3      HOL      0.300000       1.00800           0
     10144 MEMB     29       OSM      C4S      CEL3    -0.150000       12.0110           0
     10145 MEMB     29       OSM      H4S      HEL1     0.150000       1.00800           0
     10146 MEMB     29       OSM      C5S      CEL3    -0.150000       12.0110           0
     10147 MEMB     29       OSM      H5S      HEL1     0.150000       1.00800           0
     10148 MEMB     29       OSM      C6S      CTL2    -0.180000       12.0110           0
     10149 MEMB     29       OSM      H6S      HAL2     0.900000E-01   1.00800           0
     10150 MEMB     29       OSM      H6T      HAL2     0.900000E-01   1.00800           0
     10151 MEMB     29       OSM      C7S      CTL2    -0.180000       12.0110           0
     10152 MEMB     29       OSM      H7S      HAL2     0.900000E-01   1.00800           0
     10153 MEMB     29       OSM      H7T      HAL2     0.900000E-01   1.00800           0
     10154 MEMB     29       OSM      C8S      CTL2    -0.180000       12.0110           0
     10155 MEMB     29       OSM      H8S      HAL2     0.900000E-01   1.00800           0
     10156 MEMB     29       OSM      H8T      HAL2     0.900000E-01   1.00800           0
     10157 MEMB     29       OSM      C9S      CTL2    -0.180000       12.0110           0
     10158 MEMB     29       OSM      H9S      HAL2     0.900000E-01   1.00800           0
     10159 MEMB     29       OSM      H9T      HAL2     0.900000E-01   1.00800           0
     10160 MEMB     29       OSM      C10S     CTL2    -0.180000       12.0110           0
     10161 MEMB     29       OSM      H10S     HAL2     0.900000E-01   1.00800           0
     10162 MEMB     29       OSM      H10T     HAL2     0.900000E-01   1.00800           0
     10163 MEMB     29       OSM      C11S     CTL2    -0.180000       12.0110           0
     10164 MEMB     29       OSM      H11S     HAL2     0.900000E-01   1.00800           0
     10165 MEMB     29       OSM      H11T     HAL2     0.900000E-01   1.00800           0
     10166 MEMB     29       OSM      C12S     CTL2    -0.180000       12.0110           0
     10167 MEMB     29       OSM      H12S     HAL2     0.900000E-01   1.00800           0
     10168 MEMB     29       OSM      H12T     HAL2     0.900000E-01   1.00800           0
     10169 MEMB     29       OSM      C13S     CTL2    -0.180000       12.0110           0
     10170 MEMB     29       OSM      H13S     HAL2     0.900000E-01   1.00800           0
     10171 MEMB     29       OSM      H13T     HAL2     0.900000E-01   1.00800           0
     10172 MEMB     29       OSM      C14S     CTL2    -0.180000       12.0110           0
     10173 MEMB     29       OSM      H14S     HAL2     0.900000E-01   1.00800           0
     10174 MEMB     29       OSM      H14T     HAL2     0.900000E-01   1.00800           0
     10175 MEMB     29       OSM      C15S     CTL2    -0.180000       12.0110           0
     10176 MEMB     29       OSM      H15S     HAL2     0.900000E-01   1.00800           0
     10177 MEMB     29       OSM      H15T     HAL2     0.900000E-01   1.00800           0
     10178 MEMB     29       OSM      C16S     CTL2    -0.180000       12.0110           0
     10179 MEMB     29       OSM      H16S     HAL2     0.900000E-01   1.00800           0
     10180 MEMB     29       OSM      H16T     HAL2     0.900000E-01   1.00800           0
     10181 MEMB     29       OSM      C17S     CTL2    -0.180000       12.0110           0
     10182 MEMB     29       OSM      H17S     HAL2     0.900000E-01   1.00800           0
     10183 MEMB     29       OSM      H17T     HAL2     0.900000E-01   1.00800           0
     10184 MEMB     29       OSM      C18S     CTL3    -0.270000       12.0110           0
     10185 MEMB     29       OSM      H18S     HAL3     0.900000E-01   1.00800           0
     10186 MEMB     29       OSM      H18T     HAL3     0.900000E-01   1.00800           0
     10187 MEMB     29       OSM      H18U     HAL3     0.900000E-01   1.00800           0
     10188 MEMB     29       OSM      C1F      C        0.550000       12.0110           0
     10189 MEMB     29       OSM      OF       O       -0.600000       15.9994           0
     10190 MEMB     29       OSM      C2F      CTL2    -0.700000E-01   12.0110           0
     10191 MEMB     29       OSM      H2F      HAL2     0.600000E-01   1.00800           0
     10192 MEMB     29       OSM      H2G      HAL2     0.600000E-01   1.00800           0
     10193 MEMB     29       OSM      C3F      CTL2    -0.180000       12.0110           0
     10194 MEMB     29       OSM      H3F      HAL2     0.900000E-01   1.00800           0
     10195 MEMB     29       OSM      H3G      HAL2     0.900000E-01   1.00800           0
     10196 MEMB     29       OSM      C4F      CTL2    -0.180000       12.0110           0
     10197 MEMB     29       OSM      H4F      HAL2     0.900000E-01   1.00800           0
     10198 MEMB     29       OSM      H4G      HAL2     0.900000E-01   1.00800           0
     10199 MEMB     29       OSM      C5F      CTL2    -0.180000       12.0110           0
     10200 MEMB     29       OSM      H5F      HAL2     0.900000E-01   1.00800           0
     10201 MEMB     29       OSM      H5G      HAL2     0.900000E-01   1.00800           0
     10202 MEMB     29       OSM      C6F      CTL2    -0.180000       12.0110           0
     10203 MEMB     29       OSM      H6F      HAL2     0.900000E-01   1.00800           0
     10204 MEMB     29       OSM      H6G      HAL2     0.900000E-01   1.00800           0
     10205 MEMB     29       OSM      C7F      CTL2    -0.180000       12.0110           0
     10206 MEMB     29       OSM      H7F      HAL2     0.900000E-01   1.00800           0
     10207 MEMB     29       OSM      H7G      HAL2     0.900000E-01   1.00800           0
     10208 MEMB     29       OSM      C8F      CTL2    -0.180000       12.0110           0
     10209 MEMB     29       OSM      H8F      HAL2     0.900000E-01   1.00800           0
     10210 MEMB     29       OSM      H8G      HAL2     0.900000E-01   1.00800           0
     10211 MEMB     29       OSM      C9F      CEL1    -0.150000       12.0110           0
     10212 MEMB     29       OSM      H9F      HEL1     0.150000       1.00800           0
     10213 MEMB     29       OSM      C10F     CEL1    -0.150000       12.0110           0
     10214 MEMB     29       OSM      H10F     HEL1     0.150000       1.00800           0
     10215 MEMB     29       OSM      C11F     CTL2    -0.180000       12.0110           0
     10216 MEMB     29       OSM      H11F     HAL2     0.900000E-01   1.00800           0
     10217 MEMB     29       OSM      H11G     HAL2     0.900000E-01   1.00800           0
     10218 MEMB     29       OSM      C12F     CTL2    -0.180000       12.0110           0
     10219 MEMB     29       OSM      H12F     HAL2     0.900000E-01   1.00800           0
     10220 MEMB     29       OSM      H12G     HAL2     0.900000E-01   1.00800           0
     10221 MEMB     29       OSM      C13F     CTL2    -0.180000       12.0110           0
     10222 MEMB     29       OSM      H13F     HAL2     0.900000E-01   1.00800           0
     10223 MEMB     29       OSM      H13G     HAL2     0.900000E-01   1.00800           0
     10224 MEMB     29       OSM      C14F     CTL2    -0.180000       12.0110           0
     10225 MEMB     29       OSM      H14F     HAL2     0.900000E-01   1.00800           0
     10226 MEMB     29       OSM      H14G     HAL2     0.900000E-01   1.00800           0
     10227 MEMB     29       OSM      C15F     CTL2    -0.180000       12.0110           0
     10228 MEMB     29       OSM      H15F     HAL2     0.900000E-01   1.00800           0
     10229 MEMB     29       OSM      H15G     HAL2     0.900000E-01   1.00800           0
     10230 MEMB     29       OSM      C16F     CTL2    -0.180000       12.0110           0
     10231 MEMB     29       OSM      H16F     HAL2     0.900000E-01   1.00800           0
     10232 MEMB     29       OSM      H16G     HAL2     0.900000E-01   1.00800           0
     10233 MEMB     29       OSM      C17F     CTL2    -0.180000       12.0110           0
     10234 MEMB     29       OSM      H17F     HAL2     0.900000E-01   1.00800           0
     10235 MEMB     29       OSM      H17G     HAL2     0.900000E-01   1.00800           0
     10236 MEMB     29       OSM      C18F     CTL3    -0.270000       12.0110           0
     10237 MEMB     29       OSM      H18F     HAL3     0.900000E-01   1.00800           0
     10238 MEMB     29       OSM      H18G     HAL3     0.900000E-01   1.00800           0
     10239 MEMB     29       OSM      H18H     HAL3     0.900000E-01   1.00800           0
     10240 MEMB     30       OSM      N        NTL     -0.600000       14.0070           0
     10241 MEMB     30       OSM      C15      CTL5    -0.350000       12.0110           0
     10242 MEMB     30       OSM      H15A     HL       0.250000       1.00800           0
     10243 MEMB     30       OSM      H15B     HL       0.250000       1.00800           0
     10244 MEMB     30       OSM      H15C     HL       0.250000       1.00800           0
     10245 MEMB     30       OSM      C14      CTL5    -0.350000       12.0110           0
     10246 MEMB     30       OSM      H14A     HL       0.250000       1.00800           0
     10247 MEMB     30       OSM      H14B     HL       0.250000       1.00800           0
     10248 MEMB     30       OSM      H14C     HL       0.250000       1.00800           0
     10249 MEMB     30       OSM      C13      CTL5    -0.350000       12.0110           0
     10250 MEMB     30       OSM      H13A     HL       0.250000       1.00800           0
     10251 MEMB     30       OSM      H13B     HL       0.250000       1.00800           0
     10252 MEMB     30       OSM      H13C     HL       0.250000       1.00800           0
     10253 MEMB     30       OSM      C12      CTL2    -0.100000       12.0110           0
     10254 MEMB     30       OSM      H12A     HL       0.250000       1.00800           0
     10255 MEMB     30       OSM      H12B     HL       0.250000       1.00800           0
     10256 MEMB     30       OSM      C11      CTL2    -0.800000E-01   12.0110           0
     10257 MEMB     30       OSM      H11A     HAL2     0.900000E-01   1.00800           0
     10258 MEMB     30       OSM      H11B     HAL2     0.900000E-01   1.00800           0
     10259 MEMB     30       OSM      P        PL       1.500000       30.9740           0
     10260 MEMB     30       OSM      O13      O2L     -0.780000       15.9994           0
     10261 MEMB     30       OSM      O14      O2L     -0.780000       15.9994           0
     10262 MEMB     30       OSM      O11      OSLP    -0.570000       15.9994           0
     10263 MEMB     30       OSM      O12      OSLP    -0.570000       15.9994           0
     10264 MEMB     30       OSM      C1S      CTL2    -0.800000E-01   12.0110           0
     10265 MEMB     30       OSM      H1S      HAL2     0.900000E-01   1.00800           0
     10266 MEMB     30       OSM      H1T      HAL2     0.900000E-01   1.00800           0
     10267 MEMB     30       OSM      NF       NHL     -0.700000       14.0070           0
     10268 MEMB     30       OSM      HNF      H        0.350000       1.00800           0
     10269 MEMB     30       OSM      C2S      CTL1     0.300000       12.0110           0
     10270 MEMB     30       OSM      H2S      HAL1     0.500000E-01   1.00800           0
     10271 MEMB     30       OSM      C3S      CTO1     0.500000       12.0110           0
     10272 MEMB     30       OSM      H3S      HAL1    -0.110000       1.00800           0
     10273 MEMB     30       OSM      O3       OHL     -0.690000       15.9994           0
     10274 MEMB     30       OSM      HO3      HOL      0.300000       1.00800           0
     10275 MEMB     30       OSM      C4S      CEL3    -0.150000       12.0110           0
     10276 MEMB     30       OSM      H4S      HEL1     0.150000       1.00800           0
     10277 MEMB     30       OSM      C5S      CEL3    -0.150000       12.0110           0
     10278 MEMB     30       OSM      H5S      HEL1     0.150000       1.00800           0
     10279 MEMB     30       OSM      C6S      CTL2    -0.180000       12.0110           0
     10280 MEMB     30       OSM      H6S      HAL2     0.900000E-01   1.00800           0
     10281 MEMB     30       OSM      H6T      HAL2     0.900000E-01   1.00800           0
     10282 MEMB     30       OSM      C7S      CTL2    -0.180000       12.0110           0
     10283 MEMB     30       OSM      H7S      HAL2     0.900000E-01   1.00800           0
     10284 MEMB     30       OSM      H7T      HAL2     0.900000E-01   1.00800           0
     10285 MEMB     30       OSM      C8S      CTL2    -0.180000       12.0110           0
     10286 MEMB     30       OSM      H8S      HAL2     0.900000E-01   1.00800           0
     10287 MEMB     30       OSM      H8T      HAL2     0.900000E-01   1.00800           0
     10288 MEMB     30       OSM      C9S      CTL2    -0.180000       12.0110           0
     10289 MEMB     30       OSM      H9S      HAL2     0.900000E-01   1.00800           0
     10290 MEMB     30       OSM      H9T      HAL2     0.900000E-01   1.00800           0
     10291 MEMB     30       OSM      C10S     CTL2    -0.180000       12.0110           0
     10292 MEMB     30       OSM      H10S     HAL2     0.900000E-01   1.00800           0
     10293 MEMB     30       OSM      H10T     HAL2     0.900000E-01   1.00800           0
     10294 MEMB     30       OSM      C11S     CTL2    -0.180000       12.0110           0
     10295 MEMB     30       OSM      H11S     HAL2     0.900000E-01   1.00800           0
     10296 MEMB     30       OSM      H11T     HAL2     0.900000E-01   1.00800           0
     10297 MEMB     30       OSM      C12S     CTL2    -0.180000       12.0110           0
     10298 MEMB     30       OSM      H12S     HAL2     0.900000E-01   1.00800           0
     10299 MEMB     30       OSM      H12T     HAL2     0.900000E-01   1.00800           0
     10300 MEMB     30       OSM      C13S     CTL2    -0.180000       12.0110           0
     10301 MEMB     30       OSM      H13S     HAL2     0.900000E-01   1.00800           0
     10302 MEMB     30       OSM      H13T     HAL2     0.900000E-01   1.00800           0
     10303 MEMB     30       OSM      C14S     CTL2    -0.180000       12.0110           0
     10304 MEMB     30       OSM      H14S     HAL2     0.900000E-01   1.00800           0
     10305 MEMB     30       OSM      H14T     HAL2     0.900000E-01   1.00800           0
     10306 MEMB     30       OSM      C15S     CTL2    -0.180000       12.0110           0
     10307 MEMB     30       OSM      H15S     HAL2     0.900000E-01   1.00800           0
     10308 MEMB     30       OSM      H15T     HAL2     0.900000E-01   1.00800           0
     10309 MEMB     30       OSM      C16S     CTL2    -0.180000       12.0110           0
     10310 MEMB     30       OSM      H16S     HAL2     0.900000E-01   1.00800           0
     10311 MEMB     30       OSM      H16T     HAL2     0.900000E-01   1.00800           0
     10312 MEMB     30       OSM      C17S     CTL2    -0.180000       12.0110           0
     10313 MEMB     30       OSM      H17S     HAL2     0.900000E-01   1.00800           0
     10314 MEMB     30       OSM      H17T     HAL2     0.900000E-01   1.00800           0
     10315 MEMB     30       OSM      C18S     CTL3    -0.270000       12.0110           0
     10316 MEMB     30       OSM      H18S     HAL3     0.900000E-01   1.00800           0
     10317 MEMB     30       OSM      H18T     HAL3     0.900000E-01   1.00800           0
     10318 MEMB     30       OSM      H18U     HAL3     0.900000E-01   1.00800           0
     10319 MEMB     30       OSM      C1F      C        0.550000       12.0110           0
     10320 MEMB     30       OSM      OF       O       -0.600000       15.9994           0
     10321 MEMB     30       OSM      C2F      CTL2    -0.700000E-01   12.0110           0
     10322 MEMB     30       OSM      H2F      HAL2     0.600000E-01   1.00800           0
     10323 MEMB     30       OSM      H2G      HAL2     0.600000E-01   1.00800           0
     10324 MEMB     30       OSM      C3F      CTL2    -0.180000       12.0110           0
     10325 MEMB     30       OSM      H3F      HAL2     0.900000E-01   1.00800           0
     10326 MEMB     30       OSM      H3G      HAL2     0.900000E-01   1.00800           0
     10327 MEMB     30       OSM      C4F      CTL2    -0.180000       12.0110           0
     10328 MEMB     30       OSM      H4F      HAL2     0.900000E-01   1.00800           0
     10329 MEMB     30       OSM      H4G      HAL2     0.900000E-01   1.00800           0
     10330 MEMB     30       OSM      C5F      CTL2    -0.180000       12.0110           0
     10331 MEMB     30       OSM      H5F      HAL2     0.900000E-01   1.00800           0
     10332 MEMB     30       OSM      H5G      HAL2     0.900000E-01   1.00800           0
     10333 MEMB     30       OSM      C6F      CTL2    -0.180000       12.0110           0
     10334 MEMB     30       OSM      H6F      HAL2     0.900000E-01   1.00800           0
     10335 MEMB     30       OSM      H6G      HAL2     0.900000E-01   1.00800           0
     10336 MEMB     30       OSM      C7F      CTL2    -0.180000       12.0110           0
     10337 MEMB     30       OSM      H7F      HAL2     0.900000E-01   1.00800           0
     10338 MEMB     30       OSM      H7G      HAL2     0.900000E-01   1.00800           0
     10339 MEMB     30       OSM      C8F      CTL2    -0.180000       12.0110           0
     10340 MEMB     30       OSM      H8F      HAL2     0.900000E-01   1.00800           0
     10341 MEMB     30       OSM      H8G      HAL2     0.900000E-01   1.00800           0
     10342 MEMB     30       OSM      C9F      CEL1    -0.150000       12.0110           0
     10343 MEMB     30       OSM      H9F      HEL1     0.150000       1.00800           0
     10344 MEMB     30       OSM      C10F     CEL1    -0.150000       12.0110           0
     10345 MEMB     30       OSM      H10F     HEL1     0.150000       1.00800           0
     10346 MEMB     30       OSM      C11F     CTL2    -0.180000       12.0110           0
     10347 MEMB     30       OSM      H11F     HAL2     0.900000E-01   1.00800           0
     10348 MEMB     30       OSM      H11G     HAL2     0.900000E-01   1.00800           0
     10349 MEMB     30       OSM      C12F     CTL2    -0.180000       12.0110           0
     10350 MEMB     30       OSM      H12F     HAL2     0.900000E-01   1.00800           0
     10351 MEMB     30       OSM      H12G     HAL2     0.900000E-01   1.00800           0
     10352 MEMB     30       OSM      C13F     CTL2    -0.180000       12.0110           0
     10353 MEMB     30       OSM      H13F     HAL2     0.900000E-01   1.00800           0
     10354 MEMB     30       OSM      H13G     HAL2     0.900000E-01   1.00800           0
     10355 MEMB     30       OSM      C14F     CTL2    -0.180000       12.0110           0
     10356 MEMB     30       OSM      H14F     HAL2     0.900000E-01   1.00800           0
     10357 MEMB     30       OSM      H14G     HAL2     0.900000E-01   1.00800           0
     10358 MEMB     30       OSM      C15F     CTL2    -0.180000       12.0110           0
     10359 MEMB     30       OSM      H15F     HAL2     0.900000E-01   1.00800           0
     10360 MEMB     30       OSM      H15G     HAL2     0.900000E-01   1.00800           0
     10361 MEMB     30       OSM      C16F     CTL2    -0.180000       12.0110           0
     10362 MEMB     30       OSM      H16F     HAL2     0.900000E-01   1.00800           0
     10363 MEMB     30       OSM      H16G     HAL2     0.900000E-01   1.00800           0
     10364 MEMB     30       OSM      C17F     CTL2    -0.180000       12.0110           0
     10365 MEMB     30       OSM      H17F     HAL2     0.900000E-01   1.00800           0
     10366 MEMB     30       OSM      H17G     HAL2     0.900000E-01   1.00800           0
     10367 MEMB     30       OSM      C18F     CTL3    -0.270000       12.0110           0
     10368 MEMB     30       OSM      H18F     HAL3     0.900000E-01   1.00800           0
     10369 MEMB     30       OSM      H18G     HAL3     0.900000E-01   1.00800           0
     10370 MEMB     30       OSM      H18H     HAL3     0.900000E-01   1.00800           0
     10371 MEMB     36       OSM      N        NTL     -0.600000       14.0070           0
     10372 MEMB     36       OSM      C15      CTL5    -0.350000       12.0110           0
     10373 MEMB     36       OSM      H15A     HL       0.250000       1.00800           0
     10374 MEMB     36       OSM      H15B     HL       0.250000       1.00800           0
     10375 MEMB     36       OSM      H15C     HL       0.250000       1.00800           0
     10376 MEMB     36       OSM      C14      CTL5    -0.350000       12.0110           0
     10377 MEMB     36       OSM      H14A     HL       0.250000       1.00800           0
     10378 MEMB     36       OSM      H14B     HL       0.250000       1.00800           0
     10379 MEMB     36       OSM      H14C     HL       0.250000       1.00800           0
     10380 MEMB     36       OSM      C13      CTL5    -0.350000       12.0110           0
     10381 MEMB     36       OSM      H13A     HL       0.250000       1.00800           0
     10382 MEMB     36       OSM      H13B     HL       0.250000       1.00800           0
     10383 MEMB     36       OSM      H13C     HL       0.250000       1.00800           0
     10384 MEMB     36       OSM      C12      CTL2    -0.100000       12.0110           0
     10385 MEMB     36       OSM      H12A     HL       0.250000       1.00800           0
     10386 MEMB     36       OSM      H12B     HL       0.250000       1.00800           0
     10387 MEMB     36       OSM      C11      CTL2    -0.800000E-01   12.0110           0
     10388 MEMB     36       OSM      H11A     HAL2     0.900000E-01   1.00800           0
     10389 MEMB     36       OSM      H11B     HAL2     0.900000E-01   1.00800           0
     10390 MEMB     36       OSM      P        PL       1.500000       30.9740           0
     10391 MEMB     36       OSM      O13      O2L     -0.780000       15.9994           0
     10392 MEMB     36       OSM      O14      O2L     -0.780000       15.9994           0
     10393 MEMB     36       OSM      O11      OSLP    -0.570000       15.9994           0
     10394 MEMB     36       OSM      O12      OSLP    -0.570000       15.9994           0
     10395 MEMB     36       OSM      C1S      CTL2    -0.800000E-01   12.0110           0
     10396 MEMB     36       OSM      H1S      HAL2     0.900000E-01   1.00800           0
     10397 MEMB     36       OSM      H1T      HAL2     0.900000E-01   1.00800           0
     10398 MEMB     36       OSM      NF       NHL     -0.700000       14.0070           0
     10399 MEMB     36       OSM      HNF      H        0.350000       1.00800           0
     10400 MEMB     36       OSM      C2S      CTL1     0.300000       12.0110           0
     10401 MEMB     36       OSM      H2S      HAL1     0.500000E-01   1.00800           0
     10402 MEMB     36       OSM      C3S      CTO1     0.500000       12.0110           0
     10403 MEMB     36       OSM      H3S      HAL1    -0.110000       1.00800           0
     10404 MEMB     36       OSM      O3       OHL     -0.690000       15.9994           0
     10405 MEMB     36       OSM      HO3      HOL      0.300000       1.00800           0
     10406 MEMB     36       OSM      C4S      CEL3    -0.150000       12.0110           0
     10407 MEMB     36       OSM      H4S      HEL1     0.150000       1.00800           0
     10408 MEMB     36       OSM      C5S      CEL3    -0.150000       12.0110           0
     10409 MEMB     36       OSM      H5S      HEL1     0.150000       1.00800           0
     10410 MEMB     36       OSM      C6S      CTL2    -0.180000       12.0110           0
     10411 MEMB     36       OSM      H6S      HAL2     0.900000E-01   1.00800           0
     10412 MEMB     36       OSM      H6T      HAL2     0.900000E-01   1.00800           0
     10413 MEMB     36       OSM      C7S      CTL2    -0.180000       12.0110           0
     10414 MEMB     36       OSM      H7S      HAL2     0.900000E-01   1.00800           0
     10415 MEMB     36       OSM      H7T      HAL2     0.900000E-01   1.00800           0
     10416 MEMB     36       OSM      C8S      CTL2    -0.180000       12.0110           0
     10417 MEMB     36       OSM      H8S      HAL2     0.900000E-01   1.00800           0
     10418 MEMB     36       OSM      H8T      HAL2     0.900000E-01   1.00800           0
     10419 MEMB     36       OSM      C9S      CTL2    -0.180000       12.0110           0
     10420 MEMB     36       OSM      H9S      HAL2     0.900000E-01   1.00800           0
     10421 MEMB     36       OSM      H9T      HAL2     0.900000E-01   1.00800           0
     10422 MEMB     36       OSM      C10S     CTL2    -0.180000       12.0110           0
     10423 MEMB     36       OSM      H10S     HAL2     0.900000E-01   1.00800           0
     10424 MEMB     36       OSM      H10T     HAL2     0.900000E-01   1.00800           0
     10425 MEMB     36       OSM      C11S     CTL2    -0.180000       12.0110           0
     10426 MEMB     36       OSM      H11S     HAL2     0.900000E-01   1.00800           0
     10427 MEMB     36       OSM      H11T     HAL2     0.900000E-01   1.00800           0
     10428 MEMB     36       OSM      C12S     CTL2    -0.180000       12.0110           0
     10429 MEMB     36       OSM      H12S     HAL2     0.900000E-01   1.00800           0
     10430 MEMB     36       OSM      H12T     HAL2     0.900000E-01   1.00800           0
     10431 MEMB     36       OSM      C13S     CTL2    -0.180000       12.0110           0
     10432 MEMB     36       OSM      H13S     HAL2     0.900000E-01   1.00800           0
     10433 MEMB     36       OSM      H13T     HAL2     0.900000E-01   1.00800           0
     10434 MEMB     36       OSM      C14S     CTL2    -0.180000       12.0110           0
     10435 MEMB     36       OSM      H14S     HAL2     0.900000E-01   1.00800           0
     10436 MEMB     36       OSM      H14T     HAL2     0.900000E-01   1.00800           0
     10437 MEMB     36       OSM      C15S     CTL2    -0.180000       12.0110           0
     10438 MEMB     36       OSM      H15S     HAL2     0.900000E-01   1.00800           0
     10439 MEMB     36       OSM      H15T     HAL2     0.900000E-01   1.00800           0
     10440 MEMB     36       OSM      C16S     CTL2    -0.180000       12.0110           0
     10441 MEMB     36       OSM      H16S     HAL2     0.900000E-01   1.00800           0
     10442 MEMB     36       OSM      H16T     HAL2     0.900000E-01   1.00800           0
     10443 MEMB     36       OSM      C17S     CTL2    -0.180000       12.0110           0
     10444 MEMB     36       OSM      H17S     HAL2     0.900000E-01   1.00800           0
     10445 MEMB     36       OSM      H17T     HAL2     0.900000E-01   1.00800           0
     10446 MEMB     36       OSM      C18S     CTL3    -0.270000       12.0110           0
     10447 MEMB     36       OSM      H18S     HAL3     0.900000E-01   1.00800           0
     10448 MEMB     36       OSM      H18T     HAL3     0.900000E-01   1.00800           0
     10449 MEMB     36       OSM      H18U     HAL3     0.900000E-01   1.00800           0
     10450 MEMB     36       OSM      C1F      C        0.550000       12.0110           0
     10451 MEMB     36       OSM      OF       O       -0.600000       15.9994           0
     10452 MEMB     36       OSM      C2F      CTL2    -0.700000E-01   12.0110           0
     10453 MEMB     36       OSM      H2F      HAL2     0.600000E-01   1.00800           0
     10454 MEMB     36       OSM      H2G      HAL2     0.600000E-01   1.00800           0
     10455 MEMB     36       OSM      C3F      CTL2    -0.180000       12.0110           0
     10456 MEMB     36       OSM      H3F      HAL2     0.900000E-01   1.00800           0
     10457 MEMB     36       OSM      H3G      HAL2     0.900000E-01   1.00800           0
     10458 MEMB     36       OSM      C4F      CTL2    -0.180000       12.0110           0
     10459 MEMB     36       OSM      H4F      HAL2     0.900000E-01   1.00800           0
     10460 MEMB     36       OSM      H4G      HAL2     0.900000E-01   1.00800           0
     10461 MEMB     36       OSM      C5F      CTL2    -0.180000       12.0110           0
     10462 MEMB     36       OSM      H5F      HAL2     0.900000E-01   1.00800           0
     10463 MEMB     36       OSM      H5G      HAL2     0.900000E-01   1.00800           0
     10464 MEMB     36       OSM      C6F      CTL2    -0.180000       12.0110           0
     10465 MEMB     36       OSM      H6F      HAL2     0.900000E-01   1.00800           0
     10466 MEMB     36       OSM      H6G      HAL2     0.900000E-01   1.00800           0
     10467 MEMB     36       OSM      C7F      CTL2    -0.180000       12.0110           0
     10468 MEMB     36       OSM      H7F      HAL2     0.900000E-01   1.00800           0
     10469 MEMB     36       OSM      H7G      HAL2     0.900000E-01   1.00800           0
     10470 MEMB     36       OSM      C8F      CTL2    -0.180000       12.0110           0
     10471 MEMB     36       OSM      H8F      HAL2     0.900000E-01   1.00800           0
     10472 MEMB     36       OSM      H8G      HAL2     0.900000E-01   1.00800           0
     10473 MEMB     36       OSM      C9F      CEL1    -0.150000       12.0110           0
     10474 MEMB     36       OSM      H9F      HEL1     0.150000       1.00800           0
     10475 MEMB     36       OSM      C10F     CEL1    -0.150000       12.0110           0
     10476 MEMB     36       OSM      H10F     HEL1     0.150000       1.00800           0
     10477 MEMB     36       OSM      C11F     CTL2    -0.180000       12.0110           0
     10478 MEMB     36       OSM      H11F     HAL2     0.900000E-01   1.00800           0
     10479 MEMB     36       OSM      H11G     HAL2     0.900000E-01   1.00800           0
     10480 MEMB     36       OSM      C12F     CTL2    -0.180000       12.0110           0
     10481 MEMB     36       OSM      H12F     HAL2     0.900000E-01   1.00800           0
     10482 MEMB     36       OSM      H12G     HAL2     0.900000E-01   1.00800           0
     10483 MEMB     36       OSM      C13F     CTL2    -0.180000       12.0110           0
     10484 MEMB     36       OSM      H13F     HAL2     0.900000E-01   1.00800           0
     10485 MEMB     36       OSM      H13G     HAL2     0.900000E-01   1.00800           0
     10486 MEMB     36       OSM      C14F     CTL2    -0.180000       12.0110           0
     10487 MEMB     36       OSM      H14F     HAL2     0.900000E-01   1.00800           0
     10488 MEMB     36       OSM      H14G     HAL2     0.900000E-01   1.00800           0
     10489 MEMB     36       OSM      C15F     CTL2    -0.180000       12.0110           0
     10490 MEMB     36       OSM      H15F     HAL2     0.900000E-01   1.00800           0
     10491 MEMB     36       OSM      H15G     HAL2     0.900000E-01   1.00800           0
     10492 MEMB     36       OSM      C16F     CTL2    -0.180000       12.0110           0
     10493 MEMB     36       OSM      H16F     HAL2     0.900000E-01   1.00800           0
     10494 MEMB     36       OSM      H16G     HAL2     0.900000E-01   1.00800           0
     10495 MEMB     36       OSM      C17F     CTL2    -0.180000       12.0110           0
     10496 MEMB     36       OSM      H17F     HAL2     0.900000E-01   1.00800           0
     10497 MEMB     36       OSM      H17G     HAL2     0.900000E-01   1.00800           0
     10498 MEMB     36       OSM      C18F     CTL3    -0.270000       12.0110           0
     10499 MEMB     36       OSM      H18F     HAL3     0.900000E-01   1.00800           0
     10500 MEMB     36       OSM      H18G     HAL3     0.900000E-01   1.00800           0
     10501 MEMB     36       OSM      H18H     HAL3     0.900000E-01   1.00800           0
     10502 MEMB     45       OSM      N        NTL     -0.600000       14.0070           0
     10503 MEMB     45       OSM      C15      CTL5    -0.350000       12.0110           0
     10504 MEMB     45       OSM      H15A     HL       0.250000       1.00800           0
     10505 MEMB     45       OSM      H15B     HL       0.250000       1.00800           0
     10506 MEMB     45       OSM      H15C     HL       0.250000       1.00800           0
     10507 MEMB     45       OSM      C14      CTL5    -0.350000       12.0110           0
     10508 MEMB     45       OSM      H14A     HL       0.250000       1.00800           0
     10509 MEMB     45       OSM      H14B     HL       0.250000       1.00800           0
     10510 MEMB     45       OSM      H14C     HL       0.250000       1.00800           0
     10511 MEMB     45       OSM      C13      CTL5    -0.350000       12.0110           0
     10512 MEMB     45       OSM      H13A     HL       0.250000       1.00800           0
     10513 MEMB     45       OSM      H13B     HL       0.250000       1.00800           0
     10514 MEMB     45       OSM      H13C     HL       0.250000       1.00800           0
     10515 MEMB     45       OSM      C12      CTL2    -0.100000       12.0110           0
     10516 MEMB     45       OSM      H12A     HL       0.250000       1.00800           0
     10517 MEMB     45       OSM      H12B     HL       0.250000       1.00800           0
     10518 MEMB     45       OSM      C11      CTL2    -0.800000E-01   12.0110           0
     10519 MEMB     45       OSM      H11A     HAL2     0.900000E-01   1.00800           0
     10520 MEMB     45       OSM      H11B     HAL2     0.900000E-01   1.00800           0
     10521 MEMB     45       OSM      P        PL       1.500000       30.9740           0
     10522 MEMB     45       OSM      O13      O2L     -0.780000       15.9994           0
     10523 MEMB     45       OSM      O14      O2L     -0.780000       15.9994           0
     10524 MEMB     45       OSM      O11      OSLP    -0.570000       15.9994           0
     10525 MEMB     45       OSM      O12      OSLP    -0.570000       15.9994           0
     10526 MEMB     45       OSM      C1S      CTL2    -0.800000E-01   12.0110           0
     10527 MEMB     45       OSM      H1S      HAL2     0.900000E-01   1.00800           0
     10528 MEMB     45       OSM      H1T      HAL2     0.900000E-01   1.00800           0
     10529 MEMB     45       OSM      NF       NHL     -0.700000       14.0070           0
     10530 MEMB     45       OSM      HNF      H        0.350000       1.00800           0
     10531 MEMB     45       OSM      C2S      CTL1     0.300000       12.0110           0
     10532 MEMB     45       OSM      H2S      HAL1     0.500000E-01   1.00800           0
     10533 MEMB     45       OSM      C3S      CTO1     0.500000       12.0110           0
     10534 MEMB     45       OSM      H3S      HAL1    -0.110000       1.00800           0
     10535 MEMB     45       OSM      O3       OHL     -0.690000       15.9994           0
     10536 MEMB     45       OSM      HO3      HOL      0.300000       1.00800           0
     10537 MEMB     45       OSM      C4S      CEL3    -0.150000       12.0110           0
     10538 MEMB     45       OSM      H4S      HEL1     0.150000       1.00800           0
     10539 MEMB     45       OSM      C5S      CEL3    -0.150000       12.0110           0
     10540 MEMB     45       OSM      H5S      HEL1     0.150000       1.00800           0
     10541 MEMB     45       OSM      C6S      CTL2    -0.180000       12.0110           0
     10542 MEMB     45       OSM      H6S      HAL2     0.900000E-01   1.00800           0
     10543 MEMB     45       OSM      H6T      HAL2     0.900000E-01   1.00800           0
     10544 MEMB     45       OSM      C7S      CTL2    -0.180000       12.0110           0
     10545 MEMB     45       OSM      H7S      HAL2     0.900000E-01   1.00800           0
     10546 MEMB     45       OSM      H7T      HAL2     0.900000E-01   1.00800           0
     10547 MEMB     45       OSM      C8S      CTL2    -0.180000       12.0110           0
     10548 MEMB     45       OSM      H8S      HAL2     0.900000E-01   1.00800           0
     10549 MEMB     45       OSM      H8T      HAL2     0.900000E-01   1.00800           0
     10550 MEMB     45       OSM      C9S      CTL2    -0.180000       12.0110           0
     10551 MEMB     45       OSM      H9S      HAL2     0.900000E-01   1.00800           0
     10552 MEMB     45       OSM      H9T      HAL2     0.900000E-01   1.00800           0
     10553 MEMB     45       OSM      C10S     CTL2    -0.180000       12.0110           0
     10554 MEMB     45       OSM      H10S     HAL2     0.900000E-01   1.00800           0
     10555 MEMB     45       OSM      H10T     HAL2     0.900000E-01   1.00800           0
     10556 MEMB     45       OSM      C11S     CTL2    -0.180000       12.0110           0
     10557 MEMB     45       OSM      H11S     HAL2     0.900000E-01   1.00800           0
     10558 MEMB     45       OSM      H11T     HAL2     0.900000E-01   1.00800           0
     10559 MEMB     45       OSM      C12S     CTL2    -0.180000       12.0110           0
     10560 MEMB     45       OSM      H12S     HAL2     0.900000E-01   1.00800           0
     10561 MEMB     45       OSM      H12T     HAL2     0.900000E-01   1.00800           0
     10562 MEMB     45       OSM      C13S     CTL2    -0.180000       12.0110           0
     10563 MEMB     45       OSM      H13S     HAL2     0.900000E-01   1.00800           0
     10564 MEMB     45       OSM      H13T     HAL2     0.900000E-01   1.00800           0
     10565 MEMB     45       OSM      C14S     CTL2    -0.180000       12.0110           0
     10566 MEMB     45       OSM      H14S     HAL2     0.900000E-01   1.00800           0
     10567 MEMB     45       OSM      H14T     HAL2     0.900000E-01   1.00800           0
     10568 MEMB     45       OSM      C15S     CTL2    -0.180000       12.0110           0
     10569 MEMB     45       OSM      H15S     HAL2     0.900000E-01   1.00800           0
     10570 MEMB     45       OSM      H15T     HAL2     0.900000E-01   1.00800           0
     10571 MEMB     45       OSM      C16S     CTL2    -0.180000       12.0110           0
     10572 MEMB     45       OSM      H16S     HAL2     0.900000E-01   1.00800           0
     10573 MEMB     45       OSM      H16T     HAL2     0.900000E-01   1.00800           0
     10574 MEMB     45       OSM      C17S     CTL2    -0.180000       12.0110           0
     10575 MEMB     45       OSM      H17S     HAL2     0.900000E-01   1.00800           0
     10576 MEMB     45       OSM      H17T     HAL2     0.900000E-01   1.00800           0
     10577 MEMB     45       OSM      C18S     CTL3    -0.270000       12.0110           0
     10578 MEMB     45       OSM      H18S     HAL3     0.900000E-01   1.00800           0
     10579 MEMB     45       OSM      H18T     HAL3     0.900000E-01   1.00800           0
     10580 MEMB     45       OSM      H18U     HAL3     0.900000E-01   1.00800           0
     10581 MEMB     45       OSM      C1F      C        0.550000       12.0110           0
     10582 MEMB     45       OSM      OF       O       -0.600000       15.9994           0
     10583 MEMB     45       OSM      C2F      CTL2    -0.700000E-01   12.0110           0
     10584 MEMB     45       OSM      H2F      HAL2     0.600000E-01   1.00800           0
     10585 MEMB     45       OSM      H2G      HAL2     0.600000E-01   1.00800           0
     10586 MEMB     45       OSM      C3F      CTL2    -0.180000       12.0110           0
     10587 MEMB     45       OSM      H3F      HAL2     0.900000E-01   1.00800           0
     10588 MEMB     45       OSM      H3G      HAL2     0.900000E-01   1.00800           0
     10589 MEMB     45       OSM      C4F      CTL2    -0.180000       12.0110           0
     10590 MEMB     45       OSM      H4F      HAL2     0.900000E-01   1.00800           0
     10591 MEMB     45       OSM      H4G      HAL2     0.900000E-01   1.00800           0
     10592 MEMB     45       OSM      C5F      CTL2    -0.180000       12.0110           0
     10593 MEMB     45       OSM      H5F      HAL2     0.900000E-01   1.00800           0
     10594 MEMB     45       OSM      H5G      HAL2     0.900000E-01   1.00800           0
     10595 MEMB     45       OSM      C6F      CTL2    -0.180000       12.0110           0
     10596 MEMB     45       OSM      H6F      HAL2     0.900000E-01   1.00800           0
     10597 MEMB     45       OSM      H6G      HAL2     0.900000E-01   1.00800           0
     10598 MEMB     45       OSM      C7F      CTL2    -0.180000       12.0110           0
     10599 MEMB     45       OSM      H7F      HAL2     0.900000E-01   1.00800           0
     10600 MEMB     45       OSM      H7G      HAL2     0.900000E-01   1.00800           0
     10601 MEMB     45       OSM      C8F      CTL2    -0.180000       12.0110           0
     10602 MEMB     45       OSM      H8F      HAL2     0.900000E-01   1.00800           0
     10603 MEMB     45       OSM      H8G      HAL2     0.900000E-01   1.00800           0
     10604 MEMB     45       OSM      C9F      CEL1    -0.150000       12.0110           0
     10605 MEMB     45       OSM      H9F      HEL1     0.150000       1.00800           0
     10606 MEMB     45       OSM      C10F     CEL1    -0.150000       12.0110           0
     10607 MEMB     45       OSM      H10F     HEL1     0.150000       1.00800           0
     10608 MEMB     45       OSM      C11F     CTL2    -0.180000       12.0110           0
     10609 MEMB     45       OSM      H11F     HAL2     0.900000E-01   1.00800           0
     10610 MEMB     45       OSM      H11G     HAL2     0.900000E-01   1.00800           0
     10611 MEMB     45       OSM      C12F     CTL2    -0.180000       12.0110           0
     10612 MEMB     45       OSM      H12F     HAL2     0.900000E-01   1.00800           0
     10613 MEMB     45       OSM      H12G     HAL2     0.900000E-01   1.00800           0
     10614 MEMB     45       OSM      C13F     CTL2    -0.180000       12.0110           0
     10615 MEMB     45       OSM      H13F     HAL2     0.900000E-01   1.00800           0
     10616 MEMB     45       OSM      H13G     HAL2     0.900000E-01   1.00800           0
     10617 MEMB     45       OSM      C14F     CTL2    -0.180000       12.0110           0
     10618 MEMB     45       OSM      H14F     HAL2     0.900000E-01   1.00800           0
     10619 MEMB     45       OSM      H14G     HAL2     0.900000E-01   1.00800           0
     10620 MEMB     45       OSM      C15F     CTL2    -0.180000       12.0110           0
     10621 MEMB     45       OSM      H15F     HAL2     0.900000E-01   1.00800           0
     10622 MEMB     45       OSM      H15G     HAL2     0.900000E-01   1.00800           0
     10623 MEMB     45       OSM      C16F     CTL2    -0.180000       12.0110           0
     10624 MEMB     45       OSM      H16F     HAL2     0.900000E-01   1.00800           0
     10625 MEMB     45       OSM      H16G     HAL2     0.900000E-01   1.00800           0
     10626 MEMB     45       OSM      C17F     CTL2    -0.180000       12.0110           0
     10627 MEMB     45       OSM      H17F     HAL2     0.900000E-01   1.00800           0
     10628 MEMB     45       OSM      H17G     HAL2     0.900000E-01   1.00800           0
     10629 MEMB     45       OSM      C18F     CTL3    -0.270000       12.0110           0
     10630 MEMB     45       OSM      H18F     HAL3     0.900000E-01   1.00800           0
     10631 MEMB     45       OSM      H18G     HAL3     0.900000E-01   1.00800           0
     10632 MEMB     45       OSM      H18H     HAL3     0.900000E-01   1.00800           0
     10633 MEMB     46       OSM      N        NTL     -0.600000       14.0070           0
     10634 MEMB     46       OSM      C15      CTL5    -0.350000       12.0110           0
     10635 MEMB     46       OSM      H15A     HL       0.250000       1.00800           0
     10636 MEMB     46       OSM      H15B     HL       0.250000       1.00800           0
     10637 MEMB     46       OSM      H15C     HL       0.250000       1.00800           0
     10638 MEMB     46       OSM      C14      CTL5    -0.350000       12.0110           0
     10639 MEMB     46       OSM      H14A     HL       0.250000       1.00800           0
     10640 MEMB     46       OSM      H14B     HL       0.250000       1.00800           0
     10641 MEMB     46       OSM      H14C     HL       0.250000       1.00800           0
     10642 MEMB     46       OSM      C13      CTL5    -0.350000       12.0110           0
     10643 MEMB     46       OSM      H13A     HL       0.250000       1.00800           0
     10644 MEMB     46       OSM      H13B     HL       0.250000       1.00800           0
     10645 MEMB     46       OSM      H13C     HL       0.250000       1.00800           0
     10646 MEMB     46       OSM      C12      CTL2    -0.100000       12.0110           0
     10647 MEMB     46       OSM      H12A     HL       0.250000       1.00800           0
     10648 MEMB     46       OSM      H12B     HL       0.250000       1.00800           0
     10649 MEMB     46       OSM      C11      CTL2    -0.800000E-01   12.0110           0
     10650 MEMB     46       OSM      H11A     HAL2     0.900000E-01   1.00800           0
     10651 MEMB     46       OSM      H11B     HAL2     0.900000E-01   1.00800           0
     10652 MEMB     46       OSM      P        PL       1.500000       30.9740           0
     10653 MEMB     46       OSM      O13      O2L     -0.780000       15.9994           0
     10654 MEMB     46       OSM      O14      O2L     -0.780000       15.9994           0
     10655 MEMB     46       OSM      O11      OSLP    -0.570000       15.9994           0
     10656 MEMB     46       OSM      O12      OSLP    -0.570000       15.9994           0
     10657 MEMB     46       OSM      C1S      CTL2    -0.800000E-01   12.0110           0
     10658 MEMB     46       OSM      H1S      HAL2     0.900000E-01   1.00800           0
     10659 MEMB     46       OSM      H1T      HAL2     0.900000E-01   1.00800           0
     10660 MEMB     46       OSM      NF       NHL     -0.700000       14.0070           0
     10661 MEMB     46       OSM      HNF      H        0.350000       1.00800           0
     10662 MEMB     46       OSM      C2S      CTL1     0.300000       12.0110           0
     10663 MEMB     46       OSM      H2S      HAL1     0.500000E-01   1.00800           0
     10664 MEMB     46       OSM      C3S      CTO1     0.500000       12.0110           0
     10665 MEMB     46       OSM      H3S      HAL1    -0.110000       1.00800           0
     10666 MEMB     46       OSM      O3       OHL     -0.690000       15.9994           0
     10667 MEMB     46       OSM      HO3      HOL      0.300000       1.00800           0
     10668 MEMB     46       OSM      C4S      CEL3    -0.150000       12.0110           0
     10669 MEMB     46       OSM      H4S      HEL1     0.150000       1.00800           0
     10670 MEMB     46       OSM      C5S      CEL3    -0.150000       12.0110           0
     10671 MEMB     46       OSM      H5S      HEL1     0.150000       1.00800           0
     10672 MEMB     46       OSM      C6S      CTL2    -0.180000       12.0110           0
     10673 MEMB     46       OSM      H6S      HAL2     0.900000E-01   1.00800           0
     10674 MEMB     46       OSM      H6T      HAL2     0.900000E-01   1.00800           0
     10675 MEMB     46       OSM      C7S      CTL2    -0.180000       12.0110           0
     10676 MEMB     46       OSM      H7S      HAL2     0.900000E-01   1.00800           0
     10677 MEMB     46       OSM      H7T      HAL2     0.900000E-01   1.00800           0
     10678 MEMB     46       OSM      C8S      CTL2    -0.180000       12.0110           0
     10679 MEMB     46       OSM      H8S      HAL2     0.900000E-01   1.00800           0
     10680 MEMB     46       OSM      H8T      HAL2     0.900000E-01   1.00800           0
     10681 MEMB     46       OSM      C9S      CTL2    -0.180000       12.0110           0
     10682 MEMB     46       OSM      H9S      HAL2     0.900000E-01   1.00800           0
     10683 MEMB     46       OSM      H9T      HAL2     0.900000E-01   1.00800           0
     10684 MEMB     46       OSM      C10S     CTL2    -0.180000       12.0110           0
     10685 MEMB     46       OSM      H10S     HAL2     0.900000E-01   1.00800           0
     10686 MEMB     46       OSM      H10T     HAL2     0.900000E-01   1.00800           0
     10687 MEMB     46       OSM      C11S     CTL2    -0.180000       12.0110           0
     10688 MEMB     46       OSM      H11S     HAL2     0.900000E-01   1.00800           0
     10689 MEMB     46       OSM      H11T     HAL2     0.900000E-01   1.00800           0
     10690 MEMB     46       OSM      C12S     CTL2    -0.180000       12.0110           0
     10691 MEMB     46       OSM      H12S     HAL2     0.900000E-01   1.00800           0
     10692 MEMB     46       OSM      H12T     HAL2     0.900000E-01   1.00800           0
     10693 MEMB     46       OSM      C13S     CTL2    -0.180000       12.0110           0
     10694 MEMB     46       OSM      H13S     HAL2     0.900000E-01   1.00800           0
     10695 MEMB     46       OSM      H13T     HAL2     0.900000E-01   1.00800           0
     10696 MEMB     46       OSM      C14S     CTL2    -0.180000       12.0110           0
     10697 MEMB     46       OSM      H14S     HAL2     0.900000E-01   1.00800           0
     10698 MEMB     46       OSM      H14T     HAL2     0.900000E-01   1.00800           0
     10699 MEMB     46       OSM      C15S     CTL2    -0.180000       12.0110           0
     10700 MEMB     46       OSM      H15S     HAL2     0.900000E-01   1.00800           0
     10701 MEMB     46       OSM      H15T     HAL2     0.900000E-01   1.00800           0
     10702 MEMB     46       OSM      C16S     CTL2    -0.180000       12.0110           0
     10703 MEMB     46       OSM      H16S     HAL2     0.900000E-01   1.00800           0
     10704 MEMB     46       OSM      H16T     HAL2     0.900000E-01   1.00800           0
     10705 MEMB     46       OSM      C17S     CTL2    -0.180000       12.0110           0
     10706 MEMB     46       OSM      H17S     HAL2     0.900000E-01   1.00800           0
     10707 MEMB     46       OSM      H17T     HAL2     0.900000E-01   1.00800           0
     10708 MEMB     46       OSM      C18S     CTL3    -0.270000       12.0110           0
     10709 MEMB     46       OSM      H18S     HAL3     0.900000E-01   1.00800           0
     10710 MEMB     46       OSM      H18T     HAL3     0.900000E-01   1.00800           0
     10711 MEMB     46       OSM      H18U     HAL3     0.900000E-01   1.00800           0
     10712 MEMB     46       OSM      C1F      C        0.550000       12.0110           0
     10713 MEMB     46       OSM      OF       O       -0.600000       15.9994           0
     10714 MEMB     46       OSM      C2F      CTL2    -0.700000E-01   12.0110           0
     10715 MEMB     46       OSM      H2F      HAL2     0.600000E-01   1.00800           0
     10716 MEMB     46       OSM      H2G      HAL2     0.600000E-01   1.00800           0
     10717 MEMB     46       OSM      C3F      CTL2    -0.180000       12.0110           0
     10718 MEMB     46       OSM      H3F      HAL2     0.900000E-01   1.00800           0
     10719 MEMB     46       OSM      H3G      HAL2     0.900000E-01   1.00800           0
     10720 MEMB     46       OSM      C4F      CTL2    -0.180000       12.0110           0
     10721 MEMB     46       OSM      H4F      HAL2     0.900000E-01   1.00800           0
     10722 MEMB     46       OSM      H4G      HAL2     0.900000E-01   1.00800           0
     10723 MEMB     46       OSM      C5F      CTL2    -0.180000       12.0110           0
     10724 MEMB     46       OSM      H5F      HAL2     0.900000E-01   1.00800           0
     10725 MEMB     46       OSM      H5G      HAL2     0.900000E-01   1.00800           0
     10726 MEMB     46       OSM      C6F      CTL2    -0.180000       12.0110           0
     10727 MEMB     46       OSM      H6F      HAL2     0.900000E-01   1.00800           0
     10728 MEMB     46       OSM      H6G      HAL2     0.900000E-01   1.00800           0
     10729 MEMB     46       OSM      C7F      CTL2    -0.180000       12.0110           0
     10730 MEMB     46       OSM      H7F      HAL2     0.900000E-01   1.00800           0
     10731 MEMB     46       OSM      H7G      HAL2     0.900000E-01   1.00800           0
     10732 MEMB     46       OSM      C8F      CTL2    -0.180000       12.0110           0
     10733 MEMB     46       OSM      H8F      HAL2     0.900000E-01   1.00800           0
     10734 MEMB     46       OSM      H8G      HAL2     0.900000E-01   1.00800           0
     10735 MEMB     46       OSM      C9F      CEL1    -0.150000       12.0110           0
     10736 MEMB     46       OSM      H9F      HEL1     0.150000       1.00800           0
     10737 MEMB     46       OSM      C10F     CEL1    -0.150000       12.0110           0
     10738 MEMB     46       OSM      H10F     HEL1     0.150000       1.00800           0
     10739 MEMB     46       OSM      C11F     CTL2    -0.180000       12.0110           0
     10740 MEMB     46       OSM      H11F     HAL2     0.900000E-01   1.00800           0
     10741 MEMB     46       OSM      H11G     HAL2     0.900000E-01   1.00800           0
     10742 MEMB     46       OSM      C12F     CTL2    -0.180000       12.0110           0
     10743 MEMB     46       OSM      H12F     HAL2     0.900000E-01   1.00800           0
     10744 MEMB     46       OSM      H12G     HAL2     0.900000E-01   1.00800           0
     10745 MEMB     46       OSM      C13F     CTL2    -0.180000       12.0110           0
     10746 MEMB     46       OSM      H13F     HAL2     0.900000E-01   1.00800           0
     10747 MEMB     46       OSM      H13G     HAL2     0.900000E-01   1.00800           0
     10748 MEMB     46       OSM      C14F     CTL2    -0.180000       12.0110           0
     10749 MEMB     46       OSM      H14F     HAL2     0.900000E-01   1.00800           0
     10750 MEMB     46       OSM      H14G     HAL2     0.900000E-01   1.00800           0
     10751 MEMB     46       OSM      C15F     CTL2    -0.180000       12.0110           0
     10752 MEMB     46       OSM      H15F     HAL2     0.900000E-01   1.00800           0
     10753 MEMB     46       OSM      H15G     HAL2     0.900000E-01   1.00800           0
     10754 MEMB     46       OSM      C16F     CTL2    -0.180000       12.0110           0
     10755 MEMB     46       OSM      H16F     HAL2     0.900000E-01   1.00800           0
     10756 MEMB     46       OSM      H16G     HAL2     0.900000E-01   1.00800           0
     10757 MEMB     46       OSM      C17F     CTL2    -0.180000       12.0110           0
     10758 MEMB     46       OSM      H17F     HAL2     0.900000E-01   1.00800           0
     10759 MEMB     46       OSM      H17G     HAL2     0.900000E-01   1.00800           0
     10760 MEMB     46       OSM      C18F     CTL3    -0.270000       12.0110           0
     10761 MEMB     46       OSM      H18F     HAL3     0.900000E-01   1.00800           0
     10762 MEMB     46       OSM      H18G     HAL3     0.900000E-01   1.00800           0
     10763 MEMB     46       OSM      H18H     HAL3     0.900000E-01   1.00800           0
     10764 MEMB     58       OSM      N        NTL     -0.600000       14.0070           0
     10765 MEMB     58       OSM      C15      CTL5    -0.350000       12.0110           0
     10766 MEMB     58       OSM      H15A     HL       0.250000       1.00800           0
     10767 MEMB     58       OSM      H15B     HL       0.250000       1.00800           0
     10768 MEMB     58       OSM      H15C     HL       0.250000       1.00800           0
     10769 MEMB     58       OSM      C14      CTL5    -0.350000       12.0110           0
     10770 MEMB     58       OSM      H14A     HL       0.250000       1.00800           0
     10771 MEMB     58       OSM      H14B     HL       0.250000       1.00800           0
     10772 MEMB     58       OSM      H14C     HL       0.250000       1.00800           0
     10773 MEMB     58       OSM      C13      CTL5    -0.350000       12.0110           0
     10774 MEMB     58       OSM      H13A     HL       0.250000       1.00800           0
     10775 MEMB     58       OSM      H13B     HL       0.250000       1.00800           0
     10776 MEMB     58       OSM      H13C     HL       0.250000       1.00800           0
     10777 MEMB     58       OSM      C12      CTL2    -0.100000       12.0110           0
     10778 MEMB     58       OSM      H12A     HL       0.250000       1.00800           0
     10779 MEMB     58       OSM      H12B     HL       0.250000       1.00800           0
     10780 MEMB     58       OSM      C11      CTL2    -0.800000E-01   12.0110           0
     10781 MEMB     58       OSM      H11A     HAL2     0.900000E-01   1.00800           0
     10782 MEMB     58       OSM      H11B     HAL2     0.900000E-01   1.00800           0
     10783 MEMB     58       OSM      P        PL       1.500000       30.9740           0
     10784 MEMB     58       OSM      O13      O2L     -0.780000       15.9994           0
     10785 MEMB     58       OSM      O14      O2L     -0.780000       15.9994           0
     10786 MEMB     58       OSM      O11      OSLP    -0.570000       15.9994           0
     10787 MEMB     58       OSM      O12      OSLP    -0.570000       15.9994           0
     10788 MEMB     58       OSM      C1S      CTL2    -0.800000E-01   12.0110           0
     10789 MEMB     58       OSM      H1S      HAL2     0.900000E-01   1.00800           0
     10790 MEMB     58       OSM      H1T      HAL2     0.900000E-01   1.00800           0
     10791 MEMB     58       OSM      NF       NHL     -0.700000       14.0070           0
     10792 MEMB     58       OSM      HNF      H        0.350000       1.00800           0
     10793 MEMB     58       OSM      C2S      CTL1     0.300000       12.0110           0
     10794 MEMB     58       OSM      H2S      HAL1     0.500000E-01   1.00800           0
     10795 MEMB     58       OSM      C3S      CTO1     0.500000       12.0110           0
     10796 MEMB     58       OSM      H3S      HAL1    -0.110000       1.00800           0
     10797 MEMB     58       OSM      O3       OHL     -0.690000       15.9994           0
     10798 MEMB     58       OSM      HO3      HOL      0.300000       1.00800           0
     10799 MEMB     58       OSM      C4S      CEL3    -0.150000       12.0110           0
     10800 MEMB     58       OSM      H4S      HEL1     0.150000       1.00800           0
     10801 MEMB     58       OSM      C5S      CEL3    -0.150000       12.0110           0
     10802 MEMB     58       OSM      H5S      HEL1     0.150000       1.00800           0
     10803 MEMB     58       OSM      C6S      CTL2    -0.180000       12.0110           0
     10804 MEMB     58       OSM      H6S      HAL2     0.900000E-01   1.00800           0
     10805 MEMB     58       OSM      H6T      HAL2     0.900000E-01   1.00800           0
     10806 MEMB     58       OSM      C7S      CTL2    -0.180000       12.0110           0
     10807 MEMB     58       OSM      H7S      HAL2     0.900000E-01   1.00800           0
     10808 MEMB     58       OSM      H7T      HAL2     0.900000E-01   1.00800           0
     10809 MEMB     58       OSM      C8S      CTL2    -0.180000       12.0110           0
     10810 MEMB     58       OSM      H8S      HAL2     0.900000E-01   1.00800           0
     10811 MEMB     58       OSM      H8T      HAL2     0.900000E-01   1.00800           0
     10812 MEMB     58       OSM      C9S      CTL2    -0.180000       12.0110           0
     10813 MEMB     58       OSM      H9S      HAL2     0.900000E-01   1.00800           0
     10814 MEMB     58       OSM      H9T      HAL2     0.900000E-01   1.00800           0
     10815 MEMB     58       OSM      C10S     CTL2    -0.180000       12.0110           0
     10816 MEMB     58       OSM      H10S     HAL2     0.900000E-01   1.00800           0
     10817 MEMB     58       OSM      H10T     HAL2     0.900000E-01   1.00800           0
     10818 MEMB     58       OSM      C11S     CTL2    -0.180000       12.0110           0
     10819 MEMB     58       OSM      H11S     HAL2     0.900000E-01   1.00800           0
     10820 MEMB     58       OSM      H11T     HAL2     0.900000E-01   1.00800           0
     10821 MEMB     58       OSM      C12S     CTL2    -0.180000       12.0110           0
     10822 MEMB     58       OSM      H12S     HAL2     0.900000E-01   1.00800           0
     10823 MEMB     58       OSM      H12T     HAL2     0.900000E-01   1.00800           0
     10824 MEMB     58       OSM      C13S     CTL2    -0.180000       12.0110           0
     10825 MEMB     58       OSM      H13S     HAL2     0.900000E-01   1.00800           0
     10826 MEMB     58       OSM      H13T     HAL2     0.900000E-01   1.00800           0
     10827 MEMB     58       OSM      C14S     CTL2    -0.180000       12.0110           0
     10828 MEMB     58       OSM      H14S     HAL2     0.900000E-01   1.00800           0
     10829 MEMB     58       OSM      H14T     HAL2     0.900000E-01   1.00800           0
     10830 MEMB     58       OSM      C15S     CTL2    -0.180000       12.0110           0
     10831 MEMB     58       OSM      H15S     HAL2     0.900000E-01   1.00800           0
     10832 MEMB     58       OSM      H15T     HAL2     0.900000E-01   1.00800           0
     10833 MEMB     58       OSM      C16S     CTL2    -0.180000       12.0110           0
     10834 MEMB     58       OSM      H16S     HAL2     0.900000E-01   1.00800           0
     10835 MEMB     58       OSM      H16T     HAL2     0.900000E-01   1.00800           0
     10836 MEMB     58       OSM      C17S     CTL2    -0.180000       12.0110           0
     10837 MEMB     58       OSM      H17S     HAL2     0.900000E-01   1.00800           0
     10838 MEMB     58       OSM      H17T     HAL2     0.900000E-01   1.00800           0
     10839 MEMB     58       OSM      C18S     CTL3    -0.270000       12.0110           0
     10840 MEMB     58       OSM      H18S     HAL3     0.900000E-01   1.00800           0
     10841 MEMB     58       OSM      H18T     HAL3     0.900000E-01   1.00800           0
     10842 MEMB     58       OSM      H18U     HAL3     0.900000E-01   1.00800           0
     10843 MEMB     58       OSM      C1F      C        0.550000       12.0110           0
     10844 MEMB     58       OSM      OF       O       -0.600000       15.9994           0
     10845 MEMB     58       OSM      C2F      CTL2    -0.700000E-01   12.0110           0
     10846 MEMB     58       OSM      H2F      HAL2     0.600000E-01   1.00800           0
     10847 MEMB     58       OSM      H2G      HAL2     0.600000E-01   1.00800           0
     10848 MEMB     58       OSM      C3F      CTL2    -0.180000       12.0110           0
     10849 MEMB     58       OSM      H3F      HAL2     0.900000E-01   1.00800           0
     10850 MEMB     58       OSM      H3G      HAL2     0.900000E-01   1.00800           0
     10851 MEMB     58       OSM      C4F      CTL2    -0.180000       12.0110           0
     10852 MEMB     58       OSM      H4F      HAL2     0.900000E-01   1.00800           0
     10853 MEMB     58       OSM      H4G      HAL2     0.900000E-01   1.00800           0
     10854 MEMB     58       OSM      C5F      CTL2    -0.180000       12.0110           0
     10855 MEMB     58       OSM      H5F      HAL2     0.900000E-01   1.00800           0
     10856 MEMB     58       OSM      H5G      HAL2     0.900000E-01   1.00800           0
     10857 MEMB     58       OSM      C6F      CTL2    -0.180000       12.0110           0
     10858 MEMB     58       OSM      H6F      HAL2     0.900000E-01   1.00800           0
     10859 MEMB     58       OSM      H6G      HAL2     0.900000E-01   1.00800           0
     10860 MEMB     58       OSM      C7F      CTL2    -0.180000       12.0110           0
     10861 MEMB     58       OSM      H7F      HAL2     0.900000E-01   1.00800           0
     10862 MEMB     58       OSM      H7G      HAL2     0.900000E-01   1.00800           0
     10863 MEMB     58       OSM      C8F      CTL2    -0.180000       12.0110           0
     10864 MEMB     58       OSM      H8F      HAL2     0.900000E-01   1.00800           0
     10865 MEMB     58       OSM      H8G      HAL2     0.900000E-01   1.00800           0
     10866 MEMB     58       OSM      C9F      CEL1    -0.150000       12.0110           0
     10867 MEMB     58       OSM      H9F      HEL1     0.150000       1.00800           0
     10868 MEMB     58       OSM      C10F     CEL1    -0.150000       12.0110           0
     10869 MEMB     58       OSM      H10F     HEL1     0.150000       1.00800           0
     10870 MEMB     58       OSM      C11F     CTL2    -0.180000       12.0110           0
     10871 MEMB     58       OSM      H11F     HAL2     0.900000E-01   1.00800           0
     10872 MEMB     58       OSM      H11G     HAL2     0.900000E-01   1.00800           0
     10873 MEMB     58       OSM      C12F     CTL2    -0.180000       12.0110           0
     10874 MEMB     58       OSM      H12F     HAL2     0.900000E-01   1.00800           0
     10875 MEMB     58       OSM      H12G     HAL2     0.900000E-01   1.00800           0
     10876 MEMB     58       OSM      C13F     CTL2    -0.180000       12.0110           0
     10877 MEMB     58       OSM      H13F     HAL2     0.900000E-01   1.00800           0
     10878 MEMB     58       OSM      H13G     HAL2     0.900000E-01   1.00800           0
     10879 MEMB     58       OSM      C14F     CTL2    -0.180000       12.0110           0
     10880 MEMB     58       OSM      H14F     HAL2     0.900000E-01   1.00800           0
     10881 MEMB     58       OSM      H14G     HAL2     0.900000E-01   1.00800           0
     10882 MEMB     58       OSM      C15F     CTL2    -0.180000       12.0110           0
     10883 MEMB     58       OSM      H15F     HAL2     0.900000E-01   1.00800           0
     10884 MEMB     58       OSM      H15G     HAL2     0.900000E-01   1.00800           0
     10885 MEMB     58       OSM      C16F     CTL2    -0.180000       12.0110           0
     10886 MEMB     58       OSM      H16F     HAL2     0.900000E-01   1.00800           0
     10887 MEMB     58       OSM      H16G     HAL2     0.900000E-01   1.00800           0
     10888 MEMB     58       OSM      C17F     CTL2    -0.180000       12.0110           0
     10889 MEMB     58       OSM      H17F     HAL2     0.900000E-01   1.00800           0
     10890 MEMB     58       OSM      H17G     HAL2     0.900000E-01   1.00800           0
     10891 MEMB     58       OSM      C18F     CTL3    -0.270000       12.0110           0
     10892 MEMB     58       OSM      H18F     HAL3     0.900000E-01   1.00800           0
     10893 MEMB     58       OSM      H18G     HAL3     0.900000E-01   1.00800           0
     10894 MEMB     58       OSM      H18H     HAL3     0.900000E-01   1.00800           0
     10895 MEMB     63       OSM      N        NTL     -0.600000       14.0070           0
     10896 MEMB     63       OSM      C15      CTL5    -0.350000       12.0110           0
     10897 MEMB     63       OSM      H15A     HL       0.250000       1.00800           0
     10898 MEMB     63       OSM      H15B     HL       0.250000       1.00800           0
     10899 MEMB     63       OSM      H15C     HL       0.250000       1.00800           0
     10900 MEMB     63       OSM      C14      CTL5    -0.350000       12.0110           0
     10901 MEMB     63       OSM      H14A     HL       0.250000       1.00800           0
     10902 MEMB     63       OSM      H14B     HL       0.250000       1.00800           0
     10903 MEMB     63       OSM      H14C     HL       0.250000       1.00800           0
     10904 MEMB     63       OSM      C13      CTL5    -0.350000       12.0110           0
     10905 MEMB     63       OSM      H13A     HL       0.250000       1.00800           0
     10906 MEMB     63       OSM      H13B     HL       0.250000       1.00800           0
     10907 MEMB     63       OSM      H13C     HL       0.250000       1.00800           0
     10908 MEMB     63       OSM      C12      CTL2    -0.100000       12.0110           0
     10909 MEMB     63       OSM      H12A     HL       0.250000       1.00800           0
     10910 MEMB     63       OSM      H12B     HL       0.250000       1.00800           0
     10911 MEMB     63       OSM      C11      CTL2    -0.800000E-01   12.0110           0
     10912 MEMB     63       OSM      H11A     HAL2     0.900000E-01   1.00800           0
     10913 MEMB     63       OSM      H11B     HAL2     0.900000E-01   1.00800           0
     10914 MEMB     63       OSM      P        PL       1.500000       30.9740           0
     10915 MEMB     63       OSM      O13      O2L     -0.780000       15.9994           0
     10916 MEMB     63       OSM      O14      O2L     -0.780000       15.9994           0
     10917 MEMB     63       OSM      O11      OSLP    -0.570000       15.9994           0
     10918 MEMB     63       OSM      O12      OSLP    -0.570000       15.9994           0
     10919 MEMB     63       OSM      C1S      CTL2    -0.800000E-01   12.0110           0
     10920 MEMB     63       OSM      H1S      HAL2     0.900000E-01   1.00800           0
     10921 MEMB     63       OSM      H1T      HAL2     0.900000E-01   1.00800           0
     10922 MEMB     63       OSM      NF       NHL     -0.700000       14.0070           0
     10923 MEMB     63       OSM      HNF      H        0.350000       1.00800           0
     10924 MEMB     63       OSM      C2S      CTL1     0.300000       12.0110           0
     10925 MEMB     63       OSM      H2S      HAL1     0.500000E-01   1.00800           0
     10926 MEMB     63       OSM      C3S      CTO1     0.500000       12.0110           0
     10927 MEMB     63       OSM      H3S      HAL1    -0.110000       1.00800           0
     10928 MEMB     63       OSM      O3       OHL     -0.690000       15.9994           0
     10929 MEMB     63       OSM      HO3      HOL      0.300000       1.00800           0
     10930 MEMB     63       OSM      C4S      CEL3    -0.150000       12.0110           0
     10931 MEMB     63       OSM      H4S      HEL1     0.150000       1.00800           0
     10932 MEMB     63       OSM      C5S      CEL3    -0.150000       12.0110           0
     10933 MEMB     63       OSM      H5S      HEL1     0.150000       1.00800           0
     10934 MEMB     63       OSM      C6S      CTL2    -0.180000       12.0110           0
     10935 MEMB     63       OSM      H6S      HAL2     0.900000E-01   1.00800           0
     10936 MEMB     63       OSM      H6T      HAL2     0.900000E-01   1.00800           0
     10937 MEMB     63       OSM      C7S      CTL2    -0.180000       12.0110           0
     10938 MEMB     63       OSM      H7S      HAL2     0.900000E-01   1.00800           0
     10939 MEMB     63       OSM      H7T      HAL2     0.900000E-01   1.00800           0
     10940 MEMB     63       OSM      C8S      CTL2    -0.180000       12.0110           0
     10941 MEMB     63       OSM      H8S      HAL2     0.900000E-01   1.00800           0
     10942 MEMB     63       OSM      H8T      HAL2     0.900000E-01   1.00800           0
     10943 MEMB     63       OSM      C9S      CTL2    -0.180000       12.0110           0
     10944 MEMB     63       OSM      H9S      HAL2     0.900000E-01   1.00800           0
     10945 MEMB     63       OSM      H9T      HAL2     0.900000E-01   1.00800           0
     10946 MEMB     63       OSM      C10S     CTL2    -0.180000       12.0110           0
     10947 MEMB     63       OSM      H10S     HAL2     0.900000E-01   1.00800           0
     10948 MEMB     63       OSM      H10T     HAL2     0.900000E-01   1.00800           0
     10949 MEMB     63       OSM      C11S     CTL2    -0.180000       12.0110           0
     10950 MEMB     63       OSM      H11S     HAL2     0.900000E-01   1.00800           0
     10951 MEMB     63       OSM      H11T     HAL2     0.900000E-01   1.00800           0
     10952 MEMB     63       OSM      C12S     CTL2    -0.180000       12.0110           0
     10953 MEMB     63       OSM      H12S     HAL2     0.900000E-01   1.00800           0
     10954 MEMB     63       OSM      H12T     HAL2     0.900000E-01   1.00800           0
     10955 MEMB     63       OSM      C13S     CTL2    -0.180000       12.0110           0
     10956 MEMB     63       OSM      H13S     HAL2     0.900000E-01   1.00800           0
     10957 MEMB     63       OSM      H13T     HAL2     0.900000E-01   1.00800           0
     10958 MEMB     63       OSM      C14S     CTL2    -0.180000       12.0110           0
     10959 MEMB     63       OSM      H14S     HAL2     0.900000E-01   1.00800           0
     10960 MEMB     63       OSM      H14T     HAL2     0.900000E-01   1.00800           0
     10961 MEMB     63       OSM      C15S     CTL2    -0.180000       12.0110           0
     10962 MEMB     63       OSM      H15S     HAL2     0.900000E-01   1.00800           0
     10963 MEMB     63       OSM      H15T     HAL2     0.900000E-01   1.00800           0
     10964 MEMB     63       OSM      C16S     CTL2    -0.180000       12.0110           0
     10965 MEMB     63       OSM      H16S     HAL2     0.900000E-01   1.00800           0
     10966 MEMB     63       OSM      H16T     HAL2     0.900000E-01   1.00800           0
     10967 MEMB     63       OSM      C17S     CTL2    -0.180000       12.0110           0
     10968 MEMB     63       OSM      H17S     HAL2     0.900000E-01   1.00800           0
     10969 MEMB     63       OSM      H17T     HAL2     0.900000E-01   1.00800           0
     10970 MEMB     63       OSM      C18S     CTL3    -0.270000       12.0110           0
     10971 MEMB     63       OSM      H18S     HAL3     0.900000E-01   1.00800           0
     10972 MEMB     63       OSM      H18T     HAL3     0.900000E-01   1.00800           0
     10973 MEMB     63       OSM      H18U     HAL3     0.900000E-01   1.00800           0
     10974 MEMB     63       OSM      C1F      C        0.550000       12.0110           0
     10975 MEMB     63       OSM      OF       O       -0.600000       15.9994           0
     10976 MEMB     63       OSM      C2F      CTL2    -0.700000E-01   12.0110           0
     10977 MEMB     63       OSM      H2F      HAL2     0.600000E-01   1.00800           0
     10978 MEMB     63       OSM      H2G      HAL2     0.600000E-01   1.00800           0
     10979 MEMB     63       OSM      C3F      CTL2    -0.180000       12.0110           0
     10980 MEMB     63       OSM      H3F      HAL2     0.900000E-01   1.00800           0
     10981 MEMB     63       OSM      H3G      HAL2     0.900000E-01   1.00800           0
     10982 MEMB     63       OSM      C4F      CTL2    -0.180000       12.0110           0
     10983 MEMB     63       OSM      H4F      HAL2     0.900000E-01   1.00800           0
     10984 MEMB     63       OSM      H4G      HAL2     0.900000E-01   1.00800           0
     10985 MEMB     63       OSM      C5F      CTL2    -0.180000       12.0110           0
     10986 MEMB     63       OSM      H5F      HAL2     0.900000E-01   1.00800           0
     10987 MEMB     63       OSM      H5G      HAL2     0.900000E-01   1.00800           0
     10988 MEMB     63       OSM      C6F      CTL2    -0.180000       12.0110           0
     10989 MEMB     63       OSM      H6F      HAL2     0.900000E-01   1.00800           0
     10990 MEMB     63       OSM      H6G      HAL2     0.900000E-01   1.00800           0
     10991 MEMB     63       OSM      C7F      CTL2    -0.180000       12.0110           0
     10992 MEMB     63       OSM      H7F      HAL2     0.900000E-01   1.00800           0
     10993 MEMB     63       OSM      H7G      HAL2     0.900000E-01   1.00800           0
     10994 MEMB     63       OSM      C8F      CTL2    -0.180000       12.0110           0
     10995 MEMB     63       OSM      H8F      HAL2     0.900000E-01   1.00800           0
     10996 MEMB     63       OSM      H8G      HAL2     0.900000E-01   1.00800           0
     10997 MEMB     63       OSM      C9F      CEL1    -0.150000       12.0110           0
     10998 MEMB     63       OSM      H9F      HEL1     0.150000       1.00800           0
     10999 MEMB     63       OSM      C10F     CEL1    -0.150000       12.0110           0
     11000 MEMB     63       OSM      H10F     HEL1     0.150000       1.00800           0
     11001 MEMB     63       OSM      C11F     CTL2    -0.180000       12.0110           0
     11002 MEMB     63       OSM      H11F     HAL2     0.900000E-01   1.00800           0
     11003 MEMB     63       OSM      H11G     HAL2     0.900000E-01   1.00800           0
     11004 MEMB     63       OSM      C12F     CTL2    -0.180000       12.0110           0
     11005 MEMB     63       OSM      H12F     HAL2     0.900000E-01   1.00800           0
     11006 MEMB     63       OSM      H12G     HAL2     0.900000E-01   1.00800           0
     11007 MEMB     63       OSM      C13F     CTL2    -0.180000       12.0110           0
     11008 MEMB     63       OSM      H13F     HAL2     0.900000E-01   1.00800           0
     11009 MEMB     63       OSM      H13G     HAL2     0.900000E-01   1.00800           0
     11010 MEMB     63       OSM      C14F     CTL2    -0.180000       12.0110           0
     11011 MEMB     63       OSM      H14F     HAL2     0.900000E-01   1.00800           0
     11012 MEMB     63       OSM      H14G     HAL2     0.900000E-01   1.00800           0
     11013 MEMB     63       OSM      C15F     CTL2    -0.180000       12.0110           0
     11014 MEMB     63       OSM      H15F     HAL2     0.900000E-01   1.00800           0
     11015 MEMB     63       OSM      H15G     HAL2     0.900000E-01   1.00800           0
     11016 MEMB     63       OSM      C16F     CTL2    -0.180000       12.0110           0
     11017 MEMB     63       OSM      H16F     HAL2     0.900000E-01   1.00800           0
     11018 MEMB     63       OSM      H16G     HAL2     0.900000E-01   1.00800           0
     11019 MEMB     63       OSM      C17F     CTL2    -0.180000       12.0110           0
     11020 MEMB     63       OSM      H17F     HAL2     0.900000E-01   1.00800           0
     11021 MEMB     63       OSM      H17G     HAL2     0.900000E-01   1.00800           0
     11022 MEMB     63       OSM      C18F     CTL3    -0.270000       12.0110           0
     11023 MEMB     63       OSM      H18F     HAL3     0.900000E-01   1.00800           0
     11024 MEMB     63       OSM      H18G     HAL3     0.900000E-01   1.00800           0
     11025 MEMB     63       OSM      H18H     HAL3     0.900000E-01   1.00800           0
     11026 MEMB     68       OSM      N        NTL     -0.600000       14.0070           0
     11027 MEMB     68       OSM      C15      CTL5    -0.350000       12.0110           0
     11028 MEMB     68       OSM      H15A     HL       0.250000       1.00800           0
     11029 MEMB     68       OSM      H15B     HL       0.250000       1.00800           0
     11030 MEMB     68       OSM      H15C     HL       0.250000       1.00800           0
     11031 MEMB     68       OSM      C14      CTL5    -0.350000       12.0110           0
     11032 MEMB     68       OSM      H14A     HL       0.250000       1.00800           0
     11033 MEMB     68       OSM      H14B     HL       0.250000       1.00800           0
     11034 MEMB     68       OSM      H14C     HL       0.250000       1.00800           0
     11035 MEMB     68       OSM      C13      CTL5    -0.350000       12.0110           0
     11036 MEMB     68       OSM      H13A     HL       0.250000       1.00800           0
     11037 MEMB     68       OSM      H13B     HL       0.250000       1.00800           0
     11038 MEMB     68       OSM      H13C     HL       0.250000       1.00800           0
     11039 MEMB     68       OSM      C12      CTL2    -0.100000       12.0110           0
     11040 MEMB     68       OSM      H12A     HL       0.250000       1.00800           0
     11041 MEMB     68       OSM      H12B     HL       0.250000       1.00800           0
     11042 MEMB     68       OSM      C11      CTL2    -0.800000E-01   12.0110           0
     11043 MEMB     68       OSM      H11A     HAL2     0.900000E-01   1.00800           0
     11044 MEMB     68       OSM      H11B     HAL2     0.900000E-01   1.00800           0
     11045 MEMB     68       OSM      P        PL       1.500000       30.9740           0
     11046 MEMB     68       OSM      O13      O2L     -0.780000       15.9994           0
     11047 MEMB     68       OSM      O14      O2L     -0.780000       15.9994           0
     11048 MEMB     68       OSM      O11      OSLP    -0.570000       15.9994           0
     11049 MEMB     68       OSM      O12      OSLP    -0.570000       15.9994           0
     11050 MEMB     68       OSM      C1S      CTL2    -0.800000E-01   12.0110           0
     11051 MEMB     68       OSM      H1S      HAL2     0.900000E-01   1.00800           0
     11052 MEMB     68       OSM      H1T      HAL2     0.900000E-01   1.00800           0
     11053 MEMB     68       OSM      NF       NHL     -0.700000       14.0070           0
     11054 MEMB     68       OSM      HNF      H        0.350000       1.00800           0
     11055 MEMB     68       OSM      C2S      CTL1     0.300000       12.0110           0
     11056 MEMB     68       OSM      H2S      HAL1     0.500000E-01   1.00800           0
     11057 MEMB     68       OSM      C3S      CTO1     0.500000       12.0110           0
     11058 MEMB     68       OSM      H3S      HAL1    -0.110000       1.00800           0
     11059 MEMB     68       OSM      O3       OHL     -0.690000       15.9994           0
     11060 MEMB     68       OSM      HO3      HOL      0.300000       1.00800           0
     11061 MEMB     68       OSM      C4S      CEL3    -0.150000       12.0110           0
     11062 MEMB     68       OSM      H4S      HEL1     0.150000       1.00800           0
     11063 MEMB     68       OSM      C5S      CEL3    -0.150000       12.0110           0
     11064 MEMB     68       OSM      H5S      HEL1     0.150000       1.00800           0
     11065 MEMB     68       OSM      C6S      CTL2    -0.180000       12.0110           0
     11066 MEMB     68       OSM      H6S      HAL2     0.900000E-01   1.00800           0
     11067 MEMB     68       OSM      H6T      HAL2     0.900000E-01   1.00800           0
     11068 MEMB     68       OSM      C7S      CTL2    -0.180000       12.0110           0
     11069 MEMB     68       OSM      H7S      HAL2     0.900000E-01   1.00800           0
     11070 MEMB     68       OSM      H7T      HAL2     0.900000E-01   1.00800           0
     11071 MEMB     68       OSM      C8S      CTL2    -0.180000       12.0110           0
     11072 MEMB     68       OSM      H8S      HAL2     0.900000E-01   1.00800           0
     11073 MEMB     68       OSM      H8T      HAL2     0.900000E-01   1.00800           0
     11074 MEMB     68       OSM      C9S      CTL2    -0.180000       12.0110           0
     11075 MEMB     68       OSM      H9S      HAL2     0.900000E-01   1.00800           0
     11076 MEMB     68       OSM      H9T      HAL2     0.900000E-01   1.00800           0
     11077 MEMB     68       OSM      C10S     CTL2    -0.180000       12.0110           0
     11078 MEMB     68       OSM      H10S     HAL2     0.900000E-01   1.00800           0
     11079 MEMB     68       OSM      H10T     HAL2     0.900000E-01   1.00800           0
     11080 MEMB     68       OSM      C11S     CTL2    -0.180000       12.0110           0
     11081 MEMB     68       OSM      H11S     HAL2     0.900000E-01   1.00800           0
     11082 MEMB     68       OSM      H11T     HAL2     0.900000E-01   1.00800           0
     11083 MEMB     68       OSM      C12S     CTL2    -0.180000       12.0110           0
     11084 MEMB     68       OSM      H12S     HAL2     0.900000E-01   1.00800           0
     11085 MEMB     68       OSM      H12T     HAL2     0.900000E-01   1.00800           0
     11086 MEMB     68       OSM      C13S     CTL2    -0.180000       12.0110           0
     11087 MEMB     68       OSM      H13S     HAL2     0.900000E-01   1.00800           0
     11088 MEMB     68       OSM      H13T     HAL2     0.900000E-01   1.00800           0
     11089 MEMB     68       OSM      C14S     CTL2    -0.180000       12.0110           0
     11090 MEMB     68       OSM      H14S     HAL2     0.900000E-01   1.00800           0
     11091 MEMB     68       OSM      H14T     HAL2     0.900000E-01   1.00800           0
     11092 MEMB     68       OSM      C15S     CTL2    -0.180000       12.0110           0
     11093 MEMB     68       OSM      H15S     HAL2     0.900000E-01   1.00800           0
     11094 MEMB     68       OSM      H15T     HAL2     0.900000E-01   1.00800           0
     11095 MEMB     68       OSM      C16S     CTL2    -0.180000       12.0110           0
     11096 MEMB     68       OSM      H16S     HAL2     0.900000E-01   1.00800           0
     11097 MEMB     68       OSM      H16T     HAL2     0.900000E-01   1.00800           0
     11098 MEMB     68       OSM      C17S     CTL2    -0.180000       12.0110           0
     11099 MEMB     68       OSM      H17S     HAL2     0.900000E-01   1.00800           0
     11100 MEMB     68       OSM      H17T     HAL2     0.900000E-01   1.00800           0
     11101 MEMB     68       OSM      C18S     CTL3    -0.270000       12.0110           0
     11102 MEMB     68       OSM      H18S     HAL3     0.900000E-01   1.00800           0
     11103 MEMB     68       OSM      H18T     HAL3     0.900000E-01   1.00800           0
     11104 MEMB     68       OSM      H18U     HAL3     0.900000E-01   1.00800           0
     11105 MEMB     68       OSM      C1F      C        0.550000       12.0110           0
     11106 MEMB     68       OSM      OF       O       -0.600000       15.9994           0
     11107 MEMB     68       OSM      C2F      CTL2    -0.700000E-01   12.0110           0
     11108 MEMB     68       OSM      H2F      HAL2     0.600000E-01   1.00800           0
     11109 MEMB     68       OSM      H2G      HAL2     0.600000E-01   1.00800           0
     11110 MEMB     68       OSM      C3F      CTL2    -0.180000       12.0110           0
     11111 MEMB     68       OSM      H3F      HAL2     0.900000E-01   1.00800           0
     11112 MEMB     68       OSM      H3G      HAL2     0.900000E-01   1.00800           0
     11113 MEMB     68       OSM      C4F      CTL2    -0.180000       12.0110           0
     11114 MEMB     68       OSM      H4F      HAL2     0.900000E-01   1.00800           0
     11115 MEMB     68       OSM      H4G      HAL2     0.900000E-01   1.00800           0
     11116 MEMB     68       OSM      C5F      CTL2    -0.180000       12.0110           0
     11117 MEMB     68       OSM      H5F      HAL2     0.900000E-01   1.00800           0
     11118 MEMB     68       OSM      H5G      HAL2     0.900000E-01   1.00800           0
     11119 MEMB     68       OSM      C6F      CTL2    -0.180000       12.0110           0
     11120 MEMB     68       OSM      H6F      HAL2     0.900000E-01   1.00800           0
     11121 MEMB     68       OSM      H6G      HAL2     0.900000E-01   1.00800           0
     11122 MEMB     68       OSM      C7F      CTL2    -0.180000       12.0110           0
     11123 MEMB     68       OSM      H7F      HAL2     0.900000E-01   1.00800           0
     11124 MEMB     68       OSM      H7G      HAL2     0.900000E-01   1.00800           0
     11125 MEMB     68       OSM      C8F      CTL2    -0.180000       12.0110           0
     11126 MEMB     68       OSM      H8F      HAL2     0.900000E-01   1.00800           0
     11127 MEMB     68       OSM      H8G      HAL2     0.900000E-01   1.00800           0
     11128 MEMB     68       OSM      C9F      CEL1    -0.150000       12.0110           0
     11129 MEMB     68       OSM      H9F      HEL1     0.150000       1.00800           0
     11130 MEMB     68       OSM      C10F     CEL1    -0.150000       12.0110           0
     11131 MEMB     68       OSM      H10F     HEL1     0.150000       1.00800           0
     11132 MEMB     68       OSM      C11F     CTL2    -0.180000       12.0110           0
     11133 MEMB     68       OSM      H11F     HAL2     0.900000E-01   1.00800           0
     11134 MEMB     68       OSM      H11G     HAL2     0.900000E-01   1.00800           0
     11135 MEMB     68       OSM      C12F     CTL2    -0.180000       12.0110           0
     11136 MEMB     68       OSM      H12F     HAL2     0.900000E-01   1.00800           0
     11137 MEMB     68       OSM      H12G     HAL2     0.900000E-01   1.00800           0
     11138 MEMB     68       OSM      C13F     CTL2    -0.180000       12.0110           0
     11139 MEMB     68       OSM      H13F     HAL2     0.900000E-01   1.00800           0
     11140 MEMB     68       OSM      H13G     HAL2     0.900000E-01   1.00800           0
     11141 MEMB     68       OSM      C14F     CTL2    -0.180000       12.0110           0
     11142 MEMB     68       OSM      H14F     HAL2     0.900000E-01   1.00800           0
     11143 MEMB     68       OSM      H14G     HAL2     0.900000E-01   1.00800           0
     11144 MEMB     68       OSM      C15F     CTL2    -0.180000       12.0110           0
     11145 MEMB     68       OSM      H15F     HAL2     0.900000E-01   1.00800           0
     11146 MEMB     68       OSM      H15G     HAL2     0.900000E-01   1.00800           0
     11147 MEMB     68       OSM      C16F     CTL2    -0.180000       12.0110           0
     11148 MEMB     68       OSM      H16F     HAL2     0.900000E-01   1.00800           0
     11149 MEMB     68       OSM      H16G     HAL2     0.900000E-01   1.00800           0
     11150 MEMB     68       OSM      C17F     CTL2    -0.180000       12.0110           0
     11151 MEMB     68       OSM      H17F     HAL2     0.900000E-01   1.00800           0
     11152 MEMB     68       OSM      H17G     HAL2     0.900000E-01   1.00800           0
     11153 MEMB     68       OSM      C18F     CTL3    -0.270000       12.0110           0
     11154 MEMB     68       OSM      H18F     HAL3     0.900000E-01   1.00800           0
     11155 MEMB     68       OSM      H18G     HAL3     0.900000E-01   1.00800           0
     11156 MEMB     68       OSM      H18H     HAL3     0.900000E-01   1.00800           0
     11157 MEMB     72       OSM      N        NTL     -0.600000       14.0070           0
     11158 MEMB     72       OSM      C15      CTL5    -0.350000       12.0110           0
     11159 MEMB     72       OSM      H15A     HL       0.250000       1.00800           0
     11160 MEMB     72       OSM      H15B     HL       0.250000       1.00800           0
     11161 MEMB     72       OSM      H15C     HL       0.250000       1.00800           0
     11162 MEMB     72       OSM      C14      CTL5    -0.350000       12.0110           0
     11163 MEMB     72       OSM      H14A     HL       0.250000       1.00800           0
     11164 MEMB     72       OSM      H14B     HL       0.250000       1.00800           0
     11165 MEMB     72       OSM      H14C     HL       0.250000       1.00800           0
     11166 MEMB     72       OSM      C13      CTL5    -0.350000       12.0110           0
     11167 MEMB     72       OSM      H13A     HL       0.250000       1.00800           0
     11168 MEMB     72       OSM      H13B     HL       0.250000       1.00800           0
     11169 MEMB     72       OSM      H13C     HL       0.250000       1.00800           0
     11170 MEMB     72       OSM      C12      CTL2    -0.100000       12.0110           0
     11171 MEMB     72       OSM      H12A     HL       0.250000       1.00800           0
     11172 MEMB     72       OSM      H12B     HL       0.250000       1.00800           0
     11173 MEMB     72       OSM      C11      CTL2    -0.800000E-01   12.0110           0
     11174 MEMB     72       OSM      H11A     HAL2     0.900000E-01   1.00800           0
     11175 MEMB     72       OSM      H11B     HAL2     0.900000E-01   1.00800           0
     11176 MEMB     72       OSM      P        PL       1.500000       30.9740           0
     11177 MEMB     72       OSM      O13      O2L     -0.780000       15.9994           0
     11178 MEMB     72       OSM      O14      O2L     -0.780000       15.9994           0
     11179 MEMB     72       OSM      O11      OSLP    -0.570000       15.9994           0
     11180 MEMB     72       OSM      O12      OSLP    -0.570000       15.9994           0
     11181 MEMB     72       OSM      C1S      CTL2    -0.800000E-01   12.0110           0
     11182 MEMB     72       OSM      H1S      HAL2     0.900000E-01   1.00800           0
     11183 MEMB     72       OSM      H1T      HAL2     0.900000E-01   1.00800           0
     11184 MEMB     72       OSM      NF       NHL     -0.700000       14.0070           0
     11185 MEMB     72       OSM      HNF      H        0.350000       1.00800           0
     11186 MEMB     72       OSM      C2S      CTL1     0.300000       12.0110           0
     11187 MEMB     72       OSM      H2S      HAL1     0.500000E-01   1.00800           0
     11188 MEMB     72       OSM      C3S      CTO1     0.500000       12.0110           0
     11189 MEMB     72       OSM      H3S      HAL1    -0.110000       1.00800           0
     11190 MEMB     72       OSM      O3       OHL     -0.690000       15.9994           0
     11191 MEMB     72       OSM      HO3      HOL      0.300000       1.00800           0
     11192 MEMB     72       OSM      C4S      CEL3    -0.150000       12.0110           0
     11193 MEMB     72       OSM      H4S      HEL1     0.150000       1.00800           0
     11194 MEMB     72       OSM      C5S      CEL3    -0.150000       12.0110           0
     11195 MEMB     72       OSM      H5S      HEL1     0.150000       1.00800           0
     11196 MEMB     72       OSM      C6S      CTL2    -0.180000       12.0110           0
     11197 MEMB     72       OSM      H6S      HAL2     0.900000E-01   1.00800           0
     11198 MEMB     72       OSM      H6T      HAL2     0.900000E-01   1.00800           0
     11199 MEMB     72       OSM      C7S      CTL2    -0.180000       12.0110           0
     11200 MEMB     72       OSM      H7S      HAL2     0.900000E-01   1.00800           0
     11201 MEMB     72       OSM      H7T      HAL2     0.900000E-01   1.00800           0
     11202 MEMB     72       OSM      C8S      CTL2    -0.180000       12.0110           0
     11203 MEMB     72       OSM      H8S      HAL2     0.900000E-01   1.00800           0
     11204 MEMB     72       OSM      H8T      HAL2     0.900000E-01   1.00800           0
     11205 MEMB     72       OSM      C9S      CTL2    -0.180000       12.0110           0
     11206 MEMB     72       OSM      H9S      HAL2     0.900000E-01   1.00800           0
     11207 MEMB     72       OSM      H9T      HAL2     0.900000E-01   1.00800           0
     11208 MEMB     72       OSM      C10S     CTL2    -0.180000       12.0110           0
     11209 MEMB     72       OSM      H10S     HAL2     0.900000E-01   1.00800           0
     11210 MEMB     72       OSM      H10T     HAL2     0.900000E-01   1.00800           0
     11211 MEMB     72       OSM      C11S     CTL2    -0.180000       12.0110           0
     11212 MEMB     72       OSM      H11S     HAL2     0.900000E-01   1.00800           0
     11213 MEMB     72       OSM      H11T     HAL2     0.900000E-01   1.00800           0
     11214 MEMB     72       OSM      C12S     CTL2    -0.180000       12.0110           0
     11215 MEMB     72       OSM      H12S     HAL2     0.900000E-01   1.00800           0
     11216 MEMB     72       OSM      H12T     HAL2     0.900000E-01   1.00800           0
     11217 MEMB     72       OSM      C13S     CTL2    -0.180000       12.0110           0
     11218 MEMB     72       OSM      H13S     HAL2     0.900000E-01   1.00800           0
     11219 MEMB     72       OSM      H13T     HAL2     0.900000E-01   1.00800           0
     11220 MEMB     72       OSM      C14S     CTL2    -0.180000       12.0110           0
     11221 MEMB     72       OSM      H14S     HAL2     0.900000E-01   1.00800           0
     11222 MEMB     72       OSM      H14T     HAL2     0.900000E-01   1.00800           0
     11223 MEMB     72       OSM      C15S     CTL2    -0.180000       12.0110           0
     11224 MEMB     72       OSM      H15S     HAL2     0.900000E-01   1.00800           0
     11225 MEMB     72       OSM      H15T     HAL2     0.900000E-01   1.00800           0
     11226 MEMB     72       OSM      C16S     CTL2    -0.180000       12.0110           0
     11227 MEMB     72       OSM      H16S     HAL2     0.900000E-01   1.00800           0
     11228 MEMB     72       OSM      H16T     HAL2     0.900000E-01   1.00800           0
     11229 MEMB     72       OSM      C17S     CTL2    -0.180000       12.0110           0
     11230 MEMB     72       OSM      H17S     HAL2     0.900000E-01   1.00800           0
     11231 MEMB     72       OSM      H17T     HAL2     0.900000E-01   1.00800           0
     11232 MEMB     72       OSM      C18S     CTL3    -0.270000       12.0110           0
     11233 MEMB     72       OSM      H18S     HAL3     0.900000E-01   1.00800           0
     11234 MEMB     72       OSM      H18T     HAL3     0.900000E-01   1.00800           0
     11235 MEMB     72       OSM      H18U     HAL3     0.900000E-01   1.00800           0
     11236 MEMB     72       OSM      C1F      C        0.550000       12.0110           0
     11237 MEMB     72       OSM      OF       O       -0.600000       15.9994           0
     11238 MEMB     72       OSM      C2F      CTL2    -0.700000E-01   12.0110           0
     11239 MEMB     72       OSM      H2F      HAL2     0.600000E-01   1.00800           0
     11240 MEMB     72       OSM      H2G      HAL2     0.600000E-01   1.00800           0
     11241 MEMB     72       OSM      C3F      CTL2    -0.180000       12.0110           0
     11242 MEMB     72       OSM      H3F      HAL2     0.900000E-01   1.00800           0
     11243 MEMB     72       OSM      H3G      HAL2     0.900000E-01   1.00800           0
     11244 MEMB     72       OSM      C4F      CTL2    -0.180000       12.0110           0
     11245 MEMB     72       OSM      H4F      HAL2     0.900000E-01   1.00800           0
     11246 MEMB     72       OSM      H4G      HAL2     0.900000E-01   1.00800           0
     11247 MEMB     72       OSM      C5F      CTL2    -0.180000       12.0110           0
     11248 MEMB     72       OSM      H5F      HAL2     0.900000E-01   1.00800           0
     11249 MEMB     72       OSM      H5G      HAL2     0.900000E-01   1.00800           0
     11250 MEMB     72       OSM      C6F      CTL2    -0.180000       12.0110           0
     11251 MEMB     72       OSM      H6F      HAL2     0.900000E-01   1.00800           0
     11252 MEMB     72       OSM      H6G      HAL2     0.900000E-01   1.00800           0
     11253 MEMB     72       OSM      C7F      CTL2    -0.180000       12.0110           0
     11254 MEMB     72       OSM      H7F      HAL2     0.900000E-01   1.00800           0
     11255 MEMB     72       OSM      H7G      HAL2     0.900000E-01   1.00800           0
     11256 MEMB     72       OSM      C8F      CTL2    -0.180000       12.0110           0
     11257 MEMB     72       OSM      H8F      HAL2     0.900000E-01   1.00800           0
     11258 MEMB     72       OSM      H8G      HAL2     0.900000E-01   1.00800           0
     11259 MEMB     72       OSM      C9F      CEL1    -0.150000       12.0110           0
     11260 MEMB     72       OSM      H9F      HEL1     0.150000       1.00800           0
     11261 MEMB     72       OSM      C10F     CEL1    -0.150000       12.0110           0
     11262 MEMB     72       OSM      H10F     HEL1     0.150000       1.00800           0
     11263 MEMB     72       OSM      C11F     CTL2    -0.180000       12.0110           0
     11264 MEMB     72       OSM      H11F     HAL2     0.900000E-01   1.00800           0
     11265 MEMB     72       OSM      H11G     HAL2     0.900000E-01   1.00800           0
     11266 MEMB     72       OSM      C12F     CTL2    -0.180000       12.0110           0
     11267 MEMB     72       OSM      H12F     HAL2     0.900000E-01   1.00800           0
     11268 MEMB     72       OSM      H12G     HAL2     0.900000E-01   1.00800           0
     11269 MEMB     72       OSM      C13F     CTL2    -0.180000       12.0110           0
     11270 MEMB     72       OSM      H13F     HAL2     0.900000E-01   1.00800           0
     11271 MEMB     72       OSM      H13G     HAL2     0.900000E-01   1.00800           0
     11272 MEMB     72       OSM      C14F     CTL2    -0.180000       12.0110           0
     11273 MEMB     72       OSM      H14F     HAL2     0.900000E-01   1.00800           0
     11274 MEMB     72       OSM      H14G     HAL2     0.900000E-01   1.00800           0
     11275 MEMB     72       OSM      C15F     CTL2    -0.180000       12.0110           0
     11276 MEMB     72       OSM      H15F     HAL2     0.900000E-01   1.00800           0
     11277 MEMB     72       OSM      H15G     HAL2     0.900000E-01   1.00800           0
     11278 MEMB     72       OSM      C16F     CTL2    -0.180000       12.0110           0
     11279 MEMB     72       OSM      H16F     HAL2     0.900000E-01   1.00800           0
     11280 MEMB     72       OSM      H16G     HAL2     0.900000E-01   1.00800           0
     11281 MEMB     72       OSM      C17F     CTL2    -0.180000       12.0110           0
     11282 MEMB     72       OSM      H17F     HAL2     0.900000E-01   1.00800           0
     11283 MEMB     72       OSM      H17G     HAL2     0.900000E-01   1.00800           0
     11284 MEMB     72       OSM      C18F     CTL3    -0.270000       12.0110           0
     11285 MEMB     72       OSM      H18F     HAL3     0.900000E-01   1.00800           0
     11286 MEMB     72       OSM      H18G     HAL3     0.900000E-01   1.00800           0
     11287 MEMB     72       OSM      H18H     HAL3     0.900000E-01   1.00800           0
     11288 MEMB     73       OSM      N        NTL     -0.600000       14.0070           0
     11289 MEMB     73       OSM      C15      CTL5    -0.350000       12.0110           0
     11290 MEMB     73       OSM      H15A     HL       0.250000       1.00800           0
     11291 MEMB     73       OSM      H15B     HL       0.250000       1.00800           0
     11292 MEMB     73       OSM      H15C     HL       0.250000       1.00800           0
     11293 MEMB     73       OSM      C14      CTL5    -0.350000       12.0110           0
     11294 MEMB     73       OSM      H14A     HL       0.250000       1.00800           0
     11295 MEMB     73       OSM      H14B     HL       0.250000       1.00800           0
     11296 MEMB     73       OSM      H14C     HL       0.250000       1.00800           0
     11297 MEMB     73       OSM      C13      CTL5    -0.350000       12.0110           0
     11298 MEMB     73       OSM      H13A     HL       0.250000       1.00800           0
     11299 MEMB     73       OSM      H13B     HL       0.250000       1.00800           0
     11300 MEMB     73       OSM      H13C     HL       0.250000       1.00800           0
     11301 MEMB     73       OSM      C12      CTL2    -0.100000       12.0110           0
     11302 MEMB     73       OSM      H12A     HL       0.250000       1.00800           0
     11303 MEMB     73       OSM      H12B     HL       0.250000       1.00800           0
     11304 MEMB     73       OSM      C11      CTL2    -0.800000E-01   12.0110           0
     11305 MEMB     73       OSM      H11A     HAL2     0.900000E-01   1.00800           0
     11306 MEMB     73       OSM      H11B     HAL2     0.900000E-01   1.00800           0
     11307 MEMB     73       OSM      P        PL       1.500000       30.9740           0
     11308 MEMB     73       OSM      O13      O2L     -0.780000       15.9994           0
     11309 MEMB     73       OSM      O14      O2L     -0.780000       15.9994           0
     11310 MEMB     73       OSM      O11      OSLP    -0.570000       15.9994           0
     11311 MEMB     73       OSM      O12      OSLP    -0.570000       15.9994           0
     11312 MEMB     73       OSM      C1S      CTL2    -0.800000E-01   12.0110           0
     11313 MEMB     73       OSM      H1S      HAL2     0.900000E-01   1.00800           0
     11314 MEMB     73       OSM      H1T      HAL2     0.900000E-01   1.00800           0
     11315 MEMB     73       OSM      NF       NHL     -0.700000       14.0070           0
     11316 MEMB     73       OSM      HNF      H        0.350000       1.00800           0
     11317 MEMB     73       OSM      C2S      CTL1     0.300000       12.0110           0
     11318 MEMB     73       OSM      H2S      HAL1     0.500000E-01   1.00800           0
     11319 MEMB     73       OSM      C3S      CTO1     0.500000       12.0110           0
     11320 MEMB     73       OSM      H3S      HAL1    -0.110000       1.00800           0
     11321 MEMB     73       OSM      O3       OHL     -0.690000       15.9994           0
     11322 MEMB     73       OSM      HO3      HOL      0.300000       1.00800           0
     11323 MEMB     73       OSM      C4S      CEL3    -0.150000       12.0110           0
     11324 MEMB     73       OSM      H4S      HEL1     0.150000       1.00800           0
     11325 MEMB     73       OSM      C5S      CEL3    -0.150000       12.0110           0
     11326 MEMB     73       OSM      H5S      HEL1     0.150000       1.00800           0
     11327 MEMB     73       OSM      C6S      CTL2    -0.180000       12.0110           0
     11328 MEMB     73       OSM      H6S      HAL2     0.900000E-01   1.00800           0
     11329 MEMB     73       OSM      H6T      HAL2     0.900000E-01   1.00800           0
     11330 MEMB     73       OSM      C7S      CTL2    -0.180000       12.0110           0
     11331 MEMB     73       OSM      H7S      HAL2     0.900000E-01   1.00800           0
     11332 MEMB     73       OSM      H7T      HAL2     0.900000E-01   1.00800           0
     11333 MEMB     73       OSM      C8S      CTL2    -0.180000       12.0110           0
     11334 MEMB     73       OSM      H8S      HAL2     0.900000E-01   1.00800           0
     11335 MEMB     73       OSM      H8T      HAL2     0.900000E-01   1.00800           0
     11336 MEMB     73       OSM      C9S      CTL2    -0.180000       12.0110           0
     11337 MEMB     73       OSM      H9S      HAL2     0.900000E-01   1.00800           0
     11338 MEMB     73       OSM      H9T      HAL2     0.900000E-01   1.00800           0
     11339 MEMB     73       OSM      C10S     CTL2    -0.180000       12.0110           0
     11340 MEMB     73       OSM      H10S     HAL2     0.900000E-01   1.00800           0
     11341 MEMB     73       OSM      H10T     HAL2     0.900000E-01   1.00800           0
     11342 MEMB     73       OSM      C11S     CTL2    -0.180000       12.0110           0
     11343 MEMB     73       OSM      H11S     HAL2     0.900000E-01   1.00800           0
     11344 MEMB     73       OSM      H11T     HAL2     0.900000E-01   1.00800           0
     11345 MEMB     73       OSM      C12S     CTL2    -0.180000       12.0110           0
     11346 MEMB     73       OSM      H12S     HAL2     0.900000E-01   1.00800           0
     11347 MEMB     73       OSM      H12T     HAL2     0.900000E-01   1.00800           0
     11348 MEMB     73       OSM      C13S     CTL2    -0.180000       12.0110           0
     11349 MEMB     73       OSM      H13S     HAL2     0.900000E-01   1.00800           0
     11350 MEMB     73       OSM      H13T     HAL2     0.900000E-01   1.00800           0
     11351 MEMB     73       OSM      C14S     CTL2    -0.180000       12.0110           0
     11352 MEMB     73       OSM      H14S     HAL2     0.900000E-01   1.00800           0
     11353 MEMB     73       OSM      H14T     HAL2     0.900000E-01   1.00800           0
     11354 MEMB     73       OSM      C15S     CTL2    -0.180000       12.0110           0
     11355 MEMB     73       OSM      H15S     HAL2     0.900000E-01   1.00800           0
     11356 MEMB     73       OSM      H15T     HAL2     0.900000E-01   1.00800           0
     11357 MEMB     73       OSM      C16S     CTL2    -0.180000       12.0110           0
     11358 MEMB     73       OSM      H16S     HAL2     0.900000E-01   1.00800           0
     11359 MEMB     73       OSM      H16T     HAL2     0.900000E-01   1.00800           0
     11360 MEMB     73       OSM      C17S     CTL2    -0.180000       12.0110           0
     11361 MEMB     73       OSM      H17S     HAL2     0.900000E-01   1.00800           0
     11362 MEMB     73       OSM      H17T     HAL2     0.900000E-01   1.00800           0
     11363 MEMB     73       OSM      C18S     CTL3    -0.270000       12.0110           0
     11364 MEMB     73       OSM      H18S     HAL3     0.900000E-01   1.00800           0
     11365 MEMB     73       OSM      H18T     HAL3     0.900000E-01   1.00800           0
     11366 MEMB     73       OSM      H18U     HAL3     0.900000E-01   1.00800           0
     11367 MEMB     73       OSM      C1F      C        0.550000       12.0110           0
     11368 MEMB     73       OSM      OF       O       -0.600000       15.9994           0
     11369 MEMB     73       OSM      C2F      CTL2    -0.700000E-01   12.0110           0
     11370 MEMB     73       OSM      H2F      HAL2     0.600000E-01   1.00800           0
     11371 MEMB     73       OSM      H2G      HAL2     0.600000E-01   1.00800           0
     11372 MEMB     73       OSM      C3F      CTL2    -0.180000       12.0110           0
     11373 MEMB     73       OSM      H3F      HAL2     0.900000E-01   1.00800           0
     11374 MEMB     73       OSM      H3G      HAL2     0.900000E-01   1.00800           0
     11375 MEMB     73       OSM      C4F      CTL2    -0.180000       12.0110           0
     11376 MEMB     73       OSM      H4F      HAL2     0.900000E-01   1.00800           0
     11377 MEMB     73       OSM      H4G      HAL2     0.900000E-01   1.00800           0
     11378 MEMB     73       OSM      C5F      CTL2    -0.180000       12.0110           0
     11379 MEMB     73       OSM      H5F      HAL2     0.900000E-01   1.00800           0
     11380 MEMB     73       OSM      H5G      HAL2     0.900000E-01   1.00800           0
     11381 MEMB     73       OSM      C6F      CTL2    -0.180000       12.0110           0
     11382 MEMB     73       OSM      H6F      HAL2     0.900000E-01   1.00800           0
     11383 MEMB     73       OSM      H6G      HAL2     0.900000E-01   1.00800           0
     11384 MEMB     73       OSM      C7F      CTL2    -0.180000       12.0110           0
     11385 MEMB     73       OSM      H7F      HAL2     0.900000E-01   1.00800           0
     11386 MEMB     73       OSM      H7G      HAL2     0.900000E-01   1.00800           0
     11387 MEMB     73       OSM      C8F      CTL2    -0.180000       12.0110           0
     11388 MEMB     73       OSM      H8F      HAL2     0.900000E-01   1.00800           0
     11389 MEMB     73       OSM      H8G      HAL2     0.900000E-01   1.00800           0
     11390 MEMB     73       OSM      C9F      CEL1    -0.150000       12.0110           0
     11391 MEMB     73       OSM      H9F      HEL1     0.150000       1.00800           0
     11392 MEMB     73       OSM      C10F     CEL1    -0.150000       12.0110           0
     11393 MEMB     73       OSM      H10F     HEL1     0.150000       1.00800           0
     11394 MEMB     73       OSM      C11F     CTL2    -0.180000       12.0110           0
     11395 MEMB     73       OSM      H11F     HAL2     0.900000E-01   1.00800           0
     11396 MEMB     73       OSM      H11G     HAL2     0.900000E-01   1.00800           0
     11397 MEMB     73       OSM      C12F     CTL2    -0.180000       12.0110           0
     11398 MEMB     73       OSM      H12F     HAL2     0.900000E-01   1.00800           0
     11399 MEMB     73       OSM      H12G     HAL2     0.900000E-01   1.00800           0
     11400 MEMB     73       OSM      C13F     CTL2    -0.180000       12.0110           0
     11401 MEMB     73       OSM      H13F     HAL2     0.900000E-01   1.00800           0
     11402 MEMB     73       OSM      H13G     HAL2     0.900000E-01   1.00800           0
     11403 MEMB     73       OSM      C14F     CTL2    -0.180000       12.0110           0
     11404 MEMB     73       OSM      H14F     HAL2     0.900000E-01   1.00800           0
     11405 MEMB     73       OSM      H14G     HAL2     0.900000E-01   1.00800           0
     11406 MEMB     73       OSM      C15F     CTL2    -0.180000       12.0110           0
     11407 MEMB     73       OSM      H15F     HAL2     0.900000E-01   1.00800           0
     11408 MEMB     73       OSM      H15G     HAL2     0.900000E-01   1.00800           0
     11409 MEMB     73       OSM      C16F     CTL2    -0.180000       12.0110           0
     11410 MEMB     73       OSM      H16F     HAL2     0.900000E-01   1.00800           0
     11411 MEMB     73       OSM      H16G     HAL2     0.900000E-01   1.00800           0
     11412 MEMB     73       OSM      C17F     CTL2    -0.180000       12.0110           0
     11413 MEMB     73       OSM      H17F     HAL2     0.900000E-01   1.00800           0
     11414 MEMB     73       OSM      H17G     HAL2     0.900000E-01   1.00800           0
     11415 MEMB     73       OSM      C18F     CTL3    -0.270000       12.0110           0
     11416 MEMB     73       OSM      H18F     HAL3     0.900000E-01   1.00800           0
     11417 MEMB     73       OSM      H18G     HAL3     0.900000E-01   1.00800           0
     11418 MEMB     73       OSM      H18H     HAL3     0.900000E-01   1.00800           0
     11419 MEMB     74       OSM      N        NTL     -0.600000       14.0070           0
     11420 MEMB     74       OSM      C15      CTL5    -0.350000       12.0110           0
     11421 MEMB     74       OSM      H15A     HL       0.250000       1.00800           0
     11422 MEMB     74       OSM      H15B     HL       0.250000       1.00800           0
     11423 MEMB     74       OSM      H15C     HL       0.250000       1.00800           0
     11424 MEMB     74       OSM      C14      CTL5    -0.350000       12.0110           0
     11425 MEMB     74       OSM      H14A     HL       0.250000       1.00800           0
     11426 MEMB     74       OSM      H14B     HL       0.250000       1.00800           0
     11427 MEMB     74       OSM      H14C     HL       0.250000       1.00800           0
     11428 MEMB     74       OSM      C13      CTL5    -0.350000       12.0110           0
     11429 MEMB     74       OSM      H13A     HL       0.250000       1.00800           0
     11430 MEMB     74       OSM      H13B     HL       0.250000       1.00800           0
     11431 MEMB     74       OSM      H13C     HL       0.250000       1.00800           0
     11432 MEMB     74       OSM      C12      CTL2    -0.100000       12.0110           0
     11433 MEMB     74       OSM      H12A     HL       0.250000       1.00800           0
     11434 MEMB     74       OSM      H12B     HL       0.250000       1.00800           0
     11435 MEMB     74       OSM      C11      CTL2    -0.800000E-01   12.0110           0
     11436 MEMB     74       OSM      H11A     HAL2     0.900000E-01   1.00800           0
     11437 MEMB     74       OSM      H11B     HAL2     0.900000E-01   1.00800           0
     11438 MEMB     74       OSM      P        PL       1.500000       30.9740           0
     11439 MEMB     74       OSM      O13      O2L     -0.780000       15.9994           0
     11440 MEMB     74       OSM      O14      O2L     -0.780000       15.9994           0
     11441 MEMB     74       OSM      O11      OSLP    -0.570000       15.9994           0
     11442 MEMB     74       OSM      O12      OSLP    -0.570000       15.9994           0
     11443 MEMB     74       OSM      C1S      CTL2    -0.800000E-01   12.0110           0
     11444 MEMB     74       OSM      H1S      HAL2     0.900000E-01   1.00800           0
     11445 MEMB     74       OSM      H1T      HAL2     0.900000E-01   1.00800           0
     11446 MEMB     74       OSM      NF       NHL     -0.700000       14.0070           0
     11447 MEMB     74       OSM      HNF      H        0.350000       1.00800           0
     11448 MEMB     74       OSM      C2S      CTL1     0.300000       12.0110           0
     11449 MEMB     74       OSM      H2S      HAL1     0.500000E-01   1.00800           0
     11450 MEMB     74       OSM      C3S      CTO1     0.500000       12.0110           0
     11451 MEMB     74       OSM      H3S      HAL1    -0.110000       1.00800           0
     11452 MEMB     74       OSM      O3       OHL     -0.690000       15.9994           0
     11453 MEMB     74       OSM      HO3      HOL      0.300000       1.00800           0
     11454 MEMB     74       OSM      C4S      CEL3    -0.150000       12.0110           0
     11455 MEMB     74       OSM      H4S      HEL1     0.150000       1.00800           0
     11456 MEMB     74       OSM      C5S      CEL3    -0.150000       12.0110           0
     11457 MEMB     74       OSM      H5S      HEL1     0.150000       1.00800           0
     11458 MEMB     74       OSM      C6S      CTL2    -0.180000       12.0110           0
     11459 MEMB     74       OSM      H6S      HAL2     0.900000E-01   1.00800           0
     11460 MEMB     74       OSM      H6T      HAL2     0.900000E-01   1.00800           0
     11461 MEMB     74       OSM      C7S      CTL2    -0.180000       12.0110           0
     11462 MEMB     74       OSM      H7S      HAL2     0.900000E-01   1.00800           0
     11463 MEMB     74       OSM      H7T      HAL2     0.900000E-01   1.00800           0
     11464 MEMB     74       OSM      C8S      CTL2    -0.180000       12.0110           0
     11465 MEMB     74       OSM      H8S      HAL2     0.900000E-01   1.00800           0
     11466 MEMB     74       OSM      H8T      HAL2     0.900000E-01   1.00800           0
     11467 MEMB     74       OSM      C9S      CTL2    -0.180000       12.0110           0
     11468 MEMB     74       OSM      H9S      HAL2     0.900000E-01   1.00800           0
     11469 MEMB     74       OSM      H9T      HAL2     0.900000E-01   1.00800           0
     11470 MEMB     74       OSM      C10S     CTL2    -0.180000       12.0110           0
     11471 MEMB     74       OSM      H10S     HAL2     0.900000E-01   1.00800           0
     11472 MEMB     74       OSM      H10T     HAL2     0.900000E-01   1.00800           0
     11473 MEMB     74       OSM      C11S     CTL2    -0.180000       12.0110           0
     11474 MEMB     74       OSM      H11S     HAL2     0.900000E-01   1.00800           0
     11475 MEMB     74       OSM      H11T     HAL2     0.900000E-01   1.00800           0
     11476 MEMB     74       OSM      C12S     CTL2    -0.180000       12.0110           0
     11477 MEMB     74       OSM      H12S     HAL2     0.900000E-01   1.00800           0
     11478 MEMB     74       OSM      H12T     HAL2     0.900000E-01   1.00800           0
     11479 MEMB     74       OSM      C13S     CTL2    -0.180000       12.0110           0
     11480 MEMB     74       OSM      H13S     HAL2     0.900000E-01   1.00800           0
     11481 MEMB     74       OSM      H13T     HAL2     0.900000E-01   1.00800           0
     11482 MEMB     74       OSM      C14S     CTL2    -0.180000       12.0110           0
     11483 MEMB     74       OSM      H14S     HAL2     0.900000E-01   1.00800           0
     11484 MEMB     74       OSM      H14T     HAL2     0.900000E-01   1.00800           0
     11485 MEMB     74       OSM      C15S     CTL2    -0.180000       12.0110           0
     11486 MEMB     74       OSM      H15S     HAL2     0.900000E-01   1.00800           0
     11487 MEMB     74       OSM      H15T     HAL2     0.900000E-01   1.00800           0
     11488 MEMB     74       OSM      C16S     CTL2    -0.180000       12.0110           0
     11489 MEMB     74       OSM      H16S     HAL2     0.900000E-01   1.00800           0
     11490 MEMB     74       OSM      H16T     HAL2     0.900000E-01   1.00800           0
     11491 MEMB     74       OSM      C17S     CTL2    -0.180000       12.0110           0
     11492 MEMB     74       OSM      H17S     HAL2     0.900000E-01   1.00800           0
     11493 MEMB     74       OSM      H17T     HAL2     0.900000E-01   1.00800           0
     11494 MEMB     74       OSM      C18S     CTL3    -0.270000       12.0110           0
     11495 MEMB     74       OSM      H18S     HAL3     0.900000E-01   1.00800           0
     11496 MEMB     74       OSM      H18T     HAL3     0.900000E-01   1.00800           0
     11497 MEMB     74       OSM      H18U     HAL3     0.900000E-01   1.00800           0
     11498 MEMB     74       OSM      C1F      C        0.550000       12.0110           0
     11499 MEMB     74       OSM      OF       O       -0.600000       15.9994           0
     11500 MEMB     74       OSM      C2F      CTL2    -0.700000E-01   12.0110           0
     11501 MEMB     74       OSM      H2F      HAL2     0.600000E-01   1.00800           0
     11502 MEMB     74       OSM      H2G      HAL2     0.600000E-01   1.00800           0
     11503 MEMB     74       OSM      C3F      CTL2    -0.180000       12.0110           0
     11504 MEMB     74       OSM      H3F      HAL2     0.900000E-01   1.00800           0
     11505 MEMB     74       OSM      H3G      HAL2     0.900000E-01   1.00800           0
     11506 MEMB     74       OSM      C4F      CTL2    -0.180000       12.0110           0
     11507 MEMB     74       OSM      H4F      HAL2     0.900000E-01   1.00800           0
     11508 MEMB     74       OSM      H4G      HAL2     0.900000E-01   1.00800           0
     11509 MEMB     74       OSM      C5F      CTL2    -0.180000       12.0110           0
     11510 MEMB     74       OSM      H5F      HAL2     0.900000E-01   1.00800           0
     11511 MEMB     74       OSM      H5G      HAL2     0.900000E-01   1.00800           0
     11512 MEMB     74       OSM      C6F      CTL2    -0.180000       12.0110           0
     11513 MEMB     74       OSM      H6F      HAL2     0.900000E-01   1.00800           0
     11514 MEMB     74       OSM      H6G      HAL2     0.900000E-01   1.00800           0
     11515 MEMB     74       OSM      C7F      CTL2    -0.180000       12.0110           0
     11516 MEMB     74       OSM      H7F      HAL2     0.900000E-01   1.00800           0
     11517 MEMB     74       OSM      H7G      HAL2     0.900000E-01   1.00800           0
     11518 MEMB     74       OSM      C8F      CTL2    -0.180000       12.0110           0
     11519 MEMB     74       OSM      H8F      HAL2     0.900000E-01   1.00800           0
     11520 MEMB     74       OSM      H8G      HAL2     0.900000E-01   1.00800           0
     11521 MEMB     74       OSM      C9F      CEL1    -0.150000       12.0110           0
     11522 MEMB     74       OSM      H9F      HEL1     0.150000       1.00800           0
     11523 MEMB     74       OSM      C10F     CEL1    -0.150000       12.0110           0
     11524 MEMB     74       OSM      H10F     HEL1     0.150000       1.00800           0
     11525 MEMB     74       OSM      C11F     CTL2    -0.180000       12.0110           0
     11526 MEMB     74       OSM      H11F     HAL2     0.900000E-01   1.00800           0
     11527 MEMB     74       OSM      H11G     HAL2     0.900000E-01   1.00800           0
     11528 MEMB     74       OSM      C12F     CTL2    -0.180000       12.0110           0
     11529 MEMB     74       OSM      H12F     HAL2     0.900000E-01   1.00800           0
     11530 MEMB     74       OSM      H12G     HAL2     0.900000E-01   1.00800           0
     11531 MEMB     74       OSM      C13F     CTL2    -0.180000       12.0110           0
     11532 MEMB     74       OSM      H13F     HAL2     0.900000E-01   1.00800           0
     11533 MEMB     74       OSM      H13G     HAL2     0.900000E-01   1.00800           0
     11534 MEMB     74       OSM      C14F     CTL2    -0.180000       12.0110           0
     11535 MEMB     74       OSM      H14F     HAL2     0.900000E-01   1.00800           0
     11536 MEMB     74       OSM      H14G     HAL2     0.900000E-01   1.00800           0
     11537 MEMB     74       OSM      C15F     CTL2    -0.180000       12.0110           0
     11538 MEMB     74       OSM      H15F     HAL2     0.900000E-01   1.00800           0
     11539 MEMB     74       OSM      H15G     HAL2     0.900000E-01   1.00800           0
     11540 MEMB     74       OSM      C16F     CTL2    -0.180000       12.0110           0
     11541 MEMB     74       OSM      H16F     HAL2     0.900000E-01   1.00800           0
     11542 MEMB     74       OSM      H16G     HAL2     0.900000E-01   1.00800           0
     11543 MEMB     74       OSM      C17F     CTL2    -0.180000       12.0110           0
     11544 MEMB     74       OSM      H17F     HAL2     0.900000E-01   1.00800           0
     11545 MEMB     74       OSM      H17G     HAL2     0.900000E-01   1.00800           0
     11546 MEMB     74       OSM      C18F     CTL3    -0.270000       12.0110           0
     11547 MEMB     74       OSM      H18F     HAL3     0.900000E-01   1.00800           0
     11548 MEMB     74       OSM      H18G     HAL3     0.900000E-01   1.00800           0
     11549 MEMB     74       OSM      H18H     HAL3     0.900000E-01   1.00800           0
     11550 MEMB     77       OSM      N        NTL     -0.600000       14.0070           0
     11551 MEMB     77       OSM      C15      CTL5    -0.350000       12.0110           0
     11552 MEMB     77       OSM      H15A     HL       0.250000       1.00800           0
     11553 MEMB     77       OSM      H15B     HL       0.250000       1.00800           0
     11554 MEMB     77       OSM      H15C     HL       0.250000       1.00800           0
     11555 MEMB     77       OSM      C14      CTL5    -0.350000       12.0110           0
     11556 MEMB     77       OSM      H14A     HL       0.250000       1.00800           0
     11557 MEMB     77       OSM      H14B     HL       0.250000       1.00800           0
     11558 MEMB     77       OSM      H14C     HL       0.250000       1.00800           0
     11559 MEMB     77       OSM      C13      CTL5    -0.350000       12.0110           0
     11560 MEMB     77       OSM      H13A     HL       0.250000       1.00800           0
     11561 MEMB     77       OSM      H13B     HL       0.250000       1.00800           0
     11562 MEMB     77       OSM      H13C     HL       0.250000       1.00800           0
     11563 MEMB     77       OSM      C12      CTL2    -0.100000       12.0110           0
     11564 MEMB     77       OSM      H12A     HL       0.250000       1.00800           0
     11565 MEMB     77       OSM      H12B     HL       0.250000       1.00800           0
     11566 MEMB     77       OSM      C11      CTL2    -0.800000E-01   12.0110           0
     11567 MEMB     77       OSM      H11A     HAL2     0.900000E-01   1.00800           0
     11568 MEMB     77       OSM      H11B     HAL2     0.900000E-01   1.00800           0
     11569 MEMB     77       OSM      P        PL       1.500000       30.9740           0
     11570 MEMB     77       OSM      O13      O2L     -0.780000       15.9994           0
     11571 MEMB     77       OSM      O14      O2L     -0.780000       15.9994           0
     11572 MEMB     77       OSM      O11      OSLP    -0.570000       15.9994           0
     11573 MEMB     77       OSM      O12      OSLP    -0.570000       15.9994           0
     11574 MEMB     77       OSM      C1S      CTL2    -0.800000E-01   12.0110           0
     11575 MEMB     77       OSM      H1S      HAL2     0.900000E-01   1.00800           0
     11576 MEMB     77       OSM      H1T      HAL2     0.900000E-01   1.00800           0
     11577 MEMB     77       OSM      NF       NHL     -0.700000       14.0070           0
     11578 MEMB     77       OSM      HNF      H        0.350000       1.00800           0
     11579 MEMB     77       OSM      C2S      CTL1     0.300000       12.0110           0
     11580 MEMB     77       OSM      H2S      HAL1     0.500000E-01   1.00800           0
     11581 MEMB     77       OSM      C3S      CTO1     0.500000       12.0110           0
     11582 MEMB     77       OSM      H3S      HAL1    -0.110000       1.00800           0
     11583 MEMB     77       OSM      O3       OHL     -0.690000       15.9994           0
     11584 MEMB     77       OSM      HO3      HOL      0.300000       1.00800           0
     11585 MEMB     77       OSM      C4S      CEL3    -0.150000       12.0110           0
     11586 MEMB     77       OSM      H4S      HEL1     0.150000       1.00800           0
     11587 MEMB     77       OSM      C5S      CEL3    -0.150000       12.0110           0
     11588 MEMB     77       OSM      H5S      HEL1     0.150000       1.00800           0
     11589 MEMB     77       OSM      C6S      CTL2    -0.180000       12.0110           0
     11590 MEMB     77       OSM      H6S      HAL2     0.900000E-01   1.00800           0
     11591 MEMB     77       OSM      H6T      HAL2     0.900000E-01   1.00800           0
     11592 MEMB     77       OSM      C7S      CTL2    -0.180000       12.0110           0
     11593 MEMB     77       OSM      H7S      HAL2     0.900000E-01   1.00800           0
     11594 MEMB     77       OSM      H7T      HAL2     0.900000E-01   1.00800           0
     11595 MEMB     77       OSM      C8S      CTL2    -0.180000       12.0110           0
     11596 MEMB     77       OSM      H8S      HAL2     0.900000E-01   1.00800           0
     11597 MEMB     77       OSM      H8T      HAL2     0.900000E-01   1.00800           0
     11598 MEMB     77       OSM      C9S      CTL2    -0.180000       12.0110           0
     11599 MEMB     77       OSM      H9S      HAL2     0.900000E-01   1.00800           0
     11600 MEMB     77       OSM      H9T      HAL2     0.900000E-01   1.00800           0
     11601 MEMB     77       OSM      C10S     CTL2    -0.180000       12.0110           0
     11602 MEMB     77       OSM      H10S     HAL2     0.900000E-01   1.00800           0
     11603 MEMB     77       OSM      H10T     HAL2     0.900000E-01   1.00800           0
     11604 MEMB     77       OSM      C11S     CTL2    -0.180000       12.0110           0
     11605 MEMB     77       OSM      H11S     HAL2     0.900000E-01   1.00800           0
     11606 MEMB     77       OSM      H11T     HAL2     0.900000E-01   1.00800           0
     11607 MEMB     77       OSM      C12S     CTL2    -0.180000       12.0110           0
     11608 MEMB     77       OSM      H12S     HAL2     0.900000E-01   1.00800           0
     11609 MEMB     77       OSM      H12T     HAL2     0.900000E-01   1.00800           0
     11610 MEMB     77       OSM      C13S     CTL2    -0.180000       12.0110           0
     11611 MEMB     77       OSM      H13S     HAL2     0.900000E-01   1.00800           0
     11612 MEMB     77       OSM      H13T     HAL2     0.900000E-01   1.00800           0
     11613 MEMB     77       OSM      C14S     CTL2    -0.180000       12.0110           0
     11614 MEMB     77       OSM      H14S     HAL2     0.900000E-01   1.00800           0
     11615 MEMB     77       OSM      H14T     HAL2     0.900000E-01   1.00800           0
     11616 MEMB     77       OSM      C15S     CTL2    -0.180000       12.0110           0
     11617 MEMB     77       OSM      H15S     HAL2     0.900000E-01   1.00800           0
     11618 MEMB     77       OSM      H15T     HAL2     0.900000E-01   1.00800           0
     11619 MEMB     77       OSM      C16S     CTL2    -0.180000       12.0110           0
     11620 MEMB     77       OSM      H16S     HAL2     0.900000E-01   1.00800           0
     11621 MEMB     77       OSM      H16T     HAL2     0.900000E-01   1.00800           0
     11622 MEMB     77       OSM      C17S     CTL2    -0.180000       12.0110           0
     11623 MEMB     77       OSM      H17S     HAL2     0.900000E-01   1.00800           0
     11624 MEMB     77       OSM      H17T     HAL2     0.900000E-01   1.00800           0
     11625 MEMB     77       OSM      C18S     CTL3    -0.270000       12.0110           0
     11626 MEMB     77       OSM      H18S     HAL3     0.900000E-01   1.00800           0
     11627 MEMB     77       OSM      H18T     HAL3     0.900000E-01   1.00800           0
     11628 MEMB     77       OSM      H18U     HAL3     0.900000E-01   1.00800           0
     11629 MEMB     77       OSM      C1F      C        0.550000       12.0110           0
     11630 MEMB     77       OSM      OF       O       -0.600000       15.9994           0
     11631 MEMB     77       OSM      C2F      CTL2    -0.700000E-01   12.0110           0
     11632 MEMB     77       OSM      H2F      HAL2     0.600000E-01   1.00800           0
     11633 MEMB     77       OSM      H2G      HAL2     0.600000E-01   1.00800           0
     11634 MEMB     77       OSM      C3F      CTL2    -0.180000       12.0110           0
     11635 MEMB     77       OSM      H3F      HAL2     0.900000E-01   1.00800           0
     11636 MEMB     77       OSM      H3G      HAL2     0.900000E-01   1.00800           0
     11637 MEMB     77       OSM      C4F      CTL2    -0.180000       12.0110           0
     11638 MEMB     77       OSM      H4F      HAL2     0.900000E-01   1.00800           0
     11639 MEMB     77       OSM      H4G      HAL2     0.900000E-01   1.00800           0
     11640 MEMB     77       OSM      C5F      CTL2    -0.180000       12.0110           0
     11641 MEMB     77       OSM      H5F      HAL2     0.900000E-01   1.00800           0
     11642 MEMB     77       OSM      H5G      HAL2     0.900000E-01   1.00800           0
     11643 MEMB     77       OSM      C6F      CTL2    -0.180000       12.0110           0
     11644 MEMB     77       OSM      H6F      HAL2     0.900000E-01   1.00800           0
     11645 MEMB     77       OSM      H6G      HAL2     0.900000E-01   1.00800           0
     11646 MEMB     77       OSM      C7F      CTL2    -0.180000       12.0110           0
     11647 MEMB     77       OSM      H7F      HAL2     0.900000E-01   1.00800           0
     11648 MEMB     77       OSM      H7G      HAL2     0.900000E-01   1.00800           0
     11649 MEMB     77       OSM      C8F      CTL2    -0.180000       12.0110           0
     11650 MEMB     77       OSM      H8F      HAL2     0.900000E-01   1.00800           0
     11651 MEMB     77       OSM      H8G      HAL2     0.900000E-01   1.00800           0
     11652 MEMB     77       OSM      C9F      CEL1    -0.150000       12.0110           0
     11653 MEMB     77       OSM      H9F      HEL1     0.150000       1.00800           0
     11654 MEMB     77       OSM      C10F     CEL1    -0.150000       12.0110           0
     11655 MEMB     77       OSM      H10F     HEL1     0.150000       1.00800           0
     11656 MEMB     77       OSM      C11F     CTL2    -0.180000       12.0110           0
     11657 MEMB     77       OSM      H11F     HAL2     0.900000E-01   1.00800           0
     11658 MEMB     77       OSM      H11G     HAL2     0.900000E-01   1.00800           0
     11659 MEMB     77       OSM      C12F     CTL2    -0.180000       12.0110           0
     11660 MEMB     77       OSM      H12F     HAL2     0.900000E-01   1.00800           0
     11661 MEMB     77       OSM      H12G     HAL2     0.900000E-01   1.00800           0
     11662 MEMB     77       OSM      C13F     CTL2    -0.180000       12.0110           0
     11663 MEMB     77       OSM      H13F     HAL2     0.900000E-01   1.00800           0
     11664 MEMB     77       OSM      H13G     HAL2     0.900000E-01   1.00800           0
     11665 MEMB     77       OSM      C14F     CTL2    -0.180000       12.0110           0
     11666 MEMB     77       OSM      H14F     HAL2     0.900000E-01   1.00800           0
     11667 MEMB     77       OSM      H14G     HAL2     0.900000E-01   1.00800           0
     11668 MEMB     77       OSM      C15F     CTL2    -0.180000       12.0110           0
     11669 MEMB     77       OSM      H15F     HAL2     0.900000E-01   1.00800           0
     11670 MEMB     77       OSM      H15G     HAL2     0.900000E-01   1.00800           0
     11671 MEMB     77       OSM      C16F     CTL2    -0.180000       12.0110           0
     11672 MEMB     77       OSM      H16F     HAL2     0.900000E-01   1.00800           0
     11673 MEMB     77       OSM      H16G     HAL2     0.900000E-01   1.00800           0
     11674 MEMB     77       OSM      C17F     CTL2    -0.180000       12.0110           0
     11675 MEMB     77       OSM      H17F     HAL2     0.900000E-01   1.00800           0
     11676 MEMB     77       OSM      H17G     HAL2     0.900000E-01   1.00800           0
     11677 MEMB     77       OSM      C18F     CTL3    -0.270000       12.0110           0
     11678 MEMB     77       OSM      H18F     HAL3     0.900000E-01   1.00800           0
     11679 MEMB     77       OSM      H18G     HAL3     0.900000E-01   1.00800           0
     11680 MEMB     77       OSM      H18H     HAL3     0.900000E-01   1.00800           0
     11681 MEMB     84       OSM      N        NTL     -0.600000       14.0070           0
     11682 MEMB     84       OSM      C15      CTL5    -0.350000       12.0110           0
     11683 MEMB     84       OSM      H15A     HL       0.250000       1.00800           0
     11684 MEMB     84       OSM      H15B     HL       0.250000       1.00800           0
     11685 MEMB     84       OSM      H15C     HL       0.250000       1.00800           0
     11686 MEMB     84       OSM      C14      CTL5    -0.350000       12.0110           0
     11687 MEMB     84       OSM      H14A     HL       0.250000       1.00800           0
     11688 MEMB     84       OSM      H14B     HL       0.250000       1.00800           0
     11689 MEMB     84       OSM      H14C     HL       0.250000       1.00800           0
     11690 MEMB     84       OSM      C13      CTL5    -0.350000       12.0110           0
     11691 MEMB     84       OSM      H13A     HL       0.250000       1.00800           0
     11692 MEMB     84       OSM      H13B     HL       0.250000       1.00800           0
     11693 MEMB     84       OSM      H13C     HL       0.250000       1.00800           0
     11694 MEMB     84       OSM      C12      CTL2    -0.100000       12.0110           0
     11695 MEMB     84       OSM      H12A     HL       0.250000       1.00800           0
     11696 MEMB     84       OSM      H12B     HL       0.250000       1.00800           0
     11697 MEMB     84       OSM      C11      CTL2    -0.800000E-01   12.0110           0
     11698 MEMB     84       OSM      H11A     HAL2     0.900000E-01   1.00800           0
     11699 MEMB     84       OSM      H11B     HAL2     0.900000E-01   1.00800           0
     11700 MEMB     84       OSM      P        PL       1.500000       30.9740           0
     11701 MEMB     84       OSM      O13      O2L     -0.780000       15.9994           0
     11702 MEMB     84       OSM      O14      O2L     -0.780000       15.9994           0
     11703 MEMB     84       OSM      O11      OSLP    -0.570000       15.9994           0
     11704 MEMB     84       OSM      O12      OSLP    -0.570000       15.9994           0
     11705 MEMB     84       OSM      C1S      CTL2    -0.800000E-01   12.0110           0
     11706 MEMB     84       OSM      H1S      HAL2     0.900000E-01   1.00800           0
     11707 MEMB     84       OSM      H1T      HAL2     0.900000E-01   1.00800           0
     11708 MEMB     84       OSM      NF       NHL     -0.700000       14.0070           0
     11709 MEMB     84       OSM      HNF      H        0.350000       1.00800           0
     11710 MEMB     84       OSM      C2S      CTL1     0.300000       12.0110           0
     11711 MEMB     84       OSM      H2S      HAL1     0.500000E-01   1.00800           0
     11712 MEMB     84       OSM      C3S      CTO1     0.500000       12.0110           0
     11713 MEMB     84       OSM      H3S      HAL1    -0.110000       1.00800           0
     11714 MEMB     84       OSM      O3       OHL     -0.690000       15.9994           0
     11715 MEMB     84       OSM      HO3      HOL      0.300000       1.00800           0
     11716 MEMB     84       OSM      C4S      CEL3    -0.150000       12.0110           0
     11717 MEMB     84       OSM      H4S      HEL1     0.150000       1.00800           0
     11718 MEMB     84       OSM      C5S      CEL3    -0.150000       12.0110           0
     11719 MEMB     84       OSM      H5S      HEL1     0.150000       1.00800           0
     11720 MEMB     84       OSM      C6S      CTL2    -0.180000       12.0110           0
     11721 MEMB     84       OSM      H6S      HAL2     0.900000E-01   1.00800           0
     11722 MEMB     84       OSM      H6T      HAL2     0.900000E-01   1.00800           0
     11723 MEMB     84       OSM      C7S      CTL2    -0.180000       12.0110           0
     11724 MEMB     84       OSM      H7S      HAL2     0.900000E-01   1.00800           0
     11725 MEMB     84       OSM      H7T      HAL2     0.900000E-01   1.00800           0
     11726 MEMB     84       OSM      C8S      CTL2    -0.180000       12.0110           0
     11727 MEMB     84       OSM      H8S      HAL2     0.900000E-01   1.00800           0
     11728 MEMB     84       OSM      H8T      HAL2     0.900000E-01   1.00800           0
     11729 MEMB     84       OSM      C9S      CTL2    -0.180000       12.0110           0
     11730 MEMB     84       OSM      H9S      HAL2     0.900000E-01   1.00800           0
     11731 MEMB     84       OSM      H9T      HAL2     0.900000E-01   1.00800           0
     11732 MEMB     84       OSM      C10S     CTL2    -0.180000       12.0110           0
     11733 MEMB     84       OSM      H10S     HAL2     0.900000E-01   1.00800           0
     11734 MEMB     84       OSM      H10T     HAL2     0.900000E-01   1.00800           0
     11735 MEMB     84       OSM      C11S     CTL2    -0.180000       12.0110           0
     11736 MEMB     84       OSM      H11S     HAL2     0.900000E-01   1.00800           0
     11737 MEMB     84       OSM      H11T     HAL2     0.900000E-01   1.00800           0
     11738 MEMB     84       OSM      C12S     CTL2    -0.180000       12.0110           0
     11739 MEMB     84       OSM      H12S     HAL2     0.900000E-01   1.00800           0
     11740 MEMB     84       OSM      H12T     HAL2     0.900000E-01   1.00800           0
     11741 MEMB     84       OSM      C13S     CTL2    -0.180000       12.0110           0
     11742 MEMB     84       OSM      H13S     HAL2     0.900000E-01   1.00800           0
     11743 MEMB     84       OSM      H13T     HAL2     0.900000E-01   1.00800           0
     11744 MEMB     84       OSM      C14S     CTL2    -0.180000       12.0110           0
     11745 MEMB     84       OSM      H14S     HAL2     0.900000E-01   1.00800           0
     11746 MEMB     84       OSM      H14T     HAL2     0.900000E-01   1.00800           0
     11747 MEMB     84       OSM      C15S     CTL2    -0.180000       12.0110           0
     11748 MEMB     84       OSM      H15S     HAL2     0.900000E-01   1.00800           0
     11749 MEMB     84       OSM      H15T     HAL2     0.900000E-01   1.00800           0
     11750 MEMB     84       OSM      C16S     CTL2    -0.180000       12.0110           0
     11751 MEMB     84       OSM      H16S     HAL2     0.900000E-01   1.00800           0
     11752 MEMB     84       OSM      H16T     HAL2     0.900000E-01   1.00800           0
     11753 MEMB     84       OSM      C17S     CTL2    -0.180000       12.0110           0
     11754 MEMB     84       OSM      H17S     HAL2     0.900000E-01   1.00800           0
     11755 MEMB     84       OSM      H17T     HAL2     0.900000E-01   1.00800           0
     11756 MEMB     84       OSM      C18S     CTL3    -0.270000       12.0110           0
     11757 MEMB     84       OSM      H18S     HAL3     0.900000E-01   1.00800           0
     11758 MEMB     84       OSM      H18T     HAL3     0.900000E-01   1.00800           0
     11759 MEMB     84       OSM      H18U     HAL3     0.900000E-01   1.00800           0
     11760 MEMB     84       OSM      C1F      C        0.550000       12.0110           0
     11761 MEMB     84       OSM      OF       O       -0.600000       15.9994           0
     11762 MEMB     84       OSM      C2F      CTL2    -0.700000E-01   12.0110           0
     11763 MEMB     84       OSM      H2F      HAL2     0.600000E-01   1.00800           0
     11764 MEMB     84       OSM      H2G      HAL2     0.600000E-01   1.00800           0
     11765 MEMB     84       OSM      C3F      CTL2    -0.180000       12.0110           0
     11766 MEMB     84       OSM      H3F      HAL2     0.900000E-01   1.00800           0
     11767 MEMB     84       OSM      H3G      HAL2     0.900000E-01   1.00800           0
     11768 MEMB     84       OSM      C4F      CTL2    -0.180000       12.0110           0
     11769 MEMB     84       OSM      H4F      HAL2     0.900000E-01   1.00800           0
     11770 MEMB     84       OSM      H4G      HAL2     0.900000E-01   1.00800           0
     11771 MEMB     84       OSM      C5F      CTL2    -0.180000       12.0110           0
     11772 MEMB     84       OSM      H5F      HAL2     0.900000E-01   1.00800           0
     11773 MEMB     84       OSM      H5G      HAL2     0.900000E-01   1.00800           0
     11774 MEMB     84       OSM      C6F      CTL2    -0.180000       12.0110           0
     11775 MEMB     84       OSM      H6F      HAL2     0.900000E-01   1.00800           0
     11776 MEMB     84       OSM      H6G      HAL2     0.900000E-01   1.00800           0
     11777 MEMB     84       OSM      C7F      CTL2    -0.180000       12.0110           0
     11778 MEMB     84       OSM      H7F      HAL2     0.900000E-01   1.00800           0
     11779 MEMB     84       OSM      H7G      HAL2     0.900000E-01   1.00800           0
     11780 MEMB     84       OSM      C8F      CTL2    -0.180000       12.0110           0
     11781 MEMB     84       OSM      H8F      HAL2     0.900000E-01   1.00800           0
     11782 MEMB     84       OSM      H8G      HAL2     0.900000E-01   1.00800           0
     11783 MEMB     84       OSM      C9F      CEL1    -0.150000       12.0110           0
     11784 MEMB     84       OSM      H9F      HEL1     0.150000       1.00800           0
     11785 MEMB     84       OSM      C10F     CEL1    -0.150000       12.0110           0
     11786 MEMB     84       OSM      H10F     HEL1     0.150000       1.00800           0
     11787 MEMB     84       OSM      C11F     CTL2    -0.180000       12.0110           0
     11788 MEMB     84       OSM      H11F     HAL2     0.900000E-01   1.00800           0
     11789 MEMB     84       OSM      H11G     HAL2     0.900000E-01   1.00800           0
     11790 MEMB     84       OSM      C12F     CTL2    -0.180000       12.0110           0
     11791 MEMB     84       OSM      H12F     HAL2     0.900000E-01   1.00800           0
     11792 MEMB     84       OSM      H12G     HAL2     0.900000E-01   1.00800           0
     11793 MEMB     84       OSM      C13F     CTL2    -0.180000       12.0110           0
     11794 MEMB     84       OSM      H13F     HAL2     0.900000E-01   1.00800           0
     11795 MEMB     84       OSM      H13G     HAL2     0.900000E-01   1.00800           0
     11796 MEMB     84       OSM      C14F     CTL2    -0.180000       12.0110           0
     11797 MEMB     84       OSM      H14F     HAL2     0.900000E-01   1.00800           0
     11798 MEMB     84       OSM      H14G     HAL2     0.900000E-01   1.00800           0
     11799 MEMB     84       OSM      C15F     CTL2    -0.180000       12.0110           0
     11800 MEMB     84       OSM      H15F     HAL2     0.900000E-01   1.00800           0
     11801 MEMB     84       OSM      H15G     HAL2     0.900000E-01   1.00800           0
     11802 MEMB     84       OSM      C16F     CTL2    -0.180000       12.0110           0
     11803 MEMB     84       OSM      H16F     HAL2     0.900000E-01   1.00800           0
     11804 MEMB     84       OSM      H16G     HAL2     0.900000E-01   1.00800           0
     11805 MEMB     84       OSM      C17F     CTL2    -0.180000       12.0110           0
     11806 MEMB     84       OSM      H17F     HAL2     0.900000E-01   1.00800           0
     11807 MEMB     84       OSM      H17G     HAL2     0.900000E-01   1.00800           0
     11808 MEMB     84       OSM      C18F     CTL3    -0.270000       12.0110           0
     11809 MEMB     84       OSM      H18F     HAL3     0.900000E-01   1.00800           0
     11810 MEMB     84       OSM      H18G     HAL3     0.900000E-01   1.00800           0
     11811 MEMB     84       OSM      H18H     HAL3     0.900000E-01   1.00800           0
     11812 MEMB     96       OSM      N        NTL     -0.600000       14.0070           0
     11813 MEMB     96       OSM      C15      CTL5    -0.350000       12.0110           0
     11814 MEMB     96       OSM      H15A     HL       0.250000       1.00800           0
     11815 MEMB     96       OSM      H15B     HL       0.250000       1.00800           0
     11816 MEMB     96       OSM      H15C     HL       0.250000       1.00800           0
     11817 MEMB     96       OSM      C14      CTL5    -0.350000       12.0110           0
     11818 MEMB     96       OSM      H14A     HL       0.250000       1.00800           0
     11819 MEMB     96       OSM      H14B     HL       0.250000       1.00800           0
     11820 MEMB     96       OSM      H14C     HL       0.250000       1.00800           0
     11821 MEMB     96       OSM      C13      CTL5    -0.350000       12.0110           0
     11822 MEMB     96       OSM      H13A     HL       0.250000       1.00800           0
     11823 MEMB     96       OSM      H13B     HL       0.250000       1.00800           0
     11824 MEMB     96       OSM      H13C     HL       0.250000       1.00800           0
     11825 MEMB     96       OSM      C12      CTL2    -0.100000       12.0110           0
     11826 MEMB     96       OSM      H12A     HL       0.250000       1.00800           0
     11827 MEMB     96       OSM      H12B     HL       0.250000       1.00800           0
     11828 MEMB     96       OSM      C11      CTL2    -0.800000E-01   12.0110           0
     11829 MEMB     96       OSM      H11A     HAL2     0.900000E-01   1.00800           0
     11830 MEMB     96       OSM      H11B     HAL2     0.900000E-01   1.00800           0
     11831 MEMB     96       OSM      P        PL       1.500000       30.9740           0
     11832 MEMB     96       OSM      O13      O2L     -0.780000       15.9994           0
     11833 MEMB     96       OSM      O14      O2L     -0.780000       15.9994           0
     11834 MEMB     96       OSM      O11      OSLP    -0.570000       15.9994           0
     11835 MEMB     96       OSM      O12      OSLP    -0.570000       15.9994           0
     11836 MEMB     96       OSM      C1S      CTL2    -0.800000E-01   12.0110           0
     11837 MEMB     96       OSM      H1S      HAL2     0.900000E-01   1.00800           0
     11838 MEMB     96       OSM      H1T      HAL2     0.900000E-01   1.00800           0
     11839 MEMB     96       OSM      NF       NHL     -0.700000       14.0070           0
     11840 MEMB     96       OSM      HNF      H        0.350000       1.00800           0
     11841 MEMB     96       OSM      C2S      CTL1     0.300000       12.0110           0
     11842 MEMB     96       OSM      H2S      HAL1     0.500000E-01   1.00800           0
     11843 MEMB     96       OSM      C3S      CTO1     0.500000       12.0110           0
     11844 MEMB     96       OSM      H3S      HAL1    -0.110000       1.00800           0
     11845 MEMB     96       OSM      O3       OHL     -0.690000       15.9994           0
     11846 MEMB     96       OSM      HO3      HOL      0.300000       1.00800           0
     11847 MEMB     96       OSM      C4S      CEL3    -0.150000       12.0110           0
     11848 MEMB     96       OSM      H4S      HEL1     0.150000       1.00800           0
     11849 MEMB     96       OSM      C5S      CEL3    -0.150000       12.0110           0
     11850 MEMB     96       OSM      H5S      HEL1     0.150000       1.00800           0
     11851 MEMB     96       OSM      C6S      CTL2    -0.180000       12.0110           0
     11852 MEMB     96       OSM      H6S      HAL2     0.900000E-01   1.00800           0
     11853 MEMB     96       OSM      H6T      HAL2     0.900000E-01   1.00800           0
     11854 MEMB     96       OSM      C7S      CTL2    -0.180000       12.0110           0
     11855 MEMB     96       OSM      H7S      HAL2     0.900000E-01   1.00800           0
     11856 MEMB     96       OSM      H7T      HAL2     0.900000E-01   1.00800           0
     11857 MEMB     96       OSM      C8S      CTL2    -0.180000       12.0110           0
     11858 MEMB     96       OSM      H8S      HAL2     0.900000E-01   1.00800           0
     11859 MEMB     96       OSM      H8T      HAL2     0.900000E-01   1.00800           0
     11860 MEMB     96       OSM      C9S      CTL2    -0.180000       12.0110           0
     11861 MEMB     96       OSM      H9S      HAL2     0.900000E-01   1.00800           0
     11862 MEMB     96       OSM      H9T      HAL2     0.900000E-01   1.00800           0
     11863 MEMB     96       OSM      C10S     CTL2    -0.180000       12.0110           0
     11864 MEMB     96       OSM      H10S     HAL2     0.900000E-01   1.00800           0
     11865 MEMB     96       OSM      H10T     HAL2     0.900000E-01   1.00800           0
     11866 MEMB     96       OSM      C11S     CTL2    -0.180000       12.0110           0
     11867 MEMB     96       OSM      H11S     HAL2     0.900000E-01   1.00800           0
     11868 MEMB     96       OSM      H11T     HAL2     0.900000E-01   1.00800           0
     11869 MEMB     96       OSM      C12S     CTL2    -0.180000       12.0110           0
     11870 MEMB     96       OSM      H12S     HAL2     0.900000E-01   1.00800           0
     11871 MEMB     96       OSM      H12T     HAL2     0.900000E-01   1.00800           0
     11872 MEMB     96       OSM      C13S     CTL2    -0.180000       12.0110           0
     11873 MEMB     96       OSM      H13S     HAL2     0.900000E-01   1.00800           0
     11874 MEMB     96       OSM      H13T     HAL2     0.900000E-01   1.00800           0
     11875 MEMB     96       OSM      C14S     CTL2    -0.180000       12.0110           0
     11876 MEMB     96       OSM      H14S     HAL2     0.900000E-01   1.00800           0
     11877 MEMB     96       OSM      H14T     HAL2     0.900000E-01   1.00800           0
     11878 MEMB     96       OSM      C15S     CTL2    -0.180000       12.0110           0
     11879 MEMB     96       OSM      H15S     HAL2     0.900000E-01   1.00800           0
     11880 MEMB     96       OSM      H15T     HAL2     0.900000E-01   1.00800           0
     11881 MEMB     96       OSM      C16S     CTL2    -0.180000       12.0110           0
     11882 MEMB     96       OSM      H16S     HAL2     0.900000E-01   1.00800           0
     11883 MEMB     96       OSM      H16T     HAL2     0.900000E-01   1.00800           0
     11884 MEMB     96       OSM      C17S     CTL2    -0.180000       12.0110           0
     11885 MEMB     96       OSM      H17S     HAL2     0.900000E-01   1.00800           0
     11886 MEMB     96       OSM      H17T     HAL2     0.900000E-01   1.00800           0
     11887 MEMB     96       OSM      C18S     CTL3    -0.270000       12.0110           0
     11888 MEMB     96       OSM      H18S     HAL3     0.900000E-01   1.00800           0
     11889 MEMB     96       OSM      H18T     HAL3     0.900000E-01   1.00800           0
     11890 MEMB     96       OSM      H18U     HAL3     0.900000E-01   1.00800           0
     11891 MEMB     96       OSM      C1F      C        0.550000       12.0110           0
     11892 MEMB     96       OSM      OF       O       -0.600000       15.9994           0
     11893 MEMB     96       OSM      C2F      CTL2    -0.700000E-01   12.0110           0
     11894 MEMB     96       OSM      H2F      HAL2     0.600000E-01   1.00800           0
     11895 MEMB     96       OSM      H2G      HAL2     0.600000E-01   1.00800           0
     11896 MEMB     96       OSM      C3F      CTL2    -0.180000       12.0110           0
     11897 MEMB     96       OSM      H3F      HAL2     0.900000E-01   1.00800           0
     11898 MEMB     96       OSM      H3G      HAL2     0.900000E-01   1.00800           0
     11899 MEMB     96       OSM      C4F      CTL2    -0.180000       12.0110           0
     11900 MEMB     96       OSM      H4F      HAL2     0.900000E-01   1.00800           0
     11901 MEMB     96       OSM      H4G      HAL2     0.900000E-01   1.00800           0
     11902 MEMB     96       OSM      C5F      CTL2    -0.180000       12.0110           0
     11903 MEMB     96       OSM      H5F      HAL2     0.900000E-01   1.00800           0
     11904 MEMB     96       OSM      H5G      HAL2     0.900000E-01   1.00800           0
     11905 MEMB     96       OSM      C6F      CTL2    -0.180000       12.0110           0
     11906 MEMB     96       OSM      H6F      HAL2     0.900000E-01   1.00800           0
     11907 MEMB     96       OSM      H6G      HAL2     0.900000E-01   1.00800           0
     11908 MEMB     96       OSM      C7F      CTL2    -0.180000       12.0110           0
     11909 MEMB     96       OSM      H7F      HAL2     0.900000E-01   1.00800           0
     11910 MEMB     96       OSM      H7G      HAL2     0.900000E-01   1.00800           0
     11911 MEMB     96       OSM      C8F      CTL2    -0.180000       12.0110           0
     11912 MEMB     96       OSM      H8F      HAL2     0.900000E-01   1.00800           0
     11913 MEMB     96       OSM      H8G      HAL2     0.900000E-01   1.00800           0
     11914 MEMB     96       OSM      C9F      CEL1    -0.150000       12.0110           0
     11915 MEMB     96       OSM      H9F      HEL1     0.150000       1.00800           0
     11916 MEMB     96       OSM      C10F     CEL1    -0.150000       12.0110           0
     11917 MEMB     96       OSM      H10F     HEL1     0.150000       1.00800           0
     11918 MEMB     96       OSM      C11F     CTL2    -0.180000       12.0110           0
     11919 MEMB     96       OSM      H11F     HAL2     0.900000E-01   1.00800           0
     11920 MEMB     96       OSM      H11G     HAL2     0.900000E-01   1.00800           0
     11921 MEMB     96       OSM      C12F     CTL2    -0.180000       12.0110           0
     11922 MEMB     96       OSM      H12F     HAL2     0.900000E-01   1.00800           0
     11923 MEMB     96       OSM      H12G     HAL2     0.900000E-01   1.00800           0
     11924 MEMB     96       OSM      C13F     CTL2    -0.180000       12.0110           0
     11925 MEMB     96       OSM      H13F     HAL2     0.900000E-01   1.00800           0
     11926 MEMB     96       OSM      H13G     HAL2     0.900000E-01   1.00800           0
     11927 MEMB     96       OSM      C14F     CTL2    -0.180000       12.0110           0
     11928 MEMB     96       OSM      H14F     HAL2     0.900000E-01   1.00800           0
     11929 MEMB     96       OSM      H14G     HAL2     0.900000E-01   1.00800           0
     11930 MEMB     96       OSM      C15F     CTL2    -0.180000       12.0110           0
     11931 MEMB     96       OSM      H15F     HAL2     0.900000E-01   1.00800           0
     11932 MEMB     96       OSM      H15G     HAL2     0.900000E-01   1.00800           0
     11933 MEMB     96       OSM      C16F     CTL2    -0.180000       12.0110           0
     11934 MEMB     96       OSM      H16F     HAL2     0.900000E-01   1.00800           0
     11935 MEMB     96       OSM      H16G     HAL2     0.900000E-01   1.00800           0
     11936 MEMB     96       OSM      C17F     CTL2    -0.180000       12.0110           0
     11937 MEMB     96       OSM      H17F     HAL2     0.900000E-01   1.00800           0
     11938 MEMB     96       OSM      H17G     HAL2     0.900000E-01   1.00800           0
     11939 MEMB     96       OSM      C18F     CTL3    -0.270000       12.0110           0
     11940 MEMB     96       OSM      H18F     HAL3     0.900000E-01   1.00800           0
     11941 MEMB     96       OSM      H18G     HAL3     0.900000E-01   1.00800           0
     11942 MEMB     96       OSM      H18H     HAL3     0.900000E-01   1.00800           0
     11943 MEMB     101      OSM      N        NTL     -0.600000       14.0070           0
     11944 MEMB     101      OSM      C15      CTL5    -0.350000       12.0110           0
     11945 MEMB     101      OSM      H15A     HL       0.250000       1.00800           0
     11946 MEMB     101      OSM      H15B     HL       0.250000       1.00800           0
     11947 MEMB     101      OSM      H15C     HL       0.250000       1.00800           0
     11948 MEMB     101      OSM      C14      CTL5    -0.350000       12.0110           0
     11949 MEMB     101      OSM      H14A     HL       0.250000       1.00800           0
     11950 MEMB     101      OSM      H14B     HL       0.250000       1.00800           0
     11951 MEMB     101      OSM      H14C     HL       0.250000       1.00800           0
     11952 MEMB     101      OSM      C13      CTL5    -0.350000       12.0110           0
     11953 MEMB     101      OSM      H13A     HL       0.250000       1.00800           0
     11954 MEMB     101      OSM      H13B     HL       0.250000       1.00800           0
     11955 MEMB     101      OSM      H13C     HL       0.250000       1.00800           0
     11956 MEMB     101      OSM      C12      CTL2    -0.100000       12.0110           0
     11957 MEMB     101      OSM      H12A     HL       0.250000       1.00800           0
     11958 MEMB     101      OSM      H12B     HL       0.250000       1.00800           0
     11959 MEMB     101      OSM      C11      CTL2    -0.800000E-01   12.0110           0
     11960 MEMB     101      OSM      H11A     HAL2     0.900000E-01   1.00800           0
     11961 MEMB     101      OSM      H11B     HAL2     0.900000E-01   1.00800           0
     11962 MEMB     101      OSM      P        PL       1.500000       30.9740           0
     11963 MEMB     101      OSM      O13      O2L     -0.780000       15.9994           0
     11964 MEMB     101      OSM      O14      O2L     -0.780000       15.9994           0
     11965 MEMB     101      OSM      O11      OSLP    -0.570000       15.9994           0
     11966 MEMB     101      OSM      O12      OSLP    -0.570000       15.9994           0
     11967 MEMB     101      OSM      C1S      CTL2    -0.800000E-01   12.0110           0
     11968 MEMB     101      OSM      H1S      HAL2     0.900000E-01   1.00800           0
     11969 MEMB     101      OSM      H1T      HAL2     0.900000E-01   1.00800           0
     11970 MEMB     101      OSM      NF       NHL     -0.700000       14.0070           0
     11971 MEMB     101      OSM      HNF      H        0.350000       1.00800           0
     11972 MEMB     101      OSM      C2S      CTL1     0.300000       12.0110           0
     11973 MEMB     101      OSM      H2S      HAL1     0.500000E-01   1.00800           0
     11974 MEMB     101      OSM      C3S      CTO1     0.500000       12.0110           0
     11975 MEMB     101      OSM      H3S      HAL1    -0.110000       1.00800           0
     11976 MEMB     101      OSM      O3       OHL     -0.690000       15.9994           0
     11977 MEMB     101      OSM      HO3      HOL      0.300000       1.00800           0
     11978 MEMB     101      OSM      C4S      CEL3    -0.150000       12.0110           0
     11979 MEMB     101      OSM      H4S      HEL1     0.150000       1.00800           0
     11980 MEMB     101      OSM      C5S      CEL3    -0.150000       12.0110           0
     11981 MEMB     101      OSM      H5S      HEL1     0.150000       1.00800           0
     11982 MEMB     101      OSM      C6S      CTL2    -0.180000       12.0110           0
     11983 MEMB     101      OSM      H6S      HAL2     0.900000E-01   1.00800           0
     11984 MEMB     101      OSM      H6T      HAL2     0.900000E-01   1.00800           0
     11985 MEMB     101      OSM      C7S      CTL2    -0.180000       12.0110           0
     11986 MEMB     101      OSM      H7S      HAL2     0.900000E-01   1.00800           0
     11987 MEMB     101      OSM      H7T      HAL2     0.900000E-01   1.00800           0
     11988 MEMB     101      OSM      C8S      CTL2    -0.180000       12.0110           0
     11989 MEMB     101      OSM      H8S      HAL2     0.900000E-01   1.00800           0
     11990 MEMB     101      OSM      H8T      HAL2     0.900000E-01   1.00800           0
     11991 MEMB     101      OSM      C9S      CTL2    -0.180000       12.0110           0
     11992 MEMB     101      OSM      H9S      HAL2     0.900000E-01   1.00800           0
     11993 MEMB     101      OSM      H9T      HAL2     0.900000E-01   1.00800           0
     11994 MEMB     101      OSM      C10S     CTL2    -0.180000       12.0110           0
     11995 MEMB     101      OSM      H10S     HAL2     0.900000E-01   1.00800           0
     11996 MEMB     101      OSM      H10T     HAL2     0.900000E-01   1.00800           0
     11997 MEMB     101      OSM      C11S     CTL2    -0.180000       12.0110           0
     11998 MEMB     101      OSM      H11S     HAL2     0.900000E-01   1.00800           0
     11999 MEMB     101      OSM      H11T     HAL2     0.900000E-01   1.00800           0
     12000 MEMB     101      OSM      C12S     CTL2    -0.180000       12.0110           0
     12001 MEMB     101      OSM      H12S     HAL2     0.900000E-01   1.00800           0
     12002 MEMB     101      OSM      H12T     HAL2     0.900000E-01   1.00800           0
     12003 MEMB     101      OSM      C13S     CTL2    -0.180000       12.0110           0
     12004 MEMB     101      OSM      H13S     HAL2     0.900000E-01   1.00800           0
     12005 MEMB     101      OSM      H13T     HAL2     0.900000E-01   1.00800           0
     12006 MEMB     101      OSM      C14S     CTL2    -0.180000       12.0110           0
     12007 MEMB     101      OSM      H14S     HAL2     0.900000E-01   1.00800           0
     12008 MEMB     101      OSM      H14T     HAL2     0.900000E-01   1.00800           0
     12009 MEMB     101      OSM      C15S     CTL2    -0.180000       12.0110           0
     12010 MEMB     101      OSM      H15S     HAL2     0.900000E-01   1.00800           0
     12011 MEMB     101      OSM      H15T     HAL2     0.900000E-01   1.00800           0
     12012 MEMB     101      OSM      C16S     CTL2    -0.180000       12.0110           0
     12013 MEMB     101      OSM      H16S     HAL2     0.900000E-01   1.00800           0
     12014 MEMB     101      OSM      H16T     HAL2     0.900000E-01   1.00800           0
     12015 MEMB     101      OSM      C17S     CTL2    -0.180000       12.0110           0
     12016 MEMB     101      OSM      H17S     HAL2     0.900000E-01   1.00800           0
     12017 MEMB     101      OSM      H17T     HAL2     0.900000E-01   1.00800           0
     12018 MEMB     101      OSM      C18S     CTL3    -0.270000       12.0110           0
     12019 MEMB     101      OSM      H18S     HAL3     0.900000E-01   1.00800           0
     12020 MEMB     101      OSM      H18T     HAL3     0.900000E-01   1.00800           0
     12021 MEMB     101      OSM      H18U     HAL3     0.900000E-01   1.00800           0
     12022 MEMB     101      OSM      C1F      C        0.550000       12.0110           0
     12023 MEMB     101      OSM      OF       O       -0.600000       15.9994           0
     12024 MEMB     101      OSM      C2F      CTL2    -0.700000E-01   12.0110           0
     12025 MEMB     101      OSM      H2F      HAL2     0.600000E-01   1.00800           0
     12026 MEMB     101      OSM      H2G      HAL2     0.600000E-01   1.00800           0
     12027 MEMB     101      OSM      C3F      CTL2    -0.180000       12.0110           0
     12028 MEMB     101      OSM      H3F      HAL2     0.900000E-01   1.00800           0
     12029 MEMB     101      OSM      H3G      HAL2     0.900000E-01   1.00800           0
     12030 MEMB     101      OSM      C4F      CTL2    -0.180000       12.0110           0
     12031 MEMB     101      OSM      H4F      HAL2     0.900000E-01   1.00800           0
     12032 MEMB     101      OSM      H4G      HAL2     0.900000E-01   1.00800           0
     12033 MEMB     101      OSM      C5F      CTL2    -0.180000       12.0110           0
     12034 MEMB     101      OSM      H5F      HAL2     0.900000E-01   1.00800           0
     12035 MEMB     101      OSM      H5G      HAL2     0.900000E-01   1.00800           0
     12036 MEMB     101      OSM      C6F      CTL2    -0.180000       12.0110           0
     12037 MEMB     101      OSM      H6F      HAL2     0.900000E-01   1.00800           0
     12038 MEMB     101      OSM      H6G      HAL2     0.900000E-01   1.00800           0
     12039 MEMB     101      OSM      C7F      CTL2    -0.180000       12.0110           0
     12040 MEMB     101      OSM      H7F      HAL2     0.900000E-01   1.00800           0
     12041 MEMB     101      OSM      H7G      HAL2     0.900000E-01   1.00800           0
     12042 MEMB     101      OSM      C8F      CTL2    -0.180000       12.0110           0
     12043 MEMB     101      OSM      H8F      HAL2     0.900000E-01   1.00800           0
     12044 MEMB     101      OSM      H8G      HAL2     0.900000E-01   1.00800           0
     12045 MEMB     101      OSM      C9F      CEL1    -0.150000       12.0110           0
     12046 MEMB     101      OSM      H9F      HEL1     0.150000       1.00800           0
     12047 MEMB     101      OSM      C10F     CEL1    -0.150000       12.0110           0
     12048 MEMB     101      OSM      H10F     HEL1     0.150000       1.00800           0
     12049 MEMB     101      OSM      C11F     CTL2    -0.180000       12.0110           0
     12050 MEMB     101      OSM      H11F     HAL2     0.900000E-01   1.00800           0
     12051 MEMB     101      OSM      H11G     HAL2     0.900000E-01   1.00800           0
     12052 MEMB     101      OSM      C12F     CTL2    -0.180000       12.0110           0
     12053 MEMB     101      OSM      H12F     HAL2     0.900000E-01   1.00800           0
     12054 MEMB     101      OSM      H12G     HAL2     0.900000E-01   1.00800           0
     12055 MEMB     101      OSM      C13F     CTL2    -0.180000       12.0110           0
     12056 MEMB     101      OSM      H13F     HAL2     0.900000E-01   1.00800           0
     12057 MEMB     101      OSM      H13G     HAL2     0.900000E-01   1.00800           0
     12058 MEMB     101      OSM      C14F     CTL2    -0.180000       12.0110           0
     12059 MEMB     101      OSM      H14F     HAL2     0.900000E-01   1.00800           0
     12060 MEMB     101      OSM      H14G     HAL2     0.900000E-01   1.00800           0
     12061 MEMB     101      OSM      C15F     CTL2    -0.180000       12.0110           0
     12062 MEMB     101      OSM      H15F     HAL2     0.900000E-01   1.00800           0
     12063 MEMB     101      OSM      H15G     HAL2     0.900000E-01   1.00800           0
     12064 MEMB     101      OSM      C16F     CTL2    -0.180000       12.0110           0
     12065 MEMB     101      OSM      H16F     HAL2     0.900000E-01   1.00800           0
     12066 MEMB     101      OSM      H16G     HAL2     0.900000E-01   1.00800           0
     12067 MEMB     101      OSM      C17F     CTL2    -0.180000       12.0110           0
     12068 MEMB     101      OSM      H17F     HAL2     0.900000E-01   1.00800           0
     12069 MEMB     101      OSM      H17G     HAL2     0.900000E-01   1.00800           0
     12070 MEMB     101      OSM      C18F     CTL3    -0.270000       12.0110           0
     12071 MEMB     101      OSM      H18F     HAL3     0.900000E-01   1.00800           0
     12072 MEMB     101      OSM      H18G     HAL3     0.900000E-01   1.00800           0
     12073 MEMB     101      OSM      H18H     HAL3     0.900000E-01   1.00800           0
     12074 MEMB     113      OSM      N        NTL     -0.600000       14.0070           0
     12075 MEMB     113      OSM      C15      CTL5    -0.350000       12.0110           0
     12076 MEMB     113      OSM      H15A     HL       0.250000       1.00800           0
     12077 MEMB     113      OSM      H15B     HL       0.250000       1.00800           0
     12078 MEMB     113      OSM      H15C     HL       0.250000       1.00800           0
     12079 MEMB     113      OSM      C14      CTL5    -0.350000       12.0110           0
     12080 MEMB     113      OSM      H14A     HL       0.250000       1.00800           0
     12081 MEMB     113      OSM      H14B     HL       0.250000       1.00800           0
     12082 MEMB     113      OSM      H14C     HL       0.250000       1.00800           0
     12083 MEMB     113      OSM      C13      CTL5    -0.350000       12.0110           0
     12084 MEMB     113      OSM      H13A     HL       0.250000       1.00800           0
     12085 MEMB     113      OSM      H13B     HL       0.250000       1.00800           0
     12086 MEMB     113      OSM      H13C     HL       0.250000       1.00800           0
     12087 MEMB     113      OSM      C12      CTL2    -0.100000       12.0110           0
     12088 MEMB     113      OSM      H12A     HL       0.250000       1.00800           0
     12089 MEMB     113      OSM      H12B     HL       0.250000       1.00800           0
     12090 MEMB     113      OSM      C11      CTL2    -0.800000E-01   12.0110           0
     12091 MEMB     113      OSM      H11A     HAL2     0.900000E-01   1.00800           0
     12092 MEMB     113      OSM      H11B     HAL2     0.900000E-01   1.00800           0
     12093 MEMB     113      OSM      P        PL       1.500000       30.9740           0
     12094 MEMB     113      OSM      O13      O2L     -0.780000       15.9994           0
     12095 MEMB     113      OSM      O14      O2L     -0.780000       15.9994           0
     12096 MEMB     113      OSM      O11      OSLP    -0.570000       15.9994           0
     12097 MEMB     113      OSM      O12      OSLP    -0.570000       15.9994           0
     12098 MEMB     113      OSM      C1S      CTL2    -0.800000E-01   12.0110           0
     12099 MEMB     113      OSM      H1S      HAL2     0.900000E-01   1.00800           0
     12100 MEMB     113      OSM      H1T      HAL2     0.900000E-01   1.00800           0
     12101 MEMB     113      OSM      NF       NHL     -0.700000       14.0070           0
     12102 MEMB     113      OSM      HNF      H        0.350000       1.00800           0
     12103 MEMB     113      OSM      C2S      CTL1     0.300000       12.0110           0
     12104 MEMB     113      OSM      H2S      HAL1     0.500000E-01   1.00800           0
     12105 MEMB     113      OSM      C3S      CTO1     0.500000       12.0110           0
     12106 MEMB     113      OSM      H3S      HAL1    -0.110000       1.00800           0
     12107 MEMB     113      OSM      O3       OHL     -0.690000       15.9994           0
     12108 MEMB     113      OSM      HO3      HOL      0.300000       1.00800           0
     12109 MEMB     113      OSM      C4S      CEL3    -0.150000       12.0110           0
     12110 MEMB     113      OSM      H4S      HEL1     0.150000       1.00800           0
     12111 MEMB     113      OSM      C5S      CEL3    -0.150000       12.0110           0
     12112 MEMB     113      OSM      H5S      HEL1     0.150000       1.00800           0
     12113 MEMB     113      OSM      C6S      CTL2    -0.180000       12.0110           0
     12114 MEMB     113      OSM      H6S      HAL2     0.900000E-01   1.00800           0
     12115 MEMB     113      OSM      H6T      HAL2     0.900000E-01   1.00800           0
     12116 MEMB     113      OSM      C7S      CTL2    -0.180000       12.0110           0
     12117 MEMB     113      OSM      H7S      HAL2     0.900000E-01   1.00800           0
     12118 MEMB     113      OSM      H7T      HAL2     0.900000E-01   1.00800           0
     12119 MEMB     113      OSM      C8S      CTL2    -0.180000       12.0110           0
     12120 MEMB     113      OSM      H8S      HAL2     0.900000E-01   1.00800           0
     12121 MEMB     113      OSM      H8T      HAL2     0.900000E-01   1.00800           0
     12122 MEMB     113      OSM      C9S      CTL2    -0.180000       12.0110           0
     12123 MEMB     113      OSM      H9S      HAL2     0.900000E-01   1.00800           0
     12124 MEMB     113      OSM      H9T      HAL2     0.900000E-01   1.00800           0
     12125 MEMB     113      OSM      C10S     CTL2    -0.180000       12.0110           0
     12126 MEMB     113      OSM      H10S     HAL2     0.900000E-01   1.00800           0
     12127 MEMB     113      OSM      H10T     HAL2     0.900000E-01   1.00800           0
     12128 MEMB     113      OSM      C11S     CTL2    -0.180000       12.0110           0
     12129 MEMB     113      OSM      H11S     HAL2     0.900000E-01   1.00800           0
     12130 MEMB     113      OSM      H11T     HAL2     0.900000E-01   1.00800           0
     12131 MEMB     113      OSM      C12S     CTL2    -0.180000       12.0110           0
     12132 MEMB     113      OSM      H12S     HAL2     0.900000E-01   1.00800           0
     12133 MEMB     113      OSM      H12T     HAL2     0.900000E-01   1.00800           0
     12134 MEMB     113      OSM      C13S     CTL2    -0.180000       12.0110           0
     12135 MEMB     113      OSM      H13S     HAL2     0.900000E-01   1.00800           0
     12136 MEMB     113      OSM      H13T     HAL2     0.900000E-01   1.00800           0
     12137 MEMB     113      OSM      C14S     CTL2    -0.180000       12.0110           0
     12138 MEMB     113      OSM      H14S     HAL2     0.900000E-01   1.00800           0
     12139 MEMB     113      OSM      H14T     HAL2     0.900000E-01   1.00800           0
     12140 MEMB     113      OSM      C15S     CTL2    -0.180000       12.0110           0
     12141 MEMB     113      OSM      H15S     HAL2     0.900000E-01   1.00800           0
     12142 MEMB     113      OSM      H15T     HAL2     0.900000E-01   1.00800           0
     12143 MEMB     113      OSM      C16S     CTL2    -0.180000       12.0110           0
     12144 MEMB     113      OSM      H16S     HAL2     0.900000E-01   1.00800           0
     12145 MEMB     113      OSM      H16T     HAL2     0.900000E-01   1.00800           0
     12146 MEMB     113      OSM      C17S     CTL2    -0.180000       12.0110           0
     12147 MEMB     113      OSM      H17S     HAL2     0.900000E-01   1.00800           0
     12148 MEMB     113      OSM      H17T     HAL2     0.900000E-01   1.00800           0
     12149 MEMB     113      OSM      C18S     CTL3    -0.270000       12.0110           0
     12150 MEMB     113      OSM      H18S     HAL3     0.900000E-01   1.00800           0
     12151 MEMB     113      OSM      H18T     HAL3     0.900000E-01   1.00800           0
     12152 MEMB     113      OSM      H18U     HAL3     0.900000E-01   1.00800           0
     12153 MEMB     113      OSM      C1F      C        0.550000       12.0110           0
     12154 MEMB     113      OSM      OF       O       -0.600000       15.9994           0
     12155 MEMB     113      OSM      C2F      CTL2    -0.700000E-01   12.0110           0
     12156 MEMB     113      OSM      H2F      HAL2     0.600000E-01   1.00800           0
     12157 MEMB     113      OSM      H2G      HAL2     0.600000E-01   1.00800           0
     12158 MEMB     113      OSM      C3F      CTL2    -0.180000       12.0110           0
     12159 MEMB     113      OSM      H3F      HAL2     0.900000E-01   1.00800           0
     12160 MEMB     113      OSM      H3G      HAL2     0.900000E-01   1.00800           0
     12161 MEMB     113      OSM      C4F      CTL2    -0.180000       12.0110           0
     12162 MEMB     113      OSM      H4F      HAL2     0.900000E-01   1.00800           0
     12163 MEMB     113      OSM      H4G      HAL2     0.900000E-01   1.00800           0
     12164 MEMB     113      OSM      C5F      CTL2    -0.180000       12.0110           0
     12165 MEMB     113      OSM      H5F      HAL2     0.900000E-01   1.00800           0
     12166 MEMB     113      OSM      H5G      HAL2     0.900000E-01   1.00800           0
     12167 MEMB     113      OSM      C6F      CTL2    -0.180000       12.0110           0
     12168 MEMB     113      OSM      H6F      HAL2     0.900000E-01   1.00800           0
     12169 MEMB     113      OSM      H6G      HAL2     0.900000E-01   1.00800           0
     12170 MEMB     113      OSM      C7F      CTL2    -0.180000       12.0110           0
     12171 MEMB     113      OSM      H7F      HAL2     0.900000E-01   1.00800           0
     12172 MEMB     113      OSM      H7G      HAL2     0.900000E-01   1.00800           0
     12173 MEMB     113      OSM      C8F      CTL2    -0.180000       12.0110           0
     12174 MEMB     113      OSM      H8F      HAL2     0.900000E-01   1.00800           0
     12175 MEMB     113      OSM      H8G      HAL2     0.900000E-01   1.00800           0
     12176 MEMB     113      OSM      C9F      CEL1    -0.150000       12.0110           0
     12177 MEMB     113      OSM      H9F      HEL1     0.150000       1.00800           0
     12178 MEMB     113      OSM      C10F     CEL1    -0.150000       12.0110           0
     12179 MEMB     113      OSM      H10F     HEL1     0.150000       1.00800           0
     12180 MEMB     113      OSM      C11F     CTL2    -0.180000       12.0110           0
     12181 MEMB     113      OSM      H11F     HAL2     0.900000E-01   1.00800           0
     12182 MEMB     113      OSM      H11G     HAL2     0.900000E-01   1.00800           0
     12183 MEMB     113      OSM      C12F     CTL2    -0.180000       12.0110           0
     12184 MEMB     113      OSM      H12F     HAL2     0.900000E-01   1.00800           0
     12185 MEMB     113      OSM      H12G     HAL2     0.900000E-01   1.00800           0
     12186 MEMB     113      OSM      C13F     CTL2    -0.180000       12.0110           0
     12187 MEMB     113      OSM      H13F     HAL2     0.900000E-01   1.00800           0
     12188 MEMB     113      OSM      H13G     HAL2     0.900000E-01   1.00800           0
     12189 MEMB     113      OSM      C14F     CTL2    -0.180000       12.0110           0
     12190 MEMB     113      OSM      H14F     HAL2     0.900000E-01   1.00800           0
     12191 MEMB     113      OSM      H14G     HAL2     0.900000E-01   1.00800           0
     12192 MEMB     113      OSM      C15F     CTL2    -0.180000       12.0110           0
     12193 MEMB     113      OSM      H15F     HAL2     0.900000E-01   1.00800           0
     12194 MEMB     113      OSM      H15G     HAL2     0.900000E-01   1.00800           0
     12195 MEMB     113      OSM      C16F     CTL2    -0.180000       12.0110           0
     12196 MEMB     113      OSM      H16F     HAL2     0.900000E-01   1.00800           0
     12197 MEMB     113      OSM      H16G     HAL2     0.900000E-01   1.00800           0
     12198 MEMB     113      OSM      C17F     CTL2    -0.180000       12.0110           0
     12199 MEMB     113      OSM      H17F     HAL2     0.900000E-01   1.00800           0
     12200 MEMB     113      OSM      H17G     HAL2     0.900000E-01   1.00800           0
     12201 MEMB     113      OSM      C18F     CTL3    -0.270000       12.0110           0
     12202 MEMB     113      OSM      H18F     HAL3     0.900000E-01   1.00800           0
     12203 MEMB     113      OSM      H18G     HAL3     0.900000E-01   1.00800           0
     12204 MEMB     113      OSM      H18H     HAL3     0.900000E-01   1.00800           0
     12205 MEMB     114      OSM      N        NTL     -0.600000       14.0070           0
     12206 MEMB     114      OSM      C15      CTL5    -0.350000       12.0110           0
     12207 MEMB     114      OSM      H15A     HL       0.250000       1.00800           0
     12208 MEMB     114      OSM      H15B     HL       0.250000       1.00800           0
     12209 MEMB     114      OSM      H15C     HL       0.250000       1.00800           0
     12210 MEMB     114      OSM      C14      CTL5    -0.350000       12.0110           0
     12211 MEMB     114      OSM      H14A     HL       0.250000       1.00800           0
     12212 MEMB     114      OSM      H14B     HL       0.250000       1.00800           0
     12213 MEMB     114      OSM      H14C     HL       0.250000       1.00800           0
     12214 MEMB     114      OSM      C13      CTL5    -0.350000       12.0110           0
     12215 MEMB     114      OSM      H13A     HL       0.250000       1.00800           0
     12216 MEMB     114      OSM      H13B     HL       0.250000       1.00800           0
     12217 MEMB     114      OSM      H13C     HL       0.250000       1.00800           0
     12218 MEMB     114      OSM      C12      CTL2    -0.100000       12.0110           0
     12219 MEMB     114      OSM      H12A     HL       0.250000       1.00800           0
     12220 MEMB     114      OSM      H12B     HL       0.250000       1.00800           0
     12221 MEMB     114      OSM      C11      CTL2    -0.800000E-01   12.0110           0
     12222 MEMB     114      OSM      H11A     HAL2     0.900000E-01   1.00800           0
     12223 MEMB     114      OSM      H11B     HAL2     0.900000E-01   1.00800           0
     12224 MEMB     114      OSM      P        PL       1.500000       30.9740           0
     12225 MEMB     114      OSM      O13      O2L     -0.780000       15.9994           0
     12226 MEMB     114      OSM      O14      O2L     -0.780000       15.9994           0
     12227 MEMB     114      OSM      O11      OSLP    -0.570000       15.9994           0
     12228 MEMB     114      OSM      O12      OSLP    -0.570000       15.9994           0
     12229 MEMB     114      OSM      C1S      CTL2    -0.800000E-01   12.0110           0
     12230 MEMB     114      OSM      H1S      HAL2     0.900000E-01   1.00800           0
     12231 MEMB     114      OSM      H1T      HAL2     0.900000E-01   1.00800           0
     12232 MEMB     114      OSM      NF       NHL     -0.700000       14.0070           0
     12233 MEMB     114      OSM      HNF      H        0.350000       1.00800           0
     12234 MEMB     114      OSM      C2S      CTL1     0.300000       12.0110           0
     12235 MEMB     114      OSM      H2S      HAL1     0.500000E-01   1.00800           0
     12236 MEMB     114      OSM      C3S      CTO1     0.500000       12.0110           0
     12237 MEMB     114      OSM      H3S      HAL1    -0.110000       1.00800           0
     12238 MEMB     114      OSM      O3       OHL     -0.690000       15.9994           0
     12239 MEMB     114      OSM      HO3      HOL      0.300000       1.00800           0
     12240 MEMB     114      OSM      C4S      CEL3    -0.150000       12.0110           0
     12241 MEMB     114      OSM      H4S      HEL1     0.150000       1.00800           0
     12242 MEMB     114      OSM      C5S      CEL3    -0.150000       12.0110           0
     12243 MEMB     114      OSM      H5S      HEL1     0.150000       1.00800           0
     12244 MEMB     114      OSM      C6S      CTL2    -0.180000       12.0110           0
     12245 MEMB     114      OSM      H6S      HAL2     0.900000E-01   1.00800           0
     12246 MEMB     114      OSM      H6T      HAL2     0.900000E-01   1.00800           0
     12247 MEMB     114      OSM      C7S      CTL2    -0.180000       12.0110           0
     12248 MEMB     114      OSM      H7S      HAL2     0.900000E-01   1.00800           0
     12249 MEMB     114      OSM      H7T      HAL2     0.900000E-01   1.00800           0
     12250 MEMB     114      OSM      C8S      CTL2    -0.180000       12.0110           0
     12251 MEMB     114      OSM      H8S      HAL2     0.900000E-01   1.00800           0
     12252 MEMB     114      OSM      H8T      HAL2     0.900000E-01   1.00800           0
     12253 MEMB     114      OSM      C9S      CTL2    -0.180000       12.0110           0
     12254 MEMB     114      OSM      H9S      HAL2     0.900000E-01   1.00800           0
     12255 MEMB     114      OSM      H9T      HAL2     0.900000E-01   1.00800           0
     12256 MEMB     114      OSM      C10S     CTL2    -0.180000       12.0110           0
     12257 MEMB     114      OSM      H10S     HAL2     0.900000E-01   1.00800           0
     12258 MEMB     114      OSM      H10T     HAL2     0.900000E-01   1.00800           0
     12259 MEMB     114      OSM      C11S     CTL2    -0.180000       12.0110           0
     12260 MEMB     114      OSM      H11S     HAL2     0.900000E-01   1.00800           0
     12261 MEMB     114      OSM      H11T     HAL2     0.900000E-01   1.00800           0
     12262 MEMB     114      OSM      C12S     CTL2    -0.180000       12.0110           0
     12263 MEMB     114      OSM      H12S     HAL2     0.900000E-01   1.00800           0
     12264 MEMB     114      OSM      H12T     HAL2     0.900000E-01   1.00800           0
     12265 MEMB     114      OSM      C13S     CTL2    -0.180000       12.0110           0
     12266 MEMB     114      OSM      H13S     HAL2     0.900000E-01   1.00800           0
     12267 MEMB     114      OSM      H13T     HAL2     0.900000E-01   1.00800           0
     12268 MEMB     114      OSM      C14S     CTL2    -0.180000       12.0110           0
     12269 MEMB     114      OSM      H14S     HAL2     0.900000E-01   1.00800           0
     12270 MEMB     114      OSM      H14T     HAL2     0.900000E-01   1.00800           0
     12271 MEMB     114      OSM      C15S     CTL2    -0.180000       12.0110           0
     12272 MEMB     114      OSM      H15S     HAL2     0.900000E-01   1.00800           0
     12273 MEMB     114      OSM      H15T     HAL2     0.900000E-01   1.00800           0
     12274 MEMB     114      OSM      C16S     CTL2    -0.180000       12.0110           0
     12275 MEMB     114      OSM      H16S     HAL2     0.900000E-01   1.00800           0
     12276 MEMB     114      OSM      H16T     HAL2     0.900000E-01   1.00800           0
     12277 MEMB     114      OSM      C17S     CTL2    -0.180000       12.0110           0
     12278 MEMB     114      OSM      H17S     HAL2     0.900000E-01   1.00800           0
     12279 MEMB     114      OSM      H17T     HAL2     0.900000E-01   1.00800           0
     12280 MEMB     114      OSM      C18S     CTL3    -0.270000       12.0110           0
     12281 MEMB     114      OSM      H18S     HAL3     0.900000E-01   1.00800           0
     12282 MEMB     114      OSM      H18T     HAL3     0.900000E-01   1.00800           0
     12283 MEMB     114      OSM      H18U     HAL3     0.900000E-01   1.00800           0
     12284 MEMB     114      OSM      C1F      C        0.550000       12.0110           0
     12285 MEMB     114      OSM      OF       O       -0.600000       15.9994           0
     12286 MEMB     114      OSM      C2F      CTL2    -0.700000E-01   12.0110           0
     12287 MEMB     114      OSM      H2F      HAL2     0.600000E-01   1.00800           0
     12288 MEMB     114      OSM      H2G      HAL2     0.600000E-01   1.00800           0
     12289 MEMB     114      OSM      C3F      CTL2    -0.180000       12.0110           0
     12290 MEMB     114      OSM      H3F      HAL2     0.900000E-01   1.00800           0
     12291 MEMB     114      OSM      H3G      HAL2     0.900000E-01   1.00800           0
     12292 MEMB     114      OSM      C4F      CTL2    -0.180000       12.0110           0
     12293 MEMB     114      OSM      H4F      HAL2     0.900000E-01   1.00800           0
     12294 MEMB     114      OSM      H4G      HAL2     0.900000E-01   1.00800           0
     12295 MEMB     114      OSM      C5F      CTL2    -0.180000       12.0110           0
     12296 MEMB     114      OSM      H5F      HAL2     0.900000E-01   1.00800           0
     12297 MEMB     114      OSM      H5G      HAL2     0.900000E-01   1.00800           0
     12298 MEMB     114      OSM      C6F      CTL2    -0.180000       12.0110           0
     12299 MEMB     114      OSM      H6F      HAL2     0.900000E-01   1.00800           0
     12300 MEMB     114      OSM      H6G      HAL2     0.900000E-01   1.00800           0
     12301 MEMB     114      OSM      C7F      CTL2    -0.180000       12.0110           0
     12302 MEMB     114      OSM      H7F      HAL2     0.900000E-01   1.00800           0
     12303 MEMB     114      OSM      H7G      HAL2     0.900000E-01   1.00800           0
     12304 MEMB     114      OSM      C8F      CTL2    -0.180000       12.0110           0
     12305 MEMB     114      OSM      H8F      HAL2     0.900000E-01   1.00800           0
     12306 MEMB     114      OSM      H8G      HAL2     0.900000E-01   1.00800           0
     12307 MEMB     114      OSM      C9F      CEL1    -0.150000       12.0110           0
     12308 MEMB     114      OSM      H9F      HEL1     0.150000       1.00800           0
     12309 MEMB     114      OSM      C10F     CEL1    -0.150000       12.0110           0
     12310 MEMB     114      OSM      H10F     HEL1     0.150000       1.00800           0
     12311 MEMB     114      OSM      C11F     CTL2    -0.180000       12.0110           0
     12312 MEMB     114      OSM      H11F     HAL2     0.900000E-01   1.00800           0
     12313 MEMB     114      OSM      H11G     HAL2     0.900000E-01   1.00800           0
     12314 MEMB     114      OSM      C12F     CTL2    -0.180000       12.0110           0
     12315 MEMB     114      OSM      H12F     HAL2     0.900000E-01   1.00800           0
     12316 MEMB     114      OSM      H12G     HAL2     0.900000E-01   1.00800           0
     12317 MEMB     114      OSM      C13F     CTL2    -0.180000       12.0110           0
     12318 MEMB     114      OSM      H13F     HAL2     0.900000E-01   1.00800           0
     12319 MEMB     114      OSM      H13G     HAL2     0.900000E-01   1.00800           0
     12320 MEMB     114      OSM      C14F     CTL2    -0.180000       12.0110           0
     12321 MEMB     114      OSM      H14F     HAL2     0.900000E-01   1.00800           0
     12322 MEMB     114      OSM      H14G     HAL2     0.900000E-01   1.00800           0
     12323 MEMB     114      OSM      C15F     CTL2    -0.180000       12.0110           0
     12324 MEMB     114      OSM      H15F     HAL2     0.900000E-01   1.00800           0
     12325 MEMB     114      OSM      H15G     HAL2     0.900000E-01   1.00800           0
     12326 MEMB     114      OSM      C16F     CTL2    -0.180000       12.0110           0
     12327 MEMB     114      OSM      H16F     HAL2     0.900000E-01   1.00800           0
     12328 MEMB     114      OSM      H16G     HAL2     0.900000E-01   1.00800           0
     12329 MEMB     114      OSM      C17F     CTL2    -0.180000       12.0110           0
     12330 MEMB     114      OSM      H17F     HAL2     0.900000E-01   1.00800           0
     12331 MEMB     114      OSM      H17G     HAL2     0.900000E-01   1.00800           0
     12332 MEMB     114      OSM      C18F     CTL3    -0.270000       12.0110           0
     12333 MEMB     114      OSM      H18F     HAL3     0.900000E-01   1.00800           0
     12334 MEMB     114      OSM      H18G     HAL3     0.900000E-01   1.00800           0
     12335 MEMB     114      OSM      H18H     HAL3     0.900000E-01   1.00800           0
     12336 MEMB     115      OSM      N        NTL     -0.600000       14.0070           0
     12337 MEMB     115      OSM      C15      CTL5    -0.350000       12.0110           0
     12338 MEMB     115      OSM      H15A     HL       0.250000       1.00800           0
     12339 MEMB     115      OSM      H15B     HL       0.250000       1.00800           0
     12340 MEMB     115      OSM      H15C     HL       0.250000       1.00800           0
     12341 MEMB     115      OSM      C14      CTL5    -0.350000       12.0110           0
     12342 MEMB     115      OSM      H14A     HL       0.250000       1.00800           0
     12343 MEMB     115      OSM      H14B     HL       0.250000       1.00800           0
     12344 MEMB     115      OSM      H14C     HL       0.250000       1.00800           0
     12345 MEMB     115      OSM      C13      CTL5    -0.350000       12.0110           0
     12346 MEMB     115      OSM      H13A     HL       0.250000       1.00800           0
     12347 MEMB     115      OSM      H13B     HL       0.250000       1.00800           0
     12348 MEMB     115      OSM      H13C     HL       0.250000       1.00800           0
     12349 MEMB     115      OSM      C12      CTL2    -0.100000       12.0110           0
     12350 MEMB     115      OSM      H12A     HL       0.250000       1.00800           0
     12351 MEMB     115      OSM      H12B     HL       0.250000       1.00800           0
     12352 MEMB     115      OSM      C11      CTL2    -0.800000E-01   12.0110           0
     12353 MEMB     115      OSM      H11A     HAL2     0.900000E-01   1.00800           0
     12354 MEMB     115      OSM      H11B     HAL2     0.900000E-01   1.00800           0
     12355 MEMB     115      OSM      P        PL       1.500000       30.9740           0
     12356 MEMB     115      OSM      O13      O2L     -0.780000       15.9994           0
     12357 MEMB     115      OSM      O14      O2L     -0.780000       15.9994           0
     12358 MEMB     115      OSM      O11      OSLP    -0.570000       15.9994           0
     12359 MEMB     115      OSM      O12      OSLP    -0.570000       15.9994           0
     12360 MEMB     115      OSM      C1S      CTL2    -0.800000E-01   12.0110           0
     12361 MEMB     115      OSM      H1S      HAL2     0.900000E-01   1.00800           0
     12362 MEMB     115      OSM      H1T      HAL2     0.900000E-01   1.00800           0
     12363 MEMB     115      OSM      NF       NHL     -0.700000       14.0070           0
     12364 MEMB     115      OSM      HNF      H        0.350000       1.00800           0
     12365 MEMB     115      OSM      C2S      CTL1     0.300000       12.0110           0
     12366 MEMB     115      OSM      H2S      HAL1     0.500000E-01   1.00800           0
     12367 MEMB     115      OSM      C3S      CTO1     0.500000       12.0110           0
     12368 MEMB     115      OSM      H3S      HAL1    -0.110000       1.00800           0
     12369 MEMB     115      OSM      O3       OHL     -0.690000       15.9994           0
     12370 MEMB     115      OSM      HO3      HOL      0.300000       1.00800           0
     12371 MEMB     115      OSM      C4S      CEL3    -0.150000       12.0110           0
     12372 MEMB     115      OSM      H4S      HEL1     0.150000       1.00800           0
     12373 MEMB     115      OSM      C5S      CEL3    -0.150000       12.0110           0
     12374 MEMB     115      OSM      H5S      HEL1     0.150000       1.00800           0
     12375 MEMB     115      OSM      C6S      CTL2    -0.180000       12.0110           0
     12376 MEMB     115      OSM      H6S      HAL2     0.900000E-01   1.00800           0
     12377 MEMB     115      OSM      H6T      HAL2     0.900000E-01   1.00800           0
     12378 MEMB     115      OSM      C7S      CTL2    -0.180000       12.0110           0
     12379 MEMB     115      OSM      H7S      HAL2     0.900000E-01   1.00800           0
     12380 MEMB     115      OSM      H7T      HAL2     0.900000E-01   1.00800           0
     12381 MEMB     115      OSM      C8S      CTL2    -0.180000       12.0110           0
     12382 MEMB     115      OSM      H8S      HAL2     0.900000E-01   1.00800           0
     12383 MEMB     115      OSM      H8T      HAL2     0.900000E-01   1.00800           0
     12384 MEMB     115      OSM      C9S      CTL2    -0.180000       12.0110           0
     12385 MEMB     115      OSM      H9S      HAL2     0.900000E-01   1.00800           0
     12386 MEMB     115      OSM      H9T      HAL2     0.900000E-01   1.00800           0
     12387 MEMB     115      OSM      C10S     CTL2    -0.180000       12.0110           0
     12388 MEMB     115      OSM      H10S     HAL2     0.900000E-01   1.00800           0
     12389 MEMB     115      OSM      H10T     HAL2     0.900000E-01   1.00800           0
     12390 MEMB     115      OSM      C11S     CTL2    -0.180000       12.0110           0
     12391 MEMB     115      OSM      H11S     HAL2     0.900000E-01   1.00800           0
     12392 MEMB     115      OSM      H11T     HAL2     0.900000E-01   1.00800           0
     12393 MEMB     115      OSM      C12S     CTL2    -0.180000       12.0110           0
     12394 MEMB     115      OSM      H12S     HAL2     0.900000E-01   1.00800           0
     12395 MEMB     115      OSM      H12T     HAL2     0.900000E-01   1.00800           0
     12396 MEMB     115      OSM      C13S     CTL2    -0.180000       12.0110           0
     12397 MEMB     115      OSM      H13S     HAL2     0.900000E-01   1.00800           0
     12398 MEMB     115      OSM      H13T     HAL2     0.900000E-01   1.00800           0
     12399 MEMB     115      OSM      C14S     CTL2    -0.180000       12.0110           0
     12400 MEMB     115      OSM      H14S     HAL2     0.900000E-01   1.00800           0
     12401 MEMB     115      OSM      H14T     HAL2     0.900000E-01   1.00800           0
     12402 MEMB     115      OSM      C15S     CTL2    -0.180000       12.0110           0
     12403 MEMB     115      OSM      H15S     HAL2     0.900000E-01   1.00800           0
     12404 MEMB     115      OSM      H15T     HAL2     0.900000E-01   1.00800           0
     12405 MEMB     115      OSM      C16S     CTL2    -0.180000       12.0110           0
     12406 MEMB     115      OSM      H16S     HAL2     0.900000E-01   1.00800           0
     12407 MEMB     115      OSM      H16T     HAL2     0.900000E-01   1.00800           0
     12408 MEMB     115      OSM      C17S     CTL2    -0.180000       12.0110           0
     12409 MEMB     115      OSM      H17S     HAL2     0.900000E-01   1.00800           0
     12410 MEMB     115      OSM      H17T     HAL2     0.900000E-01   1.00800           0
     12411 MEMB     115      OSM      C18S     CTL3    -0.270000       12.0110           0
     12412 MEMB     115      OSM      H18S     HAL3     0.900000E-01   1.00800           0
     12413 MEMB     115      OSM      H18T     HAL3     0.900000E-01   1.00800           0
     12414 MEMB     115      OSM      H18U     HAL3     0.900000E-01   1.00800           0
     12415 MEMB     115      OSM      C1F      C        0.550000       12.0110           0
     12416 MEMB     115      OSM      OF       O       -0.600000       15.9994           0
     12417 MEMB     115      OSM      C2F      CTL2    -0.700000E-01   12.0110           0
     12418 MEMB     115      OSM      H2F      HAL2     0.600000E-01   1.00800           0
     12419 MEMB     115      OSM      H2G      HAL2     0.600000E-01   1.00800           0
     12420 MEMB     115      OSM      C3F      CTL2    -0.180000       12.0110           0
     12421 MEMB     115      OSM      H3F      HAL2     0.900000E-01   1.00800           0
     12422 MEMB     115      OSM      H3G      HAL2     0.900000E-01   1.00800           0
     12423 MEMB     115      OSM      C4F      CTL2    -0.180000       12.0110           0
     12424 MEMB     115      OSM      H4F      HAL2     0.900000E-01   1.00800           0
     12425 MEMB     115      OSM      H4G      HAL2     0.900000E-01   1.00800           0
     12426 MEMB     115      OSM      C5F      CTL2    -0.180000       12.0110           0
     12427 MEMB     115      OSM      H5F      HAL2     0.900000E-01   1.00800           0
     12428 MEMB     115      OSM      H5G      HAL2     0.900000E-01   1.00800           0
     12429 MEMB     115      OSM      C6F      CTL2    -0.180000       12.0110           0
     12430 MEMB     115      OSM      H6F      HAL2     0.900000E-01   1.00800           0
     12431 MEMB     115      OSM      H6G      HAL2     0.900000E-01   1.00800           0
     12432 MEMB     115      OSM      C7F      CTL2    -0.180000       12.0110           0
     12433 MEMB     115      OSM      H7F      HAL2     0.900000E-01   1.00800           0
     12434 MEMB     115      OSM      H7G      HAL2     0.900000E-01   1.00800           0
     12435 MEMB     115      OSM      C8F      CTL2    -0.180000       12.0110           0
     12436 MEMB     115      OSM      H8F      HAL2     0.900000E-01   1.00800           0
     12437 MEMB     115      OSM      H8G      HAL2     0.900000E-01   1.00800           0
     12438 MEMB     115      OSM      C9F      CEL1    -0.150000       12.0110           0
     12439 MEMB     115      OSM      H9F      HEL1     0.150000       1.00800           0
     12440 MEMB     115      OSM      C10F     CEL1    -0.150000       12.0110           0
     12441 MEMB     115      OSM      H10F     HEL1     0.150000       1.00800           0
     12442 MEMB     115      OSM      C11F     CTL2    -0.180000       12.0110           0
     12443 MEMB     115      OSM      H11F     HAL2     0.900000E-01   1.00800           0
     12444 MEMB     115      OSM      H11G     HAL2     0.900000E-01   1.00800           0
     12445 MEMB     115      OSM      C12F     CTL2    -0.180000       12.0110           0
     12446 MEMB     115      OSM      H12F     HAL2     0.900000E-01   1.00800           0
     12447 MEMB     115      OSM      H12G     HAL2     0.900000E-01   1.00800           0
     12448 MEMB     115      OSM      C13F     CTL2    -0.180000       12.0110           0
     12449 MEMB     115      OSM      H13F     HAL2     0.900000E-01   1.00800           0
     12450 MEMB     115      OSM      H13G     HAL2     0.900000E-01   1.00800           0
     12451 MEMB     115      OSM      C14F     CTL2    -0.180000       12.0110           0
     12452 MEMB     115      OSM      H14F     HAL2     0.900000E-01   1.00800           0
     12453 MEMB     115      OSM      H14G     HAL2     0.900000E-01   1.00800           0
     12454 MEMB     115      OSM      C15F     CTL2    -0.180000       12.0110           0
     12455 MEMB     115      OSM      H15F     HAL2     0.900000E-01   1.00800           0
     12456 MEMB     115      OSM      H15G     HAL2     0.900000E-01   1.00800           0
     12457 MEMB     115      OSM      C16F     CTL2    -0.180000       12.0110           0
     12458 MEMB     115      OSM      H16F     HAL2     0.900000E-01   1.00800           0
     12459 MEMB     115      OSM      H16G     HAL2     0.900000E-01   1.00800           0
     12460 MEMB     115      OSM      C17F     CTL2    -0.180000       12.0110           0
     12461 MEMB     115      OSM      H17F     HAL2     0.900000E-01   1.00800           0
     12462 MEMB     115      OSM      H17G     HAL2     0.900000E-01   1.00800           0
     12463 MEMB     115      OSM      C18F     CTL3    -0.270000       12.0110           0
     12464 MEMB     115      OSM      H18F     HAL3     0.900000E-01   1.00800           0
     12465 MEMB     115      OSM      H18G     HAL3     0.900000E-01   1.00800           0
     12466 MEMB     115      OSM      H18H     HAL3     0.900000E-01   1.00800           0
     12467 MEMB     116      OSM      N        NTL     -0.600000       14.0070           0
     12468 MEMB     116      OSM      C15      CTL5    -0.350000       12.0110           0
     12469 MEMB     116      OSM      H15A     HL       0.250000       1.00800           0
     12470 MEMB     116      OSM      H15B     HL       0.250000       1.00800           0
     12471 MEMB     116      OSM      H15C     HL       0.250000       1.00800           0
     12472 MEMB     116      OSM      C14      CTL5    -0.350000       12.0110           0
     12473 MEMB     116      OSM      H14A     HL       0.250000       1.00800           0
     12474 MEMB     116      OSM      H14B     HL       0.250000       1.00800           0
     12475 MEMB     116      OSM      H14C     HL       0.250000       1.00800           0
     12476 MEMB     116      OSM      C13      CTL5    -0.350000       12.0110           0
     12477 MEMB     116      OSM      H13A     HL       0.250000       1.00800           0
     12478 MEMB     116      OSM      H13B     HL       0.250000       1.00800           0
     12479 MEMB     116      OSM      H13C     HL       0.250000       1.00800           0
     12480 MEMB     116      OSM      C12      CTL2    -0.100000       12.0110           0
     12481 MEMB     116      OSM      H12A     HL       0.250000       1.00800           0
     12482 MEMB     116      OSM      H12B     HL       0.250000       1.00800           0
     12483 MEMB     116      OSM      C11      CTL2    -0.800000E-01   12.0110           0
     12484 MEMB     116      OSM      H11A     HAL2     0.900000E-01   1.00800           0
     12485 MEMB     116      OSM      H11B     HAL2     0.900000E-01   1.00800           0
     12486 MEMB     116      OSM      P        PL       1.500000       30.9740           0
     12487 MEMB     116      OSM      O13      O2L     -0.780000       15.9994           0
     12488 MEMB     116      OSM      O14      O2L     -0.780000       15.9994           0
     12489 MEMB     116      OSM      O11      OSLP    -0.570000       15.9994           0
     12490 MEMB     116      OSM      O12      OSLP    -0.570000       15.9994           0
     12491 MEMB     116      OSM      C1S      CTL2    -0.800000E-01   12.0110           0
     12492 MEMB     116      OSM      H1S      HAL2     0.900000E-01   1.00800           0
     12493 MEMB     116      OSM      H1T      HAL2     0.900000E-01   1.00800           0
     12494 MEMB     116      OSM      NF       NHL     -0.700000       14.0070           0
     12495 MEMB     116      OSM      HNF      H        0.350000       1.00800           0
     12496 MEMB     116      OSM      C2S      CTL1     0.300000       12.0110           0
     12497 MEMB     116      OSM      H2S      HAL1     0.500000E-01   1.00800           0
     12498 MEMB     116      OSM      C3S      CTO1     0.500000       12.0110           0
     12499 MEMB     116      OSM      H3S      HAL1    -0.110000       1.00800           0
     12500 MEMB     116      OSM      O3       OHL     -0.690000       15.9994           0
     12501 MEMB     116      OSM      HO3      HOL      0.300000       1.00800           0
     12502 MEMB     116      OSM      C4S      CEL3    -0.150000       12.0110           0
     12503 MEMB     116      OSM      H4S      HEL1     0.150000       1.00800           0
     12504 MEMB     116      OSM      C5S      CEL3    -0.150000       12.0110           0
     12505 MEMB     116      OSM      H5S      HEL1     0.150000       1.00800           0
     12506 MEMB     116      OSM      C6S      CTL2    -0.180000       12.0110           0
     12507 MEMB     116      OSM      H6S      HAL2     0.900000E-01   1.00800           0
     12508 MEMB     116      OSM      H6T      HAL2     0.900000E-01   1.00800           0
     12509 MEMB     116      OSM      C7S      CTL2    -0.180000       12.0110           0
     12510 MEMB     116      OSM      H7S      HAL2     0.900000E-01   1.00800           0
     12511 MEMB     116      OSM      H7T      HAL2     0.900000E-01   1.00800           0
     12512 MEMB     116      OSM      C8S      CTL2    -0.180000       12.0110           0
     12513 MEMB     116      OSM      H8S      HAL2     0.900000E-01   1.00800           0
     12514 MEMB     116      OSM      H8T      HAL2     0.900000E-01   1.00800           0
     12515 MEMB     116      OSM      C9S      CTL2    -0.180000       12.0110           0
     12516 MEMB     116      OSM      H9S      HAL2     0.900000E-01   1.00800           0
     12517 MEMB     116      OSM      H9T      HAL2     0.900000E-01   1.00800           0
     12518 MEMB     116      OSM      C10S     CTL2    -0.180000       12.0110           0
     12519 MEMB     116      OSM      H10S     HAL2     0.900000E-01   1.00800           0
     12520 MEMB     116      OSM      H10T     HAL2     0.900000E-01   1.00800           0
     12521 MEMB     116      OSM      C11S     CTL2    -0.180000       12.0110           0
     12522 MEMB     116      OSM      H11S     HAL2     0.900000E-01   1.00800           0
     12523 MEMB     116      OSM      H11T     HAL2     0.900000E-01   1.00800           0
     12524 MEMB     116      OSM      C12S     CTL2    -0.180000       12.0110           0
     12525 MEMB     116      OSM      H12S     HAL2     0.900000E-01   1.00800           0
     12526 MEMB     116      OSM      H12T     HAL2     0.900000E-01   1.00800           0
     12527 MEMB     116      OSM      C13S     CTL2    -0.180000       12.0110           0
     12528 MEMB     116      OSM      H13S     HAL2     0.900000E-01   1.00800           0
     12529 MEMB     116      OSM      H13T     HAL2     0.900000E-01   1.00800           0
     12530 MEMB     116      OSM      C14S     CTL2    -0.180000       12.0110           0
     12531 MEMB     116      OSM      H14S     HAL2     0.900000E-01   1.00800           0
     12532 MEMB     116      OSM      H14T     HAL2     0.900000E-01   1.00800           0
     12533 MEMB     116      OSM      C15S     CTL2    -0.180000       12.0110           0
     12534 MEMB     116      OSM      H15S     HAL2     0.900000E-01   1.00800           0
     12535 MEMB     116      OSM      H15T     HAL2     0.900000E-01   1.00800           0
     12536 MEMB     116      OSM      C16S     CTL2    -0.180000       12.0110           0
     12537 MEMB     116      OSM      H16S     HAL2     0.900000E-01   1.00800           0
     12538 MEMB     116      OSM      H16T     HAL2     0.900000E-01   1.00800           0
     12539 MEMB     116      OSM      C17S     CTL2    -0.180000       12.0110           0
     12540 MEMB     116      OSM      H17S     HAL2     0.900000E-01   1.00800           0
     12541 MEMB     116      OSM      H17T     HAL2     0.900000E-01   1.00800           0
     12542 MEMB     116      OSM      C18S     CTL3    -0.270000       12.0110           0
     12543 MEMB     116      OSM      H18S     HAL3     0.900000E-01   1.00800           0
     12544 MEMB     116      OSM      H18T     HAL3     0.900000E-01   1.00800           0
     12545 MEMB     116      OSM      H18U     HAL3     0.900000E-01   1.00800           0
     12546 MEMB     116      OSM      C1F      C        0.550000       12.0110           0
     12547 MEMB     116      OSM      OF       O       -0.600000       15.9994           0
     12548 MEMB     116      OSM      C2F      CTL2    -0.700000E-01   12.0110           0
     12549 MEMB     116      OSM      H2F      HAL2     0.600000E-01   1.00800           0
     12550 MEMB     116      OSM      H2G      HAL2     0.600000E-01   1.00800           0
     12551 MEMB     116      OSM      C3F      CTL2    -0.180000       12.0110           0
     12552 MEMB     116      OSM      H3F      HAL2     0.900000E-01   1.00800           0
     12553 MEMB     116      OSM      H3G      HAL2     0.900000E-01   1.00800           0
     12554 MEMB     116      OSM      C4F      CTL2    -0.180000       12.0110           0
     12555 MEMB     116      OSM      H4F      HAL2     0.900000E-01   1.00800           0
     12556 MEMB     116      OSM      H4G      HAL2     0.900000E-01   1.00800           0
     12557 MEMB     116      OSM      C5F      CTL2    -0.180000       12.0110           0
     12558 MEMB     116      OSM      H5F      HAL2     0.900000E-01   1.00800           0
     12559 MEMB     116      OSM      H5G      HAL2     0.900000E-01   1.00800           0
     12560 MEMB     116      OSM      C6F      CTL2    -0.180000       12.0110           0
     12561 MEMB     116      OSM      H6F      HAL2     0.900000E-01   1.00800           0
     12562 MEMB     116      OSM      H6G      HAL2     0.900000E-01   1.00800           0
     12563 MEMB     116      OSM      C7F      CTL2    -0.180000       12.0110           0
     12564 MEMB     116      OSM      H7F      HAL2     0.900000E-01   1.00800           0
     12565 MEMB     116      OSM      H7G      HAL2     0.900000E-01   1.00800           0
     12566 MEMB     116      OSM      C8F      CTL2    -0.180000       12.0110           0
     12567 MEMB     116      OSM      H8F      HAL2     0.900000E-01   1.00800           0
     12568 MEMB     116      OSM      H8G      HAL2     0.900000E-01   1.00800           0
     12569 MEMB     116      OSM      C9F      CEL1    -0.150000       12.0110           0
     12570 MEMB     116      OSM      H9F      HEL1     0.150000       1.00800           0
     12571 MEMB     116      OSM      C10F     CEL1    -0.150000       12.0110           0
     12572 MEMB     116      OSM      H10F     HEL1     0.150000       1.00800           0
     12573 MEMB     116      OSM      C11F     CTL2    -0.180000       12.0110           0
     12574 MEMB     116      OSM      H11F     HAL2     0.900000E-01   1.00800           0
     12575 MEMB     116      OSM      H11G     HAL2     0.900000E-01   1.00800           0
     12576 MEMB     116      OSM      C12F     CTL2    -0.180000       12.0110           0
     12577 MEMB     116      OSM      H12F     HAL2     0.900000E-01   1.00800           0
     12578 MEMB     116      OSM      H12G     HAL2     0.900000E-01   1.00800           0
     12579 MEMB     116      OSM      C13F     CTL2    -0.180000       12.0110           0
     12580 MEMB     116      OSM      H13F     HAL2     0.900000E-01   1.00800           0
     12581 MEMB     116      OSM      H13G     HAL2     0.900000E-01   1.00800           0
     12582 MEMB     116      OSM      C14F     CTL2    -0.180000       12.0110           0
     12583 MEMB     116      OSM      H14F     HAL2     0.900000E-01   1.00800           0
     12584 MEMB     116      OSM      H14G     HAL2     0.900000E-01   1.00800           0
     12585 MEMB     116      OSM      C15F     CTL2    -0.180000       12.0110           0
     12586 MEMB     116      OSM      H15F     HAL2     0.900000E-01   1.00800           0
     12587 MEMB     116      OSM      H15G     HAL2     0.900000E-01   1.00800           0
     12588 MEMB     116      OSM      C16F     CTL2    -0.180000       12.0110           0
     12589 MEMB     116      OSM      H16F     HAL2     0.900000E-01   1.00800           0
     12590 MEMB     116      OSM      H16G     HAL2     0.900000E-01   1.00800           0
     12591 MEMB     116      OSM      C17F     CTL2    -0.180000       12.0110           0
     12592 MEMB     116      OSM      H17F     HAL2     0.900000E-01   1.00800           0
     12593 MEMB     116      OSM      H17G     HAL2     0.900000E-01   1.00800           0
     12594 MEMB     116      OSM      C18F     CTL3    -0.270000       12.0110           0
     12595 MEMB     116      OSM      H18F     HAL3     0.900000E-01   1.00800           0
     12596 MEMB     116      OSM      H18G     HAL3     0.900000E-01   1.00800           0
     12597 MEMB     116      OSM      H18H     HAL3     0.900000E-01   1.00800           0
     12598 MEMB     117      OSM      N        NTL     -0.600000       14.0070           0
     12599 MEMB     117      OSM      C15      CTL5    -0.350000       12.0110           0
     12600 MEMB     117      OSM      H15A     HL       0.250000       1.00800           0
     12601 MEMB     117      OSM      H15B     HL       0.250000       1.00800           0
     12602 MEMB     117      OSM      H15C     HL       0.250000       1.00800           0
     12603 MEMB     117      OSM      C14      CTL5    -0.350000       12.0110           0
     12604 MEMB     117      OSM      H14A     HL       0.250000       1.00800           0
     12605 MEMB     117      OSM      H14B     HL       0.250000       1.00800           0
     12606 MEMB     117      OSM      H14C     HL       0.250000       1.00800           0
     12607 MEMB     117      OSM      C13      CTL5    -0.350000       12.0110           0
     12608 MEMB     117      OSM      H13A     HL       0.250000       1.00800           0
     12609 MEMB     117      OSM      H13B     HL       0.250000       1.00800           0
     12610 MEMB     117      OSM      H13C     HL       0.250000       1.00800           0
     12611 MEMB     117      OSM      C12      CTL2    -0.100000       12.0110           0
     12612 MEMB     117      OSM      H12A     HL       0.250000       1.00800           0
     12613 MEMB     117      OSM      H12B     HL       0.250000       1.00800           0
     12614 MEMB     117      OSM      C11      CTL2    -0.800000E-01   12.0110           0
     12615 MEMB     117      OSM      H11A     HAL2     0.900000E-01   1.00800           0
     12616 MEMB     117      OSM      H11B     HAL2     0.900000E-01   1.00800           0
     12617 MEMB     117      OSM      P        PL       1.500000       30.9740           0
     12618 MEMB     117      OSM      O13      O2L     -0.780000       15.9994           0
     12619 MEMB     117      OSM      O14      O2L     -0.780000       15.9994           0
     12620 MEMB     117      OSM      O11      OSLP    -0.570000       15.9994           0
     12621 MEMB     117      OSM      O12      OSLP    -0.570000       15.9994           0
     12622 MEMB     117      OSM      C1S      CTL2    -0.800000E-01   12.0110           0
     12623 MEMB     117      OSM      H1S      HAL2     0.900000E-01   1.00800           0
     12624 MEMB     117      OSM      H1T      HAL2     0.900000E-01   1.00800           0
     12625 MEMB     117      OSM      NF       NHL     -0.700000       14.0070           0
     12626 MEMB     117      OSM      HNF      H        0.350000       1.00800           0
     12627 MEMB     117      OSM      C2S      CTL1     0.300000       12.0110           0
     12628 MEMB     117      OSM      H2S      HAL1     0.500000E-01   1.00800           0
     12629 MEMB     117      OSM      C3S      CTO1     0.500000       12.0110           0
     12630 MEMB     117      OSM      H3S      HAL1    -0.110000       1.00800           0
     12631 MEMB     117      OSM      O3       OHL     -0.690000       15.9994           0
     12632 MEMB     117      OSM      HO3      HOL      0.300000       1.00800           0
     12633 MEMB     117      OSM      C4S      CEL3    -0.150000       12.0110           0
     12634 MEMB     117      OSM      H4S      HEL1     0.150000       1.00800           0
     12635 MEMB     117      OSM      C5S      CEL3    -0.150000       12.0110           0
     12636 MEMB     117      OSM      H5S      HEL1     0.150000       1.00800           0
     12637 MEMB     117      OSM      C6S      CTL2    -0.180000       12.0110           0
     12638 MEMB     117      OSM      H6S      HAL2     0.900000E-01   1.00800           0
     12639 MEMB     117      OSM      H6T      HAL2     0.900000E-01   1.00800           0
     12640 MEMB     117      OSM      C7S      CTL2    -0.180000       12.0110           0
     12641 MEMB     117      OSM      H7S      HAL2     0.900000E-01   1.00800           0
     12642 MEMB     117      OSM      H7T      HAL2     0.900000E-01   1.00800           0
     12643 MEMB     117      OSM      C8S      CTL2    -0.180000       12.0110           0
     12644 MEMB     117      OSM      H8S      HAL2     0.900000E-01   1.00800           0
     12645 MEMB     117      OSM      H8T      HAL2     0.900000E-01   1.00800           0
     12646 MEMB     117      OSM      C9S      CTL2    -0.180000       12.0110           0
     12647 MEMB     117      OSM      H9S      HAL2     0.900000E-01   1.00800           0
     12648 MEMB     117      OSM      H9T      HAL2     0.900000E-01   1.00800           0
     12649 MEMB     117      OSM      C10S     CTL2    -0.180000       12.0110           0
     12650 MEMB     117      OSM      H10S     HAL2     0.900000E-01   1.00800           0
     12651 MEMB     117      OSM      H10T     HAL2     0.900000E-01   1.00800           0
     12652 MEMB     117      OSM      C11S     CTL2    -0.180000       12.0110           0
     12653 MEMB     117      OSM      H11S     HAL2     0.900000E-01   1.00800           0
     12654 MEMB     117      OSM      H11T     HAL2     0.900000E-01   1.00800           0
     12655 MEMB     117      OSM      C12S     CTL2    -0.180000       12.0110           0
     12656 MEMB     117      OSM      H12S     HAL2     0.900000E-01   1.00800           0
     12657 MEMB     117      OSM      H12T     HAL2     0.900000E-01   1.00800           0
     12658 MEMB     117      OSM      C13S     CTL2    -0.180000       12.0110           0
     12659 MEMB     117      OSM      H13S     HAL2     0.900000E-01   1.00800           0
     12660 MEMB     117      OSM      H13T     HAL2     0.900000E-01   1.00800           0
     12661 MEMB     117      OSM      C14S     CTL2    -0.180000       12.0110           0
     12662 MEMB     117      OSM      H14S     HAL2     0.900000E-01   1.00800           0
     12663 MEMB     117      OSM      H14T     HAL2     0.900000E-01   1.00800           0
     12664 MEMB     117      OSM      C15S     CTL2    -0.180000       12.0110           0
     12665 MEMB     117      OSM      H15S     HAL2     0.900000E-01   1.00800           0
     12666 MEMB     117      OSM      H15T     HAL2     0.900000E-01   1.00800           0
     12667 MEMB     117      OSM      C16S     CTL2    -0.180000       12.0110           0
     12668 MEMB     117      OSM      H16S     HAL2     0.900000E-01   1.00800           0
     12669 MEMB     117      OSM      H16T     HAL2     0.900000E-01   1.00800           0
     12670 MEMB     117      OSM      C17S     CTL2    -0.180000       12.0110           0
     12671 MEMB     117      OSM      H17S     HAL2     0.900000E-01   1.00800           0
     12672 MEMB     117      OSM      H17T     HAL2     0.900000E-01   1.00800           0
     12673 MEMB     117      OSM      C18S     CTL3    -0.270000       12.0110           0
     12674 MEMB     117      OSM      H18S     HAL3     0.900000E-01   1.00800           0
     12675 MEMB     117      OSM      H18T     HAL3     0.900000E-01   1.00800           0
     12676 MEMB     117      OSM      H18U     HAL3     0.900000E-01   1.00800           0
     12677 MEMB     117      OSM      C1F      C        0.550000       12.0110           0
     12678 MEMB     117      OSM      OF       O       -0.600000       15.9994           0
     12679 MEMB     117      OSM      C2F      CTL2    -0.700000E-01   12.0110           0
     12680 MEMB     117      OSM      H2F      HAL2     0.600000E-01   1.00800           0
     12681 MEMB     117      OSM      H2G      HAL2     0.600000E-01   1.00800           0
     12682 MEMB     117      OSM      C3F      CTL2    -0.180000       12.0110           0
     12683 MEMB     117      OSM      H3F      HAL2     0.900000E-01   1.00800           0
     12684 MEMB     117      OSM      H3G      HAL2     0.900000E-01   1.00800           0
     12685 MEMB     117      OSM      C4F      CTL2    -0.180000       12.0110           0
     12686 MEMB     117      OSM      H4F      HAL2     0.900000E-01   1.00800           0
     12687 MEMB     117      OSM      H4G      HAL2     0.900000E-01   1.00800           0
     12688 MEMB     117      OSM      C5F      CTL2    -0.180000       12.0110           0
     12689 MEMB     117      OSM      H5F      HAL2     0.900000E-01   1.00800           0
     12690 MEMB     117      OSM      H5G      HAL2     0.900000E-01   1.00800           0
     12691 MEMB     117      OSM      C6F      CTL2    -0.180000       12.0110           0
     12692 MEMB     117      OSM      H6F      HAL2     0.900000E-01   1.00800           0
     12693 MEMB     117      OSM      H6G      HAL2     0.900000E-01   1.00800           0
     12694 MEMB     117      OSM      C7F      CTL2    -0.180000       12.0110           0
     12695 MEMB     117      OSM      H7F      HAL2     0.900000E-01   1.00800           0
     12696 MEMB     117      OSM      H7G      HAL2     0.900000E-01   1.00800           0
     12697 MEMB     117      OSM      C8F      CTL2    -0.180000       12.0110           0
     12698 MEMB     117      OSM      H8F      HAL2     0.900000E-01   1.00800           0
     12699 MEMB     117      OSM      H8G      HAL2     0.900000E-01   1.00800           0
     12700 MEMB     117      OSM      C9F      CEL1    -0.150000       12.0110           0
     12701 MEMB     117      OSM      H9F      HEL1     0.150000       1.00800           0
     12702 MEMB     117      OSM      C10F     CEL1    -0.150000       12.0110           0
     12703 MEMB     117      OSM      H10F     HEL1     0.150000       1.00800           0
     12704 MEMB     117      OSM      C11F     CTL2    -0.180000       12.0110           0
     12705 MEMB     117      OSM      H11F     HAL2     0.900000E-01   1.00800           0
     12706 MEMB     117      OSM      H11G     HAL2     0.900000E-01   1.00800           0
     12707 MEMB     117      OSM      C12F     CTL2    -0.180000       12.0110           0
     12708 MEMB     117      OSM      H12F     HAL2     0.900000E-01   1.00800           0
     12709 MEMB     117      OSM      H12G     HAL2     0.900000E-01   1.00800           0
     12710 MEMB     117      OSM      C13F     CTL2    -0.180000       12.0110           0
     12711 MEMB     117      OSM      H13F     HAL2     0.900000E-01   1.00800           0
     12712 MEMB     117      OSM      H13G     HAL2     0.900000E-01   1.00800           0
     12713 MEMB     117      OSM      C14F     CTL2    -0.180000       12.0110           0
     12714 MEMB     117      OSM      H14F     HAL2     0.900000E-01   1.00800           0
     12715 MEMB     117      OSM      H14G     HAL2     0.900000E-01   1.00800           0
     12716 MEMB     117      OSM      C15F     CTL2    -0.180000       12.0110           0
     12717 MEMB     117      OSM      H15F     HAL2     0.900000E-01   1.00800           0
     12718 MEMB     117      OSM      H15G     HAL2     0.900000E-01   1.00800           0
     12719 MEMB     117      OSM      C16F     CTL2    -0.180000       12.0110           0
     12720 MEMB     117      OSM      H16F     HAL2     0.900000E-01   1.00800           0
     12721 MEMB     117      OSM      H16G     HAL2     0.900000E-01   1.00800           0
     12722 MEMB     117      OSM      C17F     CTL2    -0.180000       12.0110           0
     12723 MEMB     117      OSM      H17F     HAL2     0.900000E-01   1.00800           0
     12724 MEMB     117      OSM      H17G     HAL2     0.900000E-01   1.00800           0
     12725 MEMB     117      OSM      C18F     CTL3    -0.270000       12.0110           0
     12726 MEMB     117      OSM      H18F     HAL3     0.900000E-01   1.00800           0
     12727 MEMB     117      OSM      H18G     HAL3     0.900000E-01   1.00800           0
     12728 MEMB     117      OSM      H18H     HAL3     0.900000E-01   1.00800           0
     12729 MEMB     125      OSM      N        NTL     -0.600000       14.0070           0
     12730 MEMB     125      OSM      C15      CTL5    -0.350000       12.0110           0
     12731 MEMB     125      OSM      H15A     HL       0.250000       1.00800           0
     12732 MEMB     125      OSM      H15B     HL       0.250000       1.00800           0
     12733 MEMB     125      OSM      H15C     HL       0.250000       1.00800           0
     12734 MEMB     125      OSM      C14      CTL5    -0.350000       12.0110           0
     12735 MEMB     125      OSM      H14A     HL       0.250000       1.00800           0
     12736 MEMB     125      OSM      H14B     HL       0.250000       1.00800           0
     12737 MEMB     125      OSM      H14C     HL       0.250000       1.00800           0
     12738 MEMB     125      OSM      C13      CTL5    -0.350000       12.0110           0
     12739 MEMB     125      OSM      H13A     HL       0.250000       1.00800           0
     12740 MEMB     125      OSM      H13B     HL       0.250000       1.00800           0
     12741 MEMB     125      OSM      H13C     HL       0.250000       1.00800           0
     12742 MEMB     125      OSM      C12      CTL2    -0.100000       12.0110           0
     12743 MEMB     125      OSM      H12A     HL       0.250000       1.00800           0
     12744 MEMB     125      OSM      H12B     HL       0.250000       1.00800           0
     12745 MEMB     125      OSM      C11      CTL2    -0.800000E-01   12.0110           0
     12746 MEMB     125      OSM      H11A     HAL2     0.900000E-01   1.00800           0
     12747 MEMB     125      OSM      H11B     HAL2     0.900000E-01   1.00800           0
     12748 MEMB     125      OSM      P        PL       1.500000       30.9740           0
     12749 MEMB     125      OSM      O13      O2L     -0.780000       15.9994           0
     12750 MEMB     125      OSM      O14      O2L     -0.780000       15.9994           0
     12751 MEMB     125      OSM      O11      OSLP    -0.570000       15.9994           0
     12752 MEMB     125      OSM      O12      OSLP    -0.570000       15.9994           0
     12753 MEMB     125      OSM      C1S      CTL2    -0.800000E-01   12.0110           0
     12754 MEMB     125      OSM      H1S      HAL2     0.900000E-01   1.00800           0
     12755 MEMB     125      OSM      H1T      HAL2     0.900000E-01   1.00800           0
     12756 MEMB     125      OSM      NF       NHL     -0.700000       14.0070           0
     12757 MEMB     125      OSM      HNF      H        0.350000       1.00800           0
     12758 MEMB     125      OSM      C2S      CTL1     0.300000       12.0110           0
     12759 MEMB     125      OSM      H2S      HAL1     0.500000E-01   1.00800           0
     12760 MEMB     125      OSM      C3S      CTO1     0.500000       12.0110           0
     12761 MEMB     125      OSM      H3S      HAL1    -0.110000       1.00800           0
     12762 MEMB     125      OSM      O3       OHL     -0.690000       15.9994           0
     12763 MEMB     125      OSM      HO3      HOL      0.300000       1.00800           0
     12764 MEMB     125      OSM      C4S      CEL3    -0.150000       12.0110           0
     12765 MEMB     125      OSM      H4S      HEL1     0.150000       1.00800           0
     12766 MEMB     125      OSM      C5S      CEL3    -0.150000       12.0110           0
     12767 MEMB     125      OSM      H5S      HEL1     0.150000       1.00800           0
     12768 MEMB     125      OSM      C6S      CTL2    -0.180000       12.0110           0
     12769 MEMB     125      OSM      H6S      HAL2     0.900000E-01   1.00800           0
     12770 MEMB     125      OSM      H6T      HAL2     0.900000E-01   1.00800           0
     12771 MEMB     125      OSM      C7S      CTL2    -0.180000       12.0110           0
     12772 MEMB     125      OSM      H7S      HAL2     0.900000E-01   1.00800           0
     12773 MEMB     125      OSM      H7T      HAL2     0.900000E-01   1.00800           0
     12774 MEMB     125      OSM      C8S      CTL2    -0.180000       12.0110           0
     12775 MEMB     125      OSM      H8S      HAL2     0.900000E-01   1.00800           0
     12776 MEMB     125      OSM      H8T      HAL2     0.900000E-01   1.00800           0
     12777 MEMB     125      OSM      C9S      CTL2    -0.180000       12.0110           0
     12778 MEMB     125      OSM      H9S      HAL2     0.900000E-01   1.00800           0
     12779 MEMB     125      OSM      H9T      HAL2     0.900000E-01   1.00800           0
     12780 MEMB     125      OSM      C10S     CTL2    -0.180000       12.0110           0
     12781 MEMB     125      OSM      H10S     HAL2     0.900000E-01   1.00800           0
     12782 MEMB     125      OSM      H10T     HAL2     0.900000E-01   1.00800           0
     12783 MEMB     125      OSM      C11S     CTL2    -0.180000       12.0110           0
     12784 MEMB     125      OSM      H11S     HAL2     0.900000E-01   1.00800           0
     12785 MEMB     125      OSM      H11T     HAL2     0.900000E-01   1.00800           0
     12786 MEMB     125      OSM      C12S     CTL2    -0.180000       12.0110           0
     12787 MEMB     125      OSM      H12S     HAL2     0.900000E-01   1.00800           0
     12788 MEMB     125      OSM      H12T     HAL2     0.900000E-01   1.00800           0
     12789 MEMB     125      OSM      C13S     CTL2    -0.180000       12.0110           0
     12790 MEMB     125      OSM      H13S     HAL2     0.900000E-01   1.00800           0
     12791 MEMB     125      OSM      H13T     HAL2     0.900000E-01   1.00800           0
     12792 MEMB     125      OSM      C14S     CTL2    -0.180000       12.0110           0
     12793 MEMB     125      OSM      H14S     HAL2     0.900000E-01   1.00800           0
     12794 MEMB     125      OSM      H14T     HAL2     0.900000E-01   1.00800           0
     12795 MEMB     125      OSM      C15S     CTL2    -0.180000       12.0110           0
     12796 MEMB     125      OSM      H15S     HAL2     0.900000E-01   1.00800           0
     12797 MEMB     125      OSM      H15T     HAL2     0.900000E-01   1.00800           0
     12798 MEMB     125      OSM      C16S     CTL2    -0.180000       12.0110           0
     12799 MEMB     125      OSM      H16S     HAL2     0.900000E-01   1.00800           0
     12800 MEMB     125      OSM      H16T     HAL2     0.900000E-01   1.00800           0
     12801 MEMB     125      OSM      C17S     CTL2    -0.180000       12.0110           0
     12802 MEMB     125      OSM      H17S     HAL2     0.900000E-01   1.00800           0
     12803 MEMB     125      OSM      H17T     HAL2     0.900000E-01   1.00800           0
     12804 MEMB     125      OSM      C18S     CTL3    -0.270000       12.0110           0
     12805 MEMB     125      OSM      H18S     HAL3     0.900000E-01   1.00800           0
     12806 MEMB     125      OSM      H18T     HAL3     0.900000E-01   1.00800           0
     12807 MEMB     125      OSM      H18U     HAL3     0.900000E-01   1.00800           0
     12808 MEMB     125      OSM      C1F      C        0.550000       12.0110           0
     12809 MEMB     125      OSM      OF       O       -0.600000       15.9994           0
     12810 MEMB     125      OSM      C2F      CTL2    -0.700000E-01   12.0110           0
     12811 MEMB     125      OSM      H2F      HAL2     0.600000E-01   1.00800           0
     12812 MEMB     125      OSM      H2G      HAL2     0.600000E-01   1.00800           0
     12813 MEMB     125      OSM      C3F      CTL2    -0.180000       12.0110           0
     12814 MEMB     125      OSM      H3F      HAL2     0.900000E-01   1.00800           0
     12815 MEMB     125      OSM      H3G      HAL2     0.900000E-01   1.00800           0
     12816 MEMB     125      OSM      C4F      CTL2    -0.180000       12.0110           0
     12817 MEMB     125      OSM      H4F      HAL2     0.900000E-01   1.00800           0
     12818 MEMB     125      OSM      H4G      HAL2     0.900000E-01   1.00800           0
     12819 MEMB     125      OSM      C5F      CTL2    -0.180000       12.0110           0
     12820 MEMB     125      OSM      H5F      HAL2     0.900000E-01   1.00800           0
     12821 MEMB     125      OSM      H5G      HAL2     0.900000E-01   1.00800           0
     12822 MEMB     125      OSM      C6F      CTL2    -0.180000       12.0110           0
     12823 MEMB     125      OSM      H6F      HAL2     0.900000E-01   1.00800           0
     12824 MEMB     125      OSM      H6G      HAL2     0.900000E-01   1.00800           0
     12825 MEMB     125      OSM      C7F      CTL2    -0.180000       12.0110           0
     12826 MEMB     125      OSM      H7F      HAL2     0.900000E-01   1.00800           0
     12827 MEMB     125      OSM      H7G      HAL2     0.900000E-01   1.00800           0
     12828 MEMB     125      OSM      C8F      CTL2    -0.180000       12.0110           0
     12829 MEMB     125      OSM      H8F      HAL2     0.900000E-01   1.00800           0
     12830 MEMB     125      OSM      H8G      HAL2     0.900000E-01   1.00800           0
     12831 MEMB     125      OSM      C9F      CEL1    -0.150000       12.0110           0
     12832 MEMB     125      OSM      H9F      HEL1     0.150000       1.00800           0
     12833 MEMB     125      OSM      C10F     CEL1    -0.150000       12.0110           0
     12834 MEMB     125      OSM      H10F     HEL1     0.150000       1.00800           0
     12835 MEMB     125      OSM      C11F     CTL2    -0.180000       12.0110           0
     12836 MEMB     125      OSM      H11F     HAL2     0.900000E-01   1.00800           0
     12837 MEMB     125      OSM      H11G     HAL2     0.900000E-01   1.00800           0
     12838 MEMB     125      OSM      C12F     CTL2    -0.180000       12.0110           0
     12839 MEMB     125      OSM      H12F     HAL2     0.900000E-01   1.00800           0
     12840 MEMB     125      OSM      H12G     HAL2     0.900000E-01   1.00800           0
     12841 MEMB     125      OSM      C13F     CTL2    -0.180000       12.0110           0
     12842 MEMB     125      OSM      H13F     HAL2     0.900000E-01   1.00800           0
     12843 MEMB     125      OSM      H13G     HAL2     0.900000E-01   1.00800           0
     12844 MEMB     125      OSM      C14F     CTL2    -0.180000       12.0110           0
     12845 MEMB     125      OSM      H14F     HAL2     0.900000E-01   1.00800           0
     12846 MEMB     125      OSM      H14G     HAL2     0.900000E-01   1.00800           0
     12847 MEMB     125      OSM      C15F     CTL2    -0.180000       12.0110           0
     12848 MEMB     125      OSM      H15F     HAL2     0.900000E-01   1.00800           0
     12849 MEMB     125      OSM      H15G     HAL2     0.900000E-01   1.00800           0
     12850 MEMB     125      OSM      C16F     CTL2    -0.180000       12.0110           0
     12851 MEMB     125      OSM      H16F     HAL2     0.900000E-01   1.00800           0
     12852 MEMB     125      OSM      H16G     HAL2     0.900000E-01   1.00800           0
     12853 MEMB     125      OSM      C17F     CTL2    -0.180000       12.0110           0
     12854 MEMB     125      OSM      H17F     HAL2     0.900000E-01   1.00800           0
     12855 MEMB     125      OSM      H17G     HAL2     0.900000E-01   1.00800           0
     12856 MEMB     125      OSM      C18F     CTL3    -0.270000       12.0110           0
     12857 MEMB     125      OSM      H18F     HAL3     0.900000E-01   1.00800           0
     12858 MEMB     125      OSM      H18G     HAL3     0.900000E-01   1.00800           0
     12859 MEMB     125      OSM      H18H     HAL3     0.900000E-01   1.00800           0
     12860 MEMB     126      OSM      N        NTL     -0.600000       14.0070           0
     12861 MEMB     126      OSM      C15      CTL5    -0.350000       12.0110           0
     12862 MEMB     126      OSM      H15A     HL       0.250000       1.00800           0
     12863 MEMB     126      OSM      H15B     HL       0.250000       1.00800           0
     12864 MEMB     126      OSM      H15C     HL       0.250000       1.00800           0
     12865 MEMB     126      OSM      C14      CTL5    -0.350000       12.0110           0
     12866 MEMB     126      OSM      H14A     HL       0.250000       1.00800           0
     12867 MEMB     126      OSM      H14B     HL       0.250000       1.00800           0
     12868 MEMB     126      OSM      H14C     HL       0.250000       1.00800           0
     12869 MEMB     126      OSM      C13      CTL5    -0.350000       12.0110           0
     12870 MEMB     126      OSM      H13A     HL       0.250000       1.00800           0
     12871 MEMB     126      OSM      H13B     HL       0.250000       1.00800           0
     12872 MEMB     126      OSM      H13C     HL       0.250000       1.00800           0
     12873 MEMB     126      OSM      C12      CTL2    -0.100000       12.0110           0
     12874 MEMB     126      OSM      H12A     HL       0.250000       1.00800           0
     12875 MEMB     126      OSM      H12B     HL       0.250000       1.00800           0
     12876 MEMB     126      OSM      C11      CTL2    -0.800000E-01   12.0110           0
     12877 MEMB     126      OSM      H11A     HAL2     0.900000E-01   1.00800           0
     12878 MEMB     126      OSM      H11B     HAL2     0.900000E-01   1.00800           0
     12879 MEMB     126      OSM      P        PL       1.500000       30.9740           0
     12880 MEMB     126      OSM      O13      O2L     -0.780000       15.9994           0
     12881 MEMB     126      OSM      O14      O2L     -0.780000       15.9994           0
     12882 MEMB     126      OSM      O11      OSLP    -0.570000       15.9994           0
     12883 MEMB     126      OSM      O12      OSLP    -0.570000       15.9994           0
     12884 MEMB     126      OSM      C1S      CTL2    -0.800000E-01   12.0110           0
     12885 MEMB     126      OSM      H1S      HAL2     0.900000E-01   1.00800           0
     12886 MEMB     126      OSM      H1T      HAL2     0.900000E-01   1.00800           0
     12887 MEMB     126      OSM      NF       NHL     -0.700000       14.0070           0
     12888 MEMB     126      OSM      HNF      H        0.350000       1.00800           0
     12889 MEMB     126      OSM      C2S      CTL1     0.300000       12.0110           0
     12890 MEMB     126      OSM      H2S      HAL1     0.500000E-01   1.00800           0
     12891 MEMB     126      OSM      C3S      CTO1     0.500000       12.0110           0
     12892 MEMB     126      OSM      H3S      HAL1    -0.110000       1.00800           0
     12893 MEMB     126      OSM      O3       OHL     -0.690000       15.9994           0
     12894 MEMB     126      OSM      HO3      HOL      0.300000       1.00800           0
     12895 MEMB     126      OSM      C4S      CEL3    -0.150000       12.0110           0
     12896 MEMB     126      OSM      H4S      HEL1     0.150000       1.00800           0
     12897 MEMB     126      OSM      C5S      CEL3    -0.150000       12.0110           0
     12898 MEMB     126      OSM      H5S      HEL1     0.150000       1.00800           0
     12899 MEMB     126      OSM      C6S      CTL2    -0.180000       12.0110           0
     12900 MEMB     126      OSM      H6S      HAL2     0.900000E-01   1.00800           0
     12901 MEMB     126      OSM      H6T      HAL2     0.900000E-01   1.00800           0
     12902 MEMB     126      OSM      C7S      CTL2    -0.180000       12.0110           0
     12903 MEMB     126      OSM      H7S      HAL2     0.900000E-01   1.00800           0
     12904 MEMB     126      OSM      H7T      HAL2     0.900000E-01   1.00800           0
     12905 MEMB     126      OSM      C8S      CTL2    -0.180000       12.0110           0
     12906 MEMB     126      OSM      H8S      HAL2     0.900000E-01   1.00800           0
     12907 MEMB     126      OSM      H8T      HAL2     0.900000E-01   1.00800           0
     12908 MEMB     126      OSM      C9S      CTL2    -0.180000       12.0110           0
     12909 MEMB     126      OSM      H9S      HAL2     0.900000E-01   1.00800           0
     12910 MEMB     126      OSM      H9T      HAL2     0.900000E-01   1.00800           0
     12911 MEMB     126      OSM      C10S     CTL2    -0.180000       12.0110           0
     12912 MEMB     126      OSM      H10S     HAL2     0.900000E-01   1.00800           0
     12913 MEMB     126      OSM      H10T     HAL2     0.900000E-01   1.00800           0
     12914 MEMB     126      OSM      C11S     CTL2    -0.180000       12.0110           0
     12915 MEMB     126      OSM      H11S     HAL2     0.900000E-01   1.00800           0
     12916 MEMB     126      OSM      H11T     HAL2     0.900000E-01   1.00800           0
     12917 MEMB     126      OSM      C12S     CTL2    -0.180000       12.0110           0
     12918 MEMB     126      OSM      H12S     HAL2     0.900000E-01   1.00800           0
     12919 MEMB     126      OSM      H12T     HAL2     0.900000E-01   1.00800           0
     12920 MEMB     126      OSM      C13S     CTL2    -0.180000       12.0110           0
     12921 MEMB     126      OSM      H13S     HAL2     0.900000E-01   1.00800           0
     12922 MEMB     126      OSM      H13T     HAL2     0.900000E-01   1.00800           0
     12923 MEMB     126      OSM      C14S     CTL2    -0.180000       12.0110           0
     12924 MEMB     126      OSM      H14S     HAL2     0.900000E-01   1.00800           0
     12925 MEMB     126      OSM      H14T     HAL2     0.900000E-01   1.00800           0
     12926 MEMB     126      OSM      C15S     CTL2    -0.180000       12.0110           0
     12927 MEMB     126      OSM      H15S     HAL2     0.900000E-01   1.00800           0
     12928 MEMB     126      OSM      H15T     HAL2     0.900000E-01   1.00800           0
     12929 MEMB     126      OSM      C16S     CTL2    -0.180000       12.0110           0
     12930 MEMB     126      OSM      H16S     HAL2     0.900000E-01   1.00800           0
     12931 MEMB     126      OSM      H16T     HAL2     0.900000E-01   1.00800           0
     12932 MEMB     126      OSM      C17S     CTL2    -0.180000       12.0110           0
     12933 MEMB     126      OSM      H17S     HAL2     0.900000E-01   1.00800           0
     12934 MEMB     126      OSM      H17T     HAL2     0.900000E-01   1.00800           0
     12935 MEMB     126      OSM      C18S     CTL3    -0.270000       12.0110           0
     12936 MEMB     126      OSM      H18S     HAL3     0.900000E-01   1.00800           0
     12937 MEMB     126      OSM      H18T     HAL3     0.900000E-01   1.00800           0
     12938 MEMB     126      OSM      H18U     HAL3     0.900000E-01   1.00800           0
     12939 MEMB     126      OSM      C1F      C        0.550000       12.0110           0
     12940 MEMB     126      OSM      OF       O       -0.600000       15.9994           0
     12941 MEMB     126      OSM      C2F      CTL2    -0.700000E-01   12.0110           0
     12942 MEMB     126      OSM      H2F      HAL2     0.600000E-01   1.00800           0
     12943 MEMB     126      OSM      H2G      HAL2     0.600000E-01   1.00800           0
     12944 MEMB     126      OSM      C3F      CTL2    -0.180000       12.0110           0
     12945 MEMB     126      OSM      H3F      HAL2     0.900000E-01   1.00800           0
     12946 MEMB     126      OSM      H3G      HAL2     0.900000E-01   1.00800           0
     12947 MEMB     126      OSM      C4F      CTL2    -0.180000       12.0110           0
     12948 MEMB     126      OSM      H4F      HAL2     0.900000E-01   1.00800           0
     12949 MEMB     126      OSM      H4G      HAL2     0.900000E-01   1.00800           0
     12950 MEMB     126      OSM      C5F      CTL2    -0.180000       12.0110           0
     12951 MEMB     126      OSM      H5F      HAL2     0.900000E-01   1.00800           0
     12952 MEMB     126      OSM      H5G      HAL2     0.900000E-01   1.00800           0
     12953 MEMB     126      OSM      C6F      CTL2    -0.180000       12.0110           0
     12954 MEMB     126      OSM      H6F      HAL2     0.900000E-01   1.00800           0
     12955 MEMB     126      OSM      H6G      HAL2     0.900000E-01   1.00800           0
     12956 MEMB     126      OSM      C7F      CTL2    -0.180000       12.0110           0
     12957 MEMB     126      OSM      H7F      HAL2     0.900000E-01   1.00800           0
     12958 MEMB     126      OSM      H7G      HAL2     0.900000E-01   1.00800           0
     12959 MEMB     126      OSM      C8F      CTL2    -0.180000       12.0110           0
     12960 MEMB     126      OSM      H8F      HAL2     0.900000E-01   1.00800           0
     12961 MEMB     126      OSM      H8G      HAL2     0.900000E-01   1.00800           0
     12962 MEMB     126      OSM      C9F      CEL1    -0.150000       12.0110           0
     12963 MEMB     126      OSM      H9F      HEL1     0.150000       1.00800           0
     12964 MEMB     126      OSM      C10F     CEL1    -0.150000       12.0110           0
     12965 MEMB     126      OSM      H10F     HEL1     0.150000       1.00800           0
     12966 MEMB     126      OSM      C11F     CTL2    -0.180000       12.0110           0
     12967 MEMB     126      OSM      H11F     HAL2     0.900000E-01   1.00800           0
     12968 MEMB     126      OSM      H11G     HAL2     0.900000E-01   1.00800           0
     12969 MEMB     126      OSM      C12F     CTL2    -0.180000       12.0110           0
     12970 MEMB     126      OSM      H12F     HAL2     0.900000E-01   1.00800           0
     12971 MEMB     126      OSM      H12G     HAL2     0.900000E-01   1.00800           0
     12972 MEMB     126      OSM      C13F     CTL2    -0.180000       12.0110           0
     12973 MEMB     126      OSM      H13F     HAL2     0.900000E-01   1.00800           0
     12974 MEMB     126      OSM      H13G     HAL2     0.900000E-01   1.00800           0
     12975 MEMB     126      OSM      C14F     CTL2    -0.180000       12.0110           0
     12976 MEMB     126      OSM      H14F     HAL2     0.900000E-01   1.00800           0
     12977 MEMB     126      OSM      H14G     HAL2     0.900000E-01   1.00800           0
     12978 MEMB     126      OSM      C15F     CTL2    -0.180000       12.0110           0
     12979 MEMB     126      OSM      H15F     HAL2     0.900000E-01   1.00800           0
     12980 MEMB     126      OSM      H15G     HAL2     0.900000E-01   1.00800           0
     12981 MEMB     126      OSM      C16F     CTL2    -0.180000       12.0110           0
     12982 MEMB     126      OSM      H16F     HAL2     0.900000E-01   1.00800           0
     12983 MEMB     126      OSM      H16G     HAL2     0.900000E-01   1.00800           0
     12984 MEMB     126      OSM      C17F     CTL2    -0.180000       12.0110           0
     12985 MEMB     126      OSM      H17F     HAL2     0.900000E-01   1.00800           0
     12986 MEMB     126      OSM      H17G     HAL2     0.900000E-01   1.00800           0
     12987 MEMB     126      OSM      C18F     CTL3    -0.270000       12.0110           0
     12988 MEMB     126      OSM      H18F     HAL3     0.900000E-01   1.00800           0
     12989 MEMB     126      OSM      H18G     HAL3     0.900000E-01   1.00800           0
     12990 MEMB     126      OSM      H18H     HAL3     0.900000E-01   1.00800           0
     12991 MEMB     127      OSM      N        NTL     -0.600000       14.0070           0
     12992 MEMB     127      OSM      C15      CTL5    -0.350000       12.0110           0
     12993 MEMB     127      OSM      H15A     HL       0.250000       1.00800           0
     12994 MEMB     127      OSM      H15B     HL       0.250000       1.00800           0
     12995 MEMB     127      OSM      H15C     HL       0.250000       1.00800           0
     12996 MEMB     127      OSM      C14      CTL5    -0.350000       12.0110           0
     12997 MEMB     127      OSM      H14A     HL       0.250000       1.00800           0
     12998 MEMB     127      OSM      H14B     HL       0.250000       1.00800           0
     12999 MEMB     127      OSM      H14C     HL       0.250000       1.00800           0
     13000 MEMB     127      OSM      C13      CTL5    -0.350000       12.0110           0
     13001 MEMB     127      OSM      H13A     HL       0.250000       1.00800           0
     13002 MEMB     127      OSM      H13B     HL       0.250000       1.00800           0
     13003 MEMB     127      OSM      H13C     HL       0.250000       1.00800           0
     13004 MEMB     127      OSM      C12      CTL2    -0.100000       12.0110           0
     13005 MEMB     127      OSM      H12A     HL       0.250000       1.00800           0
     13006 MEMB     127      OSM      H12B     HL       0.250000       1.00800           0
     13007 MEMB     127      OSM      C11      CTL2    -0.800000E-01   12.0110           0
     13008 MEMB     127      OSM      H11A     HAL2     0.900000E-01   1.00800           0
     13009 MEMB     127      OSM      H11B     HAL2     0.900000E-01   1.00800           0
     13010 MEMB     127      OSM      P        PL       1.500000       30.9740           0
     13011 MEMB     127      OSM      O13      O2L     -0.780000       15.9994           0
     13012 MEMB     127      OSM      O14      O2L     -0.780000       15.9994           0
     13013 MEMB     127      OSM      O11      OSLP    -0.570000       15.9994           0
     13014 MEMB     127      OSM      O12      OSLP    -0.570000       15.9994           0
     13015 MEMB     127      OSM      C1S      CTL2    -0.800000E-01   12.0110           0
     13016 MEMB     127      OSM      H1S      HAL2     0.900000E-01   1.00800           0
     13017 MEMB     127      OSM      H1T      HAL2     0.900000E-01   1.00800           0
     13018 MEMB     127      OSM      NF       NHL     -0.700000       14.0070           0
     13019 MEMB     127      OSM      HNF      H        0.350000       1.00800           0
     13020 MEMB     127      OSM      C2S      CTL1     0.300000       12.0110           0
     13021 MEMB     127      OSM      H2S      HAL1     0.500000E-01   1.00800           0
     13022 MEMB     127      OSM      C3S      CTO1     0.500000       12.0110           0
     13023 MEMB     127      OSM      H3S      HAL1    -0.110000       1.00800           0
     13024 MEMB     127      OSM      O3       OHL     -0.690000       15.9994           0
     13025 MEMB     127      OSM      HO3      HOL      0.300000       1.00800           0
     13026 MEMB     127      OSM      C4S      CEL3    -0.150000       12.0110           0
     13027 MEMB     127      OSM      H4S      HEL1     0.150000       1.00800           0
     13028 MEMB     127      OSM      C5S      CEL3    -0.150000       12.0110           0
     13029 MEMB     127      OSM      H5S      HEL1     0.150000       1.00800           0
     13030 MEMB     127      OSM      C6S      CTL2    -0.180000       12.0110           0
     13031 MEMB     127      OSM      H6S      HAL2     0.900000E-01   1.00800           0
     13032 MEMB     127      OSM      H6T      HAL2     0.900000E-01   1.00800           0
     13033 MEMB     127      OSM      C7S      CTL2    -0.180000       12.0110           0
     13034 MEMB     127      OSM      H7S      HAL2     0.900000E-01   1.00800           0
     13035 MEMB     127      OSM      H7T      HAL2     0.900000E-01   1.00800           0
     13036 MEMB     127      OSM      C8S      CTL2    -0.180000       12.0110           0
     13037 MEMB     127      OSM      H8S      HAL2     0.900000E-01   1.00800           0
     13038 MEMB     127      OSM      H8T      HAL2     0.900000E-01   1.00800           0
     13039 MEMB     127      OSM      C9S      CTL2    -0.180000       12.0110           0
     13040 MEMB     127      OSM      H9S      HAL2     0.900000E-01   1.00800           0
     13041 MEMB     127      OSM      H9T      HAL2     0.900000E-01   1.00800           0
     13042 MEMB     127      OSM      C10S     CTL2    -0.180000       12.0110           0
     13043 MEMB     127      OSM      H10S     HAL2     0.900000E-01   1.00800           0
     13044 MEMB     127      OSM      H10T     HAL2     0.900000E-01   1.00800           0
     13045 MEMB     127      OSM      C11S     CTL2    -0.180000       12.0110           0
     13046 MEMB     127      OSM      H11S     HAL2     0.900000E-01   1.00800           0
     13047 MEMB     127      OSM      H11T     HAL2     0.900000E-01   1.00800           0
     13048 MEMB     127      OSM      C12S     CTL2    -0.180000       12.0110           0
     13049 MEMB     127      OSM      H12S     HAL2     0.900000E-01   1.00800           0
     13050 MEMB     127      OSM      H12T     HAL2     0.900000E-01   1.00800           0
     13051 MEMB     127      OSM      C13S     CTL2    -0.180000       12.0110           0
     13052 MEMB     127      OSM      H13S     HAL2     0.900000E-01   1.00800           0
     13053 MEMB     127      OSM      H13T     HAL2     0.900000E-01   1.00800           0
     13054 MEMB     127      OSM      C14S     CTL2    -0.180000       12.0110           0
     13055 MEMB     127      OSM      H14S     HAL2     0.900000E-01   1.00800           0
     13056 MEMB     127      OSM      H14T     HAL2     0.900000E-01   1.00800           0
     13057 MEMB     127      OSM      C15S     CTL2    -0.180000       12.0110           0
     13058 MEMB     127      OSM      H15S     HAL2     0.900000E-01   1.00800           0
     13059 MEMB     127      OSM      H15T     HAL2     0.900000E-01   1.00800           0
     13060 MEMB     127      OSM      C16S     CTL2    -0.180000       12.0110           0
     13061 MEMB     127      OSM      H16S     HAL2     0.900000E-01   1.00800           0
     13062 MEMB     127      OSM      H16T     HAL2     0.900000E-01   1.00800           0
     13063 MEMB     127      OSM      C17S     CTL2    -0.180000       12.0110           0
     13064 MEMB     127      OSM      H17S     HAL2     0.900000E-01   1.00800           0
     13065 MEMB     127      OSM      H17T     HAL2     0.900000E-01   1.00800           0
     13066 MEMB     127      OSM      C18S     CTL3    -0.270000       12.0110           0
     13067 MEMB     127      OSM      H18S     HAL3     0.900000E-01   1.00800           0
     13068 MEMB     127      OSM      H18T     HAL3     0.900000E-01   1.00800           0
     13069 MEMB     127      OSM      H18U     HAL3     0.900000E-01   1.00800           0
     13070 MEMB     127      OSM      C1F      C        0.550000       12.0110           0
     13071 MEMB     127      OSM      OF       O       -0.600000       15.9994           0
     13072 MEMB     127      OSM      C2F      CTL2    -0.700000E-01   12.0110           0
     13073 MEMB     127      OSM      H2F      HAL2     0.600000E-01   1.00800           0
     13074 MEMB     127      OSM      H2G      HAL2     0.600000E-01   1.00800           0
     13075 MEMB     127      OSM      C3F      CTL2    -0.180000       12.0110           0
     13076 MEMB     127      OSM      H3F      HAL2     0.900000E-01   1.00800           0
     13077 MEMB     127      OSM      H3G      HAL2     0.900000E-01   1.00800           0
     13078 MEMB     127      OSM      C4F      CTL2    -0.180000       12.0110           0
     13079 MEMB     127      OSM      H4F      HAL2     0.900000E-01   1.00800           0
     13080 MEMB     127      OSM      H4G      HAL2     0.900000E-01   1.00800           0
     13081 MEMB     127      OSM      C5F      CTL2    -0.180000       12.0110           0
     13082 MEMB     127      OSM      H5F      HAL2     0.900000E-01   1.00800           0
     13083 MEMB     127      OSM      H5G      HAL2     0.900000E-01   1.00800           0
     13084 MEMB     127      OSM      C6F      CTL2    -0.180000       12.0110           0
     13085 MEMB     127      OSM      H6F      HAL2     0.900000E-01   1.00800           0
     13086 MEMB     127      OSM      H6G      HAL2     0.900000E-01   1.00800           0
     13087 MEMB     127      OSM      C7F      CTL2    -0.180000       12.0110           0
     13088 MEMB     127      OSM      H7F      HAL2     0.900000E-01   1.00800           0
     13089 MEMB     127      OSM      H7G      HAL2     0.900000E-01   1.00800           0
     13090 MEMB     127      OSM      C8F      CTL2    -0.180000       12.0110           0
     13091 MEMB     127      OSM      H8F      HAL2     0.900000E-01   1.00800           0
     13092 MEMB     127      OSM      H8G      HAL2     0.900000E-01   1.00800           0
     13093 MEMB     127      OSM      C9F      CEL1    -0.150000       12.0110           0
     13094 MEMB     127      OSM      H9F      HEL1     0.150000       1.00800           0
     13095 MEMB     127      OSM      C10F     CEL1    -0.150000       12.0110           0
     13096 MEMB     127      OSM      H10F     HEL1     0.150000       1.00800           0
     13097 MEMB     127      OSM      C11F     CTL2    -0.180000       12.0110           0
     13098 MEMB     127      OSM      H11F     HAL2     0.900000E-01   1.00800           0
     13099 MEMB     127      OSM      H11G     HAL2     0.900000E-01   1.00800           0
     13100 MEMB     127      OSM      C12F     CTL2    -0.180000       12.0110           0
     13101 MEMB     127      OSM      H12F     HAL2     0.900000E-01   1.00800           0
     13102 MEMB     127      OSM      H12G     HAL2     0.900000E-01   1.00800           0
     13103 MEMB     127      OSM      C13F     CTL2    -0.180000       12.0110           0
     13104 MEMB     127      OSM      H13F     HAL2     0.900000E-01   1.00800           0
     13105 MEMB     127      OSM      H13G     HAL2     0.900000E-01   1.00800           0
     13106 MEMB     127      OSM      C14F     CTL2    -0.180000       12.0110           0
     13107 MEMB     127      OSM      H14F     HAL2     0.900000E-01   1.00800           0
     13108 MEMB     127      OSM      H14G     HAL2     0.900000E-01   1.00800           0
     13109 MEMB     127      OSM      C15F     CTL2    -0.180000       12.0110           0
     13110 MEMB     127      OSM      H15F     HAL2     0.900000E-01   1.00800           0
     13111 MEMB     127      OSM      H15G     HAL2     0.900000E-01   1.00800           0
     13112 MEMB     127      OSM      C16F     CTL2    -0.180000       12.0110           0
     13113 MEMB     127      OSM      H16F     HAL2     0.900000E-01   1.00800           0
     13114 MEMB     127      OSM      H16G     HAL2     0.900000E-01   1.00800           0
     13115 MEMB     127      OSM      C17F     CTL2    -0.180000       12.0110           0
     13116 MEMB     127      OSM      H17F     HAL2     0.900000E-01   1.00800           0
     13117 MEMB     127      OSM      H17G     HAL2     0.900000E-01   1.00800           0
     13118 MEMB     127      OSM      C18F     CTL3    -0.270000       12.0110           0
     13119 MEMB     127      OSM      H18F     HAL3     0.900000E-01   1.00800           0
     13120 MEMB     127      OSM      H18G     HAL3     0.900000E-01   1.00800           0
     13121 MEMB     127      OSM      H18H     HAL3     0.900000E-01   1.00800           0
     13122 MEMB     137      OSM      N        NTL     -0.600000       14.0070           0
     13123 MEMB     137      OSM      C15      CTL5    -0.350000       12.0110           0
     13124 MEMB     137      OSM      H15A     HL       0.250000       1.00800           0
     13125 MEMB     137      OSM      H15B     HL       0.250000       1.00800           0
     13126 MEMB     137      OSM      H15C     HL       0.250000       1.00800           0
     13127 MEMB     137      OSM      C14      CTL5    -0.350000       12.0110           0
     13128 MEMB     137      OSM      H14A     HL       0.250000       1.00800           0
     13129 MEMB     137      OSM      H14B     HL       0.250000       1.00800           0
     13130 MEMB     137      OSM      H14C     HL       0.250000       1.00800           0
     13131 MEMB     137      OSM      C13      CTL5    -0.350000       12.0110           0
     13132 MEMB     137      OSM      H13A     HL       0.250000       1.00800           0
     13133 MEMB     137      OSM      H13B     HL       0.250000       1.00800           0
     13134 MEMB     137      OSM      H13C     HL       0.250000       1.00800           0
     13135 MEMB     137      OSM      C12      CTL2    -0.100000       12.0110           0
     13136 MEMB     137      OSM      H12A     HL       0.250000       1.00800           0
     13137 MEMB     137      OSM      H12B     HL       0.250000       1.00800           0
     13138 MEMB     137      OSM      C11      CTL2    -0.800000E-01   12.0110           0
     13139 MEMB     137      OSM      H11A     HAL2     0.900000E-01   1.00800           0
     13140 MEMB     137      OSM      H11B     HAL2     0.900000E-01   1.00800           0
     13141 MEMB     137      OSM      P        PL       1.500000       30.9740           0
     13142 MEMB     137      OSM      O13      O2L     -0.780000       15.9994           0
     13143 MEMB     137      OSM      O14      O2L     -0.780000       15.9994           0
     13144 MEMB     137      OSM      O11      OSLP    -0.570000       15.9994           0
     13145 MEMB     137      OSM      O12      OSLP    -0.570000       15.9994           0
     13146 MEMB     137      OSM      C1S      CTL2    -0.800000E-01   12.0110           0
     13147 MEMB     137      OSM      H1S      HAL2     0.900000E-01   1.00800           0
     13148 MEMB     137      OSM      H1T      HAL2     0.900000E-01   1.00800           0
     13149 MEMB     137      OSM      NF       NHL     -0.700000       14.0070           0
     13150 MEMB     137      OSM      HNF      H        0.350000       1.00800           0
     13151 MEMB     137      OSM      C2S      CTL1     0.300000       12.0110           0
     13152 MEMB     137      OSM      H2S      HAL1     0.500000E-01   1.00800           0
     13153 MEMB     137      OSM      C3S      CTO1     0.500000       12.0110           0
     13154 MEMB     137      OSM      H3S      HAL1    -0.110000       1.00800           0
     13155 MEMB     137      OSM      O3       OHL     -0.690000       15.9994           0
     13156 MEMB     137      OSM      HO3      HOL      0.300000       1.00800           0
     13157 MEMB     137      OSM      C4S      CEL3    -0.150000       12.0110           0
     13158 MEMB     137      OSM      H4S      HEL1     0.150000       1.00800           0
     13159 MEMB     137      OSM      C5S      CEL3    -0.150000       12.0110           0
     13160 MEMB     137      OSM      H5S      HEL1     0.150000       1.00800           0
     13161 MEMB     137      OSM      C6S      CTL2    -0.180000       12.0110           0
     13162 MEMB     137      OSM      H6S      HAL2     0.900000E-01   1.00800           0
     13163 MEMB     137      OSM      H6T      HAL2     0.900000E-01   1.00800           0
     13164 MEMB     137      OSM      C7S      CTL2    -0.180000       12.0110           0
     13165 MEMB     137      OSM      H7S      HAL2     0.900000E-01   1.00800           0
     13166 MEMB     137      OSM      H7T      HAL2     0.900000E-01   1.00800           0
     13167 MEMB     137      OSM      C8S      CTL2    -0.180000       12.0110           0
     13168 MEMB     137      OSM      H8S      HAL2     0.900000E-01   1.00800           0
     13169 MEMB     137      OSM      H8T      HAL2     0.900000E-01   1.00800           0
     13170 MEMB     137      OSM      C9S      CTL2    -0.180000       12.0110           0
     13171 MEMB     137      OSM      H9S      HAL2     0.900000E-01   1.00800           0
     13172 MEMB     137      OSM      H9T      HAL2     0.900000E-01   1.00800           0
     13173 MEMB     137      OSM      C10S     CTL2    -0.180000       12.0110           0
     13174 MEMB     137      OSM      H10S     HAL2     0.900000E-01   1.00800           0
     13175 MEMB     137      OSM      H10T     HAL2     0.900000E-01   1.00800           0
     13176 MEMB     137      OSM      C11S     CTL2    -0.180000       12.0110           0
     13177 MEMB     137      OSM      H11S     HAL2     0.900000E-01   1.00800           0
     13178 MEMB     137      OSM      H11T     HAL2     0.900000E-01   1.00800           0
     13179 MEMB     137      OSM      C12S     CTL2    -0.180000       12.0110           0
     13180 MEMB     137      OSM      H12S     HAL2     0.900000E-01   1.00800           0
     13181 MEMB     137      OSM      H12T     HAL2     0.900000E-01   1.00800           0
     13182 MEMB     137      OSM      C13S     CTL2    -0.180000       12.0110           0
     13183 MEMB     137      OSM      H13S     HAL2     0.900000E-01   1.00800           0
     13184 MEMB     137      OSM      H13T     HAL2     0.900000E-01   1.00800           0
     13185 MEMB     137      OSM      C14S     CTL2    -0.180000       12.0110           0
     13186 MEMB     137      OSM      H14S     HAL2     0.900000E-01   1.00800           0
     13187 MEMB     137      OSM      H14T     HAL2     0.900000E-01   1.00800           0
     13188 MEMB     137      OSM      C15S     CTL2    -0.180000       12.0110           0
     13189 MEMB     137      OSM      H15S     HAL2     0.900000E-01   1.00800           0
     13190 MEMB     137      OSM      H15T     HAL2     0.900000E-01   1.00800           0
     13191 MEMB     137      OSM      C16S     CTL2    -0.180000       12.0110           0
     13192 MEMB     137      OSM      H16S     HAL2     0.900000E-01   1.00800           0
     13193 MEMB     137      OSM      H16T     HAL2     0.900000E-01   1.00800           0
     13194 MEMB     137      OSM      C17S     CTL2    -0.180000       12.0110           0
     13195 MEMB     137      OSM      H17S     HAL2     0.900000E-01   1.00800           0
     13196 MEMB     137      OSM      H17T     HAL2     0.900000E-01   1.00800           0
     13197 MEMB     137      OSM      C18S     CTL3    -0.270000       12.0110           0
     13198 MEMB     137      OSM      H18S     HAL3     0.900000E-01   1.00800           0
     13199 MEMB     137      OSM      H18T     HAL3     0.900000E-01   1.00800           0
     13200 MEMB     137      OSM      H18U     HAL3     0.900000E-01   1.00800           0
     13201 MEMB     137      OSM      C1F      C        0.550000       12.0110           0
     13202 MEMB     137      OSM      OF       O       -0.600000       15.9994           0
     13203 MEMB     137      OSM      C2F      CTL2    -0.700000E-01   12.0110           0
     13204 MEMB     137      OSM      H2F      HAL2     0.600000E-01   1.00800           0
     13205 MEMB     137      OSM      H2G      HAL2     0.600000E-01   1.00800           0
     13206 MEMB     137      OSM      C3F      CTL2    -0.180000       12.0110           0
     13207 MEMB     137      OSM      H3F      HAL2     0.900000E-01   1.00800           0
     13208 MEMB     137      OSM      H3G      HAL2     0.900000E-01   1.00800           0
     13209 MEMB     137      OSM      C4F      CTL2    -0.180000       12.0110           0
     13210 MEMB     137      OSM      H4F      HAL2     0.900000E-01   1.00800           0
     13211 MEMB     137      OSM      H4G      HAL2     0.900000E-01   1.00800           0
     13212 MEMB     137      OSM      C5F      CTL2    -0.180000       12.0110           0
     13213 MEMB     137      OSM      H5F      HAL2     0.900000E-01   1.00800           0
     13214 MEMB     137      OSM      H5G      HAL2     0.900000E-01   1.00800           0
     13215 MEMB     137      OSM      C6F      CTL2    -0.180000       12.0110           0
     13216 MEMB     137      OSM      H6F      HAL2     0.900000E-01   1.00800           0
     13217 MEMB     137      OSM      H6G      HAL2     0.900000E-01   1.00800           0
     13218 MEMB     137      OSM      C7F      CTL2    -0.180000       12.0110           0
     13219 MEMB     137      OSM      H7F      HAL2     0.900000E-01   1.00800           0
     13220 MEMB     137      OSM      H7G      HAL2     0.900000E-01   1.00800           0
     13221 MEMB     137      OSM      C8F      CTL2    -0.180000       12.0110           0
     13222 MEMB     137      OSM      H8F      HAL2     0.900000E-01   1.00800           0
     13223 MEMB     137      OSM      H8G      HAL2     0.900000E-01   1.00800           0
     13224 MEMB     137      OSM      C9F      CEL1    -0.150000       12.0110           0
     13225 MEMB     137      OSM      H9F      HEL1     0.150000       1.00800           0
     13226 MEMB     137      OSM      C10F     CEL1    -0.150000       12.0110           0
     13227 MEMB     137      OSM      H10F     HEL1     0.150000       1.00800           0
     13228 MEMB     137      OSM      C11F     CTL2    -0.180000       12.0110           0
     13229 MEMB     137      OSM      H11F     HAL2     0.900000E-01   1.00800           0
     13230 MEMB     137      OSM      H11G     HAL2     0.900000E-01   1.00800           0
     13231 MEMB     137      OSM      C12F     CTL2    -0.180000       12.0110           0
     13232 MEMB     137      OSM      H12F     HAL2     0.900000E-01   1.00800           0
     13233 MEMB     137      OSM      H12G     HAL2     0.900000E-01   1.00800           0
     13234 MEMB     137      OSM      C13F     CTL2    -0.180000       12.0110           0
     13235 MEMB     137      OSM      H13F     HAL2     0.900000E-01   1.00800           0
     13236 MEMB     137      OSM      H13G     HAL2     0.900000E-01   1.00800           0
     13237 MEMB     137      OSM      C14F     CTL2    -0.180000       12.0110           0
     13238 MEMB     137      OSM      H14F     HAL2     0.900000E-01   1.00800           0
     13239 MEMB     137      OSM      H14G     HAL2     0.900000E-01   1.00800           0
     13240 MEMB     137      OSM      C15F     CTL2    -0.180000       12.0110           0
     13241 MEMB     137      OSM      H15F     HAL2     0.900000E-01   1.00800           0
     13242 MEMB     137      OSM      H15G     HAL2     0.900000E-01   1.00800           0
     13243 MEMB     137      OSM      C16F     CTL2    -0.180000       12.0110           0
     13244 MEMB     137      OSM      H16F     HAL2     0.900000E-01   1.00800           0
     13245 MEMB     137      OSM      H16G     HAL2     0.900000E-01   1.00800           0
     13246 MEMB     137      OSM      C17F     CTL2    -0.180000       12.0110           0
     13247 MEMB     137      OSM      H17F     HAL2     0.900000E-01   1.00800           0
     13248 MEMB     137      OSM      H17G     HAL2     0.900000E-01   1.00800           0
     13249 MEMB     137      OSM      C18F     CTL3    -0.270000       12.0110           0
     13250 MEMB     137      OSM      H18F     HAL3     0.900000E-01   1.00800           0
     13251 MEMB     137      OSM      H18G     HAL3     0.900000E-01   1.00800           0
     13252 MEMB     137      OSM      H18H     HAL3     0.900000E-01   1.00800           0
     13253 MEMB     141      OSM      N        NTL     -0.600000       14.0070           0
     13254 MEMB     141      OSM      C15      CTL5    -0.350000       12.0110           0
     13255 MEMB     141      OSM      H15A     HL       0.250000       1.00800           0
     13256 MEMB     141      OSM      H15B     HL       0.250000       1.00800           0
     13257 MEMB     141      OSM      H15C     HL       0.250000       1.00800           0
     13258 MEMB     141      OSM      C14      CTL5    -0.350000       12.0110           0
     13259 MEMB     141      OSM      H14A     HL       0.250000       1.00800           0
     13260 MEMB     141      OSM      H14B     HL       0.250000       1.00800           0
     13261 MEMB     141      OSM      H14C     HL       0.250000       1.00800           0
     13262 MEMB     141      OSM      C13      CTL5    -0.350000       12.0110           0
     13263 MEMB     141      OSM      H13A     HL       0.250000       1.00800           0
     13264 MEMB     141      OSM      H13B     HL       0.250000       1.00800           0
     13265 MEMB     141      OSM      H13C     HL       0.250000       1.00800           0
     13266 MEMB     141      OSM      C12      CTL2    -0.100000       12.0110           0
     13267 MEMB     141      OSM      H12A     HL       0.250000       1.00800           0
     13268 MEMB     141      OSM      H12B     HL       0.250000       1.00800           0
     13269 MEMB     141      OSM      C11      CTL2    -0.800000E-01   12.0110           0
     13270 MEMB     141      OSM      H11A     HAL2     0.900000E-01   1.00800           0
     13271 MEMB     141      OSM      H11B     HAL2     0.900000E-01   1.00800           0
     13272 MEMB     141      OSM      P        PL       1.500000       30.9740           0
     13273 MEMB     141      OSM      O13      O2L     -0.780000       15.9994           0
     13274 MEMB     141      OSM      O14      O2L     -0.780000       15.9994           0
     13275 MEMB     141      OSM      O11      OSLP    -0.570000       15.9994           0
     13276 MEMB     141      OSM      O12      OSLP    -0.570000       15.9994           0
     13277 MEMB     141      OSM      C1S      CTL2    -0.800000E-01   12.0110           0
     13278 MEMB     141      OSM      H1S      HAL2     0.900000E-01   1.00800           0
     13279 MEMB     141      OSM      H1T      HAL2     0.900000E-01   1.00800           0
     13280 MEMB     141      OSM      NF       NHL     -0.700000       14.0070           0
     13281 MEMB     141      OSM      HNF      H        0.350000       1.00800           0
     13282 MEMB     141      OSM      C2S      CTL1     0.300000       12.0110           0
     13283 MEMB     141      OSM      H2S      HAL1     0.500000E-01   1.00800           0
     13284 MEMB     141      OSM      C3S      CTO1     0.500000       12.0110           0
     13285 MEMB     141      OSM      H3S      HAL1    -0.110000       1.00800           0
     13286 MEMB     141      OSM      O3       OHL     -0.690000       15.9994           0
     13287 MEMB     141      OSM      HO3      HOL      0.300000       1.00800           0
     13288 MEMB     141      OSM      C4S      CEL3    -0.150000       12.0110           0
     13289 MEMB     141      OSM      H4S      HEL1     0.150000       1.00800           0
     13290 MEMB     141      OSM      C5S      CEL3    -0.150000       12.0110           0
     13291 MEMB     141      OSM      H5S      HEL1     0.150000       1.00800           0
     13292 MEMB     141      OSM      C6S      CTL2    -0.180000       12.0110           0
     13293 MEMB     141      OSM      H6S      HAL2     0.900000E-01   1.00800           0
     13294 MEMB     141      OSM      H6T      HAL2     0.900000E-01   1.00800           0
     13295 MEMB     141      OSM      C7S      CTL2    -0.180000       12.0110           0
     13296 MEMB     141      OSM      H7S      HAL2     0.900000E-01   1.00800           0
     13297 MEMB     141      OSM      H7T      HAL2     0.900000E-01   1.00800           0
     13298 MEMB     141      OSM      C8S      CTL2    -0.180000       12.0110           0
     13299 MEMB     141      OSM      H8S      HAL2     0.900000E-01   1.00800           0
     13300 MEMB     141      OSM      H8T      HAL2     0.900000E-01   1.00800           0
     13301 MEMB     141      OSM      C9S      CTL2    -0.180000       12.0110           0
     13302 MEMB     141      OSM      H9S      HAL2     0.900000E-01   1.00800           0
     13303 MEMB     141      OSM      H9T      HAL2     0.900000E-01   1.00800           0
     13304 MEMB     141      OSM      C10S     CTL2    -0.180000       12.0110           0
     13305 MEMB     141      OSM      H10S     HAL2     0.900000E-01   1.00800           0
     13306 MEMB     141      OSM      H10T     HAL2     0.900000E-01   1.00800           0
     13307 MEMB     141      OSM      C11S     CTL2    -0.180000       12.0110           0
     13308 MEMB     141      OSM      H11S     HAL2     0.900000E-01   1.00800           0
     13309 MEMB     141      OSM      H11T     HAL2     0.900000E-01   1.00800           0
     13310 MEMB     141      OSM      C12S     CTL2    -0.180000       12.0110           0
     13311 MEMB     141      OSM      H12S     HAL2     0.900000E-01   1.00800           0
     13312 MEMB     141      OSM      H12T     HAL2     0.900000E-01   1.00800           0
     13313 MEMB     141      OSM      C13S     CTL2    -0.180000       12.0110           0
     13314 MEMB     141      OSM      H13S     HAL2     0.900000E-01   1.00800           0
     13315 MEMB     141      OSM      H13T     HAL2     0.900000E-01   1.00800           0
     13316 MEMB     141      OSM      C14S     CTL2    -0.180000       12.0110           0
     13317 MEMB     141      OSM      H14S     HAL2     0.900000E-01   1.00800           0
     13318 MEMB     141      OSM      H14T     HAL2     0.900000E-01   1.00800           0
     13319 MEMB     141      OSM      C15S     CTL2    -0.180000       12.0110           0
     13320 MEMB     141      OSM      H15S     HAL2     0.900000E-01   1.00800           0
     13321 MEMB     141      OSM      H15T     HAL2     0.900000E-01   1.00800           0
     13322 MEMB     141      OSM      C16S     CTL2    -0.180000       12.0110           0
     13323 MEMB     141      OSM      H16S     HAL2     0.900000E-01   1.00800           0
     13324 MEMB     141      OSM      H16T     HAL2     0.900000E-01   1.00800           0
     13325 MEMB     141      OSM      C17S     CTL2    -0.180000       12.0110           0
     13326 MEMB     141      OSM      H17S     HAL2     0.900000E-01   1.00800           0
     13327 MEMB     141      OSM      H17T     HAL2     0.900000E-01   1.00800           0
     13328 MEMB     141      OSM      C18S     CTL3    -0.270000       12.0110           0
     13329 MEMB     141      OSM      H18S     HAL3     0.900000E-01   1.00800           0
     13330 MEMB     141      OSM      H18T     HAL3     0.900000E-01   1.00800           0
     13331 MEMB     141      OSM      H18U     HAL3     0.900000E-01   1.00800           0
     13332 MEMB     141      OSM      C1F      C        0.550000       12.0110           0
     13333 MEMB     141      OSM      OF       O       -0.600000       15.9994           0
     13334 MEMB     141      OSM      C2F      CTL2    -0.700000E-01   12.0110           0
     13335 MEMB     141      OSM      H2F      HAL2     0.600000E-01   1.00800           0
     13336 MEMB     141      OSM      H2G      HAL2     0.600000E-01   1.00800           0
     13337 MEMB     141      OSM      C3F      CTL2    -0.180000       12.0110           0
     13338 MEMB     141      OSM      H3F      HAL2     0.900000E-01   1.00800           0
     13339 MEMB     141      OSM      H3G      HAL2     0.900000E-01   1.00800           0
     13340 MEMB     141      OSM      C4F      CTL2    -0.180000       12.0110           0
     13341 MEMB     141      OSM      H4F      HAL2     0.900000E-01   1.00800           0
     13342 MEMB     141      OSM      H4G      HAL2     0.900000E-01   1.00800           0
     13343 MEMB     141      OSM      C5F      CTL2    -0.180000       12.0110           0
     13344 MEMB     141      OSM      H5F      HAL2     0.900000E-01   1.00800           0
     13345 MEMB     141      OSM      H5G      HAL2     0.900000E-01   1.00800           0
     13346 MEMB     141      OSM      C6F      CTL2    -0.180000       12.0110           0
     13347 MEMB     141      OSM      H6F      HAL2     0.900000E-01   1.00800           0
     13348 MEMB     141      OSM      H6G      HAL2     0.900000E-01   1.00800           0
     13349 MEMB     141      OSM      C7F      CTL2    -0.180000       12.0110           0
     13350 MEMB     141      OSM      H7F      HAL2     0.900000E-01   1.00800           0
     13351 MEMB     141      OSM      H7G      HAL2     0.900000E-01   1.00800           0
     13352 MEMB     141      OSM      C8F      CTL2    -0.180000       12.0110           0
     13353 MEMB     141      OSM      H8F      HAL2     0.900000E-01   1.00800           0
     13354 MEMB     141      OSM      H8G      HAL2     0.900000E-01   1.00800           0
     13355 MEMB     141      OSM      C9F      CEL1    -0.150000       12.0110           0
     13356 MEMB     141      OSM      H9F      HEL1     0.150000       1.00800           0
     13357 MEMB     141      OSM      C10F     CEL1    -0.150000       12.0110           0
     13358 MEMB     141      OSM      H10F     HEL1     0.150000       1.00800           0
     13359 MEMB     141      OSM      C11F     CTL2    -0.180000       12.0110           0
     13360 MEMB     141      OSM      H11F     HAL2     0.900000E-01   1.00800           0
     13361 MEMB     141      OSM      H11G     HAL2     0.900000E-01   1.00800           0
     13362 MEMB     141      OSM      C12F     CTL2    -0.180000       12.0110           0
     13363 MEMB     141      OSM      H12F     HAL2     0.900000E-01   1.00800           0
     13364 MEMB     141      OSM      H12G     HAL2     0.900000E-01   1.00800           0
     13365 MEMB     141      OSM      C13F     CTL2    -0.180000       12.0110           0
     13366 MEMB     141      OSM      H13F     HAL2     0.900000E-01   1.00800           0
     13367 MEMB     141      OSM      H13G     HAL2     0.900000E-01   1.00800           0
     13368 MEMB     141      OSM      C14F     CTL2    -0.180000       12.0110           0
     13369 MEMB     141      OSM      H14F     HAL2     0.900000E-01   1.00800           0
     13370 MEMB     141      OSM      H14G     HAL2     0.900000E-01   1.00800           0
     13371 MEMB     141      OSM      C15F     CTL2    -0.180000       12.0110           0
     13372 MEMB     141      OSM      H15F     HAL2     0.900000E-01   1.00800           0
     13373 MEMB     141      OSM      H15G     HAL2     0.900000E-01   1.00800           0
     13374 MEMB     141      OSM      C16F     CTL2    -0.180000       12.0110           0
     13375 MEMB     141      OSM      H16F     HAL2     0.900000E-01   1.00800           0
     13376 MEMB     141      OSM      H16G     HAL2     0.900000E-01   1.00800           0
     13377 MEMB     141      OSM      C17F     CTL2    -0.180000       12.0110           0
     13378 MEMB     141      OSM      H17F     HAL2     0.900000E-01   1.00800           0
     13379 MEMB     141      OSM      H17G     HAL2     0.900000E-01   1.00800           0
     13380 MEMB     141      OSM      C18F     CTL3    -0.270000       12.0110           0
     13381 MEMB     141      OSM      H18F     HAL3     0.900000E-01   1.00800           0
     13382 MEMB     141      OSM      H18G     HAL3     0.900000E-01   1.00800           0
     13383 MEMB     141      OSM      H18H     HAL3     0.900000E-01   1.00800           0
     13384 MEMB     145      OSM      N        NTL     -0.600000       14.0070           0
     13385 MEMB     145      OSM      C15      CTL5    -0.350000       12.0110           0
     13386 MEMB     145      OSM      H15A     HL       0.250000       1.00800           0
     13387 MEMB     145      OSM      H15B     HL       0.250000       1.00800           0
     13388 MEMB     145      OSM      H15C     HL       0.250000       1.00800           0
     13389 MEMB     145      OSM      C14      CTL5    -0.350000       12.0110           0
     13390 MEMB     145      OSM      H14A     HL       0.250000       1.00800           0
     13391 MEMB     145      OSM      H14B     HL       0.250000       1.00800           0
     13392 MEMB     145      OSM      H14C     HL       0.250000       1.00800           0
     13393 MEMB     145      OSM      C13      CTL5    -0.350000       12.0110           0
     13394 MEMB     145      OSM      H13A     HL       0.250000       1.00800           0
     13395 MEMB     145      OSM      H13B     HL       0.250000       1.00800           0
     13396 MEMB     145      OSM      H13C     HL       0.250000       1.00800           0
     13397 MEMB     145      OSM      C12      CTL2    -0.100000       12.0110           0
     13398 MEMB     145      OSM      H12A     HL       0.250000       1.00800           0
     13399 MEMB     145      OSM      H12B     HL       0.250000       1.00800           0
     13400 MEMB     145      OSM      C11      CTL2    -0.800000E-01   12.0110           0
     13401 MEMB     145      OSM      H11A     HAL2     0.900000E-01   1.00800           0
     13402 MEMB     145      OSM      H11B     HAL2     0.900000E-01   1.00800           0
     13403 MEMB     145      OSM      P        PL       1.500000       30.9740           0
     13404 MEMB     145      OSM      O13      O2L     -0.780000       15.9994           0
     13405 MEMB     145      OSM      O14      O2L     -0.780000       15.9994           0
     13406 MEMB     145      OSM      O11      OSLP    -0.570000       15.9994           0
     13407 MEMB     145      OSM      O12      OSLP    -0.570000       15.9994           0
     13408 MEMB     145      OSM      C1S      CTL2    -0.800000E-01   12.0110           0
     13409 MEMB     145      OSM      H1S      HAL2     0.900000E-01   1.00800           0
     13410 MEMB     145      OSM      H1T      HAL2     0.900000E-01   1.00800           0
     13411 MEMB     145      OSM      NF       NHL     -0.700000       14.0070           0
     13412 MEMB     145      OSM      HNF      H        0.350000       1.00800           0
     13413 MEMB     145      OSM      C2S      CTL1     0.300000       12.0110           0
     13414 MEMB     145      OSM      H2S      HAL1     0.500000E-01   1.00800           0
     13415 MEMB     145      OSM      C3S      CTO1     0.500000       12.0110           0
     13416 MEMB     145      OSM      H3S      HAL1    -0.110000       1.00800           0
     13417 MEMB     145      OSM      O3       OHL     -0.690000       15.9994           0
     13418 MEMB     145      OSM      HO3      HOL      0.300000       1.00800           0
     13419 MEMB     145      OSM      C4S      CEL3    -0.150000       12.0110           0
     13420 MEMB     145      OSM      H4S      HEL1     0.150000       1.00800           0
     13421 MEMB     145      OSM      C5S      CEL3    -0.150000       12.0110           0
     13422 MEMB     145      OSM      H5S      HEL1     0.150000       1.00800           0
     13423 MEMB     145      OSM      C6S      CTL2    -0.180000       12.0110           0
     13424 MEMB     145      OSM      H6S      HAL2     0.900000E-01   1.00800           0
     13425 MEMB     145      OSM      H6T      HAL2     0.900000E-01   1.00800           0
     13426 MEMB     145      OSM      C7S      CTL2    -0.180000       12.0110           0
     13427 MEMB     145      OSM      H7S      HAL2     0.900000E-01   1.00800           0
     13428 MEMB     145      OSM      H7T      HAL2     0.900000E-01   1.00800           0
     13429 MEMB     145      OSM      C8S      CTL2    -0.180000       12.0110           0
     13430 MEMB     145      OSM      H8S      HAL2     0.900000E-01   1.00800           0
     13431 MEMB     145      OSM      H8T      HAL2     0.900000E-01   1.00800           0
     13432 MEMB     145      OSM      C9S      CTL2    -0.180000       12.0110           0
     13433 MEMB     145      OSM      H9S      HAL2     0.900000E-01   1.00800           0
     13434 MEMB     145      OSM      H9T      HAL2     0.900000E-01   1.00800           0
     13435 MEMB     145      OSM      C10S     CTL2    -0.180000       12.0110           0
     13436 MEMB     145      OSM      H10S     HAL2     0.900000E-01   1.00800           0
     13437 MEMB     145      OSM      H10T     HAL2     0.900000E-01   1.00800           0
     13438 MEMB     145      OSM      C11S     CTL2    -0.180000       12.0110           0
     13439 MEMB     145      OSM      H11S     HAL2     0.900000E-01   1.00800           0
     13440 MEMB     145      OSM      H11T     HAL2     0.900000E-01   1.00800           0
     13441 MEMB     145      OSM      C12S     CTL2    -0.180000       12.0110           0
     13442 MEMB     145      OSM      H12S     HAL2     0.900000E-01   1.00800           0
     13443 MEMB     145      OSM      H12T     HAL2     0.900000E-01   1.00800           0
     13444 MEMB     145      OSM      C13S     CTL2    -0.180000       12.0110           0
     13445 MEMB     145      OSM      H13S     HAL2     0.900000E-01   1.00800           0
     13446 MEMB     145      OSM      H13T     HAL2     0.900000E-01   1.00800           0
     13447 MEMB     145      OSM      C14S     CTL2    -0.180000       12.0110           0
     13448 MEMB     145      OSM      H14S     HAL2     0.900000E-01   1.00800           0
     13449 MEMB     145      OSM      H14T     HAL2     0.900000E-01   1.00800           0
     13450 MEMB     145      OSM      C15S     CTL2    -0.180000       12.0110           0
     13451 MEMB     145      OSM      H15S     HAL2     0.900000E-01   1.00800           0
     13452 MEMB     145      OSM      H15T     HAL2     0.900000E-01   1.00800           0
     13453 MEMB     145      OSM      C16S     CTL2    -0.180000       12.0110           0
     13454 MEMB     145      OSM      H16S     HAL2     0.900000E-01   1.00800           0
     13455 MEMB     145      OSM      H16T     HAL2     0.900000E-01   1.00800           0
     13456 MEMB     145      OSM      C17S     CTL2    -0.180000       12.0110           0
     13457 MEMB     145      OSM      H17S     HAL2     0.900000E-01   1.00800           0
     13458 MEMB     145      OSM      H17T     HAL2     0.900000E-01   1.00800           0
     13459 MEMB     145      OSM      C18S     CTL3    -0.270000       12.0110           0
     13460 MEMB     145      OSM      H18S     HAL3     0.900000E-01   1.00800           0
     13461 MEMB     145      OSM      H18T     HAL3     0.900000E-01   1.00800           0
     13462 MEMB     145      OSM      H18U     HAL3     0.900000E-01   1.00800           0
     13463 MEMB     145      OSM      C1F      C        0.550000       12.0110           0
     13464 MEMB     145      OSM      OF       O       -0.600000       15.9994           0
     13465 MEMB     145      OSM      C2F      CTL2    -0.700000E-01   12.0110           0
     13466 MEMB     145      OSM      H2F      HAL2     0.600000E-01   1.00800           0
     13467 MEMB     145      OSM      H2G      HAL2     0.600000E-01   1.00800           0
     13468 MEMB     145      OSM      C3F      CTL2    -0.180000       12.0110           0
     13469 MEMB     145      OSM      H3F      HAL2     0.900000E-01   1.00800           0
     13470 MEMB     145      OSM      H3G      HAL2     0.900000E-01   1.00800           0
     13471 MEMB     145      OSM      C4F      CTL2    -0.180000       12.0110           0
     13472 MEMB     145      OSM      H4F      HAL2     0.900000E-01   1.00800           0
     13473 MEMB     145      OSM      H4G      HAL2     0.900000E-01   1.00800           0
     13474 MEMB     145      OSM      C5F      CTL2    -0.180000       12.0110           0
     13475 MEMB     145      OSM      H5F      HAL2     0.900000E-01   1.00800           0
     13476 MEMB     145      OSM      H5G      HAL2     0.900000E-01   1.00800           0
     13477 MEMB     145      OSM      C6F      CTL2    -0.180000       12.0110           0
     13478 MEMB     145      OSM      H6F      HAL2     0.900000E-01   1.00800           0
     13479 MEMB     145      OSM      H6G      HAL2     0.900000E-01   1.00800           0
     13480 MEMB     145      OSM      C7F      CTL2    -0.180000       12.0110           0
     13481 MEMB     145      OSM      H7F      HAL2     0.900000E-01   1.00800           0
     13482 MEMB     145      OSM      H7G      HAL2     0.900000E-01   1.00800           0
     13483 MEMB     145      OSM      C8F      CTL2    -0.180000       12.0110           0
     13484 MEMB     145      OSM      H8F      HAL2     0.900000E-01   1.00800           0
     13485 MEMB     145      OSM      H8G      HAL2     0.900000E-01   1.00800           0
     13486 MEMB     145      OSM      C9F      CEL1    -0.150000       12.0110           0
     13487 MEMB     145      OSM      H9F      HEL1     0.150000       1.00800           0
     13488 MEMB     145      OSM      C10F     CEL1    -0.150000       12.0110           0
     13489 MEMB     145      OSM      H10F     HEL1     0.150000       1.00800           0
     13490 MEMB     145      OSM      C11F     CTL2    -0.180000       12.0110           0
     13491 MEMB     145      OSM      H11F     HAL2     0.900000E-01   1.00800           0
     13492 MEMB     145      OSM      H11G     HAL2     0.900000E-01   1.00800           0
     13493 MEMB     145      OSM      C12F     CTL2    -0.180000       12.0110           0
     13494 MEMB     145      OSM      H12F     HAL2     0.900000E-01   1.00800           0
     13495 MEMB     145      OSM      H12G     HAL2     0.900000E-01   1.00800           0
     13496 MEMB     145      OSM      C13F     CTL2    -0.180000       12.0110           0
     13497 MEMB     145      OSM      H13F     HAL2     0.900000E-01   1.00800           0
     13498 MEMB     145      OSM      H13G     HAL2     0.900000E-01   1.00800           0
     13499 MEMB     145      OSM      C14F     CTL2    -0.180000       12.0110           0
     13500 MEMB     145      OSM      H14F     HAL2     0.900000E-01   1.00800           0
     13501 MEMB     145      OSM      H14G     HAL2     0.900000E-01   1.00800           0
     13502 MEMB     145      OSM      C15F     CTL2    -0.180000       12.0110           0
     13503 MEMB     145      OSM      H15F     HAL2     0.900000E-01   1.00800           0
     13504 MEMB     145      OSM      H15G     HAL2     0.900000E-01   1.00800           0
     13505 MEMB     145      OSM      C16F     CTL2    -0.180000       12.0110           0
     13506 MEMB     145      OSM      H16F     HAL2     0.900000E-01   1.00800           0
     13507 MEMB     145      OSM      H16G     HAL2     0.900000E-01   1.00800           0
     13508 MEMB     145      OSM      C17F     CTL2    -0.180000       12.0110           0
     13509 MEMB     145      OSM      H17F     HAL2     0.900000E-01   1.00800           0
     13510 MEMB     145      OSM      H17G     HAL2     0.900000E-01   1.00800           0
     13511 MEMB     145      OSM      C18F     CTL3    -0.270000       12.0110           0
     13512 MEMB     145      OSM      H18F     HAL3     0.900000E-01   1.00800           0
     13513 MEMB     145      OSM      H18G     HAL3     0.900000E-01   1.00800           0
     13514 MEMB     145      OSM      H18H     HAL3     0.900000E-01   1.00800           0
     13515 MEMB     150      OSM      N        NTL     -0.600000       14.0070           0
     13516 MEMB     150      OSM      C15      CTL5    -0.350000       12.0110           0
     13517 MEMB     150      OSM      H15A     HL       0.250000       1.00800           0
     13518 MEMB     150      OSM      H15B     HL       0.250000       1.00800           0
     13519 MEMB     150      OSM      H15C     HL       0.250000       1.00800           0
     13520 MEMB     150      OSM      C14      CTL5    -0.350000       12.0110           0
     13521 MEMB     150      OSM      H14A     HL       0.250000       1.00800           0
     13522 MEMB     150      OSM      H14B     HL       0.250000       1.00800           0
     13523 MEMB     150      OSM      H14C     HL       0.250000       1.00800           0
     13524 MEMB     150      OSM      C13      CTL5    -0.350000       12.0110           0
     13525 MEMB     150      OSM      H13A     HL       0.250000       1.00800           0
     13526 MEMB     150      OSM      H13B     HL       0.250000       1.00800           0
     13527 MEMB     150      OSM      H13C     HL       0.250000       1.00800           0
     13528 MEMB     150      OSM      C12      CTL2    -0.100000       12.0110           0
     13529 MEMB     150      OSM      H12A     HL       0.250000       1.00800           0
     13530 MEMB     150      OSM      H12B     HL       0.250000       1.00800           0
     13531 MEMB     150      OSM      C11      CTL2    -0.800000E-01   12.0110           0
     13532 MEMB     150      OSM      H11A     HAL2     0.900000E-01   1.00800           0
     13533 MEMB     150      OSM      H11B     HAL2     0.900000E-01   1.00800           0
     13534 MEMB     150      OSM      P        PL       1.500000       30.9740           0
     13535 MEMB     150      OSM      O13      O2L     -0.780000       15.9994           0
     13536 MEMB     150      OSM      O14      O2L     -0.780000       15.9994           0
     13537 MEMB     150      OSM      O11      OSLP    -0.570000       15.9994           0
     13538 MEMB     150      OSM      O12      OSLP    -0.570000       15.9994           0
     13539 MEMB     150      OSM      C1S      CTL2    -0.800000E-01   12.0110           0
     13540 MEMB     150      OSM      H1S      HAL2     0.900000E-01   1.00800           0
     13541 MEMB     150      OSM      H1T      HAL2     0.900000E-01   1.00800           0
     13542 MEMB     150      OSM      NF       NHL     -0.700000       14.0070           0
     13543 MEMB     150      OSM      HNF      H        0.350000       1.00800           0
     13544 MEMB     150      OSM      C2S      CTL1     0.300000       12.0110           0
     13545 MEMB     150      OSM      H2S      HAL1     0.500000E-01   1.00800           0
     13546 MEMB     150      OSM      C3S      CTO1     0.500000       12.0110           0
     13547 MEMB     150      OSM      H3S      HAL1    -0.110000       1.00800           0
     13548 MEMB     150      OSM      O3       OHL     -0.690000       15.9994           0
     13549 MEMB     150      OSM      HO3      HOL      0.300000       1.00800           0
     13550 MEMB     150      OSM      C4S      CEL3    -0.150000       12.0110           0
     13551 MEMB     150      OSM      H4S      HEL1     0.150000       1.00800           0
     13552 MEMB     150      OSM      C5S      CEL3    -0.150000       12.0110           0
     13553 MEMB     150      OSM      H5S      HEL1     0.150000       1.00800           0
     13554 MEMB     150      OSM      C6S      CTL2    -0.180000       12.0110           0
     13555 MEMB     150      OSM      H6S      HAL2     0.900000E-01   1.00800           0
     13556 MEMB     150      OSM      H6T      HAL2     0.900000E-01   1.00800           0
     13557 MEMB     150      OSM      C7S      CTL2    -0.180000       12.0110           0
     13558 MEMB     150      OSM      H7S      HAL2     0.900000E-01   1.00800           0
     13559 MEMB     150      OSM      H7T      HAL2     0.900000E-01   1.00800           0
     13560 MEMB     150      OSM      C8S      CTL2    -0.180000       12.0110           0
     13561 MEMB     150      OSM      H8S      HAL2     0.900000E-01   1.00800           0
     13562 MEMB     150      OSM      H8T      HAL2     0.900000E-01   1.00800           0
     13563 MEMB     150      OSM      C9S      CTL2    -0.180000       12.0110           0
     13564 MEMB     150      OSM      H9S      HAL2     0.900000E-01   1.00800           0
     13565 MEMB     150      OSM      H9T      HAL2     0.900000E-01   1.00800           0
     13566 MEMB     150      OSM      C10S     CTL2    -0.180000       12.0110           0
     13567 MEMB     150      OSM      H10S     HAL2     0.900000E-01   1.00800           0
     13568 MEMB     150      OSM      H10T     HAL2     0.900000E-01   1.00800           0
     13569 MEMB     150      OSM      C11S     CTL2    -0.180000       12.0110           0
     13570 MEMB     150      OSM      H11S     HAL2     0.900000E-01   1.00800           0
     13571 MEMB     150      OSM      H11T     HAL2     0.900000E-01   1.00800           0
     13572 MEMB     150      OSM      C12S     CTL2    -0.180000       12.0110           0
     13573 MEMB     150      OSM      H12S     HAL2     0.900000E-01   1.00800           0
     13574 MEMB     150      OSM      H12T     HAL2     0.900000E-01   1.00800           0
     13575 MEMB     150      OSM      C13S     CTL2    -0.180000       12.0110           0
     13576 MEMB     150      OSM      H13S     HAL2     0.900000E-01   1.00800           0
     13577 MEMB     150      OSM      H13T     HAL2     0.900000E-01   1.00800           0
     13578 MEMB     150      OSM      C14S     CTL2    -0.180000       12.0110           0
     13579 MEMB     150      OSM      H14S     HAL2     0.900000E-01   1.00800           0
     13580 MEMB     150      OSM      H14T     HAL2     0.900000E-01   1.00800           0
     13581 MEMB     150      OSM      C15S     CTL2    -0.180000       12.0110           0
     13582 MEMB     150      OSM      H15S     HAL2     0.900000E-01   1.00800           0
     13583 MEMB     150      OSM      H15T     HAL2     0.900000E-01   1.00800           0
     13584 MEMB     150      OSM      C16S     CTL2    -0.180000       12.0110           0
     13585 MEMB     150      OSM      H16S     HAL2     0.900000E-01   1.00800           0
     13586 MEMB     150      OSM      H16T     HAL2     0.900000E-01   1.00800           0
     13587 MEMB     150      OSM      C17S     CTL2    -0.180000       12.0110           0
     13588 MEMB     150      OSM      H17S     HAL2     0.900000E-01   1.00800           0
     13589 MEMB     150      OSM      H17T     HAL2     0.900000E-01   1.00800           0
     13590 MEMB     150      OSM      C18S     CTL3    -0.270000       12.0110           0
     13591 MEMB     150      OSM      H18S     HAL3     0.900000E-01   1.00800           0
     13592 MEMB     150      OSM      H18T     HAL3     0.900000E-01   1.00800           0
     13593 MEMB     150      OSM      H18U     HAL3     0.900000E-01   1.00800           0
     13594 MEMB     150      OSM      C1F      C        0.550000       12.0110           0
     13595 MEMB     150      OSM      OF       O       -0.600000       15.9994           0
     13596 MEMB     150      OSM      C2F      CTL2    -0.700000E-01   12.0110           0
     13597 MEMB     150      OSM      H2F      HAL2     0.600000E-01   1.00800           0
     13598 MEMB     150      OSM      H2G      HAL2     0.600000E-01   1.00800           0
     13599 MEMB     150      OSM      C3F      CTL2    -0.180000       12.0110           0
     13600 MEMB     150      OSM      H3F      HAL2     0.900000E-01   1.00800           0
     13601 MEMB     150      OSM      H3G      HAL2     0.900000E-01   1.00800           0
     13602 MEMB     150      OSM      C4F      CTL2    -0.180000       12.0110           0
     13603 MEMB     150      OSM      H4F      HAL2     0.900000E-01   1.00800           0
     13604 MEMB     150      OSM      H4G      HAL2     0.900000E-01   1.00800           0
     13605 MEMB     150      OSM      C5F      CTL2    -0.180000       12.0110           0
     13606 MEMB     150      OSM      H5F      HAL2     0.900000E-01   1.00800           0
     13607 MEMB     150      OSM      H5G      HAL2     0.900000E-01   1.00800           0
     13608 MEMB     150      OSM      C6F      CTL2    -0.180000       12.0110           0
     13609 MEMB     150      OSM      H6F      HAL2     0.900000E-01   1.00800           0
     13610 MEMB     150      OSM      H6G      HAL2     0.900000E-01   1.00800           0
     13611 MEMB     150      OSM      C7F      CTL2    -0.180000       12.0110           0
     13612 MEMB     150      OSM      H7F      HAL2     0.900000E-01   1.00800           0
     13613 MEMB     150      OSM      H7G      HAL2     0.900000E-01   1.00800           0
     13614 MEMB     150      OSM      C8F      CTL2    -0.180000       12.0110           0
     13615 MEMB     150      OSM      H8F      HAL2     0.900000E-01   1.00800           0
     13616 MEMB     150      OSM      H8G      HAL2     0.900000E-01   1.00800           0
     13617 MEMB     150      OSM      C9F      CEL1    -0.150000       12.0110           0
     13618 MEMB     150      OSM      H9F      HEL1     0.150000       1.00800           0
     13619 MEMB     150      OSM      C10F     CEL1    -0.150000       12.0110           0
     13620 MEMB     150      OSM      H10F     HEL1     0.150000       1.00800           0
     13621 MEMB     150      OSM      C11F     CTL2    -0.180000       12.0110           0
     13622 MEMB     150      OSM      H11F     HAL2     0.900000E-01   1.00800           0
     13623 MEMB     150      OSM      H11G     HAL2     0.900000E-01   1.00800           0
     13624 MEMB     150      OSM      C12F     CTL2    -0.180000       12.0110           0
     13625 MEMB     150      OSM      H12F     HAL2     0.900000E-01   1.00800           0
     13626 MEMB     150      OSM      H12G     HAL2     0.900000E-01   1.00800           0
     13627 MEMB     150      OSM      C13F     CTL2    -0.180000       12.0110           0
     13628 MEMB     150      OSM      H13F     HAL2     0.900000E-01   1.00800           0
     13629 MEMB     150      OSM      H13G     HAL2     0.900000E-01   1.00800           0
     13630 MEMB     150      OSM      C14F     CTL2    -0.180000       12.0110           0
     13631 MEMB     150      OSM      H14F     HAL2     0.900000E-01   1.00800           0
     13632 MEMB     150      OSM      H14G     HAL2     0.900000E-01   1.00800           0
     13633 MEMB     150      OSM      C15F     CTL2    -0.180000       12.0110           0
     13634 MEMB     150      OSM      H15F     HAL2     0.900000E-01   1.00800           0
     13635 MEMB     150      OSM      H15G     HAL2     0.900000E-01   1.00800           0
     13636 MEMB     150      OSM      C16F     CTL2    -0.180000       12.0110           0
     13637 MEMB     150      OSM      H16F     HAL2     0.900000E-01   1.00800           0
     13638 MEMB     150      OSM      H16G     HAL2     0.900000E-01   1.00800           0
     13639 MEMB     150      OSM      C17F     CTL2    -0.180000       12.0110           0
     13640 MEMB     150      OSM      H17F     HAL2     0.900000E-01   1.00800           0
     13641 MEMB     150      OSM      H17G     HAL2     0.900000E-01   1.00800           0
     13642 MEMB     150      OSM      C18F     CTL3    -0.270000       12.0110           0
     13643 MEMB     150      OSM      H18F     HAL3     0.900000E-01   1.00800           0
     13644 MEMB     150      OSM      H18G     HAL3     0.900000E-01   1.00800           0
     13645 MEMB     150      OSM      H18H     HAL3     0.900000E-01   1.00800           0
     13646 MEMB     157      OSM      N        NTL     -0.600000       14.0070           0
     13647 MEMB     157      OSM      C15      CTL5    -0.350000       12.0110           0
     13648 MEMB     157      OSM      H15A     HL       0.250000       1.00800           0
     13649 MEMB     157      OSM      H15B     HL       0.250000       1.00800           0
     13650 MEMB     157      OSM      H15C     HL       0.250000       1.00800           0
     13651 MEMB     157      OSM      C14      CTL5    -0.350000       12.0110           0
     13652 MEMB     157      OSM      H14A     HL       0.250000       1.00800           0
     13653 MEMB     157      OSM      H14B     HL       0.250000       1.00800           0
     13654 MEMB     157      OSM      H14C     HL       0.250000       1.00800           0
     13655 MEMB     157      OSM      C13      CTL5    -0.350000       12.0110           0
     13656 MEMB     157      OSM      H13A     HL       0.250000       1.00800           0
     13657 MEMB     157      OSM      H13B     HL       0.250000       1.00800           0
     13658 MEMB     157      OSM      H13C     HL       0.250000       1.00800           0
     13659 MEMB     157      OSM      C12      CTL2    -0.100000       12.0110           0
     13660 MEMB     157      OSM      H12A     HL       0.250000       1.00800           0
     13661 MEMB     157      OSM      H12B     HL       0.250000       1.00800           0
     13662 MEMB     157      OSM      C11      CTL2    -0.800000E-01   12.0110           0
     13663 MEMB     157      OSM      H11A     HAL2     0.900000E-01   1.00800           0
     13664 MEMB     157      OSM      H11B     HAL2     0.900000E-01   1.00800           0
     13665 MEMB     157      OSM      P        PL       1.500000       30.9740           0
     13666 MEMB     157      OSM      O13      O2L     -0.780000       15.9994           0
     13667 MEMB     157      OSM      O14      O2L     -0.780000       15.9994           0
     13668 MEMB     157      OSM      O11      OSLP    -0.570000       15.9994           0
     13669 MEMB     157      OSM      O12      OSLP    -0.570000       15.9994           0
     13670 MEMB     157      OSM      C1S      CTL2    -0.800000E-01   12.0110           0
     13671 MEMB     157      OSM      H1S      HAL2     0.900000E-01   1.00800           0
     13672 MEMB     157      OSM      H1T      HAL2     0.900000E-01   1.00800           0
     13673 MEMB     157      OSM      NF       NHL     -0.700000       14.0070           0
     13674 MEMB     157      OSM      HNF      H        0.350000       1.00800           0
     13675 MEMB     157      OSM      C2S      CTL1     0.300000       12.0110           0
     13676 MEMB     157      OSM      H2S      HAL1     0.500000E-01   1.00800           0
     13677 MEMB     157      OSM      C3S      CTO1     0.500000       12.0110           0
     13678 MEMB     157      OSM      H3S      HAL1    -0.110000       1.00800           0
     13679 MEMB     157      OSM      O3       OHL     -0.690000       15.9994           0
     13680 MEMB     157      OSM      HO3      HOL      0.300000       1.00800           0
     13681 MEMB     157      OSM      C4S      CEL3    -0.150000       12.0110           0
     13682 MEMB     157      OSM      H4S      HEL1     0.150000       1.00800           0
     13683 MEMB     157      OSM      C5S      CEL3    -0.150000       12.0110           0
     13684 MEMB     157      OSM      H5S      HEL1     0.150000       1.00800           0
     13685 MEMB     157      OSM      C6S      CTL2    -0.180000       12.0110           0
     13686 MEMB     157      OSM      H6S      HAL2     0.900000E-01   1.00800           0
     13687 MEMB     157      OSM      H6T      HAL2     0.900000E-01   1.00800           0
     13688 MEMB     157      OSM      C7S      CTL2    -0.180000       12.0110           0
     13689 MEMB     157      OSM      H7S      HAL2     0.900000E-01   1.00800           0
     13690 MEMB     157      OSM      H7T      HAL2     0.900000E-01   1.00800           0
     13691 MEMB     157      OSM      C8S      CTL2    -0.180000       12.0110           0
     13692 MEMB     157      OSM      H8S      HAL2     0.900000E-01   1.00800           0
     13693 MEMB     157      OSM      H8T      HAL2     0.900000E-01   1.00800           0
     13694 MEMB     157      OSM      C9S      CTL2    -0.180000       12.0110           0
     13695 MEMB     157      OSM      H9S      HAL2     0.900000E-01   1.00800           0
     13696 MEMB     157      OSM      H9T      HAL2     0.900000E-01   1.00800           0
     13697 MEMB     157      OSM      C10S     CTL2    -0.180000       12.0110           0
     13698 MEMB     157      OSM      H10S     HAL2     0.900000E-01   1.00800           0
     13699 MEMB     157      OSM      H10T     HAL2     0.900000E-01   1.00800           0
     13700 MEMB     157      OSM      C11S     CTL2    -0.180000       12.0110           0
     13701 MEMB     157      OSM      H11S     HAL2     0.900000E-01   1.00800           0
     13702 MEMB     157      OSM      H11T     HAL2     0.900000E-01   1.00800           0
     13703 MEMB     157      OSM      C12S     CTL2    -0.180000       12.0110           0
     13704 MEMB     157      OSM      H12S     HAL2     0.900000E-01   1.00800           0
     13705 MEMB     157      OSM      H12T     HAL2     0.900000E-01   1.00800           0
     13706 MEMB     157      OSM      C13S     CTL2    -0.180000       12.0110           0
     13707 MEMB     157      OSM      H13S     HAL2     0.900000E-01   1.00800           0
     13708 MEMB     157      OSM      H13T     HAL2     0.900000E-01   1.00800           0
     13709 MEMB     157      OSM      C14S     CTL2    -0.180000       12.0110           0
     13710 MEMB     157      OSM      H14S     HAL2     0.900000E-01   1.00800           0
     13711 MEMB     157      OSM      H14T     HAL2     0.900000E-01   1.00800           0
     13712 MEMB     157      OSM      C15S     CTL2    -0.180000       12.0110           0
     13713 MEMB     157      OSM      H15S     HAL2     0.900000E-01   1.00800           0
     13714 MEMB     157      OSM      H15T     HAL2     0.900000E-01   1.00800           0
     13715 MEMB     157      OSM      C16S     CTL2    -0.180000       12.0110           0
     13716 MEMB     157      OSM      H16S     HAL2     0.900000E-01   1.00800           0
     13717 MEMB     157      OSM      H16T     HAL2     0.900000E-01   1.00800           0
     13718 MEMB     157      OSM      C17S     CTL2    -0.180000       12.0110           0
     13719 MEMB     157      OSM      H17S     HAL2     0.900000E-01   1.00800           0
     13720 MEMB     157      OSM      H17T     HAL2     0.900000E-01   1.00800           0
     13721 MEMB     157      OSM      C18S     CTL3    -0.270000       12.0110           0
     13722 MEMB     157      OSM      H18S     HAL3     0.900000E-01   1.00800           0
     13723 MEMB     157      OSM      H18T     HAL3     0.900000E-01   1.00800           0
     13724 MEMB     157      OSM      H18U     HAL3     0.900000E-01   1.00800           0
     13725 MEMB     157      OSM      C1F      C        0.550000       12.0110           0
     13726 MEMB     157      OSM      OF       O       -0.600000       15.9994           0
     13727 MEMB     157      OSM      C2F      CTL2    -0.700000E-01   12.0110           0
     13728 MEMB     157      OSM      H2F      HAL2     0.600000E-01   1.00800           0
     13729 MEMB     157      OSM      H2G      HAL2     0.600000E-01   1.00800           0
     13730 MEMB     157      OSM      C3F      CTL2    -0.180000       12.0110           0
     13731 MEMB     157      OSM      H3F      HAL2     0.900000E-01   1.00800           0
     13732 MEMB     157      OSM      H3G      HAL2     0.900000E-01   1.00800           0
     13733 MEMB     157      OSM      C4F      CTL2    -0.180000       12.0110           0
     13734 MEMB     157      OSM      H4F      HAL2     0.900000E-01   1.00800           0
     13735 MEMB     157      OSM      H4G      HAL2     0.900000E-01   1.00800           0
     13736 MEMB     157      OSM      C5F      CTL2    -0.180000       12.0110           0
     13737 MEMB     157      OSM      H5F      HAL2     0.900000E-01   1.00800           0
     13738 MEMB     157      OSM      H5G      HAL2     0.900000E-01   1.00800           0
     13739 MEMB     157      OSM      C6F      CTL2    -0.180000       12.0110           0
     13740 MEMB     157      OSM      H6F      HAL2     0.900000E-01   1.00800           0
     13741 MEMB     157      OSM      H6G      HAL2     0.900000E-01   1.00800           0
     13742 MEMB     157      OSM      C7F      CTL2    -0.180000       12.0110           0
     13743 MEMB     157      OSM      H7F      HAL2     0.900000E-01   1.00800           0
     13744 MEMB     157      OSM      H7G      HAL2     0.900000E-01   1.00800           0
     13745 MEMB     157      OSM      C8F      CTL2    -0.180000       12.0110           0
     13746 MEMB     157      OSM      H8F      HAL2     0.900000E-01   1.00800           0
     13747 MEMB     157      OSM      H8G      HAL2     0.900000E-01   1.00800           0
     13748 MEMB     157      OSM      C9F      CEL1    -0.150000       12.0110           0
     13749 MEMB     157      OSM      H9F      HEL1     0.150000       1.00800           0
     13750 MEMB     157      OSM      C10F     CEL1    -0.150000       12.0110           0
     13751 MEMB     157      OSM      H10F     HEL1     0.150000       1.00800           0
     13752 MEMB     157      OSM      C11F     CTL2    -0.180000       12.0110           0
     13753 MEMB     157      OSM      H11F     HAL2     0.900000E-01   1.00800           0
     13754 MEMB     157      OSM      H11G     HAL2     0.900000E-01   1.00800           0
     13755 MEMB     157      OSM      C12F     CTL2    -0.180000       12.0110           0
     13756 MEMB     157      OSM      H12F     HAL2     0.900000E-01   1.00800           0
     13757 MEMB     157      OSM      H12G     HAL2     0.900000E-01   1.00800           0
     13758 MEMB     157      OSM      C13F     CTL2    -0.180000       12.0110           0
     13759 MEMB     157      OSM      H13F     HAL2     0.900000E-01   1.00800           0
     13760 MEMB     157      OSM      H13G     HAL2     0.900000E-01   1.00800           0
     13761 MEMB     157      OSM      C14F     CTL2    -0.180000       12.0110           0
     13762 MEMB     157      OSM      H14F     HAL2     0.900000E-01   1.00800           0
     13763 MEMB     157      OSM      H14G     HAL2     0.900000E-01   1.00800           0
     13764 MEMB     157      OSM      C15F     CTL2    -0.180000       12.0110           0
     13765 MEMB     157      OSM      H15F     HAL2     0.900000E-01   1.00800           0
     13766 MEMB     157      OSM      H15G     HAL2     0.900000E-01   1.00800           0
     13767 MEMB     157      OSM      C16F     CTL2    -0.180000       12.0110           0
     13768 MEMB     157      OSM      H16F     HAL2     0.900000E-01   1.00800           0
     13769 MEMB     157      OSM      H16G     HAL2     0.900000E-01   1.00800           0
     13770 MEMB     157      OSM      C17F     CTL2    -0.180000       12.0110           0
     13771 MEMB     157      OSM      H17F     HAL2     0.900000E-01   1.00800           0
     13772 MEMB     157      OSM      H17G     HAL2     0.900000E-01   1.00800           0
     13773 MEMB     157      OSM      C18F     CTL3    -0.270000       12.0110           0
     13774 MEMB     157      OSM      H18F     HAL3     0.900000E-01   1.00800           0
     13775 MEMB     157      OSM      H18G     HAL3     0.900000E-01   1.00800           0
     13776 MEMB     157      OSM      H18H     HAL3     0.900000E-01   1.00800           0
     13777 MEMB     163      OSM      N        NTL     -0.600000       14.0070           0
     13778 MEMB     163      OSM      C15      CTL5    -0.350000       12.0110           0
     13779 MEMB     163      OSM      H15A     HL       0.250000       1.00800           0
     13780 MEMB     163      OSM      H15B     HL       0.250000       1.00800           0
     13781 MEMB     163      OSM      H15C     HL       0.250000       1.00800           0
     13782 MEMB     163      OSM      C14      CTL5    -0.350000       12.0110           0
     13783 MEMB     163      OSM      H14A     HL       0.250000       1.00800           0
     13784 MEMB     163      OSM      H14B     HL       0.250000       1.00800           0
     13785 MEMB     163      OSM      H14C     HL       0.250000       1.00800           0
     13786 MEMB     163      OSM      C13      CTL5    -0.350000       12.0110           0
     13787 MEMB     163      OSM      H13A     HL       0.250000       1.00800           0
     13788 MEMB     163      OSM      H13B     HL       0.250000       1.00800           0
     13789 MEMB     163      OSM      H13C     HL       0.250000       1.00800           0
     13790 MEMB     163      OSM      C12      CTL2    -0.100000       12.0110           0
     13791 MEMB     163      OSM      H12A     HL       0.250000       1.00800           0
     13792 MEMB     163      OSM      H12B     HL       0.250000       1.00800           0
     13793 MEMB     163      OSM      C11      CTL2    -0.800000E-01   12.0110           0
     13794 MEMB     163      OSM      H11A     HAL2     0.900000E-01   1.00800           0
     13795 MEMB     163      OSM      H11B     HAL2     0.900000E-01   1.00800           0
     13796 MEMB     163      OSM      P        PL       1.500000       30.9740           0
     13797 MEMB     163      OSM      O13      O2L     -0.780000       15.9994           0
     13798 MEMB     163      OSM      O14      O2L     -0.780000       15.9994           0
     13799 MEMB     163      OSM      O11      OSLP    -0.570000       15.9994           0
     13800 MEMB     163      OSM      O12      OSLP    -0.570000       15.9994           0
     13801 MEMB     163      OSM      C1S      CTL2    -0.800000E-01   12.0110           0
     13802 MEMB     163      OSM      H1S      HAL2     0.900000E-01   1.00800           0
     13803 MEMB     163      OSM      H1T      HAL2     0.900000E-01   1.00800           0
     13804 MEMB     163      OSM      NF       NHL     -0.700000       14.0070           0
     13805 MEMB     163      OSM      HNF      H        0.350000       1.00800           0
     13806 MEMB     163      OSM      C2S      CTL1     0.300000       12.0110           0
     13807 MEMB     163      OSM      H2S      HAL1     0.500000E-01   1.00800           0
     13808 MEMB     163      OSM      C3S      CTO1     0.500000       12.0110           0
     13809 MEMB     163      OSM      H3S      HAL1    -0.110000       1.00800           0
     13810 MEMB     163      OSM      O3       OHL     -0.690000       15.9994           0
     13811 MEMB     163      OSM      HO3      HOL      0.300000       1.00800           0
     13812 MEMB     163      OSM      C4S      CEL3    -0.150000       12.0110           0
     13813 MEMB     163      OSM      H4S      HEL1     0.150000       1.00800           0
     13814 MEMB     163      OSM      C5S      CEL3    -0.150000       12.0110           0
     13815 MEMB     163      OSM      H5S      HEL1     0.150000       1.00800           0
     13816 MEMB     163      OSM      C6S      CTL2    -0.180000       12.0110           0
     13817 MEMB     163      OSM      H6S      HAL2     0.900000E-01   1.00800           0
     13818 MEMB     163      OSM      H6T      HAL2     0.900000E-01   1.00800           0
     13819 MEMB     163      OSM      C7S      CTL2    -0.180000       12.0110           0
     13820 MEMB     163      OSM      H7S      HAL2     0.900000E-01   1.00800           0
     13821 MEMB     163      OSM      H7T      HAL2     0.900000E-01   1.00800           0
     13822 MEMB     163      OSM      C8S      CTL2    -0.180000       12.0110           0
     13823 MEMB     163      OSM      H8S      HAL2     0.900000E-01   1.00800           0
     13824 MEMB     163      OSM      H8T      HAL2     0.900000E-01   1.00800           0
     13825 MEMB     163      OSM      C9S      CTL2    -0.180000       12.0110           0
     13826 MEMB     163      OSM      H9S      HAL2     0.900000E-01   1.00800           0
     13827 MEMB     163      OSM      H9T      HAL2     0.900000E-01   1.00800           0
     13828 MEMB     163      OSM      C10S     CTL2    -0.180000       12.0110           0
     13829 MEMB     163      OSM      H10S     HAL2     0.900000E-01   1.00800           0
     13830 MEMB     163      OSM      H10T     HAL2     0.900000E-01   1.00800           0
     13831 MEMB     163      OSM      C11S     CTL2    -0.180000       12.0110           0
     13832 MEMB     163      OSM      H11S     HAL2     0.900000E-01   1.00800           0
     13833 MEMB     163      OSM      H11T     HAL2     0.900000E-01   1.00800           0
     13834 MEMB     163      OSM      C12S     CTL2    -0.180000       12.0110           0
     13835 MEMB     163      OSM      H12S     HAL2     0.900000E-01   1.00800           0
     13836 MEMB     163      OSM      H12T     HAL2     0.900000E-01   1.00800           0
     13837 MEMB     163      OSM      C13S     CTL2    -0.180000       12.0110           0
     13838 MEMB     163      OSM      H13S     HAL2     0.900000E-01   1.00800           0
     13839 MEMB     163      OSM      H13T     HAL2     0.900000E-01   1.00800           0
     13840 MEMB     163      OSM      C14S     CTL2    -0.180000       12.0110           0
     13841 MEMB     163      OSM      H14S     HAL2     0.900000E-01   1.00800           0
     13842 MEMB     163      OSM      H14T     HAL2     0.900000E-01   1.00800           0
     13843 MEMB     163      OSM      C15S     CTL2    -0.180000       12.0110           0
     13844 MEMB     163      OSM      H15S     HAL2     0.900000E-01   1.00800           0
     13845 MEMB     163      OSM      H15T     HAL2     0.900000E-01   1.00800           0
     13846 MEMB     163      OSM      C16S     CTL2    -0.180000       12.0110           0
     13847 MEMB     163      OSM      H16S     HAL2     0.900000E-01   1.00800           0
     13848 MEMB     163      OSM      H16T     HAL2     0.900000E-01   1.00800           0
     13849 MEMB     163      OSM      C17S     CTL2    -0.180000       12.0110           0
     13850 MEMB     163      OSM      H17S     HAL2     0.900000E-01   1.00800           0
     13851 MEMB     163      OSM      H17T     HAL2     0.900000E-01   1.00800           0
     13852 MEMB     163      OSM      C18S     CTL3    -0.270000       12.0110           0
     13853 MEMB     163      OSM      H18S     HAL3     0.900000E-01   1.00800           0
     13854 MEMB     163      OSM      H18T     HAL3     0.900000E-01   1.00800           0
     13855 MEMB     163      OSM      H18U     HAL3     0.900000E-01   1.00800           0
     13856 MEMB     163      OSM      C1F      C        0.550000       12.0110           0
     13857 MEMB     163      OSM      OF       O       -0.600000       15.9994           0
     13858 MEMB     163      OSM      C2F      CTL2    -0.700000E-01   12.0110           0
     13859 MEMB     163      OSM      H2F      HAL2     0.600000E-01   1.00800           0
     13860 MEMB     163      OSM      H2G      HAL2     0.600000E-01   1.00800           0
     13861 MEMB     163      OSM      C3F      CTL2    -0.180000       12.0110           0
     13862 MEMB     163      OSM      H3F      HAL2     0.900000E-01   1.00800           0
     13863 MEMB     163      OSM      H3G      HAL2     0.900000E-01   1.00800           0
     13864 MEMB     163      OSM      C4F      CTL2    -0.180000       12.0110           0
     13865 MEMB     163      OSM      H4F      HAL2     0.900000E-01   1.00800           0
     13866 MEMB     163      OSM      H4G      HAL2     0.900000E-01   1.00800           0
     13867 MEMB     163      OSM      C5F      CTL2    -0.180000       12.0110           0
     13868 MEMB     163      OSM      H5F      HAL2     0.900000E-01   1.00800           0
     13869 MEMB     163      OSM      H5G      HAL2     0.900000E-01   1.00800           0
     13870 MEMB     163      OSM      C6F      CTL2    -0.180000       12.0110           0
     13871 MEMB     163      OSM      H6F      HAL2     0.900000E-01   1.00800           0
     13872 MEMB     163      OSM      H6G      HAL2     0.900000E-01   1.00800           0
     13873 MEMB     163      OSM      C7F      CTL2    -0.180000       12.0110           0
     13874 MEMB     163      OSM      H7F      HAL2     0.900000E-01   1.00800           0
     13875 MEMB     163      OSM      H7G      HAL2     0.900000E-01   1.00800           0
     13876 MEMB     163      OSM      C8F      CTL2    -0.180000       12.0110           0
     13877 MEMB     163      OSM      H8F      HAL2     0.900000E-01   1.00800           0
     13878 MEMB     163      OSM      H8G      HAL2     0.900000E-01   1.00800           0
     13879 MEMB     163      OSM      C9F      CEL1    -0.150000       12.0110           0
     13880 MEMB     163      OSM      H9F      HEL1     0.150000       1.00800           0
     13881 MEMB     163      OSM      C10F     CEL1    -0.150000       12.0110           0
     13882 MEMB     163      OSM      H10F     HEL1     0.150000       1.00800           0
     13883 MEMB     163      OSM      C11F     CTL2    -0.180000       12.0110           0
     13884 MEMB     163      OSM      H11F     HAL2     0.900000E-01   1.00800           0
     13885 MEMB     163      OSM      H11G     HAL2     0.900000E-01   1.00800           0
     13886 MEMB     163      OSM      C12F     CTL2    -0.180000       12.0110           0
     13887 MEMB     163      OSM      H12F     HAL2     0.900000E-01   1.00800           0
     13888 MEMB     163      OSM      H12G     HAL2     0.900000E-01   1.00800           0
     13889 MEMB     163      OSM      C13F     CTL2    -0.180000       12.0110           0
     13890 MEMB     163      OSM      H13F     HAL2     0.900000E-01   1.00800           0
     13891 MEMB     163      OSM      H13G     HAL2     0.900000E-01   1.00800           0
     13892 MEMB     163      OSM      C14F     CTL2    -0.180000       12.0110           0
     13893 MEMB     163      OSM      H14F     HAL2     0.900000E-01   1.00800           0
     13894 MEMB     163      OSM      H14G     HAL2     0.900000E-01   1.00800           0
     13895 MEMB     163      OSM      C15F     CTL2    -0.180000       12.0110           0
     13896 MEMB     163      OSM      H15F     HAL2     0.900000E-01   1.00800           0
     13897 MEMB     163      OSM      H15G     HAL2     0.900000E-01   1.00800           0
     13898 MEMB     163      OSM      C16F     CTL2    -0.180000       12.0110           0
     13899 MEMB     163      OSM      H16F     HAL2     0.900000E-01   1.00800           0
     13900 MEMB     163      OSM      H16G     HAL2     0.900000E-01   1.00800           0
     13901 MEMB     163      OSM      C17F     CTL2    -0.180000       12.0110           0
     13902 MEMB     163      OSM      H17F     HAL2     0.900000E-01   1.00800           0
     13903 MEMB     163      OSM      H17G     HAL2     0.900000E-01   1.00800           0
     13904 MEMB     163      OSM      C18F     CTL3    -0.270000       12.0110           0
     13905 MEMB     163      OSM      H18F     HAL3     0.900000E-01   1.00800           0
     13906 MEMB     163      OSM      H18G     HAL3     0.900000E-01   1.00800           0
     13907 MEMB     163      OSM      H18H     HAL3     0.900000E-01   1.00800           0
     13908 MEMB     170      OSM      N        NTL     -0.600000       14.0070           0
     13909 MEMB     170      OSM      C15      CTL5    -0.350000       12.0110           0
     13910 MEMB     170      OSM      H15A     HL       0.250000       1.00800           0
     13911 MEMB     170      OSM      H15B     HL       0.250000       1.00800           0
     13912 MEMB     170      OSM      H15C     HL       0.250000       1.00800           0
     13913 MEMB     170      OSM      C14      CTL5    -0.350000       12.0110           0
     13914 MEMB     170      OSM      H14A     HL       0.250000       1.00800           0
     13915 MEMB     170      OSM      H14B     HL       0.250000       1.00800           0
     13916 MEMB     170      OSM      H14C     HL       0.250000       1.00800           0
     13917 MEMB     170      OSM      C13      CTL5    -0.350000       12.0110           0
     13918 MEMB     170      OSM      H13A     HL       0.250000       1.00800           0
     13919 MEMB     170      OSM      H13B     HL       0.250000       1.00800           0
     13920 MEMB     170      OSM      H13C     HL       0.250000       1.00800           0
     13921 MEMB     170      OSM      C12      CTL2    -0.100000       12.0110           0
     13922 MEMB     170      OSM      H12A     HL       0.250000       1.00800           0
     13923 MEMB     170      OSM      H12B     HL       0.250000       1.00800           0
     13924 MEMB     170      OSM      C11      CTL2    -0.800000E-01   12.0110           0
     13925 MEMB     170      OSM      H11A     HAL2     0.900000E-01   1.00800           0
     13926 MEMB     170      OSM      H11B     HAL2     0.900000E-01   1.00800           0
     13927 MEMB     170      OSM      P        PL       1.500000       30.9740           0
     13928 MEMB     170      OSM      O13      O2L     -0.780000       15.9994           0
     13929 MEMB     170      OSM      O14      O2L     -0.780000       15.9994           0
     13930 MEMB     170      OSM      O11      OSLP    -0.570000       15.9994           0
     13931 MEMB     170      OSM      O12      OSLP    -0.570000       15.9994           0
     13932 MEMB     170      OSM      C1S      CTL2    -0.800000E-01   12.0110           0
     13933 MEMB     170      OSM      H1S      HAL2     0.900000E-01   1.00800           0
     13934 MEMB     170      OSM      H1T      HAL2     0.900000E-01   1.00800           0
     13935 MEMB     170      OSM      NF       NHL     -0.700000       14.0070           0
     13936 MEMB     170      OSM      HNF      H        0.350000       1.00800           0
     13937 MEMB     170      OSM      C2S      CTL1     0.300000       12.0110           0
     13938 MEMB     170      OSM      H2S      HAL1     0.500000E-01   1.00800           0
     13939 MEMB     170      OSM      C3S      CTO1     0.500000       12.0110           0
     13940 MEMB     170      OSM      H3S      HAL1    -0.110000       1.00800           0
     13941 MEMB     170      OSM      O3       OHL     -0.690000       15.9994           0
     13942 MEMB     170      OSM      HO3      HOL      0.300000       1.00800           0
     13943 MEMB     170      OSM      C4S      CEL3    -0.150000       12.0110           0
     13944 MEMB     170      OSM      H4S      HEL1     0.150000       1.00800           0
     13945 MEMB     170      OSM      C5S      CEL3    -0.150000       12.0110           0
     13946 MEMB     170      OSM      H5S      HEL1     0.150000       1.00800           0
     13947 MEMB     170      OSM      C6S      CTL2    -0.180000       12.0110           0
     13948 MEMB     170      OSM      H6S      HAL2     0.900000E-01   1.00800           0
     13949 MEMB     170      OSM      H6T      HAL2     0.900000E-01   1.00800           0
     13950 MEMB     170      OSM      C7S      CTL2    -0.180000       12.0110           0
     13951 MEMB     170      OSM      H7S      HAL2     0.900000E-01   1.00800           0
     13952 MEMB     170      OSM      H7T      HAL2     0.900000E-01   1.00800           0
     13953 MEMB     170      OSM      C8S      CTL2    -0.180000       12.0110           0
     13954 MEMB     170      OSM      H8S      HAL2     0.900000E-01   1.00800           0
     13955 MEMB     170      OSM      H8T      HAL2     0.900000E-01   1.00800           0
     13956 MEMB     170      OSM      C9S      CTL2    -0.180000       12.0110           0
     13957 MEMB     170      OSM      H9S      HAL2     0.900000E-01   1.00800           0
     13958 MEMB     170      OSM      H9T      HAL2     0.900000E-01   1.00800           0
     13959 MEMB     170      OSM      C10S     CTL2    -0.180000       12.0110           0
     13960 MEMB     170      OSM      H10S     HAL2     0.900000E-01   1.00800           0
     13961 MEMB     170      OSM      H10T     HAL2     0.900000E-01   1.00800           0
     13962 MEMB     170      OSM      C11S     CTL2    -0.180000       12.0110           0
     13963 MEMB     170      OSM      H11S     HAL2     0.900000E-01   1.00800           0
     13964 MEMB     170      OSM      H11T     HAL2     0.900000E-01   1.00800           0
     13965 MEMB     170      OSM      C12S     CTL2    -0.180000       12.0110           0
     13966 MEMB     170      OSM      H12S     HAL2     0.900000E-01   1.00800           0
     13967 MEMB     170      OSM      H12T     HAL2     0.900000E-01   1.00800           0
     13968 MEMB     170      OSM      C13S     CTL2    -0.180000       12.0110           0
     13969 MEMB     170      OSM      H13S     HAL2     0.900000E-01   1.00800           0
     13970 MEMB     170      OSM      H13T     HAL2     0.900000E-01   1.00800           0
     13971 MEMB     170      OSM      C14S     CTL2    -0.180000       12.0110           0
     13972 MEMB     170      OSM      H14S     HAL2     0.900000E-01   1.00800           0
     13973 MEMB     170      OSM      H14T     HAL2     0.900000E-01   1.00800           0
     13974 MEMB     170      OSM      C15S     CTL2    -0.180000       12.0110           0
     13975 MEMB     170      OSM      H15S     HAL2     0.900000E-01   1.00800           0
     13976 MEMB     170      OSM      H15T     HAL2     0.900000E-01   1.00800           0
     13977 MEMB     170      OSM      C16S     CTL2    -0.180000       12.0110           0
     13978 MEMB     170      OSM      H16S     HAL2     0.900000E-01   1.00800           0
     13979 MEMB     170      OSM      H16T     HAL2     0.900000E-01   1.00800           0
     13980 MEMB     170      OSM      C17S     CTL2    -0.180000       12.0110           0
     13981 MEMB     170      OSM      H17S     HAL2     0.900000E-01   1.00800           0
     13982 MEMB     170      OSM      H17T     HAL2     0.900000E-01   1.00800           0
     13983 MEMB     170      OSM      C18S     CTL3    -0.270000       12.0110           0
     13984 MEMB     170      OSM      H18S     HAL3     0.900000E-01   1.00800           0
     13985 MEMB     170      OSM      H18T     HAL3     0.900000E-01   1.00800           0
     13986 MEMB     170      OSM      H18U     HAL3     0.900000E-01   1.00800           0
     13987 MEMB     170      OSM      C1F      C        0.550000       12.0110           0
     13988 MEMB     170      OSM      OF       O       -0.600000       15.9994           0
     13989 MEMB     170      OSM      C2F      CTL2    -0.700000E-01   12.0110           0
     13990 MEMB     170      OSM      H2F      HAL2     0.600000E-01   1.00800           0
     13991 MEMB     170      OSM      H2G      HAL2     0.600000E-01   1.00800           0
     13992 MEMB     170      OSM      C3F      CTL2    -0.180000       12.0110           0
     13993 MEMB     170      OSM      H3F      HAL2     0.900000E-01   1.00800           0
     13994 MEMB     170      OSM      H3G      HAL2     0.900000E-01   1.00800           0
     13995 MEMB     170      OSM      C4F      CTL2    -0.180000       12.0110           0
     13996 MEMB     170      OSM      H4F      HAL2     0.900000E-01   1.00800           0
     13997 MEMB     170      OSM      H4G      HAL2     0.900000E-01   1.00800           0
     13998 MEMB     170      OSM      C5F      CTL2    -0.180000       12.0110           0
     13999 MEMB     170      OSM      H5F      HAL2     0.900000E-01   1.00800           0
     14000 MEMB     170      OSM      H5G      HAL2     0.900000E-01   1.00800           0
     14001 MEMB     170      OSM      C6F      CTL2    -0.180000       12.0110           0
     14002 MEMB     170      OSM      H6F      HAL2     0.900000E-01   1.00800           0
     14003 MEMB     170      OSM      H6G      HAL2     0.900000E-01   1.00800           0
     14004 MEMB     170      OSM      C7F      CTL2    -0.180000       12.0110           0
     14005 MEMB     170      OSM      H7F      HAL2     0.900000E-01   1.00800           0
     14006 MEMB     170      OSM      H7G      HAL2     0.900000E-01   1.00800           0
     14007 MEMB     170      OSM      C8F      CTL2    -0.180000       12.0110           0
     14008 MEMB     170      OSM      H8F      HAL2     0.900000E-01   1.00800           0
     14009 MEMB     170      OSM      H8G      HAL2     0.900000E-01   1.00800           0
     14010 MEMB     170      OSM      C9F      CEL1    -0.150000       12.0110           0
     14011 MEMB     170      OSM      H9F      HEL1     0.150000       1.00800           0
     14012 MEMB     170      OSM      C10F     CEL1    -0.150000       12.0110           0
     14013 MEMB     170      OSM      H10F     HEL1     0.150000       1.00800           0
     14014 MEMB     170      OSM      C11F     CTL2    -0.180000       12.0110           0
     14015 MEMB     170      OSM      H11F     HAL2     0.900000E-01   1.00800           0
     14016 MEMB     170      OSM      H11G     HAL2     0.900000E-01   1.00800           0
     14017 MEMB     170      OSM      C12F     CTL2    -0.180000       12.0110           0
     14018 MEMB     170      OSM      H12F     HAL2     0.900000E-01   1.00800           0
     14019 MEMB     170      OSM      H12G     HAL2     0.900000E-01   1.00800           0
     14020 MEMB     170      OSM      C13F     CTL2    -0.180000       12.0110           0
     14021 MEMB     170      OSM      H13F     HAL2     0.900000E-01   1.00800           0
     14022 MEMB     170      OSM      H13G     HAL2     0.900000E-01   1.00800           0
     14023 MEMB     170      OSM      C14F     CTL2    -0.180000       12.0110           0
     14024 MEMB     170      OSM      H14F     HAL2     0.900000E-01   1.00800           0
     14025 MEMB     170      OSM      H14G     HAL2     0.900000E-01   1.00800           0
     14026 MEMB     170      OSM      C15F     CTL2    -0.180000       12.0110           0
     14027 MEMB     170      OSM      H15F     HAL2     0.900000E-01   1.00800           0
     14028 MEMB     170      OSM      H15G     HAL2     0.900000E-01   1.00800           0
     14029 MEMB     170      OSM      C16F     CTL2    -0.180000       12.0110           0
     14030 MEMB     170      OSM      H16F     HAL2     0.900000E-01   1.00800           0
     14031 MEMB     170      OSM      H16G     HAL2     0.900000E-01   1.00800           0
     14032 MEMB     170      OSM      C17F     CTL2    -0.180000       12.0110           0
     14033 MEMB     170      OSM      H17F     HAL2     0.900000E-01   1.00800           0
     14034 MEMB     170      OSM      H17G     HAL2     0.900000E-01   1.00800           0
     14035 MEMB     170      OSM      C18F     CTL3    -0.270000       12.0110           0
     14036 MEMB     170      OSM      H18F     HAL3     0.900000E-01   1.00800           0
     14037 MEMB     170      OSM      H18G     HAL3     0.900000E-01   1.00800           0
     14038 MEMB     170      OSM      H18H     HAL3     0.900000E-01   1.00800           0
     14039 MEMB     175      OSM      N        NTL     -0.600000       14.0070           0
     14040 MEMB     175      OSM      C15      CTL5    -0.350000       12.0110           0
     14041 MEMB     175      OSM      H15A     HL       0.250000       1.00800           0
     14042 MEMB     175      OSM      H15B     HL       0.250000       1.00800           0
     14043 MEMB     175      OSM      H15C     HL       0.250000       1.00800           0
     14044 MEMB     175      OSM      C14      CTL5    -0.350000       12.0110           0
     14045 MEMB     175      OSM      H14A     HL       0.250000       1.00800           0
     14046 MEMB     175      OSM      H14B     HL       0.250000       1.00800           0
     14047 MEMB     175      OSM      H14C     HL       0.250000       1.00800           0
     14048 MEMB     175      OSM      C13      CTL5    -0.350000       12.0110           0
     14049 MEMB     175      OSM      H13A     HL       0.250000       1.00800           0
     14050 MEMB     175      OSM      H13B     HL       0.250000       1.00800           0
     14051 MEMB     175      OSM      H13C     HL       0.250000       1.00800           0
     14052 MEMB     175      OSM      C12      CTL2    -0.100000       12.0110           0
     14053 MEMB     175      OSM      H12A     HL       0.250000       1.00800           0
     14054 MEMB     175      OSM      H12B     HL       0.250000       1.00800           0
     14055 MEMB     175      OSM      C11      CTL2    -0.800000E-01   12.0110           0
     14056 MEMB     175      OSM      H11A     HAL2     0.900000E-01   1.00800           0
     14057 MEMB     175      OSM      H11B     HAL2     0.900000E-01   1.00800           0
     14058 MEMB     175      OSM      P        PL       1.500000       30.9740           0
     14059 MEMB     175      OSM      O13      O2L     -0.780000       15.9994           0
     14060 MEMB     175      OSM      O14      O2L     -0.780000       15.9994           0
     14061 MEMB     175      OSM      O11      OSLP    -0.570000       15.9994           0
     14062 MEMB     175      OSM      O12      OSLP    -0.570000       15.9994           0
     14063 MEMB     175      OSM      C1S      CTL2    -0.800000E-01   12.0110           0
     14064 MEMB     175      OSM      H1S      HAL2     0.900000E-01   1.00800           0
     14065 MEMB     175      OSM      H1T      HAL2     0.900000E-01   1.00800           0
     14066 MEMB     175      OSM      NF       NHL     -0.700000       14.0070           0
     14067 MEMB     175      OSM      HNF      H        0.350000       1.00800           0
     14068 MEMB     175      OSM      C2S      CTL1     0.300000       12.0110           0
     14069 MEMB     175      OSM      H2S      HAL1     0.500000E-01   1.00800           0
     14070 MEMB     175      OSM      C3S      CTO1     0.500000       12.0110           0
     14071 MEMB     175      OSM      H3S      HAL1    -0.110000       1.00800           0
     14072 MEMB     175      OSM      O3       OHL     -0.690000       15.9994           0
     14073 MEMB     175      OSM      HO3      HOL      0.300000       1.00800           0
     14074 MEMB     175      OSM      C4S      CEL3    -0.150000       12.0110           0
     14075 MEMB     175      OSM      H4S      HEL1     0.150000       1.00800           0
     14076 MEMB     175      OSM      C5S      CEL3    -0.150000       12.0110           0
     14077 MEMB     175      OSM      H5S      HEL1     0.150000       1.00800           0
     14078 MEMB     175      OSM      C6S      CTL2    -0.180000       12.0110           0
     14079 MEMB     175      OSM      H6S      HAL2     0.900000E-01   1.00800           0
     14080 MEMB     175      OSM      H6T      HAL2     0.900000E-01   1.00800           0
     14081 MEMB     175      OSM      C7S      CTL2    -0.180000       12.0110           0
     14082 MEMB     175      OSM      H7S      HAL2     0.900000E-01   1.00800           0
     14083 MEMB     175      OSM      H7T      HAL2     0.900000E-01   1.00800           0
     14084 MEMB     175      OSM      C8S      CTL2    -0.180000       12.0110           0
     14085 MEMB     175      OSM      H8S      HAL2     0.900000E-01   1.00800           0
     14086 MEMB     175      OSM      H8T      HAL2     0.900000E-01   1.00800           0
     14087 MEMB     175      OSM      C9S      CTL2    -0.180000       12.0110           0
     14088 MEMB     175      OSM      H9S      HAL2     0.900000E-01   1.00800           0
     14089 MEMB     175      OSM      H9T      HAL2     0.900000E-01   1.00800           0
     14090 MEMB     175      OSM      C10S     CTL2    -0.180000       12.0110           0
     14091 MEMB     175      OSM      H10S     HAL2     0.900000E-01   1.00800           0
     14092 MEMB     175      OSM      H10T     HAL2     0.900000E-01   1.00800           0
     14093 MEMB     175      OSM      C11S     CTL2    -0.180000       12.0110           0
     14094 MEMB     175      OSM      H11S     HAL2     0.900000E-01   1.00800           0
     14095 MEMB     175      OSM      H11T     HAL2     0.900000E-01   1.00800           0
     14096 MEMB     175      OSM      C12S     CTL2    -0.180000       12.0110           0
     14097 MEMB     175      OSM      H12S     HAL2     0.900000E-01   1.00800           0
     14098 MEMB     175      OSM      H12T     HAL2     0.900000E-01   1.00800           0
     14099 MEMB     175      OSM      C13S     CTL2    -0.180000       12.0110           0
     14100 MEMB     175      OSM      H13S     HAL2     0.900000E-01   1.00800           0
     14101 MEMB     175      OSM      H13T     HAL2     0.900000E-01   1.00800           0
     14102 MEMB     175      OSM      C14S     CTL2    -0.180000       12.0110           0
     14103 MEMB     175      OSM      H14S     HAL2     0.900000E-01   1.00800           0
     14104 MEMB     175      OSM      H14T     HAL2     0.900000E-01   1.00800           0
     14105 MEMB     175      OSM      C15S     CTL2    -0.180000       12.0110           0
     14106 MEMB     175      OSM      H15S     HAL2     0.900000E-01   1.00800           0
     14107 MEMB     175      OSM      H15T     HAL2     0.900000E-01   1.00800           0
     14108 MEMB     175      OSM      C16S     CTL2    -0.180000       12.0110           0
     14109 MEMB     175      OSM      H16S     HAL2     0.900000E-01   1.00800           0
     14110 MEMB     175      OSM      H16T     HAL2     0.900000E-01   1.00800           0
     14111 MEMB     175      OSM      C17S     CTL2    -0.180000       12.0110           0
     14112 MEMB     175      OSM      H17S     HAL2     0.900000E-01   1.00800           0
     14113 MEMB     175      OSM      H17T     HAL2     0.900000E-01   1.00800           0
     14114 MEMB     175      OSM      C18S     CTL3    -0.270000       12.0110           0
     14115 MEMB     175      OSM      H18S     HAL3     0.900000E-01   1.00800           0
     14116 MEMB     175      OSM      H18T     HAL3     0.900000E-01   1.00800           0
     14117 MEMB     175      OSM      H18U     HAL3     0.900000E-01   1.00800           0
     14118 MEMB     175      OSM      C1F      C        0.550000       12.0110           0
     14119 MEMB     175      OSM      OF       O       -0.600000       15.9994           0
     14120 MEMB     175      OSM      C2F      CTL2    -0.700000E-01   12.0110           0
     14121 MEMB     175      OSM      H2F      HAL2     0.600000E-01   1.00800           0
     14122 MEMB     175      OSM      H2G      HAL2     0.600000E-01   1.00800           0
     14123 MEMB     175      OSM      C3F      CTL2    -0.180000       12.0110           0
     14124 MEMB     175      OSM      H3F      HAL2     0.900000E-01   1.00800           0
     14125 MEMB     175      OSM      H3G      HAL2     0.900000E-01   1.00800           0
     14126 MEMB     175      OSM      C4F      CTL2    -0.180000       12.0110           0
     14127 MEMB     175      OSM      H4F      HAL2     0.900000E-01   1.00800           0
     14128 MEMB     175      OSM      H4G      HAL2     0.900000E-01   1.00800           0
     14129 MEMB     175      OSM      C5F      CTL2    -0.180000       12.0110           0
     14130 MEMB     175      OSM      H5F      HAL2     0.900000E-01   1.00800           0
     14131 MEMB     175      OSM      H5G      HAL2     0.900000E-01   1.00800           0
     14132 MEMB     175      OSM      C6F      CTL2    -0.180000       12.0110           0
     14133 MEMB     175      OSM      H6F      HAL2     0.900000E-01   1.00800           0
     14134 MEMB     175      OSM      H6G      HAL2     0.900000E-01   1.00800           0
     14135 MEMB     175      OSM      C7F      CTL2    -0.180000       12.0110           0
     14136 MEMB     175      OSM      H7F      HAL2     0.900000E-01   1.00800           0
     14137 MEMB     175      OSM      H7G      HAL2     0.900000E-01   1.00800           0
     14138 MEMB     175      OSM      C8F      CTL2    -0.180000       12.0110           0
     14139 MEMB     175      OSM      H8F      HAL2     0.900000E-01   1.00800           0
     14140 MEMB     175      OSM      H8G      HAL2     0.900000E-01   1.00800           0
     14141 MEMB     175      OSM      C9F      CEL1    -0.150000       12.0110           0
     14142 MEMB     175      OSM      H9F      HEL1     0.150000       1.00800           0
     14143 MEMB     175      OSM      C10F     CEL1    -0.150000       12.0110           0
     14144 MEMB     175      OSM      H10F     HEL1     0.150000       1.00800           0
     14145 MEMB     175      OSM      C11F     CTL2    -0.180000       12.0110           0
     14146 MEMB     175      OSM      H11F     HAL2     0.900000E-01   1.00800           0
     14147 MEMB     175      OSM      H11G     HAL2     0.900000E-01   1.00800           0
     14148 MEMB     175      OSM      C12F     CTL2    -0.180000       12.0110           0
     14149 MEMB     175      OSM      H12F     HAL2     0.900000E-01   1.00800           0
     14150 MEMB     175      OSM      H12G     HAL2     0.900000E-01   1.00800           0
     14151 MEMB     175      OSM      C13F     CTL2    -0.180000       12.0110           0
     14152 MEMB     175      OSM      H13F     HAL2     0.900000E-01   1.00800           0
     14153 MEMB     175      OSM      H13G     HAL2     0.900000E-01   1.00800           0
     14154 MEMB     175      OSM      C14F     CTL2    -0.180000       12.0110           0
     14155 MEMB     175      OSM      H14F     HAL2     0.900000E-01   1.00800           0
     14156 MEMB     175      OSM      H14G     HAL2     0.900000E-01   1.00800           0
     14157 MEMB     175      OSM      C15F     CTL2    -0.180000       12.0110           0
     14158 MEMB     175      OSM      H15F     HAL2     0.900000E-01   1.00800           0
     14159 MEMB     175      OSM      H15G     HAL2     0.900000E-01   1.00800           0
     14160 MEMB     175      OSM      C16F     CTL2    -0.180000       12.0110           0
     14161 MEMB     175      OSM      H16F     HAL2     0.900000E-01   1.00800           0
     14162 MEMB     175      OSM      H16G     HAL2     0.900000E-01   1.00800           0
     14163 MEMB     175      OSM      C17F     CTL2    -0.180000       12.0110           0
     14164 MEMB     175      OSM      H17F     HAL2     0.900000E-01   1.00800           0
     14165 MEMB     175      OSM      H17G     HAL2     0.900000E-01   1.00800           0
     14166 MEMB     175      OSM      C18F     CTL3    -0.270000       12.0110           0
     14167 MEMB     175      OSM      H18F     HAL3     0.900000E-01   1.00800           0
     14168 MEMB     175      OSM      H18G     HAL3     0.900000E-01   1.00800           0
     14169 MEMB     175      OSM      H18H     HAL3     0.900000E-01   1.00800           0
     14170 MEMB     177      OSM      N        NTL     -0.600000       14.0070           0
     14171 MEMB     177      OSM      C15      CTL5    -0.350000       12.0110           0
     14172 MEMB     177      OSM      H15A     HL       0.250000       1.00800           0
     14173 MEMB     177      OSM      H15B     HL       0.250000       1.00800           0
     14174 MEMB     177      OSM      H15C     HL       0.250000       1.00800           0
     14175 MEMB     177      OSM      C14      CTL5    -0.350000       12.0110           0
     14176 MEMB     177      OSM      H14A     HL       0.250000       1.00800           0
     14177 MEMB     177      OSM      H14B     HL       0.250000       1.00800           0
     14178 MEMB     177      OSM      H14C     HL       0.250000       1.00800           0
     14179 MEMB     177      OSM      C13      CTL5    -0.350000       12.0110           0
     14180 MEMB     177      OSM      H13A     HL       0.250000       1.00800           0
     14181 MEMB     177      OSM      H13B     HL       0.250000       1.00800           0
     14182 MEMB     177      OSM      H13C     HL       0.250000       1.00800           0
     14183 MEMB     177      OSM      C12      CTL2    -0.100000       12.0110           0
     14184 MEMB     177      OSM      H12A     HL       0.250000       1.00800           0
     14185 MEMB     177      OSM      H12B     HL       0.250000       1.00800           0
     14186 MEMB     177      OSM      C11      CTL2    -0.800000E-01   12.0110           0
     14187 MEMB     177      OSM      H11A     HAL2     0.900000E-01   1.00800           0
     14188 MEMB     177      OSM      H11B     HAL2     0.900000E-01   1.00800           0
     14189 MEMB     177      OSM      P        PL       1.500000       30.9740           0
     14190 MEMB     177      OSM      O13      O2L     -0.780000       15.9994           0
     14191 MEMB     177      OSM      O14      O2L     -0.780000       15.9994           0
     14192 MEMB     177      OSM      O11      OSLP    -0.570000       15.9994           0
     14193 MEMB     177      OSM      O12      OSLP    -0.570000       15.9994           0
     14194 MEMB     177      OSM      C1S      CTL2    -0.800000E-01   12.0110           0
     14195 MEMB     177      OSM      H1S      HAL2     0.900000E-01   1.00800           0
     14196 MEMB     177      OSM      H1T      HAL2     0.900000E-01   1.00800           0
     14197 MEMB     177      OSM      NF       NHL     -0.700000       14.0070           0
     14198 MEMB     177      OSM      HNF      H        0.350000       1.00800           0
     14199 MEMB     177      OSM      C2S      CTL1     0.300000       12.0110           0
     14200 MEMB     177      OSM      H2S      HAL1     0.500000E-01   1.00800           0
     14201 MEMB     177      OSM      C3S      CTO1     0.500000       12.0110           0
     14202 MEMB     177      OSM      H3S      HAL1    -0.110000       1.00800           0
     14203 MEMB     177      OSM      O3       OHL     -0.690000       15.9994           0
     14204 MEMB     177      OSM      HO3      HOL      0.300000       1.00800           0
     14205 MEMB     177      OSM      C4S      CEL3    -0.150000       12.0110           0
     14206 MEMB     177      OSM      H4S      HEL1     0.150000       1.00800           0
     14207 MEMB     177      OSM      C5S      CEL3    -0.150000       12.0110           0
     14208 MEMB     177      OSM      H5S      HEL1     0.150000       1.00800           0
     14209 MEMB     177      OSM      C6S      CTL2    -0.180000       12.0110           0
     14210 MEMB     177      OSM      H6S      HAL2     0.900000E-01   1.00800           0
     14211 MEMB     177      OSM      H6T      HAL2     0.900000E-01   1.00800           0
     14212 MEMB     177      OSM      C7S      CTL2    -0.180000       12.0110           0
     14213 MEMB     177      OSM      H7S      HAL2     0.900000E-01   1.00800           0
     14214 MEMB     177      OSM      H7T      HAL2     0.900000E-01   1.00800           0
     14215 MEMB     177      OSM      C8S      CTL2    -0.180000       12.0110           0
     14216 MEMB     177      OSM      H8S      HAL2     0.900000E-01   1.00800           0
     14217 MEMB     177      OSM      H8T      HAL2     0.900000E-01   1.00800           0
     14218 MEMB     177      OSM      C9S      CTL2    -0.180000       12.0110           0
     14219 MEMB     177      OSM      H9S      HAL2     0.900000E-01   1.00800           0
     14220 MEMB     177      OSM      H9T      HAL2     0.900000E-01   1.00800           0
     14221 MEMB     177      OSM      C10S     CTL2    -0.180000       12.0110           0
     14222 MEMB     177      OSM      H10S     HAL2     0.900000E-01   1.00800           0
     14223 MEMB     177      OSM      H10T     HAL2     0.900000E-01   1.00800           0
     14224 MEMB     177      OSM      C11S     CTL2    -0.180000       12.0110           0
     14225 MEMB     177      OSM      H11S     HAL2     0.900000E-01   1.00800           0
     14226 MEMB     177      OSM      H11T     HAL2     0.900000E-01   1.00800           0
     14227 MEMB     177      OSM      C12S     CTL2    -0.180000       12.0110           0
     14228 MEMB     177      OSM      H12S     HAL2     0.900000E-01   1.00800           0
     14229 MEMB     177      OSM      H12T     HAL2     0.900000E-01   1.00800           0
     14230 MEMB     177      OSM      C13S     CTL2    -0.180000       12.0110           0
     14231 MEMB     177      OSM      H13S     HAL2     0.900000E-01   1.00800           0
     14232 MEMB     177      OSM      H13T     HAL2     0.900000E-01   1.00800           0
     14233 MEMB     177      OSM      C14S     CTL2    -0.180000       12.0110           0
     14234 MEMB     177      OSM      H14S     HAL2     0.900000E-01   1.00800           0
     14235 MEMB     177      OSM      H14T     HAL2     0.900000E-01   1.00800           0
     14236 MEMB     177      OSM      C15S     CTL2    -0.180000       12.0110           0
     14237 MEMB     177      OSM      H15S     HAL2     0.900000E-01   1.00800           0
     14238 MEMB     177      OSM      H15T     HAL2     0.900000E-01   1.00800           0
     14239 MEMB     177      OSM      C16S     CTL2    -0.180000       12.0110           0
     14240 MEMB     177      OSM      H16S     HAL2     0.900000E-01   1.00800           0
     14241 MEMB     177      OSM      H16T     HAL2     0.900000E-01   1.00800           0
     14242 MEMB     177      OSM      C17S     CTL2    -0.180000       12.0110           0
     14243 MEMB     177      OSM      H17S     HAL2     0.900000E-01   1.00800           0
     14244 MEMB     177      OSM      H17T     HAL2     0.900000E-01   1.00800           0
     14245 MEMB     177      OSM      C18S     CTL3    -0.270000       12.0110           0
     14246 MEMB     177      OSM      H18S     HAL3     0.900000E-01   1.00800           0
     14247 MEMB     177      OSM      H18T     HAL3     0.900000E-01   1.00800           0
     14248 MEMB     177      OSM      H18U     HAL3     0.900000E-01   1.00800           0
     14249 MEMB     177      OSM      C1F      C        0.550000       12.0110           0
     14250 MEMB     177      OSM      OF       O       -0.600000       15.9994           0
     14251 MEMB     177      OSM      C2F      CTL2    -0.700000E-01   12.0110           0
     14252 MEMB     177      OSM      H2F      HAL2     0.600000E-01   1.00800           0
     14253 MEMB     177      OSM      H2G      HAL2     0.600000E-01   1.00800           0
     14254 MEMB     177      OSM      C3F      CTL2    -0.180000       12.0110           0
     14255 MEMB     177      OSM      H3F      HAL2     0.900000E-01   1.00800           0
     14256 MEMB     177      OSM      H3G      HAL2     0.900000E-01   1.00800           0
     14257 MEMB     177      OSM      C4F      CTL2    -0.180000       12.0110           0
     14258 MEMB     177      OSM      H4F      HAL2     0.900000E-01   1.00800           0
     14259 MEMB     177      OSM      H4G      HAL2     0.900000E-01   1.00800           0
     14260 MEMB     177      OSM      C5F      CTL2    -0.180000       12.0110           0
     14261 MEMB     177      OSM      H5F      HAL2     0.900000E-01   1.00800           0
     14262 MEMB     177      OSM      H5G      HAL2     0.900000E-01   1.00800           0
     14263 MEMB     177      OSM      C6F      CTL2    -0.180000       12.0110           0
     14264 MEMB     177      OSM      H6F      HAL2     0.900000E-01   1.00800           0
     14265 MEMB     177      OSM      H6G      HAL2     0.900000E-01   1.00800           0
     14266 MEMB     177      OSM      C7F      CTL2    -0.180000       12.0110           0
     14267 MEMB     177      OSM      H7F      HAL2     0.900000E-01   1.00800           0
     14268 MEMB     177      OSM      H7G      HAL2     0.900000E-01   1.00800           0
     14269 MEMB     177      OSM      C8F      CTL2    -0.180000       12.0110           0
     14270 MEMB     177      OSM      H8F      HAL2     0.900000E-01   1.00800           0
     14271 MEMB     177      OSM      H8G      HAL2     0.900000E-01   1.00800           0
     14272 MEMB     177      OSM      C9F      CEL1    -0.150000       12.0110           0
     14273 MEMB     177      OSM      H9F      HEL1     0.150000       1.00800           0
     14274 MEMB     177      OSM      C10F     CEL1    -0.150000       12.0110           0
     14275 MEMB     177      OSM      H10F     HEL1     0.150000       1.00800           0
     14276 MEMB     177      OSM      C11F     CTL2    -0.180000       12.0110           0
     14277 MEMB     177      OSM      H11F     HAL2     0.900000E-01   1.00800           0
     14278 MEMB     177      OSM      H11G     HAL2     0.900000E-01   1.00800           0
     14279 MEMB     177      OSM      C12F     CTL2    -0.180000       12.0110           0
     14280 MEMB     177      OSM      H12F     HAL2     0.900000E-01   1.00800           0
     14281 MEMB     177      OSM      H12G     HAL2     0.900000E-01   1.00800           0
     14282 MEMB     177      OSM      C13F     CTL2    -0.180000       12.0110           0
     14283 MEMB     177      OSM      H13F     HAL2     0.900000E-01   1.00800           0
     14284 MEMB     177      OSM      H13G     HAL2     0.900000E-01   1.00800           0
     14285 MEMB     177      OSM      C14F     CTL2    -0.180000       12.0110           0
     14286 MEMB     177      OSM      H14F     HAL2     0.900000E-01   1.00800           0
     14287 MEMB     177      OSM      H14G     HAL2     0.900000E-01   1.00800           0
     14288 MEMB     177      OSM      C15F     CTL2    -0.180000       12.0110           0
     14289 MEMB     177      OSM      H15F     HAL2     0.900000E-01   1.00800           0
     14290 MEMB     177      OSM      H15G     HAL2     0.900000E-01   1.00800           0
     14291 MEMB     177      OSM      C16F     CTL2    -0.180000       12.0110           0
     14292 MEMB     177      OSM      H16F     HAL2     0.900000E-01   1.00800           0
     14293 MEMB     177      OSM      H16G     HAL2     0.900000E-01   1.00800           0
     14294 MEMB     177      OSM      C17F     CTL2    -0.180000       12.0110           0
     14295 MEMB     177      OSM      H17F     HAL2     0.900000E-01   1.00800           0
     14296 MEMB     177      OSM      H17G     HAL2     0.900000E-01   1.00800           0
     14297 MEMB     177      OSM      C18F     CTL3    -0.270000       12.0110           0
     14298 MEMB     177      OSM      H18F     HAL3     0.900000E-01   1.00800           0
     14299 MEMB     177      OSM      H18G     HAL3     0.900000E-01   1.00800           0
     14300 MEMB     177      OSM      H18H     HAL3     0.900000E-01   1.00800           0
     14301 MEMB     6        SAPE     N        NH3L    -0.300000       14.0070           0
     14302 MEMB     6        SAPE     HN1      HCL      0.330000       1.00800           0
     14303 MEMB     6        SAPE     HN2      HCL      0.330000       1.00800           0
     14304 MEMB     6        SAPE     HN3      HCL      0.330000       1.00800           0
     14305 MEMB     6        SAPE     C12      CTL2     0.130000       12.0110           0
     14306 MEMB     6        SAPE     H12A     HAL2     0.900000E-01   1.00800           0
     14307 MEMB     6        SAPE     H12B     HAL2     0.900000E-01   1.00800           0
     14308 MEMB     6        SAPE     C11      CTL2    -0.800000E-01   12.0110           0
     14309 MEMB     6        SAPE     H11A     HAL2     0.900000E-01   1.00800           0
     14310 MEMB     6        SAPE     H11B     HAL2     0.900000E-01   1.00800           0
     14311 MEMB     6        SAPE     P        PL       1.500000       30.9740           0
     14312 MEMB     6        SAPE     O13      O2L     -0.780000       15.9994           0
     14313 MEMB     6        SAPE     O14      O2L     -0.780000       15.9994           0
     14314 MEMB     6        SAPE     O12      OSLP    -0.570000       15.9994           0
     14315 MEMB     6        SAPE     O11      OSLP    -0.570000       15.9994           0
     14316 MEMB     6        SAPE     C1       CTL2    -0.800000E-01   12.0110           0
     14317 MEMB     6        SAPE     HA       HAL2     0.900000E-01   1.00800           0
     14318 MEMB     6        SAPE     HB       HAL2     0.900000E-01   1.00800           0
     14319 MEMB     6        SAPE     C2       CTL1     0.170000       12.0110           0
     14320 MEMB     6        SAPE     HS       HAL1     0.900000E-01   1.00800           0
     14321 MEMB     6        SAPE     O21      OSL     -0.490000       15.9994           0
     14322 MEMB     6        SAPE     C21      CL       0.900000       12.0110           0
     14323 MEMB     6        SAPE     O22      OBL     -0.630000       15.9994           0
     14324 MEMB     6        SAPE     C22      CTL2    -0.220000       12.0110           0
     14325 MEMB     6        SAPE     H2R      HAL2     0.900000E-01   1.00800           0
     14326 MEMB     6        SAPE     H2S      HAL2     0.900000E-01   1.00800           0
     14327 MEMB     6        SAPE     C3       CTL2     0.800000E-01   12.0110           0
     14328 MEMB     6        SAPE     HX       HAL2     0.900000E-01   1.00800           0
     14329 MEMB     6        SAPE     HY       HAL2     0.900000E-01   1.00800           0
     14330 MEMB     6        SAPE     O31      OSL     -0.490000       15.9994           0
     14331 MEMB     6        SAPE     C31      CL       0.900000       12.0110           0
     14332 MEMB     6        SAPE     O32      OBL     -0.630000       15.9994           0
     14333 MEMB     6        SAPE     C32      CTL2    -0.220000       12.0110           0
     14334 MEMB     6        SAPE     H2X      HAL2     0.900000E-01   1.00800           0
     14335 MEMB     6        SAPE     H2Y      HAL2     0.900000E-01   1.00800           0
     14336 MEMB     6        SAPE     C23      CTL2    -0.180000       12.0110           0
     14337 MEMB     6        SAPE     H3R      HAL2     0.900000E-01   1.00800           0
     14338 MEMB     6        SAPE     H3S      HAL2     0.900000E-01   1.00800           0
     14339 MEMB     6        SAPE     C24      CTL2    -0.180000       12.0110           0
     14340 MEMB     6        SAPE     H4R      HAL2     0.900000E-01   1.00800           0
     14341 MEMB     6        SAPE     H4S      HAL2     0.900000E-01   1.00800           0
     14342 MEMB     6        SAPE     C25      CEL1    -0.150000       12.0110           0
     14343 MEMB     6        SAPE     H5R      HEL1     0.150000       1.00800           0
     14344 MEMB     6        SAPE     C26      CEL1    -0.150000       12.0110           0
     14345 MEMB     6        SAPE     H6R      HEL1     0.150000       1.00800           0
     14346 MEMB     6        SAPE     C27      CTL2    -0.180000       12.0110           0
     14347 MEMB     6        SAPE     H7R      HAL2     0.900000E-01   1.00800           0
     14348 MEMB     6        SAPE     H7S      HAL2     0.900000E-01   1.00800           0
     14349 MEMB     6        SAPE     C28      CEL1    -0.150000       12.0110           0
     14350 MEMB     6        SAPE     H8R      HEL1     0.150000       1.00800           0
     14351 MEMB     6        SAPE     C29      CEL1    -0.150000       12.0110           0
     14352 MEMB     6        SAPE     H9R      HEL1     0.150000       1.00800           0
     14353 MEMB     6        SAPE     C210     CTL2    -0.180000       12.0110           0
     14354 MEMB     6        SAPE     H10R     HAL2     0.900000E-01   1.00800           0
     14355 MEMB     6        SAPE     H10S     HAL2     0.900000E-01   1.00800           0
     14356 MEMB     6        SAPE     C211     CEL1    -0.150000       12.0110           0
     14357 MEMB     6        SAPE     H11R     HEL1     0.150000       1.00800           0
     14358 MEMB     6        SAPE     C212     CEL1    -0.150000       12.0110           0
     14359 MEMB     6        SAPE     H12R     HEL1     0.150000       1.00800           0
     14360 MEMB     6        SAPE     C213     CTL2    -0.180000       12.0110           0
     14361 MEMB     6        SAPE     H13R     HAL2     0.900000E-01   1.00800           0
     14362 MEMB     6        SAPE     H13S     HAL2     0.900000E-01   1.00800           0
     14363 MEMB     6        SAPE     C214     CEL1    -0.150000       12.0110           0
     14364 MEMB     6        SAPE     H14R     HEL1     0.150000       1.00800           0
     14365 MEMB     6        SAPE     C215     CEL1    -0.150000       12.0110           0
     14366 MEMB     6        SAPE     H15R     HEL1     0.150000       1.00800           0
     14367 MEMB     6        SAPE     C216     CTL2    -0.180000       12.0110           0
     14368 MEMB     6        SAPE     H16R     HAL2     0.900000E-01   1.00800           0
     14369 MEMB     6        SAPE     H16S     HAL2     0.900000E-01   1.00800           0
     14370 MEMB     6        SAPE     C217     CTL2    -0.180000       12.0110           0
     14371 MEMB     6        SAPE     H17R     HAL2     0.900000E-01   1.00800           0
     14372 MEMB     6        SAPE     H17S     HAL2     0.900000E-01   1.00800           0
     14373 MEMB     6        SAPE     C218     CTL2    -0.180000       12.0110           0
     14374 MEMB     6        SAPE     H18R     HAL2     0.900000E-01   1.00800           0
     14375 MEMB     6        SAPE     H18S     HAL2     0.900000E-01   1.00800           0
     14376 MEMB     6        SAPE     C219     CTL2    -0.180000       12.0110           0
     14377 MEMB     6        SAPE     H19R     HAL2     0.900000E-01   1.00800           0
     14378 MEMB     6        SAPE     H19S     HAL2     0.900000E-01   1.00800           0
     14379 MEMB     6        SAPE     C220     CTL3    -0.270000       12.0110           0
     14380 MEMB     6        SAPE     H20R     HAL3     0.900000E-01   1.00800           0
     14381 MEMB     6        SAPE     H20S     HAL3     0.900000E-01   1.00800           0
     14382 MEMB     6        SAPE     H20T     HAL3     0.900000E-01   1.00800           0
     14383 MEMB     6        SAPE     C33      CTL2    -0.180000       12.0110           0
     14384 MEMB     6        SAPE     H3X      HAL2     0.900000E-01   1.00800           0
     14385 MEMB     6        SAPE     H3Y      HAL2     0.900000E-01   1.00800           0
     14386 MEMB     6        SAPE     C34      CTL2    -0.180000       12.0110           0
     14387 MEMB     6        SAPE     H4X      HAL2     0.900000E-01   1.00800           0
     14388 MEMB     6        SAPE     H4Y      HAL2     0.900000E-01   1.00800           0
     14389 MEMB     6        SAPE     C35      CTL2    -0.180000       12.0110           0
     14390 MEMB     6        SAPE     H5X      HAL2     0.900000E-01   1.00800           0
     14391 MEMB     6        SAPE     H5Y      HAL2     0.900000E-01   1.00800           0
     14392 MEMB     6        SAPE     C36      CTL2    -0.180000       12.0110           0
     14393 MEMB     6        SAPE     H6X      HAL2     0.900000E-01   1.00800           0
     14394 MEMB     6        SAPE     H6Y      HAL2     0.900000E-01   1.00800           0
     14395 MEMB     6        SAPE     C37      CTL2    -0.180000       12.0110           0
     14396 MEMB     6        SAPE     H7X      HAL2     0.900000E-01   1.00800           0
     14397 MEMB     6        SAPE     H7Y      HAL2     0.900000E-01   1.00800           0
     14398 MEMB     6        SAPE     C38      CTL2    -0.180000       12.0110           0
     14399 MEMB     6        SAPE     H8X      HAL2     0.900000E-01   1.00800           0
     14400 MEMB     6        SAPE     H8Y      HAL2     0.900000E-01   1.00800           0
     14401 MEMB     6        SAPE     C39      CTL2    -0.180000       12.0110           0
     14402 MEMB     6        SAPE     H9X      HAL2     0.900000E-01   1.00800           0
     14403 MEMB     6        SAPE     H9Y      HAL2     0.900000E-01   1.00800           0
     14404 MEMB     6        SAPE     C310     CTL2    -0.180000       12.0110           0
     14405 MEMB     6        SAPE     H10X     HAL2     0.900000E-01   1.00800           0
     14406 MEMB     6        SAPE     H10Y     HAL2     0.900000E-01   1.00800           0
     14407 MEMB     6        SAPE     C311     CTL2    -0.180000       12.0110           0
     14408 MEMB     6        SAPE     H11X     HAL2     0.900000E-01   1.00800           0
     14409 MEMB     6        SAPE     H11Y     HAL2     0.900000E-01   1.00800           0
     14410 MEMB     6        SAPE     C312     CTL2    -0.180000       12.0110           0
     14411 MEMB     6        SAPE     H12X     HAL2     0.900000E-01   1.00800           0
     14412 MEMB     6        SAPE     H12Y     HAL2     0.900000E-01   1.00800           0
     14413 MEMB     6        SAPE     C313     CTL2    -0.180000       12.0110           0
     14414 MEMB     6        SAPE     H13X     HAL2     0.900000E-01   1.00800           0
     14415 MEMB     6        SAPE     H13Y     HAL2     0.900000E-01   1.00800           0
     14416 MEMB     6        SAPE     C314     CTL2    -0.180000       12.0110           0
     14417 MEMB     6        SAPE     H14X     HAL2     0.900000E-01   1.00800           0
     14418 MEMB     6        SAPE     H14Y     HAL2     0.900000E-01   1.00800           0
     14419 MEMB     6        SAPE     C315     CTL2    -0.180000       12.0110           0
     14420 MEMB     6        SAPE     H15X     HAL2     0.900000E-01   1.00800           0
     14421 MEMB     6        SAPE     H15Y     HAL2     0.900000E-01   1.00800           0
     14422 MEMB     6        SAPE     C316     CTL2    -0.180000       12.0110           0
     14423 MEMB     6        SAPE     H16X     HAL2     0.900000E-01   1.00800           0
     14424 MEMB     6        SAPE     H16Y     HAL2     0.900000E-01   1.00800           0
     14425 MEMB     6        SAPE     C317     CTL2    -0.180000       12.0110           0
     14426 MEMB     6        SAPE     H17X     HAL2     0.900000E-01   1.00800           0
     14427 MEMB     6        SAPE     H17Y     HAL2     0.900000E-01   1.00800           0
     14428 MEMB     6        SAPE     C318     CTL3    -0.270000       12.0110           0
     14429 MEMB     6        SAPE     H18X     HAL3     0.900000E-01   1.00800           0
     14430 MEMB     6        SAPE     H18Y     HAL3     0.900000E-01   1.00800           0
     14431 MEMB     6        SAPE     H18Z     HAL3     0.900000E-01   1.00800           0
     14432 MEMB     20       SAPE     N        NH3L    -0.300000       14.0070           0
     14433 MEMB     20       SAPE     HN1      HCL      0.330000       1.00800           0
     14434 MEMB     20       SAPE     HN2      HCL      0.330000       1.00800           0
     14435 MEMB     20       SAPE     HN3      HCL      0.330000       1.00800           0
     14436 MEMB     20       SAPE     C12      CTL2     0.130000       12.0110           0
     14437 MEMB     20       SAPE     H12A     HAL2     0.900000E-01   1.00800           0
     14438 MEMB     20       SAPE     H12B     HAL2     0.900000E-01   1.00800           0
     14439 MEMB     20       SAPE     C11      CTL2    -0.800000E-01   12.0110           0
     14440 MEMB     20       SAPE     H11A     HAL2     0.900000E-01   1.00800           0
     14441 MEMB     20       SAPE     H11B     HAL2     0.900000E-01   1.00800           0
     14442 MEMB     20       SAPE     P        PL       1.500000       30.9740           0
     14443 MEMB     20       SAPE     O13      O2L     -0.780000       15.9994           0
     14444 MEMB     20       SAPE     O14      O2L     -0.780000       15.9994           0
     14445 MEMB     20       SAPE     O12      OSLP    -0.570000       15.9994           0
     14446 MEMB     20       SAPE     O11      OSLP    -0.570000       15.9994           0
     14447 MEMB     20       SAPE     C1       CTL2    -0.800000E-01   12.0110           0
     14448 MEMB     20       SAPE     HA       HAL2     0.900000E-01   1.00800           0
     14449 MEMB     20       SAPE     HB       HAL2     0.900000E-01   1.00800           0
     14450 MEMB     20       SAPE     C2       CTL1     0.170000       12.0110           0
     14451 MEMB     20       SAPE     HS       HAL1     0.900000E-01   1.00800           0
     14452 MEMB     20       SAPE     O21      OSL     -0.490000       15.9994           0
     14453 MEMB     20       SAPE     C21      CL       0.900000       12.0110           0
     14454 MEMB     20       SAPE     O22      OBL     -0.630000       15.9994           0
     14455 MEMB     20       SAPE     C22      CTL2    -0.220000       12.0110           0
     14456 MEMB     20       SAPE     H2R      HAL2     0.900000E-01   1.00800           0
     14457 MEMB     20       SAPE     H2S      HAL2     0.900000E-01   1.00800           0
     14458 MEMB     20       SAPE     C3       CTL2     0.800000E-01   12.0110           0
     14459 MEMB     20       SAPE     HX       HAL2     0.900000E-01   1.00800           0
     14460 MEMB     20       SAPE     HY       HAL2     0.900000E-01   1.00800           0
     14461 MEMB     20       SAPE     O31      OSL     -0.490000       15.9994           0
     14462 MEMB     20       SAPE     C31      CL       0.900000       12.0110           0
     14463 MEMB     20       SAPE     O32      OBL     -0.630000       15.9994           0
     14464 MEMB     20       SAPE     C32      CTL2    -0.220000       12.0110           0
     14465 MEMB     20       SAPE     H2X      HAL2     0.900000E-01   1.00800           0
     14466 MEMB     20       SAPE     H2Y      HAL2     0.900000E-01   1.00800           0
     14467 MEMB     20       SAPE     C23      CTL2    -0.180000       12.0110           0
     14468 MEMB     20       SAPE     H3R      HAL2     0.900000E-01   1.00800           0
     14469 MEMB     20       SAPE     H3S      HAL2     0.900000E-01   1.00800           0
     14470 MEMB     20       SAPE     C24      CTL2    -0.180000       12.0110           0
     14471 MEMB     20       SAPE     H4R      HAL2     0.900000E-01   1.00800           0
     14472 MEMB     20       SAPE     H4S      HAL2     0.900000E-01   1.00800           0
     14473 MEMB     20       SAPE     C25      CEL1    -0.150000       12.0110           0
     14474 MEMB     20       SAPE     H5R      HEL1     0.150000       1.00800           0
     14475 MEMB     20       SAPE     C26      CEL1    -0.150000       12.0110           0
     14476 MEMB     20       SAPE     H6R      HEL1     0.150000       1.00800           0
     14477 MEMB     20       SAPE     C27      CTL2    -0.180000       12.0110           0
     14478 MEMB     20       SAPE     H7R      HAL2     0.900000E-01   1.00800           0
     14479 MEMB     20       SAPE     H7S      HAL2     0.900000E-01   1.00800           0
     14480 MEMB     20       SAPE     C28      CEL1    -0.150000       12.0110           0
     14481 MEMB     20       SAPE     H8R      HEL1     0.150000       1.00800           0
     14482 MEMB     20       SAPE     C29      CEL1    -0.150000       12.0110           0
     14483 MEMB     20       SAPE     H9R      HEL1     0.150000       1.00800           0
     14484 MEMB     20       SAPE     C210     CTL2    -0.180000       12.0110           0
     14485 MEMB     20       SAPE     H10R     HAL2     0.900000E-01   1.00800           0
     14486 MEMB     20       SAPE     H10S     HAL2     0.900000E-01   1.00800           0
     14487 MEMB     20       SAPE     C211     CEL1    -0.150000       12.0110           0
     14488 MEMB     20       SAPE     H11R     HEL1     0.150000       1.00800           0
     14489 MEMB     20       SAPE     C212     CEL1    -0.150000       12.0110           0
     14490 MEMB     20       SAPE     H12R     HEL1     0.150000       1.00800           0
     14491 MEMB     20       SAPE     C213     CTL2    -0.180000       12.0110           0
     14492 MEMB     20       SAPE     H13R     HAL2     0.900000E-01   1.00800           0
     14493 MEMB     20       SAPE     H13S     HAL2     0.900000E-01   1.00800           0
     14494 MEMB     20       SAPE     C214     CEL1    -0.150000       12.0110           0
     14495 MEMB     20       SAPE     H14R     HEL1     0.150000       1.00800           0
     14496 MEMB     20       SAPE     C215     CEL1    -0.150000       12.0110           0
     14497 MEMB     20       SAPE     H15R     HEL1     0.150000       1.00800           0
     14498 MEMB     20       SAPE     C216     CTL2    -0.180000       12.0110           0
     14499 MEMB     20       SAPE     H16R     HAL2     0.900000E-01   1.00800           0
     14500 MEMB     20       SAPE     H16S     HAL2     0.900000E-01   1.00800           0
     14501 MEMB     20       SAPE     C217     CTL2    -0.180000       12.0110           0
     14502 MEMB     20       SAPE     H17R     HAL2     0.900000E-01   1.00800           0
     14503 MEMB     20       SAPE     H17S     HAL2     0.900000E-01   1.00800           0
     14504 MEMB     20       SAPE     C218     CTL2    -0.180000       12.0110           0
     14505 MEMB     20       SAPE     H18R     HAL2     0.900000E-01   1.00800           0
     14506 MEMB     20       SAPE     H18S     HAL2     0.900000E-01   1.00800           0
     14507 MEMB     20       SAPE     C219     CTL2    -0.180000       12.0110           0
     14508 MEMB     20       SAPE     H19R     HAL2     0.900000E-01   1.00800           0
     14509 MEMB     20       SAPE     H19S     HAL2     0.900000E-01   1.00800           0
     14510 MEMB     20       SAPE     C220     CTL3    -0.270000       12.0110           0
     14511 MEMB     20       SAPE     H20R     HAL3     0.900000E-01   1.00800           0
     14512 MEMB     20       SAPE     H20S     HAL3     0.900000E-01   1.00800           0
     14513 MEMB     20       SAPE     H20T     HAL3     0.900000E-01   1.00800           0
     14514 MEMB     20       SAPE     C33      CTL2    -0.180000       12.0110           0
     14515 MEMB     20       SAPE     H3X      HAL2     0.900000E-01   1.00800           0
     14516 MEMB     20       SAPE     H3Y      HAL2     0.900000E-01   1.00800           0
     14517 MEMB     20       SAPE     C34      CTL2    -0.180000       12.0110           0
     14518 MEMB     20       SAPE     H4X      HAL2     0.900000E-01   1.00800           0
     14519 MEMB     20       SAPE     H4Y      HAL2     0.900000E-01   1.00800           0
     14520 MEMB     20       SAPE     C35      CTL2    -0.180000       12.0110           0
     14521 MEMB     20       SAPE     H5X      HAL2     0.900000E-01   1.00800           0
     14522 MEMB     20       SAPE     H5Y      HAL2     0.900000E-01   1.00800           0
     14523 MEMB     20       SAPE     C36      CTL2    -0.180000       12.0110           0
     14524 MEMB     20       SAPE     H6X      HAL2     0.900000E-01   1.00800           0
     14525 MEMB     20       SAPE     H6Y      HAL2     0.900000E-01   1.00800           0
     14526 MEMB     20       SAPE     C37      CTL2    -0.180000       12.0110           0
     14527 MEMB     20       SAPE     H7X      HAL2     0.900000E-01   1.00800           0
     14528 MEMB     20       SAPE     H7Y      HAL2     0.900000E-01   1.00800           0
     14529 MEMB     20       SAPE     C38      CTL2    -0.180000       12.0110           0
     14530 MEMB     20       SAPE     H8X      HAL2     0.900000E-01   1.00800           0
     14531 MEMB     20       SAPE     H8Y      HAL2     0.900000E-01   1.00800           0
     14532 MEMB     20       SAPE     C39      CTL2    -0.180000       12.0110           0
     14533 MEMB     20       SAPE     H9X      HAL2     0.900000E-01   1.00800           0
     14534 MEMB     20       SAPE     H9Y      HAL2     0.900000E-01   1.00800           0
     14535 MEMB     20       SAPE     C310     CTL2    -0.180000       12.0110           0
     14536 MEMB     20       SAPE     H10X     HAL2     0.900000E-01   1.00800           0
     14537 MEMB     20       SAPE     H10Y     HAL2     0.900000E-01   1.00800           0
     14538 MEMB     20       SAPE     C311     CTL2    -0.180000       12.0110           0
     14539 MEMB     20       SAPE     H11X     HAL2     0.900000E-01   1.00800           0
     14540 MEMB     20       SAPE     H11Y     HAL2     0.900000E-01   1.00800           0
     14541 MEMB     20       SAPE     C312     CTL2    -0.180000       12.0110           0
     14542 MEMB     20       SAPE     H12X     HAL2     0.900000E-01   1.00800           0
     14543 MEMB     20       SAPE     H12Y     HAL2     0.900000E-01   1.00800           0
     14544 MEMB     20       SAPE     C313     CTL2    -0.180000       12.0110           0
     14545 MEMB     20       SAPE     H13X     HAL2     0.900000E-01   1.00800           0
     14546 MEMB     20       SAPE     H13Y     HAL2     0.900000E-01   1.00800           0
     14547 MEMB     20       SAPE     C314     CTL2    -0.180000       12.0110           0
     14548 MEMB     20       SAPE     H14X     HAL2     0.900000E-01   1.00800           0
     14549 MEMB     20       SAPE     H14Y     HAL2     0.900000E-01   1.00800           0
     14550 MEMB     20       SAPE     C315     CTL2    -0.180000       12.0110           0
     14551 MEMB     20       SAPE     H15X     HAL2     0.900000E-01   1.00800           0
     14552 MEMB     20       SAPE     H15Y     HAL2     0.900000E-01   1.00800           0
     14553 MEMB     20       SAPE     C316     CTL2    -0.180000       12.0110           0
     14554 MEMB     20       SAPE     H16X     HAL2     0.900000E-01   1.00800           0
     14555 MEMB     20       SAPE     H16Y     HAL2     0.900000E-01   1.00800           0
     14556 MEMB     20       SAPE     C317     CTL2    -0.180000       12.0110           0
     14557 MEMB     20       SAPE     H17X     HAL2     0.900000E-01   1.00800           0
     14558 MEMB     20       SAPE     H17Y     HAL2     0.900000E-01   1.00800           0
     14559 MEMB     20       SAPE     C318     CTL3    -0.270000       12.0110           0
     14560 MEMB     20       SAPE     H18X     HAL3     0.900000E-01   1.00800           0
     14561 MEMB     20       SAPE     H18Y     HAL3     0.900000E-01   1.00800           0
     14562 MEMB     20       SAPE     H18Z     HAL3     0.900000E-01   1.00800           0
     14563 MEMB     22       SAPE     N        NH3L    -0.300000       14.0070           0
     14564 MEMB     22       SAPE     HN1      HCL      0.330000       1.00800           0
     14565 MEMB     22       SAPE     HN2      HCL      0.330000       1.00800           0
     14566 MEMB     22       SAPE     HN3      HCL      0.330000       1.00800           0
     14567 MEMB     22       SAPE     C12      CTL2     0.130000       12.0110           0
     14568 MEMB     22       SAPE     H12A     HAL2     0.900000E-01   1.00800           0
     14569 MEMB     22       SAPE     H12B     HAL2     0.900000E-01   1.00800           0
     14570 MEMB     22       SAPE     C11      CTL2    -0.800000E-01   12.0110           0
     14571 MEMB     22       SAPE     H11A     HAL2     0.900000E-01   1.00800           0
     14572 MEMB     22       SAPE     H11B     HAL2     0.900000E-01   1.00800           0
     14573 MEMB     22       SAPE     P        PL       1.500000       30.9740           0
     14574 MEMB     22       SAPE     O13      O2L     -0.780000       15.9994           0
     14575 MEMB     22       SAPE     O14      O2L     -0.780000       15.9994           0
     14576 MEMB     22       SAPE     O12      OSLP    -0.570000       15.9994           0
     14577 MEMB     22       SAPE     O11      OSLP    -0.570000       15.9994           0
     14578 MEMB     22       SAPE     C1       CTL2    -0.800000E-01   12.0110           0
     14579 MEMB     22       SAPE     HA       HAL2     0.900000E-01   1.00800           0
     14580 MEMB     22       SAPE     HB       HAL2     0.900000E-01   1.00800           0
     14581 MEMB     22       SAPE     C2       CTL1     0.170000       12.0110           0
     14582 MEMB     22       SAPE     HS       HAL1     0.900000E-01   1.00800           0
     14583 MEMB     22       SAPE     O21      OSL     -0.490000       15.9994           0
     14584 MEMB     22       SAPE     C21      CL       0.900000       12.0110           0
     14585 MEMB     22       SAPE     O22      OBL     -0.630000       15.9994           0
     14586 MEMB     22       SAPE     C22      CTL2    -0.220000       12.0110           0
     14587 MEMB     22       SAPE     H2R      HAL2     0.900000E-01   1.00800           0
     14588 MEMB     22       SAPE     H2S      HAL2     0.900000E-01   1.00800           0
     14589 MEMB     22       SAPE     C3       CTL2     0.800000E-01   12.0110           0
     14590 MEMB     22       SAPE     HX       HAL2     0.900000E-01   1.00800           0
     14591 MEMB     22       SAPE     HY       HAL2     0.900000E-01   1.00800           0
     14592 MEMB     22       SAPE     O31      OSL     -0.490000       15.9994           0
     14593 MEMB     22       SAPE     C31      CL       0.900000       12.0110           0
     14594 MEMB     22       SAPE     O32      OBL     -0.630000       15.9994           0
     14595 MEMB     22       SAPE     C32      CTL2    -0.220000       12.0110           0
     14596 MEMB     22       SAPE     H2X      HAL2     0.900000E-01   1.00800           0
     14597 MEMB     22       SAPE     H2Y      HAL2     0.900000E-01   1.00800           0
     14598 MEMB     22       SAPE     C23      CTL2    -0.180000       12.0110           0
     14599 MEMB     22       SAPE     H3R      HAL2     0.900000E-01   1.00800           0
     14600 MEMB     22       SAPE     H3S      HAL2     0.900000E-01   1.00800           0
     14601 MEMB     22       SAPE     C24      CTL2    -0.180000       12.0110           0
     14602 MEMB     22       SAPE     H4R      HAL2     0.900000E-01   1.00800           0
     14603 MEMB     22       SAPE     H4S      HAL2     0.900000E-01   1.00800           0
     14604 MEMB     22       SAPE     C25      CEL1    -0.150000       12.0110           0
     14605 MEMB     22       SAPE     H5R      HEL1     0.150000       1.00800           0
     14606 MEMB     22       SAPE     C26      CEL1    -0.150000       12.0110           0
     14607 MEMB     22       SAPE     H6R      HEL1     0.150000       1.00800           0
     14608 MEMB     22       SAPE     C27      CTL2    -0.180000       12.0110           0
     14609 MEMB     22       SAPE     H7R      HAL2     0.900000E-01   1.00800           0
     14610 MEMB     22       SAPE     H7S      HAL2     0.900000E-01   1.00800           0
     14611 MEMB     22       SAPE     C28      CEL1    -0.150000       12.0110           0
     14612 MEMB     22       SAPE     H8R      HEL1     0.150000       1.00800           0
     14613 MEMB     22       SAPE     C29      CEL1    -0.150000       12.0110           0
     14614 MEMB     22       SAPE     H9R      HEL1     0.150000       1.00800           0
     14615 MEMB     22       SAPE     C210     CTL2    -0.180000       12.0110           0
     14616 MEMB     22       SAPE     H10R     HAL2     0.900000E-01   1.00800           0
     14617 MEMB     22       SAPE     H10S     HAL2     0.900000E-01   1.00800           0
     14618 MEMB     22       SAPE     C211     CEL1    -0.150000       12.0110           0
     14619 MEMB     22       SAPE     H11R     HEL1     0.150000       1.00800           0
     14620 MEMB     22       SAPE     C212     CEL1    -0.150000       12.0110           0
     14621 MEMB     22       SAPE     H12R     HEL1     0.150000       1.00800           0
     14622 MEMB     22       SAPE     C213     CTL2    -0.180000       12.0110           0
     14623 MEMB     22       SAPE     H13R     HAL2     0.900000E-01   1.00800           0
     14624 MEMB     22       SAPE     H13S     HAL2     0.900000E-01   1.00800           0
     14625 MEMB     22       SAPE     C214     CEL1    -0.150000       12.0110           0
     14626 MEMB     22       SAPE     H14R     HEL1     0.150000       1.00800           0
     14627 MEMB     22       SAPE     C215     CEL1    -0.150000       12.0110           0
     14628 MEMB     22       SAPE     H15R     HEL1     0.150000       1.00800           0
     14629 MEMB     22       SAPE     C216     CTL2    -0.180000       12.0110           0
     14630 MEMB     22       SAPE     H16R     HAL2     0.900000E-01   1.00800           0
     14631 MEMB     22       SAPE     H16S     HAL2     0.900000E-01   1.00800           0
     14632 MEMB     22       SAPE     C217     CTL2    -0.180000       12.0110           0
     14633 MEMB     22       SAPE     H17R     HAL2     0.900000E-01   1.00800           0
     14634 MEMB     22       SAPE     H17S     HAL2     0.900000E-01   1.00800           0
     14635 MEMB     22       SAPE     C218     CTL2    -0.180000       12.0110           0
     14636 MEMB     22       SAPE     H18R     HAL2     0.900000E-01   1.00800           0
     14637 MEMB     22       SAPE     H18S     HAL2     0.900000E-01   1.00800           0
     14638 MEMB     22       SAPE     C219     CTL2    -0.180000       12.0110           0
     14639 MEMB     22       SAPE     H19R     HAL2     0.900000E-01   1.00800           0
     14640 MEMB     22       SAPE     H19S     HAL2     0.900000E-01   1.00800           0
     14641 MEMB     22       SAPE     C220     CTL3    -0.270000       12.0110           0
     14642 MEMB     22       SAPE     H20R     HAL3     0.900000E-01   1.00800           0
     14643 MEMB     22       SAPE     H20S     HAL3     0.900000E-01   1.00800           0
     14644 MEMB     22       SAPE     H20T     HAL3     0.900000E-01   1.00800           0
     14645 MEMB     22       SAPE     C33      CTL2    -0.180000       12.0110           0
     14646 MEMB     22       SAPE     H3X      HAL2     0.900000E-01   1.00800           0
     14647 MEMB     22       SAPE     H3Y      HAL2     0.900000E-01   1.00800           0
     14648 MEMB     22       SAPE     C34      CTL2    -0.180000       12.0110           0
     14649 MEMB     22       SAPE     H4X      HAL2     0.900000E-01   1.00800           0
     14650 MEMB     22       SAPE     H4Y      HAL2     0.900000E-01   1.00800           0
     14651 MEMB     22       SAPE     C35      CTL2    -0.180000       12.0110           0
     14652 MEMB     22       SAPE     H5X      HAL2     0.900000E-01   1.00800           0
     14653 MEMB     22       SAPE     H5Y      HAL2     0.900000E-01   1.00800           0
     14654 MEMB     22       SAPE     C36      CTL2    -0.180000       12.0110           0
     14655 MEMB     22       SAPE     H6X      HAL2     0.900000E-01   1.00800           0
     14656 MEMB     22       SAPE     H6Y      HAL2     0.900000E-01   1.00800           0
     14657 MEMB     22       SAPE     C37      CTL2    -0.180000       12.0110           0
     14658 MEMB     22       SAPE     H7X      HAL2     0.900000E-01   1.00800           0
     14659 MEMB     22       SAPE     H7Y      HAL2     0.900000E-01   1.00800           0
     14660 MEMB     22       SAPE     C38      CTL2    -0.180000       12.0110           0
     14661 MEMB     22       SAPE     H8X      HAL2     0.900000E-01   1.00800           0
     14662 MEMB     22       SAPE     H8Y      HAL2     0.900000E-01   1.00800           0
     14663 MEMB     22       SAPE     C39      CTL2    -0.180000       12.0110           0
     14664 MEMB     22       SAPE     H9X      HAL2     0.900000E-01   1.00800           0
     14665 MEMB     22       SAPE     H9Y      HAL2     0.900000E-01   1.00800           0
     14666 MEMB     22       SAPE     C310     CTL2    -0.180000       12.0110           0
     14667 MEMB     22       SAPE     H10X     HAL2     0.900000E-01   1.00800           0
     14668 MEMB     22       SAPE     H10Y     HAL2     0.900000E-01   1.00800           0
     14669 MEMB     22       SAPE     C311     CTL2    -0.180000       12.0110           0
     14670 MEMB     22       SAPE     H11X     HAL2     0.900000E-01   1.00800           0
     14671 MEMB     22       SAPE     H11Y     HAL2     0.900000E-01   1.00800           0
     14672 MEMB     22       SAPE     C312     CTL2    -0.180000       12.0110           0
     14673 MEMB     22       SAPE     H12X     HAL2     0.900000E-01   1.00800           0
     14674 MEMB     22       SAPE     H12Y     HAL2     0.900000E-01   1.00800           0
     14675 MEMB     22       SAPE     C313     CTL2    -0.180000       12.0110           0
     14676 MEMB     22       SAPE     H13X     HAL2     0.900000E-01   1.00800           0
     14677 MEMB     22       SAPE     H13Y     HAL2     0.900000E-01   1.00800           0
     14678 MEMB     22       SAPE     C314     CTL2    -0.180000       12.0110           0
     14679 MEMB     22       SAPE     H14X     HAL2     0.900000E-01   1.00800           0
     14680 MEMB     22       SAPE     H14Y     HAL2     0.900000E-01   1.00800           0
     14681 MEMB     22       SAPE     C315     CTL2    -0.180000       12.0110           0
     14682 MEMB     22       SAPE     H15X     HAL2     0.900000E-01   1.00800           0
     14683 MEMB     22       SAPE     H15Y     HAL2     0.900000E-01   1.00800           0
     14684 MEMB     22       SAPE     C316     CTL2    -0.180000       12.0110           0
     14685 MEMB     22       SAPE     H16X     HAL2     0.900000E-01   1.00800           0
     14686 MEMB     22       SAPE     H16Y     HAL2     0.900000E-01   1.00800           0
     14687 MEMB     22       SAPE     C317     CTL2    -0.180000       12.0110           0
     14688 MEMB     22       SAPE     H17X     HAL2     0.900000E-01   1.00800           0
     14689 MEMB     22       SAPE     H17Y     HAL2     0.900000E-01   1.00800           0
     14690 MEMB     22       SAPE     C318     CTL3    -0.270000       12.0110           0
     14691 MEMB     22       SAPE     H18X     HAL3     0.900000E-01   1.00800           0
     14692 MEMB     22       SAPE     H18Y     HAL3     0.900000E-01   1.00800           0
     14693 MEMB     22       SAPE     H18Z     HAL3     0.900000E-01   1.00800           0
     14694 MEMB     26       SAPE     N        NH3L    -0.300000       14.0070           0
     14695 MEMB     26       SAPE     HN1      HCL      0.330000       1.00800           0
     14696 MEMB     26       SAPE     HN2      HCL      0.330000       1.00800           0
     14697 MEMB     26       SAPE     HN3      HCL      0.330000       1.00800           0
     14698 MEMB     26       SAPE     C12      CTL2     0.130000       12.0110           0
     14699 MEMB     26       SAPE     H12A     HAL2     0.900000E-01   1.00800           0
     14700 MEMB     26       SAPE     H12B     HAL2     0.900000E-01   1.00800           0
     14701 MEMB     26       SAPE     C11      CTL2    -0.800000E-01   12.0110           0
     14702 MEMB     26       SAPE     H11A     HAL2     0.900000E-01   1.00800           0
     14703 MEMB     26       SAPE     H11B     HAL2     0.900000E-01   1.00800           0
     14704 MEMB     26       SAPE     P        PL       1.500000       30.9740           0
     14705 MEMB     26       SAPE     O13      O2L     -0.780000       15.9994           0
     14706 MEMB     26       SAPE     O14      O2L     -0.780000       15.9994           0
     14707 MEMB     26       SAPE     O12      OSLP    -0.570000       15.9994           0
     14708 MEMB     26       SAPE     O11      OSLP    -0.570000       15.9994           0
     14709 MEMB     26       SAPE     C1       CTL2    -0.800000E-01   12.0110           0
     14710 MEMB     26       SAPE     HA       HAL2     0.900000E-01   1.00800           0
     14711 MEMB     26       SAPE     HB       HAL2     0.900000E-01   1.00800           0
     14712 MEMB     26       SAPE     C2       CTL1     0.170000       12.0110           0
     14713 MEMB     26       SAPE     HS       HAL1     0.900000E-01   1.00800           0
     14714 MEMB     26       SAPE     O21      OSL     -0.490000       15.9994           0
     14715 MEMB     26       SAPE     C21      CL       0.900000       12.0110           0
     14716 MEMB     26       SAPE     O22      OBL     -0.630000       15.9994           0
     14717 MEMB     26       SAPE     C22      CTL2    -0.220000       12.0110           0
     14718 MEMB     26       SAPE     H2R      HAL2     0.900000E-01   1.00800           0
     14719 MEMB     26       SAPE     H2S      HAL2     0.900000E-01   1.00800           0
     14720 MEMB     26       SAPE     C3       CTL2     0.800000E-01   12.0110           0
     14721 MEMB     26       SAPE     HX       HAL2     0.900000E-01   1.00800           0
     14722 MEMB     26       SAPE     HY       HAL2     0.900000E-01   1.00800           0
     14723 MEMB     26       SAPE     O31      OSL     -0.490000       15.9994           0
     14724 MEMB     26       SAPE     C31      CL       0.900000       12.0110           0
     14725 MEMB     26       SAPE     O32      OBL     -0.630000       15.9994           0
     14726 MEMB     26       SAPE     C32      CTL2    -0.220000       12.0110           0
     14727 MEMB     26       SAPE     H2X      HAL2     0.900000E-01   1.00800           0
     14728 MEMB     26       SAPE     H2Y      HAL2     0.900000E-01   1.00800           0
     14729 MEMB     26       SAPE     C23      CTL2    -0.180000       12.0110           0
     14730 MEMB     26       SAPE     H3R      HAL2     0.900000E-01   1.00800           0
     14731 MEMB     26       SAPE     H3S      HAL2     0.900000E-01   1.00800           0
     14732 MEMB     26       SAPE     C24      CTL2    -0.180000       12.0110           0
     14733 MEMB     26       SAPE     H4R      HAL2     0.900000E-01   1.00800           0
     14734 MEMB     26       SAPE     H4S      HAL2     0.900000E-01   1.00800           0
     14735 MEMB     26       SAPE     C25      CEL1    -0.150000       12.0110           0
     14736 MEMB     26       SAPE     H5R      HEL1     0.150000       1.00800           0
     14737 MEMB     26       SAPE     C26      CEL1    -0.150000       12.0110           0
     14738 MEMB     26       SAPE     H6R      HEL1     0.150000       1.00800           0
     14739 MEMB     26       SAPE     C27      CTL2    -0.180000       12.0110           0
     14740 MEMB     26       SAPE     H7R      HAL2     0.900000E-01   1.00800           0
     14741 MEMB     26       SAPE     H7S      HAL2     0.900000E-01   1.00800           0
     14742 MEMB     26       SAPE     C28      CEL1    -0.150000       12.0110           0
     14743 MEMB     26       SAPE     H8R      HEL1     0.150000       1.00800           0
     14744 MEMB     26       SAPE     C29      CEL1    -0.150000       12.0110           0
     14745 MEMB     26       SAPE     H9R      HEL1     0.150000       1.00800           0
     14746 MEMB     26       SAPE     C210     CTL2    -0.180000       12.0110           0
     14747 MEMB     26       SAPE     H10R     HAL2     0.900000E-01   1.00800           0
     14748 MEMB     26       SAPE     H10S     HAL2     0.900000E-01   1.00800           0
     14749 MEMB     26       SAPE     C211     CEL1    -0.150000       12.0110           0
     14750 MEMB     26       SAPE     H11R     HEL1     0.150000       1.00800           0
     14751 MEMB     26       SAPE     C212     CEL1    -0.150000       12.0110           0
     14752 MEMB     26       SAPE     H12R     HEL1     0.150000       1.00800           0
     14753 MEMB     26       SAPE     C213     CTL2    -0.180000       12.0110           0
     14754 MEMB     26       SAPE     H13R     HAL2     0.900000E-01   1.00800           0
     14755 MEMB     26       SAPE     H13S     HAL2     0.900000E-01   1.00800           0
     14756 MEMB     26       SAPE     C214     CEL1    -0.150000       12.0110           0
     14757 MEMB     26       SAPE     H14R     HEL1     0.150000       1.00800           0
     14758 MEMB     26       SAPE     C215     CEL1    -0.150000       12.0110           0
     14759 MEMB     26       SAPE     H15R     HEL1     0.150000       1.00800           0
     14760 MEMB     26       SAPE     C216     CTL2    -0.180000       12.0110           0
     14761 MEMB     26       SAPE     H16R     HAL2     0.900000E-01   1.00800           0
     14762 MEMB     26       SAPE     H16S     HAL2     0.900000E-01   1.00800           0
     14763 MEMB     26       SAPE     C217     CTL2    -0.180000       12.0110           0
     14764 MEMB     26       SAPE     H17R     HAL2     0.900000E-01   1.00800           0
     14765 MEMB     26       SAPE     H17S     HAL2     0.900000E-01   1.00800           0
     14766 MEMB     26       SAPE     C218     CTL2    -0.180000       12.0110           0
     14767 MEMB     26       SAPE     H18R     HAL2     0.900000E-01   1.00800           0
     14768 MEMB     26       SAPE     H18S     HAL2     0.900000E-01   1.00800           0
     14769 MEMB     26       SAPE     C219     CTL2    -0.180000       12.0110           0
     14770 MEMB     26       SAPE     H19R     HAL2     0.900000E-01   1.00800           0
     14771 MEMB     26       SAPE     H19S     HAL2     0.900000E-01   1.00800           0
     14772 MEMB     26       SAPE     C220     CTL3    -0.270000       12.0110           0
     14773 MEMB     26       SAPE     H20R     HAL3     0.900000E-01   1.00800           0
     14774 MEMB     26       SAPE     H20S     HAL3     0.900000E-01   1.00800           0
     14775 MEMB     26       SAPE     H20T     HAL3     0.900000E-01   1.00800           0
     14776 MEMB     26       SAPE     C33      CTL2    -0.180000       12.0110           0
     14777 MEMB     26       SAPE     H3X      HAL2     0.900000E-01   1.00800           0
     14778 MEMB     26       SAPE     H3Y      HAL2     0.900000E-01   1.00800           0
     14779 MEMB     26       SAPE     C34      CTL2    -0.180000       12.0110           0
     14780 MEMB     26       SAPE     H4X      HAL2     0.900000E-01   1.00800           0
     14781 MEMB     26       SAPE     H4Y      HAL2     0.900000E-01   1.00800           0
     14782 MEMB     26       SAPE     C35      CTL2    -0.180000       12.0110           0
     14783 MEMB     26       SAPE     H5X      HAL2     0.900000E-01   1.00800           0
     14784 MEMB     26       SAPE     H5Y      HAL2     0.900000E-01   1.00800           0
     14785 MEMB     26       SAPE     C36      CTL2    -0.180000       12.0110           0
     14786 MEMB     26       SAPE     H6X      HAL2     0.900000E-01   1.00800           0
     14787 MEMB     26       SAPE     H6Y      HAL2     0.900000E-01   1.00800           0
     14788 MEMB     26       SAPE     C37      CTL2    -0.180000       12.0110           0
     14789 MEMB     26       SAPE     H7X      HAL2     0.900000E-01   1.00800           0
     14790 MEMB     26       SAPE     H7Y      HAL2     0.900000E-01   1.00800           0
     14791 MEMB     26       SAPE     C38      CTL2    -0.180000       12.0110           0
     14792 MEMB     26       SAPE     H8X      HAL2     0.900000E-01   1.00800           0
     14793 MEMB     26       SAPE     H8Y      HAL2     0.900000E-01   1.00800           0
     14794 MEMB     26       SAPE     C39      CTL2    -0.180000       12.0110           0
     14795 MEMB     26       SAPE     H9X      HAL2     0.900000E-01   1.00800           0
     14796 MEMB     26       SAPE     H9Y      HAL2     0.900000E-01   1.00800           0
     14797 MEMB     26       SAPE     C310     CTL2    -0.180000       12.0110           0
     14798 MEMB     26       SAPE     H10X     HAL2     0.900000E-01   1.00800           0
     14799 MEMB     26       SAPE     H10Y     HAL2     0.900000E-01   1.00800           0
     14800 MEMB     26       SAPE     C311     CTL2    -0.180000       12.0110           0
     14801 MEMB     26       SAPE     H11X     HAL2     0.900000E-01   1.00800           0
     14802 MEMB     26       SAPE     H11Y     HAL2     0.900000E-01   1.00800           0
     14803 MEMB     26       SAPE     C312     CTL2    -0.180000       12.0110           0
     14804 MEMB     26       SAPE     H12X     HAL2     0.900000E-01   1.00800           0
     14805 MEMB     26       SAPE     H12Y     HAL2     0.900000E-01   1.00800           0
     14806 MEMB     26       SAPE     C313     CTL2    -0.180000       12.0110           0
     14807 MEMB     26       SAPE     H13X     HAL2     0.900000E-01   1.00800           0
     14808 MEMB     26       SAPE     H13Y     HAL2     0.900000E-01   1.00800           0
     14809 MEMB     26       SAPE     C314     CTL2    -0.180000       12.0110           0
     14810 MEMB     26       SAPE     H14X     HAL2     0.900000E-01   1.00800           0
     14811 MEMB     26       SAPE     H14Y     HAL2     0.900000E-01   1.00800           0
     14812 MEMB     26       SAPE     C315     CTL2    -0.180000       12.0110           0
     14813 MEMB     26       SAPE     H15X     HAL2     0.900000E-01   1.00800           0
     14814 MEMB     26       SAPE     H15Y     HAL2     0.900000E-01   1.00800           0
     14815 MEMB     26       SAPE     C316     CTL2    -0.180000       12.0110           0
     14816 MEMB     26       SAPE     H16X     HAL2     0.900000E-01   1.00800           0
     14817 MEMB     26       SAPE     H16Y     HAL2     0.900000E-01   1.00800           0
     14818 MEMB     26       SAPE     C317     CTL2    -0.180000       12.0110           0
     14819 MEMB     26       SAPE     H17X     HAL2     0.900000E-01   1.00800           0
     14820 MEMB     26       SAPE     H17Y     HAL2     0.900000E-01   1.00800           0
     14821 MEMB     26       SAPE     C318     CTL3    -0.270000       12.0110           0
     14822 MEMB     26       SAPE     H18X     HAL3     0.900000E-01   1.00800           0
     14823 MEMB     26       SAPE     H18Y     HAL3     0.900000E-01   1.00800           0
     14824 MEMB     26       SAPE     H18Z     HAL3     0.900000E-01   1.00800           0
     14825 MEMB     38       SAPE     N        NH3L    -0.300000       14.0070           0
     14826 MEMB     38       SAPE     HN1      HCL      0.330000       1.00800           0
     14827 MEMB     38       SAPE     HN2      HCL      0.330000       1.00800           0
     14828 MEMB     38       SAPE     HN3      HCL      0.330000       1.00800           0
     14829 MEMB     38       SAPE     C12      CTL2     0.130000       12.0110           0
     14830 MEMB     38       SAPE     H12A     HAL2     0.900000E-01   1.00800           0
     14831 MEMB     38       SAPE     H12B     HAL2     0.900000E-01   1.00800           0
     14832 MEMB     38       SAPE     C11      CTL2    -0.800000E-01   12.0110           0
     14833 MEMB     38       SAPE     H11A     HAL2     0.900000E-01   1.00800           0
     14834 MEMB     38       SAPE     H11B     HAL2     0.900000E-01   1.00800           0
     14835 MEMB     38       SAPE     P        PL       1.500000       30.9740           0
     14836 MEMB     38       SAPE     O13      O2L     -0.780000       15.9994           0
     14837 MEMB     38       SAPE     O14      O2L     -0.780000       15.9994           0
     14838 MEMB     38       SAPE     O12      OSLP    -0.570000       15.9994           0
     14839 MEMB     38       SAPE     O11      OSLP    -0.570000       15.9994           0
     14840 MEMB     38       SAPE     C1       CTL2    -0.800000E-01   12.0110           0
     14841 MEMB     38       SAPE     HA       HAL2     0.900000E-01   1.00800           0
     14842 MEMB     38       SAPE     HB       HAL2     0.900000E-01   1.00800           0
     14843 MEMB     38       SAPE     C2       CTL1     0.170000       12.0110           0
     14844 MEMB     38       SAPE     HS       HAL1     0.900000E-01   1.00800           0
     14845 MEMB     38       SAPE     O21      OSL     -0.490000       15.9994           0
     14846 MEMB     38       SAPE     C21      CL       0.900000       12.0110           0
     14847 MEMB     38       SAPE     O22      OBL     -0.630000       15.9994           0
     14848 MEMB     38       SAPE     C22      CTL2    -0.220000       12.0110           0
     14849 MEMB     38       SAPE     H2R      HAL2     0.900000E-01   1.00800           0
     14850 MEMB     38       SAPE     H2S      HAL2     0.900000E-01   1.00800           0
     14851 MEMB     38       SAPE     C3       CTL2     0.800000E-01   12.0110           0
     14852 MEMB     38       SAPE     HX       HAL2     0.900000E-01   1.00800           0
     14853 MEMB     38       SAPE     HY       HAL2     0.900000E-01   1.00800           0
     14854 MEMB     38       SAPE     O31      OSL     -0.490000       15.9994           0
     14855 MEMB     38       SAPE     C31      CL       0.900000       12.0110           0
     14856 MEMB     38       SAPE     O32      OBL     -0.630000       15.9994           0
     14857 MEMB     38       SAPE     C32      CTL2    -0.220000       12.0110           0
     14858 MEMB     38       SAPE     H2X      HAL2     0.900000E-01   1.00800           0
     14859 MEMB     38       SAPE     H2Y      HAL2     0.900000E-01   1.00800           0
     14860 MEMB     38       SAPE     C23      CTL2    -0.180000       12.0110           0
     14861 MEMB     38       SAPE     H3R      HAL2     0.900000E-01   1.00800           0
     14862 MEMB     38       SAPE     H3S      HAL2     0.900000E-01   1.00800           0
     14863 MEMB     38       SAPE     C24      CTL2    -0.180000       12.0110           0
     14864 MEMB     38       SAPE     H4R      HAL2     0.900000E-01   1.00800           0
     14865 MEMB     38       SAPE     H4S      HAL2     0.900000E-01   1.00800           0
     14866 MEMB     38       SAPE     C25      CEL1    -0.150000       12.0110           0
     14867 MEMB     38       SAPE     H5R      HEL1     0.150000       1.00800           0
     14868 MEMB     38       SAPE     C26      CEL1    -0.150000       12.0110           0
     14869 MEMB     38       SAPE     H6R      HEL1     0.150000       1.00800           0
     14870 MEMB     38       SAPE     C27      CTL2    -0.180000       12.0110           0
     14871 MEMB     38       SAPE     H7R      HAL2     0.900000E-01   1.00800           0
     14872 MEMB     38       SAPE     H7S      HAL2     0.900000E-01   1.00800           0
     14873 MEMB     38       SAPE     C28      CEL1    -0.150000       12.0110           0
     14874 MEMB     38       SAPE     H8R      HEL1     0.150000       1.00800           0
     14875 MEMB     38       SAPE     C29      CEL1    -0.150000       12.0110           0
     14876 MEMB     38       SAPE     H9R      HEL1     0.150000       1.00800           0
     14877 MEMB     38       SAPE     C210     CTL2    -0.180000       12.0110           0
     14878 MEMB     38       SAPE     H10R     HAL2     0.900000E-01   1.00800           0
     14879 MEMB     38       SAPE     H10S     HAL2     0.900000E-01   1.00800           0
     14880 MEMB     38       SAPE     C211     CEL1    -0.150000       12.0110           0
     14881 MEMB     38       SAPE     H11R     HEL1     0.150000       1.00800           0
     14882 MEMB     38       SAPE     C212     CEL1    -0.150000       12.0110           0
     14883 MEMB     38       SAPE     H12R     HEL1     0.150000       1.00800           0
     14884 MEMB     38       SAPE     C213     CTL2    -0.180000       12.0110           0
     14885 MEMB     38       SAPE     H13R     HAL2     0.900000E-01   1.00800           0
     14886 MEMB     38       SAPE     H13S     HAL2     0.900000E-01   1.00800           0
     14887 MEMB     38       SAPE     C214     CEL1    -0.150000       12.0110           0
     14888 MEMB     38       SAPE     H14R     HEL1     0.150000       1.00800           0
     14889 MEMB     38       SAPE     C215     CEL1    -0.150000       12.0110           0
     14890 MEMB     38       SAPE     H15R     HEL1     0.150000       1.00800           0
     14891 MEMB     38       SAPE     C216     CTL2    -0.180000       12.0110           0
     14892 MEMB     38       SAPE     H16R     HAL2     0.900000E-01   1.00800           0
     14893 MEMB     38       SAPE     H16S     HAL2     0.900000E-01   1.00800           0
     14894 MEMB     38       SAPE     C217     CTL2    -0.180000       12.0110           0
     14895 MEMB     38       SAPE     H17R     HAL2     0.900000E-01   1.00800           0
     14896 MEMB     38       SAPE     H17S     HAL2     0.900000E-01   1.00800           0
     14897 MEMB     38       SAPE     C218     CTL2    -0.180000       12.0110           0
     14898 MEMB     38       SAPE     H18R     HAL2     0.900000E-01   1.00800           0
     14899 MEMB     38       SAPE     H18S     HAL2     0.900000E-01   1.00800           0
     14900 MEMB     38       SAPE     C219     CTL2    -0.180000       12.0110           0
     14901 MEMB     38       SAPE     H19R     HAL2     0.900000E-01   1.00800           0
     14902 MEMB     38       SAPE     H19S     HAL2     0.900000E-01   1.00800           0
     14903 MEMB     38       SAPE     C220     CTL3    -0.270000       12.0110           0
     14904 MEMB     38       SAPE     H20R     HAL3     0.900000E-01   1.00800           0
     14905 MEMB     38       SAPE     H20S     HAL3     0.900000E-01   1.00800           0
     14906 MEMB     38       SAPE     H20T     HAL3     0.900000E-01   1.00800           0
     14907 MEMB     38       SAPE     C33      CTL2    -0.180000       12.0110           0
     14908 MEMB     38       SAPE     H3X      HAL2     0.900000E-01   1.00800           0
     14909 MEMB     38       SAPE     H3Y      HAL2     0.900000E-01   1.00800           0
     14910 MEMB     38       SAPE     C34      CTL2    -0.180000       12.0110           0
     14911 MEMB     38       SAPE     H4X      HAL2     0.900000E-01   1.00800           0
     14912 MEMB     38       SAPE     H4Y      HAL2     0.900000E-01   1.00800           0
     14913 MEMB     38       SAPE     C35      CTL2    -0.180000       12.0110           0
     14914 MEMB     38       SAPE     H5X      HAL2     0.900000E-01   1.00800           0
     14915 MEMB     38       SAPE     H5Y      HAL2     0.900000E-01   1.00800           0
     14916 MEMB     38       SAPE     C36      CTL2    -0.180000       12.0110           0
     14917 MEMB     38       SAPE     H6X      HAL2     0.900000E-01   1.00800           0
     14918 MEMB     38       SAPE     H6Y      HAL2     0.900000E-01   1.00800           0
     14919 MEMB     38       SAPE     C37      CTL2    -0.180000       12.0110           0
     14920 MEMB     38       SAPE     H7X      HAL2     0.900000E-01   1.00800           0
     14921 MEMB     38       SAPE     H7Y      HAL2     0.900000E-01   1.00800           0
     14922 MEMB     38       SAPE     C38      CTL2    -0.180000       12.0110           0
     14923 MEMB     38       SAPE     H8X      HAL2     0.900000E-01   1.00800           0
     14924 MEMB     38       SAPE     H8Y      HAL2     0.900000E-01   1.00800           0
     14925 MEMB     38       SAPE     C39      CTL2    -0.180000       12.0110           0
     14926 MEMB     38       SAPE     H9X      HAL2     0.900000E-01   1.00800           0
     14927 MEMB     38       SAPE     H9Y      HAL2     0.900000E-01   1.00800           0
     14928 MEMB     38       SAPE     C310     CTL2    -0.180000       12.0110           0
     14929 MEMB     38       SAPE     H10X     HAL2     0.900000E-01   1.00800           0
     14930 MEMB     38       SAPE     H10Y     HAL2     0.900000E-01   1.00800           0
     14931 MEMB     38       SAPE     C311     CTL2    -0.180000       12.0110           0
     14932 MEMB     38       SAPE     H11X     HAL2     0.900000E-01   1.00800           0
     14933 MEMB     38       SAPE     H11Y     HAL2     0.900000E-01   1.00800           0
     14934 MEMB     38       SAPE     C312     CTL2    -0.180000       12.0110           0
     14935 MEMB     38       SAPE     H12X     HAL2     0.900000E-01   1.00800           0
     14936 MEMB     38       SAPE     H12Y     HAL2     0.900000E-01   1.00800           0
     14937 MEMB     38       SAPE     C313     CTL2    -0.180000       12.0110           0
     14938 MEMB     38       SAPE     H13X     HAL2     0.900000E-01   1.00800           0
     14939 MEMB     38       SAPE     H13Y     HAL2     0.900000E-01   1.00800           0
     14940 MEMB     38       SAPE     C314     CTL2    -0.180000       12.0110           0
     14941 MEMB     38       SAPE     H14X     HAL2     0.900000E-01   1.00800           0
     14942 MEMB     38       SAPE     H14Y     HAL2     0.900000E-01   1.00800           0
     14943 MEMB     38       SAPE     C315     CTL2    -0.180000       12.0110           0
     14944 MEMB     38       SAPE     H15X     HAL2     0.900000E-01   1.00800           0
     14945 MEMB     38       SAPE     H15Y     HAL2     0.900000E-01   1.00800           0
     14946 MEMB     38       SAPE     C316     CTL2    -0.180000       12.0110           0
     14947 MEMB     38       SAPE     H16X     HAL2     0.900000E-01   1.00800           0
     14948 MEMB     38       SAPE     H16Y     HAL2     0.900000E-01   1.00800           0
     14949 MEMB     38       SAPE     C317     CTL2    -0.180000       12.0110           0
     14950 MEMB     38       SAPE     H17X     HAL2     0.900000E-01   1.00800           0
     14951 MEMB     38       SAPE     H17Y     HAL2     0.900000E-01   1.00800           0
     14952 MEMB     38       SAPE     C318     CTL3    -0.270000       12.0110           0
     14953 MEMB     38       SAPE     H18X     HAL3     0.900000E-01   1.00800           0
     14954 MEMB     38       SAPE     H18Y     HAL3     0.900000E-01   1.00800           0
     14955 MEMB     38       SAPE     H18Z     HAL3     0.900000E-01   1.00800           0
     14956 MEMB     51       SAPE     N        NH3L    -0.300000       14.0070           0
     14957 MEMB     51       SAPE     HN1      HCL      0.330000       1.00800           0
     14958 MEMB     51       SAPE     HN2      HCL      0.330000       1.00800           0
     14959 MEMB     51       SAPE     HN3      HCL      0.330000       1.00800           0
     14960 MEMB     51       SAPE     C12      CTL2     0.130000       12.0110           0
     14961 MEMB     51       SAPE     H12A     HAL2     0.900000E-01   1.00800           0
     14962 MEMB     51       SAPE     H12B     HAL2     0.900000E-01   1.00800           0
     14963 MEMB     51       SAPE     C11      CTL2    -0.800000E-01   12.0110           0
     14964 MEMB     51       SAPE     H11A     HAL2     0.900000E-01   1.00800           0
     14965 MEMB     51       SAPE     H11B     HAL2     0.900000E-01   1.00800           0
     14966 MEMB     51       SAPE     P        PL       1.500000       30.9740           0
     14967 MEMB     51       SAPE     O13      O2L     -0.780000       15.9994           0
     14968 MEMB     51       SAPE     O14      O2L     -0.780000       15.9994           0
     14969 MEMB     51       SAPE     O12      OSLP    -0.570000       15.9994           0
     14970 MEMB     51       SAPE     O11      OSLP    -0.570000       15.9994           0
     14971 MEMB     51       SAPE     C1       CTL2    -0.800000E-01   12.0110           0
     14972 MEMB     51       SAPE     HA       HAL2     0.900000E-01   1.00800           0
     14973 MEMB     51       SAPE     HB       HAL2     0.900000E-01   1.00800           0
     14974 MEMB     51       SAPE     C2       CTL1     0.170000       12.0110           0
     14975 MEMB     51       SAPE     HS       HAL1     0.900000E-01   1.00800           0
     14976 MEMB     51       SAPE     O21      OSL     -0.490000       15.9994           0
     14977 MEMB     51       SAPE     C21      CL       0.900000       12.0110           0
     14978 MEMB     51       SAPE     O22      OBL     -0.630000       15.9994           0
     14979 MEMB     51       SAPE     C22      CTL2    -0.220000       12.0110           0
     14980 MEMB     51       SAPE     H2R      HAL2     0.900000E-01   1.00800           0
     14981 MEMB     51       SAPE     H2S      HAL2     0.900000E-01   1.00800           0
     14982 MEMB     51       SAPE     C3       CTL2     0.800000E-01   12.0110           0
     14983 MEMB     51       SAPE     HX       HAL2     0.900000E-01   1.00800           0
     14984 MEMB     51       SAPE     HY       HAL2     0.900000E-01   1.00800           0
     14985 MEMB     51       SAPE     O31      OSL     -0.490000       15.9994           0
     14986 MEMB     51       SAPE     C31      CL       0.900000       12.0110           0
     14987 MEMB     51       SAPE     O32      OBL     -0.630000       15.9994           0
     14988 MEMB     51       SAPE     C32      CTL2    -0.220000       12.0110           0
     14989 MEMB     51       SAPE     H2X      HAL2     0.900000E-01   1.00800           0
     14990 MEMB     51       SAPE     H2Y      HAL2     0.900000E-01   1.00800           0
     14991 MEMB     51       SAPE     C23      CTL2    -0.180000       12.0110           0
     14992 MEMB     51       SAPE     H3R      HAL2     0.900000E-01   1.00800           0
     14993 MEMB     51       SAPE     H3S      HAL2     0.900000E-01   1.00800           0
     14994 MEMB     51       SAPE     C24      CTL2    -0.180000       12.0110           0
     14995 MEMB     51       SAPE     H4R      HAL2     0.900000E-01   1.00800           0
     14996 MEMB     51       SAPE     H4S      HAL2     0.900000E-01   1.00800           0
     14997 MEMB     51       SAPE     C25      CEL1    -0.150000       12.0110           0
     14998 MEMB     51       SAPE     H5R      HEL1     0.150000       1.00800           0
     14999 MEMB     51       SAPE     C26      CEL1    -0.150000       12.0110           0
     15000 MEMB     51       SAPE     H6R      HEL1     0.150000       1.00800           0
     15001 MEMB     51       SAPE     C27      CTL2    -0.180000       12.0110           0
     15002 MEMB     51       SAPE     H7R      HAL2     0.900000E-01   1.00800           0
     15003 MEMB     51       SAPE     H7S      HAL2     0.900000E-01   1.00800           0
     15004 MEMB     51       SAPE     C28      CEL1    -0.150000       12.0110           0
     15005 MEMB     51       SAPE     H8R      HEL1     0.150000       1.00800           0
     15006 MEMB     51       SAPE     C29      CEL1    -0.150000       12.0110           0
     15007 MEMB     51       SAPE     H9R      HEL1     0.150000       1.00800           0
     15008 MEMB     51       SAPE     C210     CTL2    -0.180000       12.0110           0
     15009 MEMB     51       SAPE     H10R     HAL2     0.900000E-01   1.00800           0
     15010 MEMB     51       SAPE     H10S     HAL2     0.900000E-01   1.00800           0
     15011 MEMB     51       SAPE     C211     CEL1    -0.150000       12.0110           0
     15012 MEMB     51       SAPE     H11R     HEL1     0.150000       1.00800           0
     15013 MEMB     51       SAPE     C212     CEL1    -0.150000       12.0110           0
     15014 MEMB     51       SAPE     H12R     HEL1     0.150000       1.00800           0
     15015 MEMB     51       SAPE     C213     CTL2    -0.180000       12.0110           0
     15016 MEMB     51       SAPE     H13R     HAL2     0.900000E-01   1.00800           0
     15017 MEMB     51       SAPE     H13S     HAL2     0.900000E-01   1.00800           0
     15018 MEMB     51       SAPE     C214     CEL1    -0.150000       12.0110           0
     15019 MEMB     51       SAPE     H14R     HEL1     0.150000       1.00800           0
     15020 MEMB     51       SAPE     C215     CEL1    -0.150000       12.0110           0
     15021 MEMB     51       SAPE     H15R     HEL1     0.150000       1.00800           0
     15022 MEMB     51       SAPE     C216     CTL2    -0.180000       12.0110           0
     15023 MEMB     51       SAPE     H16R     HAL2     0.900000E-01   1.00800           0
     15024 MEMB     51       SAPE     H16S     HAL2     0.900000E-01   1.00800           0
     15025 MEMB     51       SAPE     C217     CTL2    -0.180000       12.0110           0
     15026 MEMB     51       SAPE     H17R     HAL2     0.900000E-01   1.00800           0
     15027 MEMB     51       SAPE     H17S     HAL2     0.900000E-01   1.00800           0
     15028 MEMB     51       SAPE     C218     CTL2    -0.180000       12.0110           0
     15029 MEMB     51       SAPE     H18R     HAL2     0.900000E-01   1.00800           0
     15030 MEMB     51       SAPE     H18S     HAL2     0.900000E-01   1.00800           0
     15031 MEMB     51       SAPE     C219     CTL2    -0.180000       12.0110           0
     15032 MEMB     51       SAPE     H19R     HAL2     0.900000E-01   1.00800           0
     15033 MEMB     51       SAPE     H19S     HAL2     0.900000E-01   1.00800           0
     15034 MEMB     51       SAPE     C220     CTL3    -0.270000       12.0110           0
     15035 MEMB     51       SAPE     H20R     HAL3     0.900000E-01   1.00800           0
     15036 MEMB     51       SAPE     H20S     HAL3     0.900000E-01   1.00800           0
     15037 MEMB     51       SAPE     H20T     HAL3     0.900000E-01   1.00800           0
     15038 MEMB     51       SAPE     C33      CTL2    -0.180000       12.0110           0
     15039 MEMB     51       SAPE     H3X      HAL2     0.900000E-01   1.00800           0
     15040 MEMB     51       SAPE     H3Y      HAL2     0.900000E-01   1.00800           0
     15041 MEMB     51       SAPE     C34      CTL2    -0.180000       12.0110           0
     15042 MEMB     51       SAPE     H4X      HAL2     0.900000E-01   1.00800           0
     15043 MEMB     51       SAPE     H4Y      HAL2     0.900000E-01   1.00800           0
     15044 MEMB     51       SAPE     C35      CTL2    -0.180000       12.0110           0
     15045 MEMB     51       SAPE     H5X      HAL2     0.900000E-01   1.00800           0
     15046 MEMB     51       SAPE     H5Y      HAL2     0.900000E-01   1.00800           0
     15047 MEMB     51       SAPE     C36      CTL2    -0.180000       12.0110           0
     15048 MEMB     51       SAPE     H6X      HAL2     0.900000E-01   1.00800           0
     15049 MEMB     51       SAPE     H6Y      HAL2     0.900000E-01   1.00800           0
     15050 MEMB     51       SAPE     C37      CTL2    -0.180000       12.0110           0
     15051 MEMB     51       SAPE     H7X      HAL2     0.900000E-01   1.00800           0
     15052 MEMB     51       SAPE     H7Y      HAL2     0.900000E-01   1.00800           0
     15053 MEMB     51       SAPE     C38      CTL2    -0.180000       12.0110           0
     15054 MEMB     51       SAPE     H8X      HAL2     0.900000E-01   1.00800           0
     15055 MEMB     51       SAPE     H8Y      HAL2     0.900000E-01   1.00800           0
     15056 MEMB     51       SAPE     C39      CTL2    -0.180000       12.0110           0
     15057 MEMB     51       SAPE     H9X      HAL2     0.900000E-01   1.00800           0
     15058 MEMB     51       SAPE     H9Y      HAL2     0.900000E-01   1.00800           0
     15059 MEMB     51       SAPE     C310     CTL2    -0.180000       12.0110           0
     15060 MEMB     51       SAPE     H10X     HAL2     0.900000E-01   1.00800           0
     15061 MEMB     51       SAPE     H10Y     HAL2     0.900000E-01   1.00800           0
     15062 MEMB     51       SAPE     C311     CTL2    -0.180000       12.0110           0
     15063 MEMB     51       SAPE     H11X     HAL2     0.900000E-01   1.00800           0
     15064 MEMB     51       SAPE     H11Y     HAL2     0.900000E-01   1.00800           0
     15065 MEMB     51       SAPE     C312     CTL2    -0.180000       12.0110           0
     15066 MEMB     51       SAPE     H12X     HAL2     0.900000E-01   1.00800           0
     15067 MEMB     51       SAPE     H12Y     HAL2     0.900000E-01   1.00800           0
     15068 MEMB     51       SAPE     C313     CTL2    -0.180000       12.0110           0
     15069 MEMB     51       SAPE     H13X     HAL2     0.900000E-01   1.00800           0
     15070 MEMB     51       SAPE     H13Y     HAL2     0.900000E-01   1.00800           0
     15071 MEMB     51       SAPE     C314     CTL2    -0.180000       12.0110           0
     15072 MEMB     51       SAPE     H14X     HAL2     0.900000E-01   1.00800           0
     15073 MEMB     51       SAPE     H14Y     HAL2     0.900000E-01   1.00800           0
     15074 MEMB     51       SAPE     C315     CTL2    -0.180000       12.0110           0
     15075 MEMB     51       SAPE     H15X     HAL2     0.900000E-01   1.00800           0
     15076 MEMB     51       SAPE     H15Y     HAL2     0.900000E-01   1.00800           0
     15077 MEMB     51       SAPE     C316     CTL2    -0.180000       12.0110           0
     15078 MEMB     51       SAPE     H16X     HAL2     0.900000E-01   1.00800           0
     15079 MEMB     51       SAPE     H16Y     HAL2     0.900000E-01   1.00800           0
     15080 MEMB     51       SAPE     C317     CTL2    -0.180000       12.0110           0
     15081 MEMB     51       SAPE     H17X     HAL2     0.900000E-01   1.00800           0
     15082 MEMB     51       SAPE     H17Y     HAL2     0.900000E-01   1.00800           0
     15083 MEMB     51       SAPE     C318     CTL3    -0.270000       12.0110           0
     15084 MEMB     51       SAPE     H18X     HAL3     0.900000E-01   1.00800           0
     15085 MEMB     51       SAPE     H18Y     HAL3     0.900000E-01   1.00800           0
     15086 MEMB     51       SAPE     H18Z     HAL3     0.900000E-01   1.00800           0
     15087 MEMB     56       SAPE     N        NH3L    -0.300000       14.0070           0
     15088 MEMB     56       SAPE     HN1      HCL      0.330000       1.00800           0
     15089 MEMB     56       SAPE     HN2      HCL      0.330000       1.00800           0
     15090 MEMB     56       SAPE     HN3      HCL      0.330000       1.00800           0
     15091 MEMB     56       SAPE     C12      CTL2     0.130000       12.0110           0
     15092 MEMB     56       SAPE     H12A     HAL2     0.900000E-01   1.00800           0
     15093 MEMB     56       SAPE     H12B     HAL2     0.900000E-01   1.00800           0
     15094 MEMB     56       SAPE     C11      CTL2    -0.800000E-01   12.0110           0
     15095 MEMB     56       SAPE     H11A     HAL2     0.900000E-01   1.00800           0
     15096 MEMB     56       SAPE     H11B     HAL2     0.900000E-01   1.00800           0
     15097 MEMB     56       SAPE     P        PL       1.500000       30.9740           0
     15098 MEMB     56       SAPE     O13      O2L     -0.780000       15.9994           0
     15099 MEMB     56       SAPE     O14      O2L     -0.780000       15.9994           0
     15100 MEMB     56       SAPE     O12      OSLP    -0.570000       15.9994           0
     15101 MEMB     56       SAPE     O11      OSLP    -0.570000       15.9994           0
     15102 MEMB     56       SAPE     C1       CTL2    -0.800000E-01   12.0110           0
     15103 MEMB     56       SAPE     HA       HAL2     0.900000E-01   1.00800           0
     15104 MEMB     56       SAPE     HB       HAL2     0.900000E-01   1.00800           0
     15105 MEMB     56       SAPE     C2       CTL1     0.170000       12.0110           0
     15106 MEMB     56       SAPE     HS       HAL1     0.900000E-01   1.00800           0
     15107 MEMB     56       SAPE     O21      OSL     -0.490000       15.9994           0
     15108 MEMB     56       SAPE     C21      CL       0.900000       12.0110           0
     15109 MEMB     56       SAPE     O22      OBL     -0.630000       15.9994           0
     15110 MEMB     56       SAPE     C22      CTL2    -0.220000       12.0110           0
     15111 MEMB     56       SAPE     H2R      HAL2     0.900000E-01   1.00800           0
     15112 MEMB     56       SAPE     H2S      HAL2     0.900000E-01   1.00800           0
     15113 MEMB     56       SAPE     C3       CTL2     0.800000E-01   12.0110           0
     15114 MEMB     56       SAPE     HX       HAL2     0.900000E-01   1.00800           0
     15115 MEMB     56       SAPE     HY       HAL2     0.900000E-01   1.00800           0
     15116 MEMB     56       SAPE     O31      OSL     -0.490000       15.9994           0
     15117 MEMB     56       SAPE     C31      CL       0.900000       12.0110           0
     15118 MEMB     56       SAPE     O32      OBL     -0.630000       15.9994           0
     15119 MEMB     56       SAPE     C32      CTL2    -0.220000       12.0110           0
     15120 MEMB     56       SAPE     H2X      HAL2     0.900000E-01   1.00800           0
     15121 MEMB     56       SAPE     H2Y      HAL2     0.900000E-01   1.00800           0
     15122 MEMB     56       SAPE     C23      CTL2    -0.180000       12.0110           0
     15123 MEMB     56       SAPE     H3R      HAL2     0.900000E-01   1.00800           0
     15124 MEMB     56       SAPE     H3S      HAL2     0.900000E-01   1.00800           0
     15125 MEMB     56       SAPE     C24      CTL2    -0.180000       12.0110           0
     15126 MEMB     56       SAPE     H4R      HAL2     0.900000E-01   1.00800           0
     15127 MEMB     56       SAPE     H4S      HAL2     0.900000E-01   1.00800           0
     15128 MEMB     56       SAPE     C25      CEL1    -0.150000       12.0110           0
     15129 MEMB     56       SAPE     H5R      HEL1     0.150000       1.00800           0
     15130 MEMB     56       SAPE     C26      CEL1    -0.150000       12.0110           0
     15131 MEMB     56       SAPE     H6R      HEL1     0.150000       1.00800           0
     15132 MEMB     56       SAPE     C27      CTL2    -0.180000       12.0110           0
     15133 MEMB     56       SAPE     H7R      HAL2     0.900000E-01   1.00800           0
     15134 MEMB     56       SAPE     H7S      HAL2     0.900000E-01   1.00800           0
     15135 MEMB     56       SAPE     C28      CEL1    -0.150000       12.0110           0
     15136 MEMB     56       SAPE     H8R      HEL1     0.150000       1.00800           0
     15137 MEMB     56       SAPE     C29      CEL1    -0.150000       12.0110           0
     15138 MEMB     56       SAPE     H9R      HEL1     0.150000       1.00800           0
     15139 MEMB     56       SAPE     C210     CTL2    -0.180000       12.0110           0
     15140 MEMB     56       SAPE     H10R     HAL2     0.900000E-01   1.00800           0
     15141 MEMB     56       SAPE     H10S     HAL2     0.900000E-01   1.00800           0
     15142 MEMB     56       SAPE     C211     CEL1    -0.150000       12.0110           0
     15143 MEMB     56       SAPE     H11R     HEL1     0.150000       1.00800           0
     15144 MEMB     56       SAPE     C212     CEL1    -0.150000       12.0110           0
     15145 MEMB     56       SAPE     H12R     HEL1     0.150000       1.00800           0
     15146 MEMB     56       SAPE     C213     CTL2    -0.180000       12.0110           0
     15147 MEMB     56       SAPE     H13R     HAL2     0.900000E-01   1.00800           0
     15148 MEMB     56       SAPE     H13S     HAL2     0.900000E-01   1.00800           0
     15149 MEMB     56       SAPE     C214     CEL1    -0.150000       12.0110           0
     15150 MEMB     56       SAPE     H14R     HEL1     0.150000       1.00800           0
     15151 MEMB     56       SAPE     C215     CEL1    -0.150000       12.0110           0
     15152 MEMB     56       SAPE     H15R     HEL1     0.150000       1.00800           0
     15153 MEMB     56       SAPE     C216     CTL2    -0.180000       12.0110           0
     15154 MEMB     56       SAPE     H16R     HAL2     0.900000E-01   1.00800           0
     15155 MEMB     56       SAPE     H16S     HAL2     0.900000E-01   1.00800           0
     15156 MEMB     56       SAPE     C217     CTL2    -0.180000       12.0110           0
     15157 MEMB     56       SAPE     H17R     HAL2     0.900000E-01   1.00800           0
     15158 MEMB     56       SAPE     H17S     HAL2     0.900000E-01   1.00800           0
     15159 MEMB     56       SAPE     C218     CTL2    -0.180000       12.0110           0
     15160 MEMB     56       SAPE     H18R     HAL2     0.900000E-01   1.00800           0
     15161 MEMB     56       SAPE     H18S     HAL2     0.900000E-01   1.00800           0
     15162 MEMB     56       SAPE     C219     CTL2    -0.180000       12.0110           0
     15163 MEMB     56       SAPE     H19R     HAL2     0.900000E-01   1.00800           0
     15164 MEMB     56       SAPE     H19S     HAL2     0.900000E-01   1.00800           0
     15165 MEMB     56       SAPE     C220     CTL3    -0.270000       12.0110           0
     15166 MEMB     56       SAPE     H20R     HAL3     0.900000E-01   1.00800           0
     15167 MEMB     56       SAPE     H20S     HAL3     0.900000E-01   1.00800           0
     15168 MEMB     56       SAPE     H20T     HAL3     0.900000E-01   1.00800           0
     15169 MEMB     56       SAPE     C33      CTL2    -0.180000       12.0110           0
     15170 MEMB     56       SAPE     H3X      HAL2     0.900000E-01   1.00800           0
     15171 MEMB     56       SAPE     H3Y      HAL2     0.900000E-01   1.00800           0
     15172 MEMB     56       SAPE     C34      CTL2    -0.180000       12.0110           0
     15173 MEMB     56       SAPE     H4X      HAL2     0.900000E-01   1.00800           0
     15174 MEMB     56       SAPE     H4Y      HAL2     0.900000E-01   1.00800           0
     15175 MEMB     56       SAPE     C35      CTL2    -0.180000       12.0110           0
     15176 MEMB     56       SAPE     H5X      HAL2     0.900000E-01   1.00800           0
     15177 MEMB     56       SAPE     H5Y      HAL2     0.900000E-01   1.00800           0
     15178 MEMB     56       SAPE     C36      CTL2    -0.180000       12.0110           0
     15179 MEMB     56       SAPE     H6X      HAL2     0.900000E-01   1.00800           0
     15180 MEMB     56       SAPE     H6Y      HAL2     0.900000E-01   1.00800           0
     15181 MEMB     56       SAPE     C37      CTL2    -0.180000       12.0110           0
     15182 MEMB     56       SAPE     H7X      HAL2     0.900000E-01   1.00800           0
     15183 MEMB     56       SAPE     H7Y      HAL2     0.900000E-01   1.00800           0
     15184 MEMB     56       SAPE     C38      CTL2    -0.180000       12.0110           0
     15185 MEMB     56       SAPE     H8X      HAL2     0.900000E-01   1.00800           0
     15186 MEMB     56       SAPE     H8Y      HAL2     0.900000E-01   1.00800           0
     15187 MEMB     56       SAPE     C39      CTL2    -0.180000       12.0110           0
     15188 MEMB     56       SAPE     H9X      HAL2     0.900000E-01   1.00800           0
     15189 MEMB     56       SAPE     H9Y      HAL2     0.900000E-01   1.00800           0
     15190 MEMB     56       SAPE     C310     CTL2    -0.180000       12.0110           0
     15191 MEMB     56       SAPE     H10X     HAL2     0.900000E-01   1.00800           0
     15192 MEMB     56       SAPE     H10Y     HAL2     0.900000E-01   1.00800           0
     15193 MEMB     56       SAPE     C311     CTL2    -0.180000       12.0110           0
     15194 MEMB     56       SAPE     H11X     HAL2     0.900000E-01   1.00800           0
     15195 MEMB     56       SAPE     H11Y     HAL2     0.900000E-01   1.00800           0
     15196 MEMB     56       SAPE     C312     CTL2    -0.180000       12.0110           0
     15197 MEMB     56       SAPE     H12X     HAL2     0.900000E-01   1.00800           0
     15198 MEMB     56       SAPE     H12Y     HAL2     0.900000E-01   1.00800           0
     15199 MEMB     56       SAPE     C313     CTL2    -0.180000       12.0110           0
     15200 MEMB     56       SAPE     H13X     HAL2     0.900000E-01   1.00800           0
     15201 MEMB     56       SAPE     H13Y     HAL2     0.900000E-01   1.00800           0
     15202 MEMB     56       SAPE     C314     CTL2    -0.180000       12.0110           0
     15203 MEMB     56       SAPE     H14X     HAL2     0.900000E-01   1.00800           0
     15204 MEMB     56       SAPE     H14Y     HAL2     0.900000E-01   1.00800           0
     15205 MEMB     56       SAPE     C315     CTL2    -0.180000       12.0110           0
     15206 MEMB     56       SAPE     H15X     HAL2     0.900000E-01   1.00800           0
     15207 MEMB     56       SAPE     H15Y     HAL2     0.900000E-01   1.00800           0
     15208 MEMB     56       SAPE     C316     CTL2    -0.180000       12.0110           0
     15209 MEMB     56       SAPE     H16X     HAL2     0.900000E-01   1.00800           0
     15210 MEMB     56       SAPE     H16Y     HAL2     0.900000E-01   1.00800           0
     15211 MEMB     56       SAPE     C317     CTL2    -0.180000       12.0110           0
     15212 MEMB     56       SAPE     H17X     HAL2     0.900000E-01   1.00800           0
     15213 MEMB     56       SAPE     H17Y     HAL2     0.900000E-01   1.00800           0
     15214 MEMB     56       SAPE     C318     CTL3    -0.270000       12.0110           0
     15215 MEMB     56       SAPE     H18X     HAL3     0.900000E-01   1.00800           0
     15216 MEMB     56       SAPE     H18Y     HAL3     0.900000E-01   1.00800           0
     15217 MEMB     56       SAPE     H18Z     HAL3     0.900000E-01   1.00800           0
     15218 MEMB     57       SAPE     N        NH3L    -0.300000       14.0070           0
     15219 MEMB     57       SAPE     HN1      HCL      0.330000       1.00800           0
     15220 MEMB     57       SAPE     HN2      HCL      0.330000       1.00800           0
     15221 MEMB     57       SAPE     HN3      HCL      0.330000       1.00800           0
     15222 MEMB     57       SAPE     C12      CTL2     0.130000       12.0110           0
     15223 MEMB     57       SAPE     H12A     HAL2     0.900000E-01   1.00800           0
     15224 MEMB     57       SAPE     H12B     HAL2     0.900000E-01   1.00800           0
     15225 MEMB     57       SAPE     C11      CTL2    -0.800000E-01   12.0110           0
     15226 MEMB     57       SAPE     H11A     HAL2     0.900000E-01   1.00800           0
     15227 MEMB     57       SAPE     H11B     HAL2     0.900000E-01   1.00800           0
     15228 MEMB     57       SAPE     P        PL       1.500000       30.9740           0
     15229 MEMB     57       SAPE     O13      O2L     -0.780000       15.9994           0
     15230 MEMB     57       SAPE     O14      O2L     -0.780000       15.9994           0
     15231 MEMB     57       SAPE     O12      OSLP    -0.570000       15.9994           0
     15232 MEMB     57       SAPE     O11      OSLP    -0.570000       15.9994           0
     15233 MEMB     57       SAPE     C1       CTL2    -0.800000E-01   12.0110           0
     15234 MEMB     57       SAPE     HA       HAL2     0.900000E-01   1.00800           0
     15235 MEMB     57       SAPE     HB       HAL2     0.900000E-01   1.00800           0
     15236 MEMB     57       SAPE     C2       CTL1     0.170000       12.0110           0
     15237 MEMB     57       SAPE     HS       HAL1     0.900000E-01   1.00800           0
     15238 MEMB     57       SAPE     O21      OSL     -0.490000       15.9994           0
     15239 MEMB     57       SAPE     C21      CL       0.900000       12.0110           0
     15240 MEMB     57       SAPE     O22      OBL     -0.630000       15.9994           0
     15241 MEMB     57       SAPE     C22      CTL2    -0.220000       12.0110           0
     15242 MEMB     57       SAPE     H2R      HAL2     0.900000E-01   1.00800           0
     15243 MEMB     57       SAPE     H2S      HAL2     0.900000E-01   1.00800           0
     15244 MEMB     57       SAPE     C3       CTL2     0.800000E-01   12.0110           0
     15245 MEMB     57       SAPE     HX       HAL2     0.900000E-01   1.00800           0
     15246 MEMB     57       SAPE     HY       HAL2     0.900000E-01   1.00800           0
     15247 MEMB     57       SAPE     O31      OSL     -0.490000       15.9994           0
     15248 MEMB     57       SAPE     C31      CL       0.900000       12.0110           0
     15249 MEMB     57       SAPE     O32      OBL     -0.630000       15.9994           0
     15250 MEMB     57       SAPE     C32      CTL2    -0.220000       12.0110           0
     15251 MEMB     57       SAPE     H2X      HAL2     0.900000E-01   1.00800           0
     15252 MEMB     57       SAPE     H2Y      HAL2     0.900000E-01   1.00800           0
     15253 MEMB     57       SAPE     C23      CTL2    -0.180000       12.0110           0
     15254 MEMB     57       SAPE     H3R      HAL2     0.900000E-01   1.00800           0
     15255 MEMB     57       SAPE     H3S      HAL2     0.900000E-01   1.00800           0
     15256 MEMB     57       SAPE     C24      CTL2    -0.180000       12.0110           0
     15257 MEMB     57       SAPE     H4R      HAL2     0.900000E-01   1.00800           0
     15258 MEMB     57       SAPE     H4S      HAL2     0.900000E-01   1.00800           0
     15259 MEMB     57       SAPE     C25      CEL1    -0.150000       12.0110           0
     15260 MEMB     57       SAPE     H5R      HEL1     0.150000       1.00800           0
     15261 MEMB     57       SAPE     C26      CEL1    -0.150000       12.0110           0
     15262 MEMB     57       SAPE     H6R      HEL1     0.150000       1.00800           0
     15263 MEMB     57       SAPE     C27      CTL2    -0.180000       12.0110           0
     15264 MEMB     57       SAPE     H7R      HAL2     0.900000E-01   1.00800           0
     15265 MEMB     57       SAPE     H7S      HAL2     0.900000E-01   1.00800           0
     15266 MEMB     57       SAPE     C28      CEL1    -0.150000       12.0110           0
     15267 MEMB     57       SAPE     H8R      HEL1     0.150000       1.00800           0
     15268 MEMB     57       SAPE     C29      CEL1    -0.150000       12.0110           0
     15269 MEMB     57       SAPE     H9R      HEL1     0.150000       1.00800           0
     15270 MEMB     57       SAPE     C210     CTL2    -0.180000       12.0110           0
     15271 MEMB     57       SAPE     H10R     HAL2     0.900000E-01   1.00800           0
     15272 MEMB     57       SAPE     H10S     HAL2     0.900000E-01   1.00800           0
     15273 MEMB     57       SAPE     C211     CEL1    -0.150000       12.0110           0
     15274 MEMB     57       SAPE     H11R     HEL1     0.150000       1.00800           0
     15275 MEMB     57       SAPE     C212     CEL1    -0.150000       12.0110           0
     15276 MEMB     57       SAPE     H12R     HEL1     0.150000       1.00800           0
     15277 MEMB     57       SAPE     C213     CTL2    -0.180000       12.0110           0
     15278 MEMB     57       SAPE     H13R     HAL2     0.900000E-01   1.00800           0
     15279 MEMB     57       SAPE     H13S     HAL2     0.900000E-01   1.00800           0
     15280 MEMB     57       SAPE     C214     CEL1    -0.150000       12.0110           0
     15281 MEMB     57       SAPE     H14R     HEL1     0.150000       1.00800           0
     15282 MEMB     57       SAPE     C215     CEL1    -0.150000       12.0110           0
     15283 MEMB     57       SAPE     H15R     HEL1     0.150000       1.00800           0
     15284 MEMB     57       SAPE     C216     CTL2    -0.180000       12.0110           0
     15285 MEMB     57       SAPE     H16R     HAL2     0.900000E-01   1.00800           0
     15286 MEMB     57       SAPE     H16S     HAL2     0.900000E-01   1.00800           0
     15287 MEMB     57       SAPE     C217     CTL2    -0.180000       12.0110           0
     15288 MEMB     57       SAPE     H17R     HAL2     0.900000E-01   1.00800           0
     15289 MEMB     57       SAPE     H17S     HAL2     0.900000E-01   1.00800           0
     15290 MEMB     57       SAPE     C218     CTL2    -0.180000       12.0110           0
     15291 MEMB     57       SAPE     H18R     HAL2     0.900000E-01   1.00800           0
     15292 MEMB     57       SAPE     H18S     HAL2     0.900000E-01   1.00800           0
     15293 MEMB     57       SAPE     C219     CTL2    -0.180000       12.0110           0
     15294 MEMB     57       SAPE     H19R     HAL2     0.900000E-01   1.00800           0
     15295 MEMB     57       SAPE     H19S     HAL2     0.900000E-01   1.00800           0
     15296 MEMB     57       SAPE     C220     CTL3    -0.270000       12.0110           0
     15297 MEMB     57       SAPE     H20R     HAL3     0.900000E-01   1.00800           0
     15298 MEMB     57       SAPE     H20S     HAL3     0.900000E-01   1.00800           0
     15299 MEMB     57       SAPE     H20T     HAL3     0.900000E-01   1.00800           0
     15300 MEMB     57       SAPE     C33      CTL2    -0.180000       12.0110           0
     15301 MEMB     57       SAPE     H3X      HAL2     0.900000E-01   1.00800           0
     15302 MEMB     57       SAPE     H3Y      HAL2     0.900000E-01   1.00800           0
     15303 MEMB     57       SAPE     C34      CTL2    -0.180000       12.0110           0
     15304 MEMB     57       SAPE     H4X      HAL2     0.900000E-01   1.00800           0
     15305 MEMB     57       SAPE     H4Y      HAL2     0.900000E-01   1.00800           0
     15306 MEMB     57       SAPE     C35      CTL2    -0.180000       12.0110           0
     15307 MEMB     57       SAPE     H5X      HAL2     0.900000E-01   1.00800           0
     15308 MEMB     57       SAPE     H5Y      HAL2     0.900000E-01   1.00800           0
     15309 MEMB     57       SAPE     C36      CTL2    -0.180000       12.0110           0
     15310 MEMB     57       SAPE     H6X      HAL2     0.900000E-01   1.00800           0
     15311 MEMB     57       SAPE     H6Y      HAL2     0.900000E-01   1.00800           0
     15312 MEMB     57       SAPE     C37      CTL2    -0.180000       12.0110           0
     15313 MEMB     57       SAPE     H7X      HAL2     0.900000E-01   1.00800           0
     15314 MEMB     57       SAPE     H7Y      HAL2     0.900000E-01   1.00800           0
     15315 MEMB     57       SAPE     C38      CTL2    -0.180000       12.0110           0
     15316 MEMB     57       SAPE     H8X      HAL2     0.900000E-01   1.00800           0
     15317 MEMB     57       SAPE     H8Y      HAL2     0.900000E-01   1.00800           0
     15318 MEMB     57       SAPE     C39      CTL2    -0.180000       12.0110           0
     15319 MEMB     57       SAPE     H9X      HAL2     0.900000E-01   1.00800           0
     15320 MEMB     57       SAPE     H9Y      HAL2     0.900000E-01   1.00800           0
     15321 MEMB     57       SAPE     C310     CTL2    -0.180000       12.0110           0
     15322 MEMB     57       SAPE     H10X     HAL2     0.900000E-01   1.00800           0
     15323 MEMB     57       SAPE     H10Y     HAL2     0.900000E-01   1.00800           0
     15324 MEMB     57       SAPE     C311     CTL2    -0.180000       12.0110           0
     15325 MEMB     57       SAPE     H11X     HAL2     0.900000E-01   1.00800           0
     15326 MEMB     57       SAPE     H11Y     HAL2     0.900000E-01   1.00800           0
     15327 MEMB     57       SAPE     C312     CTL2    -0.180000       12.0110           0
     15328 MEMB     57       SAPE     H12X     HAL2     0.900000E-01   1.00800           0
     15329 MEMB     57       SAPE     H12Y     HAL2     0.900000E-01   1.00800           0
     15330 MEMB     57       SAPE     C313     CTL2    -0.180000       12.0110           0
     15331 MEMB     57       SAPE     H13X     HAL2     0.900000E-01   1.00800           0
     15332 MEMB     57       SAPE     H13Y     HAL2     0.900000E-01   1.00800           0
     15333 MEMB     57       SAPE     C314     CTL2    -0.180000       12.0110           0
     15334 MEMB     57       SAPE     H14X     HAL2     0.900000E-01   1.00800           0
     15335 MEMB     57       SAPE     H14Y     HAL2     0.900000E-01   1.00800           0
     15336 MEMB     57       SAPE     C315     CTL2    -0.180000       12.0110           0
     15337 MEMB     57       SAPE     H15X     HAL2     0.900000E-01   1.00800           0
     15338 MEMB     57       SAPE     H15Y     HAL2     0.900000E-01   1.00800           0
     15339 MEMB     57       SAPE     C316     CTL2    -0.180000       12.0110           0
     15340 MEMB     57       SAPE     H16X     HAL2     0.900000E-01   1.00800           0
     15341 MEMB     57       SAPE     H16Y     HAL2     0.900000E-01   1.00800           0
     15342 MEMB     57       SAPE     C317     CTL2    -0.180000       12.0110           0
     15343 MEMB     57       SAPE     H17X     HAL2     0.900000E-01   1.00800           0
     15344 MEMB     57       SAPE     H17Y     HAL2     0.900000E-01   1.00800           0
     15345 MEMB     57       SAPE     C318     CTL3    -0.270000       12.0110           0
     15346 MEMB     57       SAPE     H18X     HAL3     0.900000E-01   1.00800           0
     15347 MEMB     57       SAPE     H18Y     HAL3     0.900000E-01   1.00800           0
     15348 MEMB     57       SAPE     H18Z     HAL3     0.900000E-01   1.00800           0
     15349 MEMB     61       SAPE     N        NH3L    -0.300000       14.0070           0
     15350 MEMB     61       SAPE     HN1      HCL      0.330000       1.00800           0
     15351 MEMB     61       SAPE     HN2      HCL      0.330000       1.00800           0
     15352 MEMB     61       SAPE     HN3      HCL      0.330000       1.00800           0
     15353 MEMB     61       SAPE     C12      CTL2     0.130000       12.0110           0
     15354 MEMB     61       SAPE     H12A     HAL2     0.900000E-01   1.00800           0
     15355 MEMB     61       SAPE     H12B     HAL2     0.900000E-01   1.00800           0
     15356 MEMB     61       SAPE     C11      CTL2    -0.800000E-01   12.0110           0
     15357 MEMB     61       SAPE     H11A     HAL2     0.900000E-01   1.00800           0
     15358 MEMB     61       SAPE     H11B     HAL2     0.900000E-01   1.00800           0
     15359 MEMB     61       SAPE     P        PL       1.500000       30.9740           0
     15360 MEMB     61       SAPE     O13      O2L     -0.780000       15.9994           0
     15361 MEMB     61       SAPE     O14      O2L     -0.780000       15.9994           0
     15362 MEMB     61       SAPE     O12      OSLP    -0.570000       15.9994           0
     15363 MEMB     61       SAPE     O11      OSLP    -0.570000       15.9994           0
     15364 MEMB     61       SAPE     C1       CTL2    -0.800000E-01   12.0110           0
     15365 MEMB     61       SAPE     HA       HAL2     0.900000E-01   1.00800           0
     15366 MEMB     61       SAPE     HB       HAL2     0.900000E-01   1.00800           0
     15367 MEMB     61       SAPE     C2       CTL1     0.170000       12.0110           0
     15368 MEMB     61       SAPE     HS       HAL1     0.900000E-01   1.00800           0
     15369 MEMB     61       SAPE     O21      OSL     -0.490000       15.9994           0
     15370 MEMB     61       SAPE     C21      CL       0.900000       12.0110           0
     15371 MEMB     61       SAPE     O22      OBL     -0.630000       15.9994           0
     15372 MEMB     61       SAPE     C22      CTL2    -0.220000       12.0110           0
     15373 MEMB     61       SAPE     H2R      HAL2     0.900000E-01   1.00800           0
     15374 MEMB     61       SAPE     H2S      HAL2     0.900000E-01   1.00800           0
     15375 MEMB     61       SAPE     C3       CTL2     0.800000E-01   12.0110           0
     15376 MEMB     61       SAPE     HX       HAL2     0.900000E-01   1.00800           0
     15377 MEMB     61       SAPE     HY       HAL2     0.900000E-01   1.00800           0
     15378 MEMB     61       SAPE     O31      OSL     -0.490000       15.9994           0
     15379 MEMB     61       SAPE     C31      CL       0.900000       12.0110           0
     15380 MEMB     61       SAPE     O32      OBL     -0.630000       15.9994           0
     15381 MEMB     61       SAPE     C32      CTL2    -0.220000       12.0110           0
     15382 MEMB     61       SAPE     H2X      HAL2     0.900000E-01   1.00800           0
     15383 MEMB     61       SAPE     H2Y      HAL2     0.900000E-01   1.00800           0
     15384 MEMB     61       SAPE     C23      CTL2    -0.180000       12.0110           0
     15385 MEMB     61       SAPE     H3R      HAL2     0.900000E-01   1.00800           0
     15386 MEMB     61       SAPE     H3S      HAL2     0.900000E-01   1.00800           0
     15387 MEMB     61       SAPE     C24      CTL2    -0.180000       12.0110           0
     15388 MEMB     61       SAPE     H4R      HAL2     0.900000E-01   1.00800           0
     15389 MEMB     61       SAPE     H4S      HAL2     0.900000E-01   1.00800           0
     15390 MEMB     61       SAPE     C25      CEL1    -0.150000       12.0110           0
     15391 MEMB     61       SAPE     H5R      HEL1     0.150000       1.00800           0
     15392 MEMB     61       SAPE     C26      CEL1    -0.150000       12.0110           0
     15393 MEMB     61       SAPE     H6R      HEL1     0.150000       1.00800           0
     15394 MEMB     61       SAPE     C27      CTL2    -0.180000       12.0110           0
     15395 MEMB     61       SAPE     H7R      HAL2     0.900000E-01   1.00800           0
     15396 MEMB     61       SAPE     H7S      HAL2     0.900000E-01   1.00800           0
     15397 MEMB     61       SAPE     C28      CEL1    -0.150000       12.0110           0
     15398 MEMB     61       SAPE     H8R      HEL1     0.150000       1.00800           0
     15399 MEMB     61       SAPE     C29      CEL1    -0.150000       12.0110           0
     15400 MEMB     61       SAPE     H9R      HEL1     0.150000       1.00800           0
     15401 MEMB     61       SAPE     C210     CTL2    -0.180000       12.0110           0
     15402 MEMB     61       SAPE     H10R     HAL2     0.900000E-01   1.00800           0
     15403 MEMB     61       SAPE     H10S     HAL2     0.900000E-01   1.00800           0
     15404 MEMB     61       SAPE     C211     CEL1    -0.150000       12.0110           0
     15405 MEMB     61       SAPE     H11R     HEL1     0.150000       1.00800           0
     15406 MEMB     61       SAPE     C212     CEL1    -0.150000       12.0110           0
     15407 MEMB     61       SAPE     H12R     HEL1     0.150000       1.00800           0
     15408 MEMB     61       SAPE     C213     CTL2    -0.180000       12.0110           0
     15409 MEMB     61       SAPE     H13R     HAL2     0.900000E-01   1.00800           0
     15410 MEMB     61       SAPE     H13S     HAL2     0.900000E-01   1.00800           0
     15411 MEMB     61       SAPE     C214     CEL1    -0.150000       12.0110           0
     15412 MEMB     61       SAPE     H14R     HEL1     0.150000       1.00800           0
     15413 MEMB     61       SAPE     C215     CEL1    -0.150000       12.0110           0
     15414 MEMB     61       SAPE     H15R     HEL1     0.150000       1.00800           0
     15415 MEMB     61       SAPE     C216     CTL2    -0.180000       12.0110           0
     15416 MEMB     61       SAPE     H16R     HAL2     0.900000E-01   1.00800           0
     15417 MEMB     61       SAPE     H16S     HAL2     0.900000E-01   1.00800           0
     15418 MEMB     61       SAPE     C217     CTL2    -0.180000       12.0110           0
     15419 MEMB     61       SAPE     H17R     HAL2     0.900000E-01   1.00800           0
     15420 MEMB     61       SAPE     H17S     HAL2     0.900000E-01   1.00800           0
     15421 MEMB     61       SAPE     C218     CTL2    -0.180000       12.0110           0
     15422 MEMB     61       SAPE     H18R     HAL2     0.900000E-01   1.00800           0
     15423 MEMB     61       SAPE     H18S     HAL2     0.900000E-01   1.00800           0
     15424 MEMB     61       SAPE     C219     CTL2    -0.180000       12.0110           0
     15425 MEMB     61       SAPE     H19R     HAL2     0.900000E-01   1.00800           0
     15426 MEMB     61       SAPE     H19S     HAL2     0.900000E-01   1.00800           0
     15427 MEMB     61       SAPE     C220     CTL3    -0.270000       12.0110           0
     15428 MEMB     61       SAPE     H20R     HAL3     0.900000E-01   1.00800           0
     15429 MEMB     61       SAPE     H20S     HAL3     0.900000E-01   1.00800           0
     15430 MEMB     61       SAPE     H20T     HAL3     0.900000E-01   1.00800           0
     15431 MEMB     61       SAPE     C33      CTL2    -0.180000       12.0110           0
     15432 MEMB     61       SAPE     H3X      HAL2     0.900000E-01   1.00800           0
     15433 MEMB     61       SAPE     H3Y      HAL2     0.900000E-01   1.00800           0
     15434 MEMB     61       SAPE     C34      CTL2    -0.180000       12.0110           0
     15435 MEMB     61       SAPE     H4X      HAL2     0.900000E-01   1.00800           0
     15436 MEMB     61       SAPE     H4Y      HAL2     0.900000E-01   1.00800           0
     15437 MEMB     61       SAPE     C35      CTL2    -0.180000       12.0110           0
     15438 MEMB     61       SAPE     H5X      HAL2     0.900000E-01   1.00800           0
     15439 MEMB     61       SAPE     H5Y      HAL2     0.900000E-01   1.00800           0
     15440 MEMB     61       SAPE     C36      CTL2    -0.180000       12.0110           0
     15441 MEMB     61       SAPE     H6X      HAL2     0.900000E-01   1.00800           0
     15442 MEMB     61       SAPE     H6Y      HAL2     0.900000E-01   1.00800           0
     15443 MEMB     61       SAPE     C37      CTL2    -0.180000       12.0110           0
     15444 MEMB     61       SAPE     H7X      HAL2     0.900000E-01   1.00800           0
     15445 MEMB     61       SAPE     H7Y      HAL2     0.900000E-01   1.00800           0
     15446 MEMB     61       SAPE     C38      CTL2    -0.180000       12.0110           0
     15447 MEMB     61       SAPE     H8X      HAL2     0.900000E-01   1.00800           0
     15448 MEMB     61       SAPE     H8Y      HAL2     0.900000E-01   1.00800           0
     15449 MEMB     61       SAPE     C39      CTL2    -0.180000       12.0110           0
     15450 MEMB     61       SAPE     H9X      HAL2     0.900000E-01   1.00800           0
     15451 MEMB     61       SAPE     H9Y      HAL2     0.900000E-01   1.00800           0
     15452 MEMB     61       SAPE     C310     CTL2    -0.180000       12.0110           0
     15453 MEMB     61       SAPE     H10X     HAL2     0.900000E-01   1.00800           0
     15454 MEMB     61       SAPE     H10Y     HAL2     0.900000E-01   1.00800           0
     15455 MEMB     61       SAPE     C311     CTL2    -0.180000       12.0110           0
     15456 MEMB     61       SAPE     H11X     HAL2     0.900000E-01   1.00800           0
     15457 MEMB     61       SAPE     H11Y     HAL2     0.900000E-01   1.00800           0
     15458 MEMB     61       SAPE     C312     CTL2    -0.180000       12.0110           0
     15459 MEMB     61       SAPE     H12X     HAL2     0.900000E-01   1.00800           0
     15460 MEMB     61       SAPE     H12Y     HAL2     0.900000E-01   1.00800           0
     15461 MEMB     61       SAPE     C313     CTL2    -0.180000       12.0110           0
     15462 MEMB     61       SAPE     H13X     HAL2     0.900000E-01   1.00800           0
     15463 MEMB     61       SAPE     H13Y     HAL2     0.900000E-01   1.00800           0
     15464 MEMB     61       SAPE     C314     CTL2    -0.180000       12.0110           0
     15465 MEMB     61       SAPE     H14X     HAL2     0.900000E-01   1.00800           0
     15466 MEMB     61       SAPE     H14Y     HAL2     0.900000E-01   1.00800           0
     15467 MEMB     61       SAPE     C315     CTL2    -0.180000       12.0110           0
     15468 MEMB     61       SAPE     H15X     HAL2     0.900000E-01   1.00800           0
     15469 MEMB     61       SAPE     H15Y     HAL2     0.900000E-01   1.00800           0
     15470 MEMB     61       SAPE     C316     CTL2    -0.180000       12.0110           0
     15471 MEMB     61       SAPE     H16X     HAL2     0.900000E-01   1.00800           0
     15472 MEMB     61       SAPE     H16Y     HAL2     0.900000E-01   1.00800           0
     15473 MEMB     61       SAPE     C317     CTL2    -0.180000       12.0110           0
     15474 MEMB     61       SAPE     H17X     HAL2     0.900000E-01   1.00800           0
     15475 MEMB     61       SAPE     H17Y     HAL2     0.900000E-01   1.00800           0
     15476 MEMB     61       SAPE     C318     CTL3    -0.270000       12.0110           0
     15477 MEMB     61       SAPE     H18X     HAL3     0.900000E-01   1.00800           0
     15478 MEMB     61       SAPE     H18Y     HAL3     0.900000E-01   1.00800           0
     15479 MEMB     61       SAPE     H18Z     HAL3     0.900000E-01   1.00800           0
     15480 MEMB     62       SAPE     N        NH3L    -0.300000       14.0070           0
     15481 MEMB     62       SAPE     HN1      HCL      0.330000       1.00800           0
     15482 MEMB     62       SAPE     HN2      HCL      0.330000       1.00800           0
     15483 MEMB     62       SAPE     HN3      HCL      0.330000       1.00800           0
     15484 MEMB     62       SAPE     C12      CTL2     0.130000       12.0110           0
     15485 MEMB     62       SAPE     H12A     HAL2     0.900000E-01   1.00800           0
     15486 MEMB     62       SAPE     H12B     HAL2     0.900000E-01   1.00800           0
     15487 MEMB     62       SAPE     C11      CTL2    -0.800000E-01   12.0110           0
     15488 MEMB     62       SAPE     H11A     HAL2     0.900000E-01   1.00800           0
     15489 MEMB     62       SAPE     H11B     HAL2     0.900000E-01   1.00800           0
     15490 MEMB     62       SAPE     P        PL       1.500000       30.9740           0
     15491 MEMB     62       SAPE     O13      O2L     -0.780000       15.9994           0
     15492 MEMB     62       SAPE     O14      O2L     -0.780000       15.9994           0
     15493 MEMB     62       SAPE     O12      OSLP    -0.570000       15.9994           0
     15494 MEMB     62       SAPE     O11      OSLP    -0.570000       15.9994           0
     15495 MEMB     62       SAPE     C1       CTL2    -0.800000E-01   12.0110           0
     15496 MEMB     62       SAPE     HA       HAL2     0.900000E-01   1.00800           0
     15497 MEMB     62       SAPE     HB       HAL2     0.900000E-01   1.00800           0
     15498 MEMB     62       SAPE     C2       CTL1     0.170000       12.0110           0
     15499 MEMB     62       SAPE     HS       HAL1     0.900000E-01   1.00800           0
     15500 MEMB     62       SAPE     O21      OSL     -0.490000       15.9994           0
     15501 MEMB     62       SAPE     C21      CL       0.900000       12.0110           0
     15502 MEMB     62       SAPE     O22      OBL     -0.630000       15.9994           0
     15503 MEMB     62       SAPE     C22      CTL2    -0.220000       12.0110           0
     15504 MEMB     62       SAPE     H2R      HAL2     0.900000E-01   1.00800           0
     15505 MEMB     62       SAPE     H2S      HAL2     0.900000E-01   1.00800           0
     15506 MEMB     62       SAPE     C3       CTL2     0.800000E-01   12.0110           0
     15507 MEMB     62       SAPE     HX       HAL2     0.900000E-01   1.00800           0
     15508 MEMB     62       SAPE     HY       HAL2     0.900000E-01   1.00800           0
     15509 MEMB     62       SAPE     O31      OSL     -0.490000       15.9994           0
     15510 MEMB     62       SAPE     C31      CL       0.900000       12.0110           0
     15511 MEMB     62       SAPE     O32      OBL     -0.630000       15.9994           0
     15512 MEMB     62       SAPE     C32      CTL2    -0.220000       12.0110           0
     15513 MEMB     62       SAPE     H2X      HAL2     0.900000E-01   1.00800           0
     15514 MEMB     62       SAPE     H2Y      HAL2     0.900000E-01   1.00800           0
     15515 MEMB     62       SAPE     C23      CTL2    -0.180000       12.0110           0
     15516 MEMB     62       SAPE     H3R      HAL2     0.900000E-01   1.00800           0
     15517 MEMB     62       SAPE     H3S      HAL2     0.900000E-01   1.00800           0
     15518 MEMB     62       SAPE     C24      CTL2    -0.180000       12.0110           0
     15519 MEMB     62       SAPE     H4R      HAL2     0.900000E-01   1.00800           0
     15520 MEMB     62       SAPE     H4S      HAL2     0.900000E-01   1.00800           0
     15521 MEMB     62       SAPE     C25      CEL1    -0.150000       12.0110           0
     15522 MEMB     62       SAPE     H5R      HEL1     0.150000       1.00800           0
     15523 MEMB     62       SAPE     C26      CEL1    -0.150000       12.0110           0
     15524 MEMB     62       SAPE     H6R      HEL1     0.150000       1.00800           0
     15525 MEMB     62       SAPE     C27      CTL2    -0.180000       12.0110           0
     15526 MEMB     62       SAPE     H7R      HAL2     0.900000E-01   1.00800           0
     15527 MEMB     62       SAPE     H7S      HAL2     0.900000E-01   1.00800           0
     15528 MEMB     62       SAPE     C28      CEL1    -0.150000       12.0110           0
     15529 MEMB     62       SAPE     H8R      HEL1     0.150000       1.00800           0
     15530 MEMB     62       SAPE     C29      CEL1    -0.150000       12.0110           0
     15531 MEMB     62       SAPE     H9R      HEL1     0.150000       1.00800           0
     15532 MEMB     62       SAPE     C210     CTL2    -0.180000       12.0110           0
     15533 MEMB     62       SAPE     H10R     HAL2     0.900000E-01   1.00800           0
     15534 MEMB     62       SAPE     H10S     HAL2     0.900000E-01   1.00800           0
     15535 MEMB     62       SAPE     C211     CEL1    -0.150000       12.0110           0
     15536 MEMB     62       SAPE     H11R     HEL1     0.150000       1.00800           0
     15537 MEMB     62       SAPE     C212     CEL1    -0.150000       12.0110           0
     15538 MEMB     62       SAPE     H12R     HEL1     0.150000       1.00800           0
     15539 MEMB     62       SAPE     C213     CTL2    -0.180000       12.0110           0
     15540 MEMB     62       SAPE     H13R     HAL2     0.900000E-01   1.00800           0
     15541 MEMB     62       SAPE     H13S     HAL2     0.900000E-01   1.00800           0
     15542 MEMB     62       SAPE     C214     CEL1    -0.150000       12.0110           0
     15543 MEMB     62       SAPE     H14R     HEL1     0.150000       1.00800           0
     15544 MEMB     62       SAPE     C215     CEL1    -0.150000       12.0110           0
     15545 MEMB     62       SAPE     H15R     HEL1     0.150000       1.00800           0
     15546 MEMB     62       SAPE     C216     CTL2    -0.180000       12.0110           0
     15547 MEMB     62       SAPE     H16R     HAL2     0.900000E-01   1.00800           0
     15548 MEMB     62       SAPE     H16S     HAL2     0.900000E-01   1.00800           0
     15549 MEMB     62       SAPE     C217     CTL2    -0.180000       12.0110           0
     15550 MEMB     62       SAPE     H17R     HAL2     0.900000E-01   1.00800           0
     15551 MEMB     62       SAPE     H17S     HAL2     0.900000E-01   1.00800           0
     15552 MEMB     62       SAPE     C218     CTL2    -0.180000       12.0110           0
     15553 MEMB     62       SAPE     H18R     HAL2     0.900000E-01   1.00800           0
     15554 MEMB     62       SAPE     H18S     HAL2     0.900000E-01   1.00800           0
     15555 MEMB     62       SAPE     C219     CTL2    -0.180000       12.0110           0
     15556 MEMB     62       SAPE     H19R     HAL2     0.900000E-01   1.00800           0
     15557 MEMB     62       SAPE     H19S     HAL2     0.900000E-01   1.00800           0
     15558 MEMB     62       SAPE     C220     CTL3    -0.270000       12.0110           0
     15559 MEMB     62       SAPE     H20R     HAL3     0.900000E-01   1.00800           0
     15560 MEMB     62       SAPE     H20S     HAL3     0.900000E-01   1.00800           0
     15561 MEMB     62       SAPE     H20T     HAL3     0.900000E-01   1.00800           0
     15562 MEMB     62       SAPE     C33      CTL2    -0.180000       12.0110           0
     15563 MEMB     62       SAPE     H3X      HAL2     0.900000E-01   1.00800           0
     15564 MEMB     62       SAPE     H3Y      HAL2     0.900000E-01   1.00800           0
     15565 MEMB     62       SAPE     C34      CTL2    -0.180000       12.0110           0
     15566 MEMB     62       SAPE     H4X      HAL2     0.900000E-01   1.00800           0
     15567 MEMB     62       SAPE     H4Y      HAL2     0.900000E-01   1.00800           0
     15568 MEMB     62       SAPE     C35      CTL2    -0.180000       12.0110           0
     15569 MEMB     62       SAPE     H5X      HAL2     0.900000E-01   1.00800           0
     15570 MEMB     62       SAPE     H5Y      HAL2     0.900000E-01   1.00800           0
     15571 MEMB     62       SAPE     C36      CTL2    -0.180000       12.0110           0
     15572 MEMB     62       SAPE     H6X      HAL2     0.900000E-01   1.00800           0
     15573 MEMB     62       SAPE     H6Y      HAL2     0.900000E-01   1.00800           0
     15574 MEMB     62       SAPE     C37      CTL2    -0.180000       12.0110           0
     15575 MEMB     62       SAPE     H7X      HAL2     0.900000E-01   1.00800           0
     15576 MEMB     62       SAPE     H7Y      HAL2     0.900000E-01   1.00800           0
     15577 MEMB     62       SAPE     C38      CTL2    -0.180000       12.0110           0
     15578 MEMB     62       SAPE     H8X      HAL2     0.900000E-01   1.00800           0
     15579 MEMB     62       SAPE     H8Y      HAL2     0.900000E-01   1.00800           0
     15580 MEMB     62       SAPE     C39      CTL2    -0.180000       12.0110           0
     15581 MEMB     62       SAPE     H9X      HAL2     0.900000E-01   1.00800           0
     15582 MEMB     62       SAPE     H9Y      HAL2     0.900000E-01   1.00800           0
     15583 MEMB     62       SAPE     C310     CTL2    -0.180000       12.0110           0
     15584 MEMB     62       SAPE     H10X     HAL2     0.900000E-01   1.00800           0
     15585 MEMB     62       SAPE     H10Y     HAL2     0.900000E-01   1.00800           0
     15586 MEMB     62       SAPE     C311     CTL2    -0.180000       12.0110           0
     15587 MEMB     62       SAPE     H11X     HAL2     0.900000E-01   1.00800           0
     15588 MEMB     62       SAPE     H11Y     HAL2     0.900000E-01   1.00800           0
     15589 MEMB     62       SAPE     C312     CTL2    -0.180000       12.0110           0
     15590 MEMB     62       SAPE     H12X     HAL2     0.900000E-01   1.00800           0
     15591 MEMB     62       SAPE     H12Y     HAL2     0.900000E-01   1.00800           0
     15592 MEMB     62       SAPE     C313     CTL2    -0.180000       12.0110           0
     15593 MEMB     62       SAPE     H13X     HAL2     0.900000E-01   1.00800           0
     15594 MEMB     62       SAPE     H13Y     HAL2     0.900000E-01   1.00800           0
     15595 MEMB     62       SAPE     C314     CTL2    -0.180000       12.0110           0
     15596 MEMB     62       SAPE     H14X     HAL2     0.900000E-01   1.00800           0
     15597 MEMB     62       SAPE     H14Y     HAL2     0.900000E-01   1.00800           0
     15598 MEMB     62       SAPE     C315     CTL2    -0.180000       12.0110           0
     15599 MEMB     62       SAPE     H15X     HAL2     0.900000E-01   1.00800           0
     15600 MEMB     62       SAPE     H15Y     HAL2     0.900000E-01   1.00800           0
     15601 MEMB     62       SAPE     C316     CTL2    -0.180000       12.0110           0
     15602 MEMB     62       SAPE     H16X     HAL2     0.900000E-01   1.00800           0
     15603 MEMB     62       SAPE     H16Y     HAL2     0.900000E-01   1.00800           0
     15604 MEMB     62       SAPE     C317     CTL2    -0.180000       12.0110           0
     15605 MEMB     62       SAPE     H17X     HAL2     0.900000E-01   1.00800           0
     15606 MEMB     62       SAPE     H17Y     HAL2     0.900000E-01   1.00800           0
     15607 MEMB     62       SAPE     C318     CTL3    -0.270000       12.0110           0
     15608 MEMB     62       SAPE     H18X     HAL3     0.900000E-01   1.00800           0
     15609 MEMB     62       SAPE     H18Y     HAL3     0.900000E-01   1.00800           0
     15610 MEMB     62       SAPE     H18Z     HAL3     0.900000E-01   1.00800           0
     15611 MEMB     69       SAPE     N        NH3L    -0.300000       14.0070           0
     15612 MEMB     69       SAPE     HN1      HCL      0.330000       1.00800           0
     15613 MEMB     69       SAPE     HN2      HCL      0.330000       1.00800           0
     15614 MEMB     69       SAPE     HN3      HCL      0.330000       1.00800           0
     15615 MEMB     69       SAPE     C12      CTL2     0.130000       12.0110           0
     15616 MEMB     69       SAPE     H12A     HAL2     0.900000E-01   1.00800           0
     15617 MEMB     69       SAPE     H12B     HAL2     0.900000E-01   1.00800           0
     15618 MEMB     69       SAPE     C11      CTL2    -0.800000E-01   12.0110           0
     15619 MEMB     69       SAPE     H11A     HAL2     0.900000E-01   1.00800           0
     15620 MEMB     69       SAPE     H11B     HAL2     0.900000E-01   1.00800           0
     15621 MEMB     69       SAPE     P        PL       1.500000       30.9740           0
     15622 MEMB     69       SAPE     O13      O2L     -0.780000       15.9994           0
     15623 MEMB     69       SAPE     O14      O2L     -0.780000       15.9994           0
     15624 MEMB     69       SAPE     O12      OSLP    -0.570000       15.9994           0
     15625 MEMB     69       SAPE     O11      OSLP    -0.570000       15.9994           0
     15626 MEMB     69       SAPE     C1       CTL2    -0.800000E-01   12.0110           0
     15627 MEMB     69       SAPE     HA       HAL2     0.900000E-01   1.00800           0
     15628 MEMB     69       SAPE     HB       HAL2     0.900000E-01   1.00800           0
     15629 MEMB     69       SAPE     C2       CTL1     0.170000       12.0110           0
     15630 MEMB     69       SAPE     HS       HAL1     0.900000E-01   1.00800           0
     15631 MEMB     69       SAPE     O21      OSL     -0.490000       15.9994           0
     15632 MEMB     69       SAPE     C21      CL       0.900000       12.0110           0
     15633 MEMB     69       SAPE     O22      OBL     -0.630000       15.9994           0
     15634 MEMB     69       SAPE     C22      CTL2    -0.220000       12.0110           0
     15635 MEMB     69       SAPE     H2R      HAL2     0.900000E-01   1.00800           0
     15636 MEMB     69       SAPE     H2S      HAL2     0.900000E-01   1.00800           0
     15637 MEMB     69       SAPE     C3       CTL2     0.800000E-01   12.0110           0
     15638 MEMB     69       SAPE     HX       HAL2     0.900000E-01   1.00800           0
     15639 MEMB     69       SAPE     HY       HAL2     0.900000E-01   1.00800           0
     15640 MEMB     69       SAPE     O31      OSL     -0.490000       15.9994           0
     15641 MEMB     69       SAPE     C31      CL       0.900000       12.0110           0
     15642 MEMB     69       SAPE     O32      OBL     -0.630000       15.9994           0
     15643 MEMB     69       SAPE     C32      CTL2    -0.220000       12.0110           0
     15644 MEMB     69       SAPE     H2X      HAL2     0.900000E-01   1.00800           0
     15645 MEMB     69       SAPE     H2Y      HAL2     0.900000E-01   1.00800           0
     15646 MEMB     69       SAPE     C23      CTL2    -0.180000       12.0110           0
     15647 MEMB     69       SAPE     H3R      HAL2     0.900000E-01   1.00800           0
     15648 MEMB     69       SAPE     H3S      HAL2     0.900000E-01   1.00800           0
     15649 MEMB     69       SAPE     C24      CTL2    -0.180000       12.0110           0
     15650 MEMB     69       SAPE     H4R      HAL2     0.900000E-01   1.00800           0
     15651 MEMB     69       SAPE     H4S      HAL2     0.900000E-01   1.00800           0
     15652 MEMB     69       SAPE     C25      CEL1    -0.150000       12.0110           0
     15653 MEMB     69       SAPE     H5R      HEL1     0.150000       1.00800           0
     15654 MEMB     69       SAPE     C26      CEL1    -0.150000       12.0110           0
     15655 MEMB     69       SAPE     H6R      HEL1     0.150000       1.00800           0
     15656 MEMB     69       SAPE     C27      CTL2    -0.180000       12.0110           0
     15657 MEMB     69       SAPE     H7R      HAL2     0.900000E-01   1.00800           0
     15658 MEMB     69       SAPE     H7S      HAL2     0.900000E-01   1.00800           0
     15659 MEMB     69       SAPE     C28      CEL1    -0.150000       12.0110           0
     15660 MEMB     69       SAPE     H8R      HEL1     0.150000       1.00800           0
     15661 MEMB     69       SAPE     C29      CEL1    -0.150000       12.0110           0
     15662 MEMB     69       SAPE     H9R      HEL1     0.150000       1.00800           0
     15663 MEMB     69       SAPE     C210     CTL2    -0.180000       12.0110           0
     15664 MEMB     69       SAPE     H10R     HAL2     0.900000E-01   1.00800           0
     15665 MEMB     69       SAPE     H10S     HAL2     0.900000E-01   1.00800           0
     15666 MEMB     69       SAPE     C211     CEL1    -0.150000       12.0110           0
     15667 MEMB     69       SAPE     H11R     HEL1     0.150000       1.00800           0
     15668 MEMB     69       SAPE     C212     CEL1    -0.150000       12.0110           0
     15669 MEMB     69       SAPE     H12R     HEL1     0.150000       1.00800           0
     15670 MEMB     69       SAPE     C213     CTL2    -0.180000       12.0110           0
     15671 MEMB     69       SAPE     H13R     HAL2     0.900000E-01   1.00800           0
     15672 MEMB     69       SAPE     H13S     HAL2     0.900000E-01   1.00800           0
     15673 MEMB     69       SAPE     C214     CEL1    -0.150000       12.0110           0
     15674 MEMB     69       SAPE     H14R     HEL1     0.150000       1.00800           0
     15675 MEMB     69       SAPE     C215     CEL1    -0.150000       12.0110           0
     15676 MEMB     69       SAPE     H15R     HEL1     0.150000       1.00800           0
     15677 MEMB     69       SAPE     C216     CTL2    -0.180000       12.0110           0
     15678 MEMB     69       SAPE     H16R     HAL2     0.900000E-01   1.00800           0
     15679 MEMB     69       SAPE     H16S     HAL2     0.900000E-01   1.00800           0
     15680 MEMB     69       SAPE     C217     CTL2    -0.180000       12.0110           0
     15681 MEMB     69       SAPE     H17R     HAL2     0.900000E-01   1.00800           0
     15682 MEMB     69       SAPE     H17S     HAL2     0.900000E-01   1.00800           0
     15683 MEMB     69       SAPE     C218     CTL2    -0.180000       12.0110           0
     15684 MEMB     69       SAPE     H18R     HAL2     0.900000E-01   1.00800           0
     15685 MEMB     69       SAPE     H18S     HAL2     0.900000E-01   1.00800           0
     15686 MEMB     69       SAPE     C219     CTL2    -0.180000       12.0110           0
     15687 MEMB     69       SAPE     H19R     HAL2     0.900000E-01   1.00800           0
     15688 MEMB     69       SAPE     H19S     HAL2     0.900000E-01   1.00800           0
     15689 MEMB     69       SAPE     C220     CTL3    -0.270000       12.0110           0
     15690 MEMB     69       SAPE     H20R     HAL3     0.900000E-01   1.00800           0
     15691 MEMB     69       SAPE     H20S     HAL3     0.900000E-01   1.00800           0
     15692 MEMB     69       SAPE     H20T     HAL3     0.900000E-01   1.00800           0
     15693 MEMB     69       SAPE     C33      CTL2    -0.180000       12.0110           0
     15694 MEMB     69       SAPE     H3X      HAL2     0.900000E-01   1.00800           0
     15695 MEMB     69       SAPE     H3Y      HAL2     0.900000E-01   1.00800           0
     15696 MEMB     69       SAPE     C34      CTL2    -0.180000       12.0110           0
     15697 MEMB     69       SAPE     H4X      HAL2     0.900000E-01   1.00800           0
     15698 MEMB     69       SAPE     H4Y      HAL2     0.900000E-01   1.00800           0
     15699 MEMB     69       SAPE     C35      CTL2    -0.180000       12.0110           0
     15700 MEMB     69       SAPE     H5X      HAL2     0.900000E-01   1.00800           0
     15701 MEMB     69       SAPE     H5Y      HAL2     0.900000E-01   1.00800           0
     15702 MEMB     69       SAPE     C36      CTL2    -0.180000       12.0110           0
     15703 MEMB     69       SAPE     H6X      HAL2     0.900000E-01   1.00800           0
     15704 MEMB     69       SAPE     H6Y      HAL2     0.900000E-01   1.00800           0
     15705 MEMB     69       SAPE     C37      CTL2    -0.180000       12.0110           0
     15706 MEMB     69       SAPE     H7X      HAL2     0.900000E-01   1.00800           0
     15707 MEMB     69       SAPE     H7Y      HAL2     0.900000E-01   1.00800           0
     15708 MEMB     69       SAPE     C38      CTL2    -0.180000       12.0110           0
     15709 MEMB     69       SAPE     H8X      HAL2     0.900000E-01   1.00800           0
     15710 MEMB     69       SAPE     H8Y      HAL2     0.900000E-01   1.00800           0
     15711 MEMB     69       SAPE     C39      CTL2    -0.180000       12.0110           0
     15712 MEMB     69       SAPE     H9X      HAL2     0.900000E-01   1.00800           0
     15713 MEMB     69       SAPE     H9Y      HAL2     0.900000E-01   1.00800           0
     15714 MEMB     69       SAPE     C310     CTL2    -0.180000       12.0110           0
     15715 MEMB     69       SAPE     H10X     HAL2     0.900000E-01   1.00800           0
     15716 MEMB     69       SAPE     H10Y     HAL2     0.900000E-01   1.00800           0
     15717 MEMB     69       SAPE     C311     CTL2    -0.180000       12.0110           0
     15718 MEMB     69       SAPE     H11X     HAL2     0.900000E-01   1.00800           0
     15719 MEMB     69       SAPE     H11Y     HAL2     0.900000E-01   1.00800           0
     15720 MEMB     69       SAPE     C312     CTL2    -0.180000       12.0110           0
     15721 MEMB     69       SAPE     H12X     HAL2     0.900000E-01   1.00800           0
     15722 MEMB     69       SAPE     H12Y     HAL2     0.900000E-01   1.00800           0
     15723 MEMB     69       SAPE     C313     CTL2    -0.180000       12.0110           0
     15724 MEMB     69       SAPE     H13X     HAL2     0.900000E-01   1.00800           0
     15725 MEMB     69       SAPE     H13Y     HAL2     0.900000E-01   1.00800           0
     15726 MEMB     69       SAPE     C314     CTL2    -0.180000       12.0110           0
     15727 MEMB     69       SAPE     H14X     HAL2     0.900000E-01   1.00800           0
     15728 MEMB     69       SAPE     H14Y     HAL2     0.900000E-01   1.00800           0
     15729 MEMB     69       SAPE     C315     CTL2    -0.180000       12.0110           0
     15730 MEMB     69       SAPE     H15X     HAL2     0.900000E-01   1.00800           0
     15731 MEMB     69       SAPE     H15Y     HAL2     0.900000E-01   1.00800           0
     15732 MEMB     69       SAPE     C316     CTL2    -0.180000       12.0110           0
     15733 MEMB     69       SAPE     H16X     HAL2     0.900000E-01   1.00800           0
     15734 MEMB     69       SAPE     H16Y     HAL2     0.900000E-01   1.00800           0
     15735 MEMB     69       SAPE     C317     CTL2    -0.180000       12.0110           0
     15736 MEMB     69       SAPE     H17X     HAL2     0.900000E-01   1.00800           0
     15737 MEMB     69       SAPE     H17Y     HAL2     0.900000E-01   1.00800           0
     15738 MEMB     69       SAPE     C318     CTL3    -0.270000       12.0110           0
     15739 MEMB     69       SAPE     H18X     HAL3     0.900000E-01   1.00800           0
     15740 MEMB     69       SAPE     H18Y     HAL3     0.900000E-01   1.00800           0
     15741 MEMB     69       SAPE     H18Z     HAL3     0.900000E-01   1.00800           0
     15742 MEMB     78       SAPE     N        NH3L    -0.300000       14.0070           0
     15743 MEMB     78       SAPE     HN1      HCL      0.330000       1.00800           0
     15744 MEMB     78       SAPE     HN2      HCL      0.330000       1.00800           0
     15745 MEMB     78       SAPE     HN3      HCL      0.330000       1.00800           0
     15746 MEMB     78       SAPE     C12      CTL2     0.130000       12.0110           0
     15747 MEMB     78       SAPE     H12A     HAL2     0.900000E-01   1.00800           0
     15748 MEMB     78       SAPE     H12B     HAL2     0.900000E-01   1.00800           0
     15749 MEMB     78       SAPE     C11      CTL2    -0.800000E-01   12.0110           0
     15750 MEMB     78       SAPE     H11A     HAL2     0.900000E-01   1.00800           0
     15751 MEMB     78       SAPE     H11B     HAL2     0.900000E-01   1.00800           0
     15752 MEMB     78       SAPE     P        PL       1.500000       30.9740           0
     15753 MEMB     78       SAPE     O13      O2L     -0.780000       15.9994           0
     15754 MEMB     78       SAPE     O14      O2L     -0.780000       15.9994           0
     15755 MEMB     78       SAPE     O12      OSLP    -0.570000       15.9994           0
     15756 MEMB     78       SAPE     O11      OSLP    -0.570000       15.9994           0
     15757 MEMB     78       SAPE     C1       CTL2    -0.800000E-01   12.0110           0
     15758 MEMB     78       SAPE     HA       HAL2     0.900000E-01   1.00800           0
     15759 MEMB     78       SAPE     HB       HAL2     0.900000E-01   1.00800           0
     15760 MEMB     78       SAPE     C2       CTL1     0.170000       12.0110           0
     15761 MEMB     78       SAPE     HS       HAL1     0.900000E-01   1.00800           0
     15762 MEMB     78       SAPE     O21      OSL     -0.490000       15.9994           0
     15763 MEMB     78       SAPE     C21      CL       0.900000       12.0110           0
     15764 MEMB     78       SAPE     O22      OBL     -0.630000       15.9994           0
     15765 MEMB     78       SAPE     C22      CTL2    -0.220000       12.0110           0
     15766 MEMB     78       SAPE     H2R      HAL2     0.900000E-01   1.00800           0
     15767 MEMB     78       SAPE     H2S      HAL2     0.900000E-01   1.00800           0
     15768 MEMB     78       SAPE     C3       CTL2     0.800000E-01   12.0110           0
     15769 MEMB     78       SAPE     HX       HAL2     0.900000E-01   1.00800           0
     15770 MEMB     78       SAPE     HY       HAL2     0.900000E-01   1.00800           0
     15771 MEMB     78       SAPE     O31      OSL     -0.490000       15.9994           0
     15772 MEMB     78       SAPE     C31      CL       0.900000       12.0110           0
     15773 MEMB     78       SAPE     O32      OBL     -0.630000       15.9994           0
     15774 MEMB     78       SAPE     C32      CTL2    -0.220000       12.0110           0
     15775 MEMB     78       SAPE     H2X      HAL2     0.900000E-01   1.00800           0
     15776 MEMB     78       SAPE     H2Y      HAL2     0.900000E-01   1.00800           0
     15777 MEMB     78       SAPE     C23      CTL2    -0.180000       12.0110           0
     15778 MEMB     78       SAPE     H3R      HAL2     0.900000E-01   1.00800           0
     15779 MEMB     78       SAPE     H3S      HAL2     0.900000E-01   1.00800           0
     15780 MEMB     78       SAPE     C24      CTL2    -0.180000       12.0110           0
     15781 MEMB     78       SAPE     H4R      HAL2     0.900000E-01   1.00800           0
     15782 MEMB     78       SAPE     H4S      HAL2     0.900000E-01   1.00800           0
     15783 MEMB     78       SAPE     C25      CEL1    -0.150000       12.0110           0
     15784 MEMB     78       SAPE     H5R      HEL1     0.150000       1.00800           0
     15785 MEMB     78       SAPE     C26      CEL1    -0.150000       12.0110           0
     15786 MEMB     78       SAPE     H6R      HEL1     0.150000       1.00800           0
     15787 MEMB     78       SAPE     C27      CTL2    -0.180000       12.0110           0
     15788 MEMB     78       SAPE     H7R      HAL2     0.900000E-01   1.00800           0
     15789 MEMB     78       SAPE     H7S      HAL2     0.900000E-01   1.00800           0
     15790 MEMB     78       SAPE     C28      CEL1    -0.150000       12.0110           0
     15791 MEMB     78       SAPE     H8R      HEL1     0.150000       1.00800           0
     15792 MEMB     78       SAPE     C29      CEL1    -0.150000       12.0110           0
     15793 MEMB     78       SAPE     H9R      HEL1     0.150000       1.00800           0
     15794 MEMB     78       SAPE     C210     CTL2    -0.180000       12.0110           0
     15795 MEMB     78       SAPE     H10R     HAL2     0.900000E-01   1.00800           0
     15796 MEMB     78       SAPE     H10S     HAL2     0.900000E-01   1.00800           0
     15797 MEMB     78       SAPE     C211     CEL1    -0.150000       12.0110           0
     15798 MEMB     78       SAPE     H11R     HEL1     0.150000       1.00800           0
     15799 MEMB     78       SAPE     C212     CEL1    -0.150000       12.0110           0
     15800 MEMB     78       SAPE     H12R     HEL1     0.150000       1.00800           0
     15801 MEMB     78       SAPE     C213     CTL2    -0.180000       12.0110           0
     15802 MEMB     78       SAPE     H13R     HAL2     0.900000E-01   1.00800           0
     15803 MEMB     78       SAPE     H13S     HAL2     0.900000E-01   1.00800           0
     15804 MEMB     78       SAPE     C214     CEL1    -0.150000       12.0110           0
     15805 MEMB     78       SAPE     H14R     HEL1     0.150000       1.00800           0
     15806 MEMB     78       SAPE     C215     CEL1    -0.150000       12.0110           0
     15807 MEMB     78       SAPE     H15R     HEL1     0.150000       1.00800           0
     15808 MEMB     78       SAPE     C216     CTL2    -0.180000       12.0110           0
     15809 MEMB     78       SAPE     H16R     HAL2     0.900000E-01   1.00800           0
     15810 MEMB     78       SAPE     H16S     HAL2     0.900000E-01   1.00800           0
     15811 MEMB     78       SAPE     C217     CTL2    -0.180000       12.0110           0
     15812 MEMB     78       SAPE     H17R     HAL2     0.900000E-01   1.00800           0
     15813 MEMB     78       SAPE     H17S     HAL2     0.900000E-01   1.00800           0
     15814 MEMB     78       SAPE     C218     CTL2    -0.180000       12.0110           0
     15815 MEMB     78       SAPE     H18R     HAL2     0.900000E-01   1.00800           0
     15816 MEMB     78       SAPE     H18S     HAL2     0.900000E-01   1.00800           0
     15817 MEMB     78       SAPE     C219     CTL2    -0.180000       12.0110           0
     15818 MEMB     78       SAPE     H19R     HAL2     0.900000E-01   1.00800           0
     15819 MEMB     78       SAPE     H19S     HAL2     0.900000E-01   1.00800           0
     15820 MEMB     78       SAPE     C220     CTL3    -0.270000       12.0110           0
     15821 MEMB     78       SAPE     H20R     HAL3     0.900000E-01   1.00800           0
     15822 MEMB     78       SAPE     H20S     HAL3     0.900000E-01   1.00800           0
     15823 MEMB     78       SAPE     H20T     HAL3     0.900000E-01   1.00800           0
     15824 MEMB     78       SAPE     C33      CTL2    -0.180000       12.0110           0
     15825 MEMB     78       SAPE     H3X      HAL2     0.900000E-01   1.00800           0
     15826 MEMB     78       SAPE     H3Y      HAL2     0.900000E-01   1.00800           0
     15827 MEMB     78       SAPE     C34      CTL2    -0.180000       12.0110           0
     15828 MEMB     78       SAPE     H4X      HAL2     0.900000E-01   1.00800           0
     15829 MEMB     78       SAPE     H4Y      HAL2     0.900000E-01   1.00800           0
     15830 MEMB     78       SAPE     C35      CTL2    -0.180000       12.0110           0
     15831 MEMB     78       SAPE     H5X      HAL2     0.900000E-01   1.00800           0
     15832 MEMB     78       SAPE     H5Y      HAL2     0.900000E-01   1.00800           0
     15833 MEMB     78       SAPE     C36      CTL2    -0.180000       12.0110           0
     15834 MEMB     78       SAPE     H6X      HAL2     0.900000E-01   1.00800           0
     15835 MEMB     78       SAPE     H6Y      HAL2     0.900000E-01   1.00800           0
     15836 MEMB     78       SAPE     C37      CTL2    -0.180000       12.0110           0
     15837 MEMB     78       SAPE     H7X      HAL2     0.900000E-01   1.00800           0
     15838 MEMB     78       SAPE     H7Y      HAL2     0.900000E-01   1.00800           0
     15839 MEMB     78       SAPE     C38      CTL2    -0.180000       12.0110           0
     15840 MEMB     78       SAPE     H8X      HAL2     0.900000E-01   1.00800           0
     15841 MEMB     78       SAPE     H8Y      HAL2     0.900000E-01   1.00800           0
     15842 MEMB     78       SAPE     C39      CTL2    -0.180000       12.0110           0
     15843 MEMB     78       SAPE     H9X      HAL2     0.900000E-01   1.00800           0
     15844 MEMB     78       SAPE     H9Y      HAL2     0.900000E-01   1.00800           0
     15845 MEMB     78       SAPE     C310     CTL2    -0.180000       12.0110           0
     15846 MEMB     78       SAPE     H10X     HAL2     0.900000E-01   1.00800           0
     15847 MEMB     78       SAPE     H10Y     HAL2     0.900000E-01   1.00800           0
     15848 MEMB     78       SAPE     C311     CTL2    -0.180000       12.0110           0
     15849 MEMB     78       SAPE     H11X     HAL2     0.900000E-01   1.00800           0
     15850 MEMB     78       SAPE     H11Y     HAL2     0.900000E-01   1.00800           0
     15851 MEMB     78       SAPE     C312     CTL2    -0.180000       12.0110           0
     15852 MEMB     78       SAPE     H12X     HAL2     0.900000E-01   1.00800           0
     15853 MEMB     78       SAPE     H12Y     HAL2     0.900000E-01   1.00800           0
     15854 MEMB     78       SAPE     C313     CTL2    -0.180000       12.0110           0
     15855 MEMB     78       SAPE     H13X     HAL2     0.900000E-01   1.00800           0
     15856 MEMB     78       SAPE     H13Y     HAL2     0.900000E-01   1.00800           0
     15857 MEMB     78       SAPE     C314     CTL2    -0.180000       12.0110           0
     15858 MEMB     78       SAPE     H14X     HAL2     0.900000E-01   1.00800           0
     15859 MEMB     78       SAPE     H14Y     HAL2     0.900000E-01   1.00800           0
     15860 MEMB     78       SAPE     C315     CTL2    -0.180000       12.0110           0
     15861 MEMB     78       SAPE     H15X     HAL2     0.900000E-01   1.00800           0
     15862 MEMB     78       SAPE     H15Y     HAL2     0.900000E-01   1.00800           0
     15863 MEMB     78       SAPE     C316     CTL2    -0.180000       12.0110           0
     15864 MEMB     78       SAPE     H16X     HAL2     0.900000E-01   1.00800           0
     15865 MEMB     78       SAPE     H16Y     HAL2     0.900000E-01   1.00800           0
     15866 MEMB     78       SAPE     C317     CTL2    -0.180000       12.0110           0
     15867 MEMB     78       SAPE     H17X     HAL2     0.900000E-01   1.00800           0
     15868 MEMB     78       SAPE     H17Y     HAL2     0.900000E-01   1.00800           0
     15869 MEMB     78       SAPE     C318     CTL3    -0.270000       12.0110           0
     15870 MEMB     78       SAPE     H18X     HAL3     0.900000E-01   1.00800           0
     15871 MEMB     78       SAPE     H18Y     HAL3     0.900000E-01   1.00800           0
     15872 MEMB     78       SAPE     H18Z     HAL3     0.900000E-01   1.00800           0
     15873 MEMB     80       SAPE     N        NH3L    -0.300000       14.0070           0
     15874 MEMB     80       SAPE     HN1      HCL      0.330000       1.00800           0
     15875 MEMB     80       SAPE     HN2      HCL      0.330000       1.00800           0
     15876 MEMB     80       SAPE     HN3      HCL      0.330000       1.00800           0
     15877 MEMB     80       SAPE     C12      CTL2     0.130000       12.0110           0
     15878 MEMB     80       SAPE     H12A     HAL2     0.900000E-01   1.00800           0
     15879 MEMB     80       SAPE     H12B     HAL2     0.900000E-01   1.00800           0
     15880 MEMB     80       SAPE     C11      CTL2    -0.800000E-01   12.0110           0
     15881 MEMB     80       SAPE     H11A     HAL2     0.900000E-01   1.00800           0
     15882 MEMB     80       SAPE     H11B     HAL2     0.900000E-01   1.00800           0
     15883 MEMB     80       SAPE     P        PL       1.500000       30.9740           0
     15884 MEMB     80       SAPE     O13      O2L     -0.780000       15.9994           0
     15885 MEMB     80       SAPE     O14      O2L     -0.780000       15.9994           0
     15886 MEMB     80       SAPE     O12      OSLP    -0.570000       15.9994           0
     15887 MEMB     80       SAPE     O11      OSLP    -0.570000       15.9994           0
     15888 MEMB     80       SAPE     C1       CTL2    -0.800000E-01   12.0110           0
     15889 MEMB     80       SAPE     HA       HAL2     0.900000E-01   1.00800           0
     15890 MEMB     80       SAPE     HB       HAL2     0.900000E-01   1.00800           0
     15891 MEMB     80       SAPE     C2       CTL1     0.170000       12.0110           0
     15892 MEMB     80       SAPE     HS       HAL1     0.900000E-01   1.00800           0
     15893 MEMB     80       SAPE     O21      OSL     -0.490000       15.9994           0
     15894 MEMB     80       SAPE     C21      CL       0.900000       12.0110           0
     15895 MEMB     80       SAPE     O22      OBL     -0.630000       15.9994           0
     15896 MEMB     80       SAPE     C22      CTL2    -0.220000       12.0110           0
     15897 MEMB     80       SAPE     H2R      HAL2     0.900000E-01   1.00800           0
     15898 MEMB     80       SAPE     H2S      HAL2     0.900000E-01   1.00800           0
     15899 MEMB     80       SAPE     C3       CTL2     0.800000E-01   12.0110           0
     15900 MEMB     80       SAPE     HX       HAL2     0.900000E-01   1.00800           0
     15901 MEMB     80       SAPE     HY       HAL2     0.900000E-01   1.00800           0
     15902 MEMB     80       SAPE     O31      OSL     -0.490000       15.9994           0
     15903 MEMB     80       SAPE     C31      CL       0.900000       12.0110           0
     15904 MEMB     80       SAPE     O32      OBL     -0.630000       15.9994           0
     15905 MEMB     80       SAPE     C32      CTL2    -0.220000       12.0110           0
     15906 MEMB     80       SAPE     H2X      HAL2     0.900000E-01   1.00800           0
     15907 MEMB     80       SAPE     H2Y      HAL2     0.900000E-01   1.00800           0
     15908 MEMB     80       SAPE     C23      CTL2    -0.180000       12.0110           0
     15909 MEMB     80       SAPE     H3R      HAL2     0.900000E-01   1.00800           0
     15910 MEMB     80       SAPE     H3S      HAL2     0.900000E-01   1.00800           0
     15911 MEMB     80       SAPE     C24      CTL2    -0.180000       12.0110           0
     15912 MEMB     80       SAPE     H4R      HAL2     0.900000E-01   1.00800           0
     15913 MEMB     80       SAPE     H4S      HAL2     0.900000E-01   1.00800           0
     15914 MEMB     80       SAPE     C25      CEL1    -0.150000       12.0110           0
     15915 MEMB     80       SAPE     H5R      HEL1     0.150000       1.00800           0
     15916 MEMB     80       SAPE     C26      CEL1    -0.150000       12.0110           0
     15917 MEMB     80       SAPE     H6R      HEL1     0.150000       1.00800           0
     15918 MEMB     80       SAPE     C27      CTL2    -0.180000       12.0110           0
     15919 MEMB     80       SAPE     H7R      HAL2     0.900000E-01   1.00800           0
     15920 MEMB     80       SAPE     H7S      HAL2     0.900000E-01   1.00800           0
     15921 MEMB     80       SAPE     C28      CEL1    -0.150000       12.0110           0
     15922 MEMB     80       SAPE     H8R      HEL1     0.150000       1.00800           0
     15923 MEMB     80       SAPE     C29      CEL1    -0.150000       12.0110           0
     15924 MEMB     80       SAPE     H9R      HEL1     0.150000       1.00800           0
     15925 MEMB     80       SAPE     C210     CTL2    -0.180000       12.0110           0
     15926 MEMB     80       SAPE     H10R     HAL2     0.900000E-01   1.00800           0
     15927 MEMB     80       SAPE     H10S     HAL2     0.900000E-01   1.00800           0
     15928 MEMB     80       SAPE     C211     CEL1    -0.150000       12.0110           0
     15929 MEMB     80       SAPE     H11R     HEL1     0.150000       1.00800           0
     15930 MEMB     80       SAPE     C212     CEL1    -0.150000       12.0110           0
     15931 MEMB     80       SAPE     H12R     HEL1     0.150000       1.00800           0
     15932 MEMB     80       SAPE     C213     CTL2    -0.180000       12.0110           0
     15933 MEMB     80       SAPE     H13R     HAL2     0.900000E-01   1.00800           0
     15934 MEMB     80       SAPE     H13S     HAL2     0.900000E-01   1.00800           0
     15935 MEMB     80       SAPE     C214     CEL1    -0.150000       12.0110           0
     15936 MEMB     80       SAPE     H14R     HEL1     0.150000       1.00800           0
     15937 MEMB     80       SAPE     C215     CEL1    -0.150000       12.0110           0
     15938 MEMB     80       SAPE     H15R     HEL1     0.150000       1.00800           0
     15939 MEMB     80       SAPE     C216     CTL2    -0.180000       12.0110           0
     15940 MEMB     80       SAPE     H16R     HAL2     0.900000E-01   1.00800           0
     15941 MEMB     80       SAPE     H16S     HAL2     0.900000E-01   1.00800           0
     15942 MEMB     80       SAPE     C217     CTL2    -0.180000       12.0110           0
     15943 MEMB     80       SAPE     H17R     HAL2     0.900000E-01   1.00800           0
     15944 MEMB     80       SAPE     H17S     HAL2     0.900000E-01   1.00800           0
     15945 MEMB     80       SAPE     C218     CTL2    -0.180000       12.0110           0
     15946 MEMB     80       SAPE     H18R     HAL2     0.900000E-01   1.00800           0
     15947 MEMB     80       SAPE     H18S     HAL2     0.900000E-01   1.00800           0
     15948 MEMB     80       SAPE     C219     CTL2    -0.180000       12.0110           0
     15949 MEMB     80       SAPE     H19R     HAL2     0.900000E-01   1.00800           0
     15950 MEMB     80       SAPE     H19S     HAL2     0.900000E-01   1.00800           0
     15951 MEMB     80       SAPE     C220     CTL3    -0.270000       12.0110           0
     15952 MEMB     80       SAPE     H20R     HAL3     0.900000E-01   1.00800           0
     15953 MEMB     80       SAPE     H20S     HAL3     0.900000E-01   1.00800           0
     15954 MEMB     80       SAPE     H20T     HAL3     0.900000E-01   1.00800           0
     15955 MEMB     80       SAPE     C33      CTL2    -0.180000       12.0110           0
     15956 MEMB     80       SAPE     H3X      HAL2     0.900000E-01   1.00800           0
     15957 MEMB     80       SAPE     H3Y      HAL2     0.900000E-01   1.00800           0
     15958 MEMB     80       SAPE     C34      CTL2    -0.180000       12.0110           0
     15959 MEMB     80       SAPE     H4X      HAL2     0.900000E-01   1.00800           0
     15960 MEMB     80       SAPE     H4Y      HAL2     0.900000E-01   1.00800           0
     15961 MEMB     80       SAPE     C35      CTL2    -0.180000       12.0110           0
     15962 MEMB     80       SAPE     H5X      HAL2     0.900000E-01   1.00800           0
     15963 MEMB     80       SAPE     H5Y      HAL2     0.900000E-01   1.00800           0
     15964 MEMB     80       SAPE     C36      CTL2    -0.180000       12.0110           0
     15965 MEMB     80       SAPE     H6X      HAL2     0.900000E-01   1.00800           0
     15966 MEMB     80       SAPE     H6Y      HAL2     0.900000E-01   1.00800           0
     15967 MEMB     80       SAPE     C37      CTL2    -0.180000       12.0110           0
     15968 MEMB     80       SAPE     H7X      HAL2     0.900000E-01   1.00800           0
     15969 MEMB     80       SAPE     H7Y      HAL2     0.900000E-01   1.00800           0
     15970 MEMB     80       SAPE     C38      CTL2    -0.180000       12.0110           0
     15971 MEMB     80       SAPE     H8X      HAL2     0.900000E-01   1.00800           0
     15972 MEMB     80       SAPE     H8Y      HAL2     0.900000E-01   1.00800           0
     15973 MEMB     80       SAPE     C39      CTL2    -0.180000       12.0110           0
     15974 MEMB     80       SAPE     H9X      HAL2     0.900000E-01   1.00800           0
     15975 MEMB     80       SAPE     H9Y      HAL2     0.900000E-01   1.00800           0
     15976 MEMB     80       SAPE     C310     CTL2    -0.180000       12.0110           0
     15977 MEMB     80       SAPE     H10X     HAL2     0.900000E-01   1.00800           0
     15978 MEMB     80       SAPE     H10Y     HAL2     0.900000E-01   1.00800           0
     15979 MEMB     80       SAPE     C311     CTL2    -0.180000       12.0110           0
     15980 MEMB     80       SAPE     H11X     HAL2     0.900000E-01   1.00800           0
     15981 MEMB     80       SAPE     H11Y     HAL2     0.900000E-01   1.00800           0
     15982 MEMB     80       SAPE     C312     CTL2    -0.180000       12.0110           0
     15983 MEMB     80       SAPE     H12X     HAL2     0.900000E-01   1.00800           0
     15984 MEMB     80       SAPE     H12Y     HAL2     0.900000E-01   1.00800           0
     15985 MEMB     80       SAPE     C313     CTL2    -0.180000       12.0110           0
     15986 MEMB     80       SAPE     H13X     HAL2     0.900000E-01   1.00800           0
     15987 MEMB     80       SAPE     H13Y     HAL2     0.900000E-01   1.00800           0
     15988 MEMB     80       SAPE     C314     CTL2    -0.180000       12.0110           0
     15989 MEMB     80       SAPE     H14X     HAL2     0.900000E-01   1.00800           0
     15990 MEMB     80       SAPE     H14Y     HAL2     0.900000E-01   1.00800           0
     15991 MEMB     80       SAPE     C315     CTL2    -0.180000       12.0110           0
     15992 MEMB     80       SAPE     H15X     HAL2     0.900000E-01   1.00800           0
     15993 MEMB     80       SAPE     H15Y     HAL2     0.900000E-01   1.00800           0
     15994 MEMB     80       SAPE     C316     CTL2    -0.180000       12.0110           0
     15995 MEMB     80       SAPE     H16X     HAL2     0.900000E-01   1.00800           0
     15996 MEMB     80       SAPE     H16Y     HAL2     0.900000E-01   1.00800           0
     15997 MEMB     80       SAPE     C317     CTL2    -0.180000       12.0110           0
     15998 MEMB     80       SAPE     H17X     HAL2     0.900000E-01   1.00800           0
     15999 MEMB     80       SAPE     H17Y     HAL2     0.900000E-01   1.00800           0
     16000 MEMB     80       SAPE     C318     CTL3    -0.270000       12.0110           0
     16001 MEMB     80       SAPE     H18X     HAL3     0.900000E-01   1.00800           0
     16002 MEMB     80       SAPE     H18Y     HAL3     0.900000E-01   1.00800           0
     16003 MEMB     80       SAPE     H18Z     HAL3     0.900000E-01   1.00800           0
     16004 MEMB     93       SAPE     N        NH3L    -0.300000       14.0070           0
     16005 MEMB     93       SAPE     HN1      HCL      0.330000       1.00800           0
     16006 MEMB     93       SAPE     HN2      HCL      0.330000       1.00800           0
     16007 MEMB     93       SAPE     HN3      HCL      0.330000       1.00800           0
     16008 MEMB     93       SAPE     C12      CTL2     0.130000       12.0110           0
     16009 MEMB     93       SAPE     H12A     HAL2     0.900000E-01   1.00800           0
     16010 MEMB     93       SAPE     H12B     HAL2     0.900000E-01   1.00800           0
     16011 MEMB     93       SAPE     C11      CTL2    -0.800000E-01   12.0110           0
     16012 MEMB     93       SAPE     H11A     HAL2     0.900000E-01   1.00800           0
     16013 MEMB     93       SAPE     H11B     HAL2     0.900000E-01   1.00800           0
     16014 MEMB     93       SAPE     P        PL       1.500000       30.9740           0
     16015 MEMB     93       SAPE     O13      O2L     -0.780000       15.9994           0
     16016 MEMB     93       SAPE     O14      O2L     -0.780000       15.9994           0
     16017 MEMB     93       SAPE     O12      OSLP    -0.570000       15.9994           0
     16018 MEMB     93       SAPE     O11      OSLP    -0.570000       15.9994           0
     16019 MEMB     93       SAPE     C1       CTL2    -0.800000E-01   12.0110           0
     16020 MEMB     93       SAPE     HA       HAL2     0.900000E-01   1.00800           0
     16021 MEMB     93       SAPE     HB       HAL2     0.900000E-01   1.00800           0
     16022 MEMB     93       SAPE     C2       CTL1     0.170000       12.0110           0
     16023 MEMB     93       SAPE     HS       HAL1     0.900000E-01   1.00800           0
     16024 MEMB     93       SAPE     O21      OSL     -0.490000       15.9994           0
     16025 MEMB     93       SAPE     C21      CL       0.900000       12.0110           0
     16026 MEMB     93       SAPE     O22      OBL     -0.630000       15.9994           0
     16027 MEMB     93       SAPE     C22      CTL2    -0.220000       12.0110           0
     16028 MEMB     93       SAPE     H2R      HAL2     0.900000E-01   1.00800           0
     16029 MEMB     93       SAPE     H2S      HAL2     0.900000E-01   1.00800           0
     16030 MEMB     93       SAPE     C3       CTL2     0.800000E-01   12.0110           0
     16031 MEMB     93       SAPE     HX       HAL2     0.900000E-01   1.00800           0
     16032 MEMB     93       SAPE     HY       HAL2     0.900000E-01   1.00800           0
     16033 MEMB     93       SAPE     O31      OSL     -0.490000       15.9994           0
     16034 MEMB     93       SAPE     C31      CL       0.900000       12.0110           0
     16035 MEMB     93       SAPE     O32      OBL     -0.630000       15.9994           0
     16036 MEMB     93       SAPE     C32      CTL2    -0.220000       12.0110           0
     16037 MEMB     93       SAPE     H2X      HAL2     0.900000E-01   1.00800           0
     16038 MEMB     93       SAPE     H2Y      HAL2     0.900000E-01   1.00800           0
     16039 MEMB     93       SAPE     C23      CTL2    -0.180000       12.0110           0
     16040 MEMB     93       SAPE     H3R      HAL2     0.900000E-01   1.00800           0
     16041 MEMB     93       SAPE     H3S      HAL2     0.900000E-01   1.00800           0
     16042 MEMB     93       SAPE     C24      CTL2    -0.180000       12.0110           0
     16043 MEMB     93       SAPE     H4R      HAL2     0.900000E-01   1.00800           0
     16044 MEMB     93       SAPE     H4S      HAL2     0.900000E-01   1.00800           0
     16045 MEMB     93       SAPE     C25      CEL1    -0.150000       12.0110           0
     16046 MEMB     93       SAPE     H5R      HEL1     0.150000       1.00800           0
     16047 MEMB     93       SAPE     C26      CEL1    -0.150000       12.0110           0
     16048 MEMB     93       SAPE     H6R      HEL1     0.150000       1.00800           0
     16049 MEMB     93       SAPE     C27      CTL2    -0.180000       12.0110           0
     16050 MEMB     93       SAPE     H7R      HAL2     0.900000E-01   1.00800           0
     16051 MEMB     93       SAPE     H7S      HAL2     0.900000E-01   1.00800           0
     16052 MEMB     93       SAPE     C28      CEL1    -0.150000       12.0110           0
     16053 MEMB     93       SAPE     H8R      HEL1     0.150000       1.00800           0
     16054 MEMB     93       SAPE     C29      CEL1    -0.150000       12.0110           0
     16055 MEMB     93       SAPE     H9R      HEL1     0.150000       1.00800           0
     16056 MEMB     93       SAPE     C210     CTL2    -0.180000       12.0110           0
     16057 MEMB     93       SAPE     H10R     HAL2     0.900000E-01   1.00800           0
     16058 MEMB     93       SAPE     H10S     HAL2     0.900000E-01   1.00800           0
     16059 MEMB     93       SAPE     C211     CEL1    -0.150000       12.0110           0
     16060 MEMB     93       SAPE     H11R     HEL1     0.150000       1.00800           0
     16061 MEMB     93       SAPE     C212     CEL1    -0.150000       12.0110           0
     16062 MEMB     93       SAPE     H12R     HEL1     0.150000       1.00800           0
     16063 MEMB     93       SAPE     C213     CTL2    -0.180000       12.0110           0
     16064 MEMB     93       SAPE     H13R     HAL2     0.900000E-01   1.00800           0
     16065 MEMB     93       SAPE     H13S     HAL2     0.900000E-01   1.00800           0
     16066 MEMB     93       SAPE     C214     CEL1    -0.150000       12.0110           0
     16067 MEMB     93       SAPE     H14R     HEL1     0.150000       1.00800           0
     16068 MEMB     93       SAPE     C215     CEL1    -0.150000       12.0110           0
     16069 MEMB     93       SAPE     H15R     HEL1     0.150000       1.00800           0
     16070 MEMB     93       SAPE     C216     CTL2    -0.180000       12.0110           0
     16071 MEMB     93       SAPE     H16R     HAL2     0.900000E-01   1.00800           0
     16072 MEMB     93       SAPE     H16S     HAL2     0.900000E-01   1.00800           0
     16073 MEMB     93       SAPE     C217     CTL2    -0.180000       12.0110           0
     16074 MEMB     93       SAPE     H17R     HAL2     0.900000E-01   1.00800           0
     16075 MEMB     93       SAPE     H17S     HAL2     0.900000E-01   1.00800           0
     16076 MEMB     93       SAPE     C218     CTL2    -0.180000       12.0110           0
     16077 MEMB     93       SAPE     H18R     HAL2     0.900000E-01   1.00800           0
     16078 MEMB     93       SAPE     H18S     HAL2     0.900000E-01   1.00800           0
     16079 MEMB     93       SAPE     C219     CTL2    -0.180000       12.0110           0
     16080 MEMB     93       SAPE     H19R     HAL2     0.900000E-01   1.00800           0
     16081 MEMB     93       SAPE     H19S     HAL2     0.900000E-01   1.00800           0
     16082 MEMB     93       SAPE     C220     CTL3    -0.270000       12.0110           0
     16083 MEMB     93       SAPE     H20R     HAL3     0.900000E-01   1.00800           0
     16084 MEMB     93       SAPE     H20S     HAL3     0.900000E-01   1.00800           0
     16085 MEMB     93       SAPE     H20T     HAL3     0.900000E-01   1.00800           0
     16086 MEMB     93       SAPE     C33      CTL2    -0.180000       12.0110           0
     16087 MEMB     93       SAPE     H3X      HAL2     0.900000E-01   1.00800           0
     16088 MEMB     93       SAPE     H3Y      HAL2     0.900000E-01   1.00800           0
     16089 MEMB     93       SAPE     C34      CTL2    -0.180000       12.0110           0
     16090 MEMB     93       SAPE     H4X      HAL2     0.900000E-01   1.00800           0
     16091 MEMB     93       SAPE     H4Y      HAL2     0.900000E-01   1.00800           0
     16092 MEMB     93       SAPE     C35      CTL2    -0.180000       12.0110           0
     16093 MEMB     93       SAPE     H5X      HAL2     0.900000E-01   1.00800           0
     16094 MEMB     93       SAPE     H5Y      HAL2     0.900000E-01   1.00800           0
     16095 MEMB     93       SAPE     C36      CTL2    -0.180000       12.0110           0
     16096 MEMB     93       SAPE     H6X      HAL2     0.900000E-01   1.00800           0
     16097 MEMB     93       SAPE     H6Y      HAL2     0.900000E-01   1.00800           0
     16098 MEMB     93       SAPE     C37      CTL2    -0.180000       12.0110           0
     16099 MEMB     93       SAPE     H7X      HAL2     0.900000E-01   1.00800           0
     16100 MEMB     93       SAPE     H7Y      HAL2     0.900000E-01   1.00800           0
     16101 MEMB     93       SAPE     C38      CTL2    -0.180000       12.0110           0
     16102 MEMB     93       SAPE     H8X      HAL2     0.900000E-01   1.00800           0
     16103 MEMB     93       SAPE     H8Y      HAL2     0.900000E-01   1.00800           0
     16104 MEMB     93       SAPE     C39      CTL2    -0.180000       12.0110           0
     16105 MEMB     93       SAPE     H9X      HAL2     0.900000E-01   1.00800           0
     16106 MEMB     93       SAPE     H9Y      HAL2     0.900000E-01   1.00800           0
     16107 MEMB     93       SAPE     C310     CTL2    -0.180000       12.0110           0
     16108 MEMB     93       SAPE     H10X     HAL2     0.900000E-01   1.00800           0
     16109 MEMB     93       SAPE     H10Y     HAL2     0.900000E-01   1.00800           0
     16110 MEMB     93       SAPE     C311     CTL2    -0.180000       12.0110           0
     16111 MEMB     93       SAPE     H11X     HAL2     0.900000E-01   1.00800           0
     16112 MEMB     93       SAPE     H11Y     HAL2     0.900000E-01   1.00800           0
     16113 MEMB     93       SAPE     C312     CTL2    -0.180000       12.0110           0
     16114 MEMB     93       SAPE     H12X     HAL2     0.900000E-01   1.00800           0
     16115 MEMB     93       SAPE     H12Y     HAL2     0.900000E-01   1.00800           0
     16116 MEMB     93       SAPE     C313     CTL2    -0.180000       12.0110           0
     16117 MEMB     93       SAPE     H13X     HAL2     0.900000E-01   1.00800           0
     16118 MEMB     93       SAPE     H13Y     HAL2     0.900000E-01   1.00800           0
     16119 MEMB     93       SAPE     C314     CTL2    -0.180000       12.0110           0
     16120 MEMB     93       SAPE     H14X     HAL2     0.900000E-01   1.00800           0
     16121 MEMB     93       SAPE     H14Y     HAL2     0.900000E-01   1.00800           0
     16122 MEMB     93       SAPE     C315     CTL2    -0.180000       12.0110           0
     16123 MEMB     93       SAPE     H15X     HAL2     0.900000E-01   1.00800           0
     16124 MEMB     93       SAPE     H15Y     HAL2     0.900000E-01   1.00800           0
     16125 MEMB     93       SAPE     C316     CTL2    -0.180000       12.0110           0
     16126 MEMB     93       SAPE     H16X     HAL2     0.900000E-01   1.00800           0
     16127 MEMB     93       SAPE     H16Y     HAL2     0.900000E-01   1.00800           0
     16128 MEMB     93       SAPE     C317     CTL2    -0.180000       12.0110           0
     16129 MEMB     93       SAPE     H17X     HAL2     0.900000E-01   1.00800           0
     16130 MEMB     93       SAPE     H17Y     HAL2     0.900000E-01   1.00800           0
     16131 MEMB     93       SAPE     C318     CTL3    -0.270000       12.0110           0
     16132 MEMB     93       SAPE     H18X     HAL3     0.900000E-01   1.00800           0
     16133 MEMB     93       SAPE     H18Y     HAL3     0.900000E-01   1.00800           0
     16134 MEMB     93       SAPE     H18Z     HAL3     0.900000E-01   1.00800           0
     16135 MEMB     97       SAPE     N        NH3L    -0.300000       14.0070           0
     16136 MEMB     97       SAPE     HN1      HCL      0.330000       1.00800           0
     16137 MEMB     97       SAPE     HN2      HCL      0.330000       1.00800           0
     16138 MEMB     97       SAPE     HN3      HCL      0.330000       1.00800           0
     16139 MEMB     97       SAPE     C12      CTL2     0.130000       12.0110           0
     16140 MEMB     97       SAPE     H12A     HAL2     0.900000E-01   1.00800           0
     16141 MEMB     97       SAPE     H12B     HAL2     0.900000E-01   1.00800           0
     16142 MEMB     97       SAPE     C11      CTL2    -0.800000E-01   12.0110           0
     16143 MEMB     97       SAPE     H11A     HAL2     0.900000E-01   1.00800           0
     16144 MEMB     97       SAPE     H11B     HAL2     0.900000E-01   1.00800           0
     16145 MEMB     97       SAPE     P        PL       1.500000       30.9740           0
     16146 MEMB     97       SAPE     O13      O2L     -0.780000       15.9994           0
     16147 MEMB     97       SAPE     O14      O2L     -0.780000       15.9994           0
     16148 MEMB     97       SAPE     O12      OSLP    -0.570000       15.9994           0
     16149 MEMB     97       SAPE     O11      OSLP    -0.570000       15.9994           0
     16150 MEMB     97       SAPE     C1       CTL2    -0.800000E-01   12.0110           0
     16151 MEMB     97       SAPE     HA       HAL2     0.900000E-01   1.00800           0
     16152 MEMB     97       SAPE     HB       HAL2     0.900000E-01   1.00800           0
     16153 MEMB     97       SAPE     C2       CTL1     0.170000       12.0110           0
     16154 MEMB     97       SAPE     HS       HAL1     0.900000E-01   1.00800           0
     16155 MEMB     97       SAPE     O21      OSL     -0.490000       15.9994           0
     16156 MEMB     97       SAPE     C21      CL       0.900000       12.0110           0
     16157 MEMB     97       SAPE     O22      OBL     -0.630000       15.9994           0
     16158 MEMB     97       SAPE     C22      CTL2    -0.220000       12.0110           0
     16159 MEMB     97       SAPE     H2R      HAL2     0.900000E-01   1.00800           0
     16160 MEMB     97       SAPE     H2S      HAL2     0.900000E-01   1.00800           0
     16161 MEMB     97       SAPE     C3       CTL2     0.800000E-01   12.0110           0
     16162 MEMB     97       SAPE     HX       HAL2     0.900000E-01   1.00800           0
     16163 MEMB     97       SAPE     HY       HAL2     0.900000E-01   1.00800           0
     16164 MEMB     97       SAPE     O31      OSL     -0.490000       15.9994           0
     16165 MEMB     97       SAPE     C31      CL       0.900000       12.0110           0
     16166 MEMB     97       SAPE     O32      OBL     -0.630000       15.9994           0
     16167 MEMB     97       SAPE     C32      CTL2    -0.220000       12.0110           0
     16168 MEMB     97       SAPE     H2X      HAL2     0.900000E-01   1.00800           0
     16169 MEMB     97       SAPE     H2Y      HAL2     0.900000E-01   1.00800           0
     16170 MEMB     97       SAPE     C23      CTL2    -0.180000       12.0110           0
     16171 MEMB     97       SAPE     H3R      HAL2     0.900000E-01   1.00800           0
     16172 MEMB     97       SAPE     H3S      HAL2     0.900000E-01   1.00800           0
     16173 MEMB     97       SAPE     C24      CTL2    -0.180000       12.0110           0
     16174 MEMB     97       SAPE     H4R      HAL2     0.900000E-01   1.00800           0
     16175 MEMB     97       SAPE     H4S      HAL2     0.900000E-01   1.00800           0
     16176 MEMB     97       SAPE     C25      CEL1    -0.150000       12.0110           0
     16177 MEMB     97       SAPE     H5R      HEL1     0.150000       1.00800           0
     16178 MEMB     97       SAPE     C26      CEL1    -0.150000       12.0110           0
     16179 MEMB     97       SAPE     H6R      HEL1     0.150000       1.00800           0
     16180 MEMB     97       SAPE     C27      CTL2    -0.180000       12.0110           0
     16181 MEMB     97       SAPE     H7R      HAL2     0.900000E-01   1.00800           0
     16182 MEMB     97       SAPE     H7S      HAL2     0.900000E-01   1.00800           0
     16183 MEMB     97       SAPE     C28      CEL1    -0.150000       12.0110           0
     16184 MEMB     97       SAPE     H8R      HEL1     0.150000       1.00800           0
     16185 MEMB     97       SAPE     C29      CEL1    -0.150000       12.0110           0
     16186 MEMB     97       SAPE     H9R      HEL1     0.150000       1.00800           0
     16187 MEMB     97       SAPE     C210     CTL2    -0.180000       12.0110           0
     16188 MEMB     97       SAPE     H10R     HAL2     0.900000E-01   1.00800           0
     16189 MEMB     97       SAPE     H10S     HAL2     0.900000E-01   1.00800           0
     16190 MEMB     97       SAPE     C211     CEL1    -0.150000       12.0110           0
     16191 MEMB     97       SAPE     H11R     HEL1     0.150000       1.00800           0
     16192 MEMB     97       SAPE     C212     CEL1    -0.150000       12.0110           0
     16193 MEMB     97       SAPE     H12R     HEL1     0.150000       1.00800           0
     16194 MEMB     97       SAPE     C213     CTL2    -0.180000       12.0110           0
     16195 MEMB     97       SAPE     H13R     HAL2     0.900000E-01   1.00800           0
     16196 MEMB     97       SAPE     H13S     HAL2     0.900000E-01   1.00800           0
     16197 MEMB     97       SAPE     C214     CEL1    -0.150000       12.0110           0
     16198 MEMB     97       SAPE     H14R     HEL1     0.150000       1.00800           0
     16199 MEMB     97       SAPE     C215     CEL1    -0.150000       12.0110           0
     16200 MEMB     97       SAPE     H15R     HEL1     0.150000       1.00800           0
     16201 MEMB     97       SAPE     C216     CTL2    -0.180000       12.0110           0
     16202 MEMB     97       SAPE     H16R     HAL2     0.900000E-01   1.00800           0
     16203 MEMB     97       SAPE     H16S     HAL2     0.900000E-01   1.00800           0
     16204 MEMB     97       SAPE     C217     CTL2    -0.180000       12.0110           0
     16205 MEMB     97       SAPE     H17R     HAL2     0.900000E-01   1.00800           0
     16206 MEMB     97       SAPE     H17S     HAL2     0.900000E-01   1.00800           0
     16207 MEMB     97       SAPE     C218     CTL2    -0.180000       12.0110           0
     16208 MEMB     97       SAPE     H18R     HAL2     0.900000E-01   1.00800           0
     16209 MEMB     97       SAPE     H18S     HAL2     0.900000E-01   1.00800           0
     16210 MEMB     97       SAPE     C219     CTL2    -0.180000       12.0110           0
     16211 MEMB     97       SAPE     H19R     HAL2     0.900000E-01   1.00800           0
     16212 MEMB     97       SAPE     H19S     HAL2     0.900000E-01   1.00800           0
     16213 MEMB     97       SAPE     C220     CTL3    -0.270000       12.0110           0
     16214 MEMB     97       SAPE     H20R     HAL3     0.900000E-01   1.00800           0
     16215 MEMB     97       SAPE     H20S     HAL3     0.900000E-01   1.00800           0
     16216 MEMB     97       SAPE     H20T     HAL3     0.900000E-01   1.00800           0
     16217 MEMB     97       SAPE     C33      CTL2    -0.180000       12.0110           0
     16218 MEMB     97       SAPE     H3X      HAL2     0.900000E-01   1.00800           0
     16219 MEMB     97       SAPE     H3Y      HAL2     0.900000E-01   1.00800           0
     16220 MEMB     97       SAPE     C34      CTL2    -0.180000       12.0110           0
     16221 MEMB     97       SAPE     H4X      HAL2     0.900000E-01   1.00800           0
     16222 MEMB     97       SAPE     H4Y      HAL2     0.900000E-01   1.00800           0
     16223 MEMB     97       SAPE     C35      CTL2    -0.180000       12.0110           0
     16224 MEMB     97       SAPE     H5X      HAL2     0.900000E-01   1.00800           0
     16225 MEMB     97       SAPE     H5Y      HAL2     0.900000E-01   1.00800           0
     16226 MEMB     97       SAPE     C36      CTL2    -0.180000       12.0110           0
     16227 MEMB     97       SAPE     H6X      HAL2     0.900000E-01   1.00800           0
     16228 MEMB     97       SAPE     H6Y      HAL2     0.900000E-01   1.00800           0
     16229 MEMB     97       SAPE     C37      CTL2    -0.180000       12.0110           0
     16230 MEMB     97       SAPE     H7X      HAL2     0.900000E-01   1.00800           0
     16231 MEMB     97       SAPE     H7Y      HAL2     0.900000E-01   1.00800           0
     16232 MEMB     97       SAPE     C38      CTL2    -0.180000       12.0110           0
     16233 MEMB     97       SAPE     H8X      HAL2     0.900000E-01   1.00800           0
     16234 MEMB     97       SAPE     H8Y      HAL2     0.900000E-01   1.00800           0
     16235 MEMB     97       SAPE     C39      CTL2    -0.180000       12.0110           0
     16236 MEMB     97       SAPE     H9X      HAL2     0.900000E-01   1.00800           0
     16237 MEMB     97       SAPE     H9Y      HAL2     0.900000E-01   1.00800           0
     16238 MEMB     97       SAPE     C310     CTL2    -0.180000       12.0110           0
     16239 MEMB     97       SAPE     H10X     HAL2     0.900000E-01   1.00800           0
     16240 MEMB     97       SAPE     H10Y     HAL2     0.900000E-01   1.00800           0
     16241 MEMB     97       SAPE     C311     CTL2    -0.180000       12.0110           0
     16242 MEMB     97       SAPE     H11X     HAL2     0.900000E-01   1.00800           0
     16243 MEMB     97       SAPE     H11Y     HAL2     0.900000E-01   1.00800           0
     16244 MEMB     97       SAPE     C312     CTL2    -0.180000       12.0110           0
     16245 MEMB     97       SAPE     H12X     HAL2     0.900000E-01   1.00800           0
     16246 MEMB     97       SAPE     H12Y     HAL2     0.900000E-01   1.00800           0
     16247 MEMB     97       SAPE     C313     CTL2    -0.180000       12.0110           0
     16248 MEMB     97       SAPE     H13X     HAL2     0.900000E-01   1.00800           0
     16249 MEMB     97       SAPE     H13Y     HAL2     0.900000E-01   1.00800           0
     16250 MEMB     97       SAPE     C314     CTL2    -0.180000       12.0110           0
     16251 MEMB     97       SAPE     H14X     HAL2     0.900000E-01   1.00800           0
     16252 MEMB     97       SAPE     H14Y     HAL2     0.900000E-01   1.00800           0
     16253 MEMB     97       SAPE     C315     CTL2    -0.180000       12.0110           0
     16254 MEMB     97       SAPE     H15X     HAL2     0.900000E-01   1.00800           0
     16255 MEMB     97       SAPE     H15Y     HAL2     0.900000E-01   1.00800           0
     16256 MEMB     97       SAPE     C316     CTL2    -0.180000       12.0110           0
     16257 MEMB     97       SAPE     H16X     HAL2     0.900000E-01   1.00800           0
     16258 MEMB     97       SAPE     H16Y     HAL2     0.900000E-01   1.00800           0
     16259 MEMB     97       SAPE     C317     CTL2    -0.180000       12.0110           0
     16260 MEMB     97       SAPE     H17X     HAL2     0.900000E-01   1.00800           0
     16261 MEMB     97       SAPE     H17Y     HAL2     0.900000E-01   1.00800           0
     16262 MEMB     97       SAPE     C318     CTL3    -0.270000       12.0110           0
     16263 MEMB     97       SAPE     H18X     HAL3     0.900000E-01   1.00800           0
     16264 MEMB     97       SAPE     H18Y     HAL3     0.900000E-01   1.00800           0
     16265 MEMB     97       SAPE     H18Z     HAL3     0.900000E-01   1.00800           0
     16266 MEMB     98       SAPE     N        NH3L    -0.300000       14.0070           0
     16267 MEMB     98       SAPE     HN1      HCL      0.330000       1.00800           0
     16268 MEMB     98       SAPE     HN2      HCL      0.330000       1.00800           0
     16269 MEMB     98       SAPE     HN3      HCL      0.330000       1.00800           0
     16270 MEMB     98       SAPE     C12      CTL2     0.130000       12.0110           0
     16271 MEMB     98       SAPE     H12A     HAL2     0.900000E-01   1.00800           0
     16272 MEMB     98       SAPE     H12B     HAL2     0.900000E-01   1.00800           0
     16273 MEMB     98       SAPE     C11      CTL2    -0.800000E-01   12.0110           0
     16274 MEMB     98       SAPE     H11A     HAL2     0.900000E-01   1.00800           0
     16275 MEMB     98       SAPE     H11B     HAL2     0.900000E-01   1.00800           0
     16276 MEMB     98       SAPE     P        PL       1.500000       30.9740           0
     16277 MEMB     98       SAPE     O13      O2L     -0.780000       15.9994           0
     16278 MEMB     98       SAPE     O14      O2L     -0.780000       15.9994           0
     16279 MEMB     98       SAPE     O12      OSLP    -0.570000       15.9994           0
     16280 MEMB     98       SAPE     O11      OSLP    -0.570000       15.9994           0
     16281 MEMB     98       SAPE     C1       CTL2    -0.800000E-01   12.0110           0
     16282 MEMB     98       SAPE     HA       HAL2     0.900000E-01   1.00800           0
     16283 MEMB     98       SAPE     HB       HAL2     0.900000E-01   1.00800           0
     16284 MEMB     98       SAPE     C2       CTL1     0.170000       12.0110           0
     16285 MEMB     98       SAPE     HS       HAL1     0.900000E-01   1.00800           0
     16286 MEMB     98       SAPE     O21      OSL     -0.490000       15.9994           0
     16287 MEMB     98       SAPE     C21      CL       0.900000       12.0110           0
     16288 MEMB     98       SAPE     O22      OBL     -0.630000       15.9994           0
     16289 MEMB     98       SAPE     C22      CTL2    -0.220000       12.0110           0
     16290 MEMB     98       SAPE     H2R      HAL2     0.900000E-01   1.00800           0
     16291 MEMB     98       SAPE     H2S      HAL2     0.900000E-01   1.00800           0
     16292 MEMB     98       SAPE     C3       CTL2     0.800000E-01   12.0110           0
     16293 MEMB     98       SAPE     HX       HAL2     0.900000E-01   1.00800           0
     16294 MEMB     98       SAPE     HY       HAL2     0.900000E-01   1.00800           0
     16295 MEMB     98       SAPE     O31      OSL     -0.490000       15.9994           0
     16296 MEMB     98       SAPE     C31      CL       0.900000       12.0110           0
     16297 MEMB     98       SAPE     O32      OBL     -0.630000       15.9994           0
     16298 MEMB     98       SAPE     C32      CTL2    -0.220000       12.0110           0
     16299 MEMB     98       SAPE     H2X      HAL2     0.900000E-01   1.00800           0
     16300 MEMB     98       SAPE     H2Y      HAL2     0.900000E-01   1.00800           0
     16301 MEMB     98       SAPE     C23      CTL2    -0.180000       12.0110           0
     16302 MEMB     98       SAPE     H3R      HAL2     0.900000E-01   1.00800           0
     16303 MEMB     98       SAPE     H3S      HAL2     0.900000E-01   1.00800           0
     16304 MEMB     98       SAPE     C24      CTL2    -0.180000       12.0110           0
     16305 MEMB     98       SAPE     H4R      HAL2     0.900000E-01   1.00800           0
     16306 MEMB     98       SAPE     H4S      HAL2     0.900000E-01   1.00800           0
     16307 MEMB     98       SAPE     C25      CEL1    -0.150000       12.0110           0
     16308 MEMB     98       SAPE     H5R      HEL1     0.150000       1.00800           0
     16309 MEMB     98       SAPE     C26      CEL1    -0.150000       12.0110           0
     16310 MEMB     98       SAPE     H6R      HEL1     0.150000       1.00800           0
     16311 MEMB     98       SAPE     C27      CTL2    -0.180000       12.0110           0
     16312 MEMB     98       SAPE     H7R      HAL2     0.900000E-01   1.00800           0
     16313 MEMB     98       SAPE     H7S      HAL2     0.900000E-01   1.00800           0
     16314 MEMB     98       SAPE     C28      CEL1    -0.150000       12.0110           0
     16315 MEMB     98       SAPE     H8R      HEL1     0.150000       1.00800           0
     16316 MEMB     98       SAPE     C29      CEL1    -0.150000       12.0110           0
     16317 MEMB     98       SAPE     H9R      HEL1     0.150000       1.00800           0
     16318 MEMB     98       SAPE     C210     CTL2    -0.180000       12.0110           0
     16319 MEMB     98       SAPE     H10R     HAL2     0.900000E-01   1.00800           0
     16320 MEMB     98       SAPE     H10S     HAL2     0.900000E-01   1.00800           0
     16321 MEMB     98       SAPE     C211     CEL1    -0.150000       12.0110           0
     16322 MEMB     98       SAPE     H11R     HEL1     0.150000       1.00800           0
     16323 MEMB     98       SAPE     C212     CEL1    -0.150000       12.0110           0
     16324 MEMB     98       SAPE     H12R     HEL1     0.150000       1.00800           0
     16325 MEMB     98       SAPE     C213     CTL2    -0.180000       12.0110           0
     16326 MEMB     98       SAPE     H13R     HAL2     0.900000E-01   1.00800           0
     16327 MEMB     98       SAPE     H13S     HAL2     0.900000E-01   1.00800           0
     16328 MEMB     98       SAPE     C214     CEL1    -0.150000       12.0110           0
     16329 MEMB     98       SAPE     H14R     HEL1     0.150000       1.00800           0
     16330 MEMB     98       SAPE     C215     CEL1    -0.150000       12.0110           0
     16331 MEMB     98       SAPE     H15R     HEL1     0.150000       1.00800           0
     16332 MEMB     98       SAPE     C216     CTL2    -0.180000       12.0110           0
     16333 MEMB     98       SAPE     H16R     HAL2     0.900000E-01   1.00800           0
     16334 MEMB     98       SAPE     H16S     HAL2     0.900000E-01   1.00800           0
     16335 MEMB     98       SAPE     C217     CTL2    -0.180000       12.0110           0
     16336 MEMB     98       SAPE     H17R     HAL2     0.900000E-01   1.00800           0
     16337 MEMB     98       SAPE     H17S     HAL2     0.900000E-01   1.00800           0
     16338 MEMB     98       SAPE     C218     CTL2    -0.180000       12.0110           0
     16339 MEMB     98       SAPE     H18R     HAL2     0.900000E-01   1.00800           0
     16340 MEMB     98       SAPE     H18S     HAL2     0.900000E-01   1.00800           0
     16341 MEMB     98       SAPE     C219     CTL2    -0.180000       12.0110           0
     16342 MEMB     98       SAPE     H19R     HAL2     0.900000E-01   1.00800           0
     16343 MEMB     98       SAPE     H19S     HAL2     0.900000E-01   1.00800           0
     16344 MEMB     98       SAPE     C220     CTL3    -0.270000       12.0110           0
     16345 MEMB     98       SAPE     H20R     HAL3     0.900000E-01   1.00800           0
     16346 MEMB     98       SAPE     H20S     HAL3     0.900000E-01   1.00800           0
     16347 MEMB     98       SAPE     H20T     HAL3     0.900000E-01   1.00800           0
     16348 MEMB     98       SAPE     C33      CTL2    -0.180000       12.0110           0
     16349 MEMB     98       SAPE     H3X      HAL2     0.900000E-01   1.00800           0
     16350 MEMB     98       SAPE     H3Y      HAL2     0.900000E-01   1.00800           0
     16351 MEMB     98       SAPE     C34      CTL2    -0.180000       12.0110           0
     16352 MEMB     98       SAPE     H4X      HAL2     0.900000E-01   1.00800           0
     16353 MEMB     98       SAPE     H4Y      HAL2     0.900000E-01   1.00800           0
     16354 MEMB     98       SAPE     C35      CTL2    -0.180000       12.0110           0
     16355 MEMB     98       SAPE     H5X      HAL2     0.900000E-01   1.00800           0
     16356 MEMB     98       SAPE     H5Y      HAL2     0.900000E-01   1.00800           0
     16357 MEMB     98       SAPE     C36      CTL2    -0.180000       12.0110           0
     16358 MEMB     98       SAPE     H6X      HAL2     0.900000E-01   1.00800           0
     16359 MEMB     98       SAPE     H6Y      HAL2     0.900000E-01   1.00800           0
     16360 MEMB     98       SAPE     C37      CTL2    -0.180000       12.0110           0
     16361 MEMB     98       SAPE     H7X      HAL2     0.900000E-01   1.00800           0
     16362 MEMB     98       SAPE     H7Y      HAL2     0.900000E-01   1.00800           0
     16363 MEMB     98       SAPE     C38      CTL2    -0.180000       12.0110           0
     16364 MEMB     98       SAPE     H8X      HAL2     0.900000E-01   1.00800           0
     16365 MEMB     98       SAPE     H8Y      HAL2     0.900000E-01   1.00800           0
     16366 MEMB     98       SAPE     C39      CTL2    -0.180000       12.0110           0
     16367 MEMB     98       SAPE     H9X      HAL2     0.900000E-01   1.00800           0
     16368 MEMB     98       SAPE     H9Y      HAL2     0.900000E-01   1.00800           0
     16369 MEMB     98       SAPE     C310     CTL2    -0.180000       12.0110           0
     16370 MEMB     98       SAPE     H10X     HAL2     0.900000E-01   1.00800           0
     16371 MEMB     98       SAPE     H10Y     HAL2     0.900000E-01   1.00800           0
     16372 MEMB     98       SAPE     C311     CTL2    -0.180000       12.0110           0
     16373 MEMB     98       SAPE     H11X     HAL2     0.900000E-01   1.00800           0
     16374 MEMB     98       SAPE     H11Y     HAL2     0.900000E-01   1.00800           0
     16375 MEMB     98       SAPE     C312     CTL2    -0.180000       12.0110           0
     16376 MEMB     98       SAPE     H12X     HAL2     0.900000E-01   1.00800           0
     16377 MEMB     98       SAPE     H12Y     HAL2     0.900000E-01   1.00800           0
     16378 MEMB     98       SAPE     C313     CTL2    -0.180000       12.0110           0
     16379 MEMB     98       SAPE     H13X     HAL2     0.900000E-01   1.00800           0
     16380 MEMB     98       SAPE     H13Y     HAL2     0.900000E-01   1.00800           0
     16381 MEMB     98       SAPE     C314     CTL2    -0.180000       12.0110           0
     16382 MEMB     98       SAPE     H14X     HAL2     0.900000E-01   1.00800           0
     16383 MEMB     98       SAPE     H14Y     HAL2     0.900000E-01   1.00800           0
     16384 MEMB     98       SAPE     C315     CTL2    -0.180000       12.0110           0
     16385 MEMB     98       SAPE     H15X     HAL2     0.900000E-01   1.00800           0
     16386 MEMB     98       SAPE     H15Y     HAL2     0.900000E-01   1.00800           0
     16387 MEMB     98       SAPE     C316     CTL2    -0.180000       12.0110           0
     16388 MEMB     98       SAPE     H16X     HAL2     0.900000E-01   1.00800           0
     16389 MEMB     98       SAPE     H16Y     HAL2     0.900000E-01   1.00800           0
     16390 MEMB     98       SAPE     C317     CTL2    -0.180000       12.0110           0
     16391 MEMB     98       SAPE     H17X     HAL2     0.900000E-01   1.00800           0
     16392 MEMB     98       SAPE     H17Y     HAL2     0.900000E-01   1.00800           0
     16393 MEMB     98       SAPE     C318     CTL3    -0.270000       12.0110           0
     16394 MEMB     98       SAPE     H18X     HAL3     0.900000E-01   1.00800           0
     16395 MEMB     98       SAPE     H18Y     HAL3     0.900000E-01   1.00800           0
     16396 MEMB     98       SAPE     H18Z     HAL3     0.900000E-01   1.00800           0
     16397 MEMB     99       SAPE     N        NH3L    -0.300000       14.0070           0
     16398 MEMB     99       SAPE     HN1      HCL      0.330000       1.00800           0
     16399 MEMB     99       SAPE     HN2      HCL      0.330000       1.00800           0
     16400 MEMB     99       SAPE     HN3      HCL      0.330000       1.00800           0
     16401 MEMB     99       SAPE     C12      CTL2     0.130000       12.0110           0
     16402 MEMB     99       SAPE     H12A     HAL2     0.900000E-01   1.00800           0
     16403 MEMB     99       SAPE     H12B     HAL2     0.900000E-01   1.00800           0
     16404 MEMB     99       SAPE     C11      CTL2    -0.800000E-01   12.0110           0
     16405 MEMB     99       SAPE     H11A     HAL2     0.900000E-01   1.00800           0
     16406 MEMB     99       SAPE     H11B     HAL2     0.900000E-01   1.00800           0
     16407 MEMB     99       SAPE     P        PL       1.500000       30.9740           0
     16408 MEMB     99       SAPE     O13      O2L     -0.780000       15.9994           0
     16409 MEMB     99       SAPE     O14      O2L     -0.780000       15.9994           0
     16410 MEMB     99       SAPE     O12      OSLP    -0.570000       15.9994           0
     16411 MEMB     99       SAPE     O11      OSLP    -0.570000       15.9994           0
     16412 MEMB     99       SAPE     C1       CTL2    -0.800000E-01   12.0110           0
     16413 MEMB     99       SAPE     HA       HAL2     0.900000E-01   1.00800           0
     16414 MEMB     99       SAPE     HB       HAL2     0.900000E-01   1.00800           0
     16415 MEMB     99       SAPE     C2       CTL1     0.170000       12.0110           0
     16416 MEMB     99       SAPE     HS       HAL1     0.900000E-01   1.00800           0
     16417 MEMB     99       SAPE     O21      OSL     -0.490000       15.9994           0
     16418 MEMB     99       SAPE     C21      CL       0.900000       12.0110           0
     16419 MEMB     99       SAPE     O22      OBL     -0.630000       15.9994           0
     16420 MEMB     99       SAPE     C22      CTL2    -0.220000       12.0110           0
     16421 MEMB     99       SAPE     H2R      HAL2     0.900000E-01   1.00800           0
     16422 MEMB     99       SAPE     H2S      HAL2     0.900000E-01   1.00800           0
     16423 MEMB     99       SAPE     C3       CTL2     0.800000E-01   12.0110           0
     16424 MEMB     99       SAPE     HX       HAL2     0.900000E-01   1.00800           0
     16425 MEMB     99       SAPE     HY       HAL2     0.900000E-01   1.00800           0
     16426 MEMB     99       SAPE     O31      OSL     -0.490000       15.9994           0
     16427 MEMB     99       SAPE     C31      CL       0.900000       12.0110           0
     16428 MEMB     99       SAPE     O32      OBL     -0.630000       15.9994           0
     16429 MEMB     99       SAPE     C32      CTL2    -0.220000       12.0110           0
     16430 MEMB     99       SAPE     H2X      HAL2     0.900000E-01   1.00800           0
     16431 MEMB     99       SAPE     H2Y      HAL2     0.900000E-01   1.00800           0
     16432 MEMB     99       SAPE     C23      CTL2    -0.180000       12.0110           0
     16433 MEMB     99       SAPE     H3R      HAL2     0.900000E-01   1.00800           0
     16434 MEMB     99       SAPE     H3S      HAL2     0.900000E-01   1.00800           0
     16435 MEMB     99       SAPE     C24      CTL2    -0.180000       12.0110           0
     16436 MEMB     99       SAPE     H4R      HAL2     0.900000E-01   1.00800           0
     16437 MEMB     99       SAPE     H4S      HAL2     0.900000E-01   1.00800           0
     16438 MEMB     99       SAPE     C25      CEL1    -0.150000       12.0110           0
     16439 MEMB     99       SAPE     H5R      HEL1     0.150000       1.00800           0
     16440 MEMB     99       SAPE     C26      CEL1    -0.150000       12.0110           0
     16441 MEMB     99       SAPE     H6R      HEL1     0.150000       1.00800           0
     16442 MEMB     99       SAPE     C27      CTL2    -0.180000       12.0110           0
     16443 MEMB     99       SAPE     H7R      HAL2     0.900000E-01   1.00800           0
     16444 MEMB     99       SAPE     H7S      HAL2     0.900000E-01   1.00800           0
     16445 MEMB     99       SAPE     C28      CEL1    -0.150000       12.0110           0
     16446 MEMB     99       SAPE     H8R      HEL1     0.150000       1.00800           0
     16447 MEMB     99       SAPE     C29      CEL1    -0.150000       12.0110           0
     16448 MEMB     99       SAPE     H9R      HEL1     0.150000       1.00800           0
     16449 MEMB     99       SAPE     C210     CTL2    -0.180000       12.0110           0
     16450 MEMB     99       SAPE     H10R     HAL2     0.900000E-01   1.00800           0
     16451 MEMB     99       SAPE     H10S     HAL2     0.900000E-01   1.00800           0
     16452 MEMB     99       SAPE     C211     CEL1    -0.150000       12.0110           0
     16453 MEMB     99       SAPE     H11R     HEL1     0.150000       1.00800           0
     16454 MEMB     99       SAPE     C212     CEL1    -0.150000       12.0110           0
     16455 MEMB     99       SAPE     H12R     HEL1     0.150000       1.00800           0
     16456 MEMB     99       SAPE     C213     CTL2    -0.180000       12.0110           0
     16457 MEMB     99       SAPE     H13R     HAL2     0.900000E-01   1.00800           0
     16458 MEMB     99       SAPE     H13S     HAL2     0.900000E-01   1.00800           0
     16459 MEMB     99       SAPE     C214     CEL1    -0.150000       12.0110           0
     16460 MEMB     99       SAPE     H14R     HEL1     0.150000       1.00800           0
     16461 MEMB     99       SAPE     C215     CEL1    -0.150000       12.0110           0
     16462 MEMB     99       SAPE     H15R     HEL1     0.150000       1.00800           0
     16463 MEMB     99       SAPE     C216     CTL2    -0.180000       12.0110           0
     16464 MEMB     99       SAPE     H16R     HAL2     0.900000E-01   1.00800           0
     16465 MEMB     99       SAPE     H16S     HAL2     0.900000E-01   1.00800           0
     16466 MEMB     99       SAPE     C217     CTL2    -0.180000       12.0110           0
     16467 MEMB     99       SAPE     H17R     HAL2     0.900000E-01   1.00800           0
     16468 MEMB     99       SAPE     H17S     HAL2     0.900000E-01   1.00800           0
     16469 MEMB     99       SAPE     C218     CTL2    -0.180000       12.0110           0
     16470 MEMB     99       SAPE     H18R     HAL2     0.900000E-01   1.00800           0
     16471 MEMB     99       SAPE     H18S     HAL2     0.900000E-01   1.00800           0
     16472 MEMB     99       SAPE     C219     CTL2    -0.180000       12.0110           0
     16473 MEMB     99       SAPE     H19R     HAL2     0.900000E-01   1.00800           0
     16474 MEMB     99       SAPE     H19S     HAL2     0.900000E-01   1.00800           0
     16475 MEMB     99       SAPE     C220     CTL3    -0.270000       12.0110           0
     16476 MEMB     99       SAPE     H20R     HAL3     0.900000E-01   1.00800           0
     16477 MEMB     99       SAPE     H20S     HAL3     0.900000E-01   1.00800           0
     16478 MEMB     99       SAPE     H20T     HAL3     0.900000E-01   1.00800           0
     16479 MEMB     99       SAPE     C33      CTL2    -0.180000       12.0110           0
     16480 MEMB     99       SAPE     H3X      HAL2     0.900000E-01   1.00800           0
     16481 MEMB     99       SAPE     H3Y      HAL2     0.900000E-01   1.00800           0
     16482 MEMB     99       SAPE     C34      CTL2    -0.180000       12.0110           0
     16483 MEMB     99       SAPE     H4X      HAL2     0.900000E-01   1.00800           0
     16484 MEMB     99       SAPE     H4Y      HAL2     0.900000E-01   1.00800           0
     16485 MEMB     99       SAPE     C35      CTL2    -0.180000       12.0110           0
     16486 MEMB     99       SAPE     H5X      HAL2     0.900000E-01   1.00800           0
     16487 MEMB     99       SAPE     H5Y      HAL2     0.900000E-01   1.00800           0
     16488 MEMB     99       SAPE     C36      CTL2    -0.180000       12.0110           0
     16489 MEMB     99       SAPE     H6X      HAL2     0.900000E-01   1.00800           0
     16490 MEMB     99       SAPE     H6Y      HAL2     0.900000E-01   1.00800           0
     16491 MEMB     99       SAPE     C37      CTL2    -0.180000       12.0110           0
     16492 MEMB     99       SAPE     H7X      HAL2     0.900000E-01   1.00800           0
     16493 MEMB     99       SAPE     H7Y      HAL2     0.900000E-01   1.00800           0
     16494 MEMB     99       SAPE     C38      CTL2    -0.180000       12.0110           0
     16495 MEMB     99       SAPE     H8X      HAL2     0.900000E-01   1.00800           0
     16496 MEMB     99       SAPE     H8Y      HAL2     0.900000E-01   1.00800           0
     16497 MEMB     99       SAPE     C39      CTL2    -0.180000       12.0110           0
     16498 MEMB     99       SAPE     H9X      HAL2     0.900000E-01   1.00800           0
     16499 MEMB     99       SAPE     H9Y      HAL2     0.900000E-01   1.00800           0
     16500 MEMB     99       SAPE     C310     CTL2    -0.180000       12.0110           0
     16501 MEMB     99       SAPE     H10X     HAL2     0.900000E-01   1.00800           0
     16502 MEMB     99       SAPE     H10Y     HAL2     0.900000E-01   1.00800           0
     16503 MEMB     99       SAPE     C311     CTL2    -0.180000       12.0110           0
     16504 MEMB     99       SAPE     H11X     HAL2     0.900000E-01   1.00800           0
     16505 MEMB     99       SAPE     H11Y     HAL2     0.900000E-01   1.00800           0
     16506 MEMB     99       SAPE     C312     CTL2    -0.180000       12.0110           0
     16507 MEMB     99       SAPE     H12X     HAL2     0.900000E-01   1.00800           0
     16508 MEMB     99       SAPE     H12Y     HAL2     0.900000E-01   1.00800           0
     16509 MEMB     99       SAPE     C313     CTL2    -0.180000       12.0110           0
     16510 MEMB     99       SAPE     H13X     HAL2     0.900000E-01   1.00800           0
     16511 MEMB     99       SAPE     H13Y     HAL2     0.900000E-01   1.00800           0
     16512 MEMB     99       SAPE     C314     CTL2    -0.180000       12.0110           0
     16513 MEMB     99       SAPE     H14X     HAL2     0.900000E-01   1.00800           0
     16514 MEMB     99       SAPE     H14Y     HAL2     0.900000E-01   1.00800           0
     16515 MEMB     99       SAPE     C315     CTL2    -0.180000       12.0110           0
     16516 MEMB     99       SAPE     H15X     HAL2     0.900000E-01   1.00800           0
     16517 MEMB     99       SAPE     H15Y     HAL2     0.900000E-01   1.00800           0
     16518 MEMB     99       SAPE     C316     CTL2    -0.180000       12.0110           0
     16519 MEMB     99       SAPE     H16X     HAL2     0.900000E-01   1.00800           0
     16520 MEMB     99       SAPE     H16Y     HAL2     0.900000E-01   1.00800           0
     16521 MEMB     99       SAPE     C317     CTL2    -0.180000       12.0110           0
     16522 MEMB     99       SAPE     H17X     HAL2     0.900000E-01   1.00800           0
     16523 MEMB     99       SAPE     H17Y     HAL2     0.900000E-01   1.00800           0
     16524 MEMB     99       SAPE     C318     CTL3    -0.270000       12.0110           0
     16525 MEMB     99       SAPE     H18X     HAL3     0.900000E-01   1.00800           0
     16526 MEMB     99       SAPE     H18Y     HAL3     0.900000E-01   1.00800           0
     16527 MEMB     99       SAPE     H18Z     HAL3     0.900000E-01   1.00800           0
     16528 MEMB     108      SAPE     N        NH3L    -0.300000       14.0070           0
     16529 MEMB     108      SAPE     HN1      HCL      0.330000       1.00800           0
     16530 MEMB     108      SAPE     HN2      HCL      0.330000       1.00800           0
     16531 MEMB     108      SAPE     HN3      HCL      0.330000       1.00800           0
     16532 MEMB     108      SAPE     C12      CTL2     0.130000       12.0110           0
     16533 MEMB     108      SAPE     H12A     HAL2     0.900000E-01   1.00800           0
     16534 MEMB     108      SAPE     H12B     HAL2     0.900000E-01   1.00800           0
     16535 MEMB     108      SAPE     C11      CTL2    -0.800000E-01   12.0110           0
     16536 MEMB     108      SAPE     H11A     HAL2     0.900000E-01   1.00800           0
     16537 MEMB     108      SAPE     H11B     HAL2     0.900000E-01   1.00800           0
     16538 MEMB     108      SAPE     P        PL       1.500000       30.9740           0
     16539 MEMB     108      SAPE     O13      O2L     -0.780000       15.9994           0
     16540 MEMB     108      SAPE     O14      O2L     -0.780000       15.9994           0
     16541 MEMB     108      SAPE     O12      OSLP    -0.570000       15.9994           0
     16542 MEMB     108      SAPE     O11      OSLP    -0.570000       15.9994           0
     16543 MEMB     108      SAPE     C1       CTL2    -0.800000E-01   12.0110           0
     16544 MEMB     108      SAPE     HA       HAL2     0.900000E-01   1.00800           0
     16545 MEMB     108      SAPE     HB       HAL2     0.900000E-01   1.00800           0
     16546 MEMB     108      SAPE     C2       CTL1     0.170000       12.0110           0
     16547 MEMB     108      SAPE     HS       HAL1     0.900000E-01   1.00800           0
     16548 MEMB     108      SAPE     O21      OSL     -0.490000       15.9994           0
     16549 MEMB     108      SAPE     C21      CL       0.900000       12.0110           0
     16550 MEMB     108      SAPE     O22      OBL     -0.630000       15.9994           0
     16551 MEMB     108      SAPE     C22      CTL2    -0.220000       12.0110           0
     16552 MEMB     108      SAPE     H2R      HAL2     0.900000E-01   1.00800           0
     16553 MEMB     108      SAPE     H2S      HAL2     0.900000E-01   1.00800           0
     16554 MEMB     108      SAPE     C3       CTL2     0.800000E-01   12.0110           0
     16555 MEMB     108      SAPE     HX       HAL2     0.900000E-01   1.00800           0
     16556 MEMB     108      SAPE     HY       HAL2     0.900000E-01   1.00800           0
     16557 MEMB     108      SAPE     O31      OSL     -0.490000       15.9994           0
     16558 MEMB     108      SAPE     C31      CL       0.900000       12.0110           0
     16559 MEMB     108      SAPE     O32      OBL     -0.630000       15.9994           0
     16560 MEMB     108      SAPE     C32      CTL2    -0.220000       12.0110           0
     16561 MEMB     108      SAPE     H2X      HAL2     0.900000E-01   1.00800           0
     16562 MEMB     108      SAPE     H2Y      HAL2     0.900000E-01   1.00800           0
     16563 MEMB     108      SAPE     C23      CTL2    -0.180000       12.0110           0
     16564 MEMB     108      SAPE     H3R      HAL2     0.900000E-01   1.00800           0
     16565 MEMB     108      SAPE     H3S      HAL2     0.900000E-01   1.00800           0
     16566 MEMB     108      SAPE     C24      CTL2    -0.180000       12.0110           0
     16567 MEMB     108      SAPE     H4R      HAL2     0.900000E-01   1.00800           0
     16568 MEMB     108      SAPE     H4S      HAL2     0.900000E-01   1.00800           0
     16569 MEMB     108      SAPE     C25      CEL1    -0.150000       12.0110           0
     16570 MEMB     108      SAPE     H5R      HEL1     0.150000       1.00800           0
     16571 MEMB     108      SAPE     C26      CEL1    -0.150000       12.0110           0
     16572 MEMB     108      SAPE     H6R      HEL1     0.150000       1.00800           0
     16573 MEMB     108      SAPE     C27      CTL2    -0.180000       12.0110           0
     16574 MEMB     108      SAPE     H7R      HAL2     0.900000E-01   1.00800           0
     16575 MEMB     108      SAPE     H7S      HAL2     0.900000E-01   1.00800           0
     16576 MEMB     108      SAPE     C28      CEL1    -0.150000       12.0110           0
     16577 MEMB     108      SAPE     H8R      HEL1     0.150000       1.00800           0
     16578 MEMB     108      SAPE     C29      CEL1    -0.150000       12.0110           0
     16579 MEMB     108      SAPE     H9R      HEL1     0.150000       1.00800           0
     16580 MEMB     108      SAPE     C210     CTL2    -0.180000       12.0110           0
     16581 MEMB     108      SAPE     H10R     HAL2     0.900000E-01   1.00800           0
     16582 MEMB     108      SAPE     H10S     HAL2     0.900000E-01   1.00800           0
     16583 MEMB     108      SAPE     C211     CEL1    -0.150000       12.0110           0
     16584 MEMB     108      SAPE     H11R     HEL1     0.150000       1.00800           0
     16585 MEMB     108      SAPE     C212     CEL1    -0.150000       12.0110           0
     16586 MEMB     108      SAPE     H12R     HEL1     0.150000       1.00800           0
     16587 MEMB     108      SAPE     C213     CTL2    -0.180000       12.0110           0
     16588 MEMB     108      SAPE     H13R     HAL2     0.900000E-01   1.00800           0
     16589 MEMB     108      SAPE     H13S     HAL2     0.900000E-01   1.00800           0
     16590 MEMB     108      SAPE     C214     CEL1    -0.150000       12.0110           0
     16591 MEMB     108      SAPE     H14R     HEL1     0.150000       1.00800           0
     16592 MEMB     108      SAPE     C215     CEL1    -0.150000       12.0110           0
     16593 MEMB     108      SAPE     H15R     HEL1     0.150000       1.00800           0
     16594 MEMB     108      SAPE     C216     CTL2    -0.180000       12.0110           0
     16595 MEMB     108      SAPE     H16R     HAL2     0.900000E-01   1.00800           0
     16596 MEMB     108      SAPE     H16S     HAL2     0.900000E-01   1.00800           0
     16597 MEMB     108      SAPE     C217     CTL2    -0.180000       12.0110           0
     16598 MEMB     108      SAPE     H17R     HAL2     0.900000E-01   1.00800           0
     16599 MEMB     108      SAPE     H17S     HAL2     0.900000E-01   1.00800           0
     16600 MEMB     108      SAPE     C218     CTL2    -0.180000       12.0110           0
     16601 MEMB     108      SAPE     H18R     HAL2     0.900000E-01   1.00800           0
     16602 MEMB     108      SAPE     H18S     HAL2     0.900000E-01   1.00800           0
     16603 MEMB     108      SAPE     C219     CTL2    -0.180000       12.0110           0
     16604 MEMB     108      SAPE     H19R     HAL2     0.900000E-01   1.00800           0
     16605 MEMB     108      SAPE     H19S     HAL2     0.900000E-01   1.00800           0
     16606 MEMB     108      SAPE     C220     CTL3    -0.270000       12.0110           0
     16607 MEMB     108      SAPE     H20R     HAL3     0.900000E-01   1.00800           0
     16608 MEMB     108      SAPE     H20S     HAL3     0.900000E-01   1.00800           0
     16609 MEMB     108      SAPE     H20T     HAL3     0.900000E-01   1.00800           0
     16610 MEMB     108      SAPE     C33      CTL2    -0.180000       12.0110           0
     16611 MEMB     108      SAPE     H3X      HAL2     0.900000E-01   1.00800           0
     16612 MEMB     108      SAPE     H3Y      HAL2     0.900000E-01   1.00800           0
     16613 MEMB     108      SAPE     C34      CTL2    -0.180000       12.0110           0
     16614 MEMB     108      SAPE     H4X      HAL2     0.900000E-01   1.00800           0
     16615 MEMB     108      SAPE     H4Y      HAL2     0.900000E-01   1.00800           0
     16616 MEMB     108      SAPE     C35      CTL2    -0.180000       12.0110           0
     16617 MEMB     108      SAPE     H5X      HAL2     0.900000E-01   1.00800           0
     16618 MEMB     108      SAPE     H5Y      HAL2     0.900000E-01   1.00800           0
     16619 MEMB     108      SAPE     C36      CTL2    -0.180000       12.0110           0
     16620 MEMB     108      SAPE     H6X      HAL2     0.900000E-01   1.00800           0
     16621 MEMB     108      SAPE     H6Y      HAL2     0.900000E-01   1.00800           0
     16622 MEMB     108      SAPE     C37      CTL2    -0.180000       12.0110           0
     16623 MEMB     108      SAPE     H7X      HAL2     0.900000E-01   1.00800           0
     16624 MEMB     108      SAPE     H7Y      HAL2     0.900000E-01   1.00800           0
     16625 MEMB     108      SAPE     C38      CTL2    -0.180000       12.0110           0
     16626 MEMB     108      SAPE     H8X      HAL2     0.900000E-01   1.00800           0
     16627 MEMB     108      SAPE     H8Y      HAL2     0.900000E-01   1.00800           0
     16628 MEMB     108      SAPE     C39      CTL2    -0.180000       12.0110           0
     16629 MEMB     108      SAPE     H9X      HAL2     0.900000E-01   1.00800           0
     16630 MEMB     108      SAPE     H9Y      HAL2     0.900000E-01   1.00800           0
     16631 MEMB     108      SAPE     C310     CTL2    -0.180000       12.0110           0
     16632 MEMB     108      SAPE     H10X     HAL2     0.900000E-01   1.00800           0
     16633 MEMB     108      SAPE     H10Y     HAL2     0.900000E-01   1.00800           0
     16634 MEMB     108      SAPE     C311     CTL2    -0.180000       12.0110           0
     16635 MEMB     108      SAPE     H11X     HAL2     0.900000E-01   1.00800           0
     16636 MEMB     108      SAPE     H11Y     HAL2     0.900000E-01   1.00800           0
     16637 MEMB     108      SAPE     C312     CTL2    -0.180000       12.0110           0
     16638 MEMB     108      SAPE     H12X     HAL2     0.900000E-01   1.00800           0
     16639 MEMB     108      SAPE     H12Y     HAL2     0.900000E-01   1.00800           0
     16640 MEMB     108      SAPE     C313     CTL2    -0.180000       12.0110           0
     16641 MEMB     108      SAPE     H13X     HAL2     0.900000E-01   1.00800           0
     16642 MEMB     108      SAPE     H13Y     HAL2     0.900000E-01   1.00800           0
     16643 MEMB     108      SAPE     C314     CTL2    -0.180000       12.0110           0
     16644 MEMB     108      SAPE     H14X     HAL2     0.900000E-01   1.00800           0
     16645 MEMB     108      SAPE     H14Y     HAL2     0.900000E-01   1.00800           0
     16646 MEMB     108      SAPE     C315     CTL2    -0.180000       12.0110           0
     16647 MEMB     108      SAPE     H15X     HAL2     0.900000E-01   1.00800           0
     16648 MEMB     108      SAPE     H15Y     HAL2     0.900000E-01   1.00800           0
     16649 MEMB     108      SAPE     C316     CTL2    -0.180000       12.0110           0
     16650 MEMB     108      SAPE     H16X     HAL2     0.900000E-01   1.00800           0
     16651 MEMB     108      SAPE     H16Y     HAL2     0.900000E-01   1.00800           0
     16652 MEMB     108      SAPE     C317     CTL2    -0.180000       12.0110           0
     16653 MEMB     108      SAPE     H17X     HAL2     0.900000E-01   1.00800           0
     16654 MEMB     108      SAPE     H17Y     HAL2     0.900000E-01   1.00800           0
     16655 MEMB     108      SAPE     C318     CTL3    -0.270000       12.0110           0
     16656 MEMB     108      SAPE     H18X     HAL3     0.900000E-01   1.00800           0
     16657 MEMB     108      SAPE     H18Y     HAL3     0.900000E-01   1.00800           0
     16658 MEMB     108      SAPE     H18Z     HAL3     0.900000E-01   1.00800           0
     16659 MEMB     120      SAPE     N        NH3L    -0.300000       14.0070           0
     16660 MEMB     120      SAPE     HN1      HCL      0.330000       1.00800           0
     16661 MEMB     120      SAPE     HN2      HCL      0.330000       1.00800           0
     16662 MEMB     120      SAPE     HN3      HCL      0.330000       1.00800           0
     16663 MEMB     120      SAPE     C12      CTL2     0.130000       12.0110           0
     16664 MEMB     120      SAPE     H12A     HAL2     0.900000E-01   1.00800           0
     16665 MEMB     120      SAPE     H12B     HAL2     0.900000E-01   1.00800           0
     16666 MEMB     120      SAPE     C11      CTL2    -0.800000E-01   12.0110           0
     16667 MEMB     120      SAPE     H11A     HAL2     0.900000E-01   1.00800           0
     16668 MEMB     120      SAPE     H11B     HAL2     0.900000E-01   1.00800           0
     16669 MEMB     120      SAPE     P        PL       1.500000       30.9740           0
     16670 MEMB     120      SAPE     O13      O2L     -0.780000       15.9994           0
     16671 MEMB     120      SAPE     O14      O2L     -0.780000       15.9994           0
     16672 MEMB     120      SAPE     O12      OSLP    -0.570000       15.9994           0
     16673 MEMB     120      SAPE     O11      OSLP    -0.570000       15.9994           0
     16674 MEMB     120      SAPE     C1       CTL2    -0.800000E-01   12.0110           0
     16675 MEMB     120      SAPE     HA       HAL2     0.900000E-01   1.00800           0
     16676 MEMB     120      SAPE     HB       HAL2     0.900000E-01   1.00800           0
     16677 MEMB     120      SAPE     C2       CTL1     0.170000       12.0110           0
     16678 MEMB     120      SAPE     HS       HAL1     0.900000E-01   1.00800           0
     16679 MEMB     120      SAPE     O21      OSL     -0.490000       15.9994           0
     16680 MEMB     120      SAPE     C21      CL       0.900000       12.0110           0
     16681 MEMB     120      SAPE     O22      OBL     -0.630000       15.9994           0
     16682 MEMB     120      SAPE     C22      CTL2    -0.220000       12.0110           0
     16683 MEMB     120      SAPE     H2R      HAL2     0.900000E-01   1.00800           0
     16684 MEMB     120      SAPE     H2S      HAL2     0.900000E-01   1.00800           0
     16685 MEMB     120      SAPE     C3       CTL2     0.800000E-01   12.0110           0
     16686 MEMB     120      SAPE     HX       HAL2     0.900000E-01   1.00800           0
     16687 MEMB     120      SAPE     HY       HAL2     0.900000E-01   1.00800           0
     16688 MEMB     120      SAPE     O31      OSL     -0.490000       15.9994           0
     16689 MEMB     120      SAPE     C31      CL       0.900000       12.0110           0
     16690 MEMB     120      SAPE     O32      OBL     -0.630000       15.9994           0
     16691 MEMB     120      SAPE     C32      CTL2    -0.220000       12.0110           0
     16692 MEMB     120      SAPE     H2X      HAL2     0.900000E-01   1.00800           0
     16693 MEMB     120      SAPE     H2Y      HAL2     0.900000E-01   1.00800           0
     16694 MEMB     120      SAPE     C23      CTL2    -0.180000       12.0110           0
     16695 MEMB     120      SAPE     H3R      HAL2     0.900000E-01   1.00800           0
     16696 MEMB     120      SAPE     H3S      HAL2     0.900000E-01   1.00800           0
     16697 MEMB     120      SAPE     C24      CTL2    -0.180000       12.0110           0
     16698 MEMB     120      SAPE     H4R      HAL2     0.900000E-01   1.00800           0
     16699 MEMB     120      SAPE     H4S      HAL2     0.900000E-01   1.00800           0
     16700 MEMB     120      SAPE     C25      CEL1    -0.150000       12.0110           0
     16701 MEMB     120      SAPE     H5R      HEL1     0.150000       1.00800           0
     16702 MEMB     120      SAPE     C26      CEL1    -0.150000       12.0110           0
     16703 MEMB     120      SAPE     H6R      HEL1     0.150000       1.00800           0
     16704 MEMB     120      SAPE     C27      CTL2    -0.180000       12.0110           0
     16705 MEMB     120      SAPE     H7R      HAL2     0.900000E-01   1.00800           0
     16706 MEMB     120      SAPE     H7S      HAL2     0.900000E-01   1.00800           0
     16707 MEMB     120      SAPE     C28      CEL1    -0.150000       12.0110           0
     16708 MEMB     120      SAPE     H8R      HEL1     0.150000       1.00800           0
     16709 MEMB     120      SAPE     C29      CEL1    -0.150000       12.0110           0
     16710 MEMB     120      SAPE     H9R      HEL1     0.150000       1.00800           0
     16711 MEMB     120      SAPE     C210     CTL2    -0.180000       12.0110           0
     16712 MEMB     120      SAPE     H10R     HAL2     0.900000E-01   1.00800           0
     16713 MEMB     120      SAPE     H10S     HAL2     0.900000E-01   1.00800           0
     16714 MEMB     120      SAPE     C211     CEL1    -0.150000       12.0110           0
     16715 MEMB     120      SAPE     H11R     HEL1     0.150000       1.00800           0
     16716 MEMB     120      SAPE     C212     CEL1    -0.150000       12.0110           0
     16717 MEMB     120      SAPE     H12R     HEL1     0.150000       1.00800           0
     16718 MEMB     120      SAPE     C213     CTL2    -0.180000       12.0110           0
     16719 MEMB     120      SAPE     H13R     HAL2     0.900000E-01   1.00800           0
     16720 MEMB     120      SAPE     H13S     HAL2     0.900000E-01   1.00800           0
     16721 MEMB     120      SAPE     C214     CEL1    -0.150000       12.0110           0
     16722 MEMB     120      SAPE     H14R     HEL1     0.150000       1.00800           0
     16723 MEMB     120      SAPE     C215     CEL1    -0.150000       12.0110           0
     16724 MEMB     120      SAPE     H15R     HEL1     0.150000       1.00800           0
     16725 MEMB     120      SAPE     C216     CTL2    -0.180000       12.0110           0
     16726 MEMB     120      SAPE     H16R     HAL2     0.900000E-01   1.00800           0
     16727 MEMB     120      SAPE     H16S     HAL2     0.900000E-01   1.00800           0
     16728 MEMB     120      SAPE     C217     CTL2    -0.180000       12.0110           0
     16729 MEMB     120      SAPE     H17R     HAL2     0.900000E-01   1.00800           0
     16730 MEMB     120      SAPE     H17S     HAL2     0.900000E-01   1.00800           0
     16731 MEMB     120      SAPE     C218     CTL2    -0.180000       12.0110           0
     16732 MEMB     120      SAPE     H18R     HAL2     0.900000E-01   1.00800           0
     16733 MEMB     120      SAPE     H18S     HAL2     0.900000E-01   1.00800           0
     16734 MEMB     120      SAPE     C219     CTL2    -0.180000       12.0110           0
     16735 MEMB     120      SAPE     H19R     HAL2     0.900000E-01   1.00800           0
     16736 MEMB     120      SAPE     H19S     HAL2     0.900000E-01   1.00800           0
     16737 MEMB     120      SAPE     C220     CTL3    -0.270000       12.0110           0
     16738 MEMB     120      SAPE     H20R     HAL3     0.900000E-01   1.00800           0
     16739 MEMB     120      SAPE     H20S     HAL3     0.900000E-01   1.00800           0
     16740 MEMB     120      SAPE     H20T     HAL3     0.900000E-01   1.00800           0
     16741 MEMB     120      SAPE     C33      CTL2    -0.180000       12.0110           0
     16742 MEMB     120      SAPE     H3X      HAL2     0.900000E-01   1.00800           0
     16743 MEMB     120      SAPE     H3Y      HAL2     0.900000E-01   1.00800           0
     16744 MEMB     120      SAPE     C34      CTL2    -0.180000       12.0110           0
     16745 MEMB     120      SAPE     H4X      HAL2     0.900000E-01   1.00800           0
     16746 MEMB     120      SAPE     H4Y      HAL2     0.900000E-01   1.00800           0
     16747 MEMB     120      SAPE     C35      CTL2    -0.180000       12.0110           0
     16748 MEMB     120      SAPE     H5X      HAL2     0.900000E-01   1.00800           0
     16749 MEMB     120      SAPE     H5Y      HAL2     0.900000E-01   1.00800           0
     16750 MEMB     120      SAPE     C36      CTL2    -0.180000       12.0110           0
     16751 MEMB     120      SAPE     H6X      HAL2     0.900000E-01   1.00800           0
     16752 MEMB     120      SAPE     H6Y      HAL2     0.900000E-01   1.00800           0
     16753 MEMB     120      SAPE     C37      CTL2    -0.180000       12.0110           0
     16754 MEMB     120      SAPE     H7X      HAL2     0.900000E-01   1.00800           0
     16755 MEMB     120      SAPE     H7Y      HAL2     0.900000E-01   1.00800           0
     16756 MEMB     120      SAPE     C38      CTL2    -0.180000       12.0110           0
     16757 MEMB     120      SAPE     H8X      HAL2     0.900000E-01   1.00800           0
     16758 MEMB     120      SAPE     H8Y      HAL2     0.900000E-01   1.00800           0
     16759 MEMB     120      SAPE     C39      CTL2    -0.180000       12.0110           0
     16760 MEMB     120      SAPE     H9X      HAL2     0.900000E-01   1.00800           0
     16761 MEMB     120      SAPE     H9Y      HAL2     0.900000E-01   1.00800           0
     16762 MEMB     120      SAPE     C310     CTL2    -0.180000       12.0110           0
     16763 MEMB     120      SAPE     H10X     HAL2     0.900000E-01   1.00800           0
     16764 MEMB     120      SAPE     H10Y     HAL2     0.900000E-01   1.00800           0
     16765 MEMB     120      SAPE     C311     CTL2    -0.180000       12.0110           0
     16766 MEMB     120      SAPE     H11X     HAL2     0.900000E-01   1.00800           0
     16767 MEMB     120      SAPE     H11Y     HAL2     0.900000E-01   1.00800           0
     16768 MEMB     120      SAPE     C312     CTL2    -0.180000       12.0110           0
     16769 MEMB     120      SAPE     H12X     HAL2     0.900000E-01   1.00800           0
     16770 MEMB     120      SAPE     H12Y     HAL2     0.900000E-01   1.00800           0
     16771 MEMB     120      SAPE     C313     CTL2    -0.180000       12.0110           0
     16772 MEMB     120      SAPE     H13X     HAL2     0.900000E-01   1.00800           0
     16773 MEMB     120      SAPE     H13Y     HAL2     0.900000E-01   1.00800           0
     16774 MEMB     120      SAPE     C314     CTL2    -0.180000       12.0110           0
     16775 MEMB     120      SAPE     H14X     HAL2     0.900000E-01   1.00800           0
     16776 MEMB     120      SAPE     H14Y     HAL2     0.900000E-01   1.00800           0
     16777 MEMB     120      SAPE     C315     CTL2    -0.180000       12.0110           0
     16778 MEMB     120      SAPE     H15X     HAL2     0.900000E-01   1.00800           0
     16779 MEMB     120      SAPE     H15Y     HAL2     0.900000E-01   1.00800           0
     16780 MEMB     120      SAPE     C316     CTL2    -0.180000       12.0110           0
     16781 MEMB     120      SAPE     H16X     HAL2     0.900000E-01   1.00800           0
     16782 MEMB     120      SAPE     H16Y     HAL2     0.900000E-01   1.00800           0
     16783 MEMB     120      SAPE     C317     CTL2    -0.180000       12.0110           0
     16784 MEMB     120      SAPE     H17X     HAL2     0.900000E-01   1.00800           0
     16785 MEMB     120      SAPE     H17Y     HAL2     0.900000E-01   1.00800           0
     16786 MEMB     120      SAPE     C318     CTL3    -0.270000       12.0110           0
     16787 MEMB     120      SAPE     H18X     HAL3     0.900000E-01   1.00800           0
     16788 MEMB     120      SAPE     H18Y     HAL3     0.900000E-01   1.00800           0
     16789 MEMB     120      SAPE     H18Z     HAL3     0.900000E-01   1.00800           0
     16790 MEMB     123      SAPE     N        NH3L    -0.300000       14.0070           0
     16791 MEMB     123      SAPE     HN1      HCL      0.330000       1.00800           0
     16792 MEMB     123      SAPE     HN2      HCL      0.330000       1.00800           0
     16793 MEMB     123      SAPE     HN3      HCL      0.330000       1.00800           0
     16794 MEMB     123      SAPE     C12      CTL2     0.130000       12.0110           0
     16795 MEMB     123      SAPE     H12A     HAL2     0.900000E-01   1.00800           0
     16796 MEMB     123      SAPE     H12B     HAL2     0.900000E-01   1.00800           0
     16797 MEMB     123      SAPE     C11      CTL2    -0.800000E-01   12.0110           0
     16798 MEMB     123      SAPE     H11A     HAL2     0.900000E-01   1.00800           0
     16799 MEMB     123      SAPE     H11B     HAL2     0.900000E-01   1.00800           0
     16800 MEMB     123      SAPE     P        PL       1.500000       30.9740           0
     16801 MEMB     123      SAPE     O13      O2L     -0.780000       15.9994           0
     16802 MEMB     123      SAPE     O14      O2L     -0.780000       15.9994           0
     16803 MEMB     123      SAPE     O12      OSLP    -0.570000       15.9994           0
     16804 MEMB     123      SAPE     O11      OSLP    -0.570000       15.9994           0
     16805 MEMB     123      SAPE     C1       CTL2    -0.800000E-01   12.0110           0
     16806 MEMB     123      SAPE     HA       HAL2     0.900000E-01   1.00800           0
     16807 MEMB     123      SAPE     HB       HAL2     0.900000E-01   1.00800           0
     16808 MEMB     123      SAPE     C2       CTL1     0.170000       12.0110           0
     16809 MEMB     123      SAPE     HS       HAL1     0.900000E-01   1.00800           0
     16810 MEMB     123      SAPE     O21      OSL     -0.490000       15.9994           0
     16811 MEMB     123      SAPE     C21      CL       0.900000       12.0110           0
     16812 MEMB     123      SAPE     O22      OBL     -0.630000       15.9994           0
     16813 MEMB     123      SAPE     C22      CTL2    -0.220000       12.0110           0
     16814 MEMB     123      SAPE     H2R      HAL2     0.900000E-01   1.00800           0
     16815 MEMB     123      SAPE     H2S      HAL2     0.900000E-01   1.00800           0
     16816 MEMB     123      SAPE     C3       CTL2     0.800000E-01   12.0110           0
     16817 MEMB     123      SAPE     HX       HAL2     0.900000E-01   1.00800           0
     16818 MEMB     123      SAPE     HY       HAL2     0.900000E-01   1.00800           0
     16819 MEMB     123      SAPE     O31      OSL     -0.490000       15.9994           0
     16820 MEMB     123      SAPE     C31      CL       0.900000       12.0110           0
     16821 MEMB     123      SAPE     O32      OBL     -0.630000       15.9994           0
     16822 MEMB     123      SAPE     C32      CTL2    -0.220000       12.0110           0
     16823 MEMB     123      SAPE     H2X      HAL2     0.900000E-01   1.00800           0
     16824 MEMB     123      SAPE     H2Y      HAL2     0.900000E-01   1.00800           0
     16825 MEMB     123      SAPE     C23      CTL2    -0.180000       12.0110           0
     16826 MEMB     123      SAPE     H3R      HAL2     0.900000E-01   1.00800           0
     16827 MEMB     123      SAPE     H3S      HAL2     0.900000E-01   1.00800           0
     16828 MEMB     123      SAPE     C24      CTL2    -0.180000       12.0110           0
     16829 MEMB     123      SAPE     H4R      HAL2     0.900000E-01   1.00800           0
     16830 MEMB     123      SAPE     H4S      HAL2     0.900000E-01   1.00800           0
     16831 MEMB     123      SAPE     C25      CEL1    -0.150000       12.0110           0
     16832 MEMB     123      SAPE     H5R      HEL1     0.150000       1.00800           0
     16833 MEMB     123      SAPE     C26      CEL1    -0.150000       12.0110           0
     16834 MEMB     123      SAPE     H6R      HEL1     0.150000       1.00800           0
     16835 MEMB     123      SAPE     C27      CTL2    -0.180000       12.0110           0
     16836 MEMB     123      SAPE     H7R      HAL2     0.900000E-01   1.00800           0
     16837 MEMB     123      SAPE     H7S      HAL2     0.900000E-01   1.00800           0
     16838 MEMB     123      SAPE     C28      CEL1    -0.150000       12.0110           0
     16839 MEMB     123      SAPE     H8R      HEL1     0.150000       1.00800           0
     16840 MEMB     123      SAPE     C29      CEL1    -0.150000       12.0110           0
     16841 MEMB     123      SAPE     H9R      HEL1     0.150000       1.00800           0
     16842 MEMB     123      SAPE     C210     CTL2    -0.180000       12.0110           0
     16843 MEMB     123      SAPE     H10R     HAL2     0.900000E-01   1.00800           0
     16844 MEMB     123      SAPE     H10S     HAL2     0.900000E-01   1.00800           0
     16845 MEMB     123      SAPE     C211     CEL1    -0.150000       12.0110           0
     16846 MEMB     123      SAPE     H11R     HEL1     0.150000       1.00800           0
     16847 MEMB     123      SAPE     C212     CEL1    -0.150000       12.0110           0
     16848 MEMB     123      SAPE     H12R     HEL1     0.150000       1.00800           0
     16849 MEMB     123      SAPE     C213     CTL2    -0.180000       12.0110           0
     16850 MEMB     123      SAPE     H13R     HAL2     0.900000E-01   1.00800           0
     16851 MEMB     123      SAPE     H13S     HAL2     0.900000E-01   1.00800           0
     16852 MEMB     123      SAPE     C214     CEL1    -0.150000       12.0110           0
     16853 MEMB     123      SAPE     H14R     HEL1     0.150000       1.00800           0
     16854 MEMB     123      SAPE     C215     CEL1    -0.150000       12.0110           0
     16855 MEMB     123      SAPE     H15R     HEL1     0.150000       1.00800           0
     16856 MEMB     123      SAPE     C216     CTL2    -0.180000       12.0110           0
     16857 MEMB     123      SAPE     H16R     HAL2     0.900000E-01   1.00800           0
     16858 MEMB     123      SAPE     H16S     HAL2     0.900000E-01   1.00800           0
     16859 MEMB     123      SAPE     C217     CTL2    -0.180000       12.0110           0
     16860 MEMB     123      SAPE     H17R     HAL2     0.900000E-01   1.00800           0
     16861 MEMB     123      SAPE     H17S     HAL2     0.900000E-01   1.00800           0
     16862 MEMB     123      SAPE     C218     CTL2    -0.180000       12.0110           0
     16863 MEMB     123      SAPE     H18R     HAL2     0.900000E-01   1.00800           0
     16864 MEMB     123      SAPE     H18S     HAL2     0.900000E-01   1.00800           0
     16865 MEMB     123      SAPE     C219     CTL2    -0.180000       12.0110           0
     16866 MEMB     123      SAPE     H19R     HAL2     0.900000E-01   1.00800           0
     16867 MEMB     123      SAPE     H19S     HAL2     0.900000E-01   1.00800           0
     16868 MEMB     123      SAPE     C220     CTL3    -0.270000       12.0110           0
     16869 MEMB     123      SAPE     H20R     HAL3     0.900000E-01   1.00800           0
     16870 MEMB     123      SAPE     H20S     HAL3     0.900000E-01   1.00800           0
     16871 MEMB     123      SAPE     H20T     HAL3     0.900000E-01   1.00800           0
     16872 MEMB     123      SAPE     C33      CTL2    -0.180000       12.0110           0
     16873 MEMB     123      SAPE     H3X      HAL2     0.900000E-01   1.00800           0
     16874 MEMB     123      SAPE     H3Y      HAL2     0.900000E-01   1.00800           0
     16875 MEMB     123      SAPE     C34      CTL2    -0.180000       12.0110           0
     16876 MEMB     123      SAPE     H4X      HAL2     0.900000E-01   1.00800           0
     16877 MEMB     123      SAPE     H4Y      HAL2     0.900000E-01   1.00800           0
     16878 MEMB     123      SAPE     C35      CTL2    -0.180000       12.0110           0
     16879 MEMB     123      SAPE     H5X      HAL2     0.900000E-01   1.00800           0
     16880 MEMB     123      SAPE     H5Y      HAL2     0.900000E-01   1.00800           0
     16881 MEMB     123      SAPE     C36      CTL2    -0.180000       12.0110           0
     16882 MEMB     123      SAPE     H6X      HAL2     0.900000E-01   1.00800           0
     16883 MEMB     123      SAPE     H6Y      HAL2     0.900000E-01   1.00800           0
     16884 MEMB     123      SAPE     C37      CTL2    -0.180000       12.0110           0
     16885 MEMB     123      SAPE     H7X      HAL2     0.900000E-01   1.00800           0
     16886 MEMB     123      SAPE     H7Y      HAL2     0.900000E-01   1.00800           0
     16887 MEMB     123      SAPE     C38      CTL2    -0.180000       12.0110           0
     16888 MEMB     123      SAPE     H8X      HAL2     0.900000E-01   1.00800           0
     16889 MEMB     123      SAPE     H8Y      HAL2     0.900000E-01   1.00800           0
     16890 MEMB     123      SAPE     C39      CTL2    -0.180000       12.0110           0
     16891 MEMB     123      SAPE     H9X      HAL2     0.900000E-01   1.00800           0
     16892 MEMB     123      SAPE     H9Y      HAL2     0.900000E-01   1.00800           0
     16893 MEMB     123      SAPE     C310     CTL2    -0.180000       12.0110           0
     16894 MEMB     123      SAPE     H10X     HAL2     0.900000E-01   1.00800           0
     16895 MEMB     123      SAPE     H10Y     HAL2     0.900000E-01   1.00800           0
     16896 MEMB     123      SAPE     C311     CTL2    -0.180000       12.0110           0
     16897 MEMB     123      SAPE     H11X     HAL2     0.900000E-01   1.00800           0
     16898 MEMB     123      SAPE     H11Y     HAL2     0.900000E-01   1.00800           0
     16899 MEMB     123      SAPE     C312     CTL2    -0.180000       12.0110           0
     16900 MEMB     123      SAPE     H12X     HAL2     0.900000E-01   1.00800           0
     16901 MEMB     123      SAPE     H12Y     HAL2     0.900000E-01   1.00800           0
     16902 MEMB     123      SAPE     C313     CTL2    -0.180000       12.0110           0
     16903 MEMB     123      SAPE     H13X     HAL2     0.900000E-01   1.00800           0
     16904 MEMB     123      SAPE     H13Y     HAL2     0.900000E-01   1.00800           0
     16905 MEMB     123      SAPE     C314     CTL2    -0.180000       12.0110           0
     16906 MEMB     123      SAPE     H14X     HAL2     0.900000E-01   1.00800           0
     16907 MEMB     123      SAPE     H14Y     HAL2     0.900000E-01   1.00800           0
     16908 MEMB     123      SAPE     C315     CTL2    -0.180000       12.0110           0
     16909 MEMB     123      SAPE     H15X     HAL2     0.900000E-01   1.00800           0
     16910 MEMB     123      SAPE     H15Y     HAL2     0.900000E-01   1.00800           0
     16911 MEMB     123      SAPE     C316     CTL2    -0.180000       12.0110           0
     16912 MEMB     123      SAPE     H16X     HAL2     0.900000E-01   1.00800           0
     16913 MEMB     123      SAPE     H16Y     HAL2     0.900000E-01   1.00800           0
     16914 MEMB     123      SAPE     C317     CTL2    -0.180000       12.0110           0
     16915 MEMB     123      SAPE     H17X     HAL2     0.900000E-01   1.00800           0
     16916 MEMB     123      SAPE     H17Y     HAL2     0.900000E-01   1.00800           0
     16917 MEMB     123      SAPE     C318     CTL3    -0.270000       12.0110           0
     16918 MEMB     123      SAPE     H18X     HAL3     0.900000E-01   1.00800           0
     16919 MEMB     123      SAPE     H18Y     HAL3     0.900000E-01   1.00800           0
     16920 MEMB     123      SAPE     H18Z     HAL3     0.900000E-01   1.00800           0
     16921 MEMB     131      SAPE     N        NH3L    -0.300000       14.0070           0
     16922 MEMB     131      SAPE     HN1      HCL      0.330000       1.00800           0
     16923 MEMB     131      SAPE     HN2      HCL      0.330000       1.00800           0
     16924 MEMB     131      SAPE     HN3      HCL      0.330000       1.00800           0
     16925 MEMB     131      SAPE     C12      CTL2     0.130000       12.0110           0
     16926 MEMB     131      SAPE     H12A     HAL2     0.900000E-01   1.00800           0
     16927 MEMB     131      SAPE     H12B     HAL2     0.900000E-01   1.00800           0
     16928 MEMB     131      SAPE     C11      CTL2    -0.800000E-01   12.0110           0
     16929 MEMB     131      SAPE     H11A     HAL2     0.900000E-01   1.00800           0
     16930 MEMB     131      SAPE     H11B     HAL2     0.900000E-01   1.00800           0
     16931 MEMB     131      SAPE     P        PL       1.500000       30.9740           0
     16932 MEMB     131      SAPE     O13      O2L     -0.780000       15.9994           0
     16933 MEMB     131      SAPE     O14      O2L     -0.780000       15.9994           0
     16934 MEMB     131      SAPE     O12      OSLP    -0.570000       15.9994           0
     16935 MEMB     131      SAPE     O11      OSLP    -0.570000       15.9994           0
     16936 MEMB     131      SAPE     C1       CTL2    -0.800000E-01   12.0110           0
     16937 MEMB     131      SAPE     HA       HAL2     0.900000E-01   1.00800           0
     16938 MEMB     131      SAPE     HB       HAL2     0.900000E-01   1.00800           0
     16939 MEMB     131      SAPE     C2       CTL1     0.170000       12.0110           0
     16940 MEMB     131      SAPE     HS       HAL1     0.900000E-01   1.00800           0
     16941 MEMB     131      SAPE     O21      OSL     -0.490000       15.9994           0
     16942 MEMB     131      SAPE     C21      CL       0.900000       12.0110           0
     16943 MEMB     131      SAPE     O22      OBL     -0.630000       15.9994           0
     16944 MEMB     131      SAPE     C22      CTL2    -0.220000       12.0110           0
     16945 MEMB     131      SAPE     H2R      HAL2     0.900000E-01   1.00800           0
     16946 MEMB     131      SAPE     H2S      HAL2     0.900000E-01   1.00800           0
     16947 MEMB     131      SAPE     C3       CTL2     0.800000E-01   12.0110           0
     16948 MEMB     131      SAPE     HX       HAL2     0.900000E-01   1.00800           0
     16949 MEMB     131      SAPE     HY       HAL2     0.900000E-01   1.00800           0
     16950 MEMB     131      SAPE     O31      OSL     -0.490000       15.9994           0
     16951 MEMB     131      SAPE     C31      CL       0.900000       12.0110           0
     16952 MEMB     131      SAPE     O32      OBL     -0.630000       15.9994           0
     16953 MEMB     131      SAPE     C32      CTL2    -0.220000       12.0110           0
     16954 MEMB     131      SAPE     H2X      HAL2     0.900000E-01   1.00800           0
     16955 MEMB     131      SAPE     H2Y      HAL2     0.900000E-01   1.00800           0
     16956 MEMB     131      SAPE     C23      CTL2    -0.180000       12.0110           0
     16957 MEMB     131      SAPE     H3R      HAL2     0.900000E-01   1.00800           0
     16958 MEMB     131      SAPE     H3S      HAL2     0.900000E-01   1.00800           0
     16959 MEMB     131      SAPE     C24      CTL2    -0.180000       12.0110           0
     16960 MEMB     131      SAPE     H4R      HAL2     0.900000E-01   1.00800           0
     16961 MEMB     131      SAPE     H4S      HAL2     0.900000E-01   1.00800           0
     16962 MEMB     131      SAPE     C25      CEL1    -0.150000       12.0110           0
     16963 MEMB     131      SAPE     H5R      HEL1     0.150000       1.00800           0
     16964 MEMB     131      SAPE     C26      CEL1    -0.150000       12.0110           0
     16965 MEMB     131      SAPE     H6R      HEL1     0.150000       1.00800           0
     16966 MEMB     131      SAPE     C27      CTL2    -0.180000       12.0110           0
     16967 MEMB     131      SAPE     H7R      HAL2     0.900000E-01   1.00800           0
     16968 MEMB     131      SAPE     H7S      HAL2     0.900000E-01   1.00800           0
     16969 MEMB     131      SAPE     C28      CEL1    -0.150000       12.0110           0
     16970 MEMB     131      SAPE     H8R      HEL1     0.150000       1.00800           0
     16971 MEMB     131      SAPE     C29      CEL1    -0.150000       12.0110           0
     16972 MEMB     131      SAPE     H9R      HEL1     0.150000       1.00800           0
     16973 MEMB     131      SAPE     C210     CTL2    -0.180000       12.0110           0
     16974 MEMB     131      SAPE     H10R     HAL2     0.900000E-01   1.00800           0
     16975 MEMB     131      SAPE     H10S     HAL2     0.900000E-01   1.00800           0
     16976 MEMB     131      SAPE     C211     CEL1    -0.150000       12.0110           0
     16977 MEMB     131      SAPE     H11R     HEL1     0.150000       1.00800           0
     16978 MEMB     131      SAPE     C212     CEL1    -0.150000       12.0110           0
     16979 MEMB     131      SAPE     H12R     HEL1     0.150000       1.00800           0
     16980 MEMB     131      SAPE     C213     CTL2    -0.180000       12.0110           0
     16981 MEMB     131      SAPE     H13R     HAL2     0.900000E-01   1.00800           0
     16982 MEMB     131      SAPE     H13S     HAL2     0.900000E-01   1.00800           0
     16983 MEMB     131      SAPE     C214     CEL1    -0.150000       12.0110           0
     16984 MEMB     131      SAPE     H14R     HEL1     0.150000       1.00800           0
     16985 MEMB     131      SAPE     C215     CEL1    -0.150000       12.0110           0
     16986 MEMB     131      SAPE     H15R     HEL1     0.150000       1.00800           0
     16987 MEMB     131      SAPE     C216     CTL2    -0.180000       12.0110           0
     16988 MEMB     131      SAPE     H16R     HAL2     0.900000E-01   1.00800           0
     16989 MEMB     131      SAPE     H16S     HAL2     0.900000E-01   1.00800           0
     16990 MEMB     131      SAPE     C217     CTL2    -0.180000       12.0110           0
     16991 MEMB     131      SAPE     H17R     HAL2     0.900000E-01   1.00800           0
     16992 MEMB     131      SAPE     H17S     HAL2     0.900000E-01   1.00800           0
     16993 MEMB     131      SAPE     C218     CTL2    -0.180000       12.0110           0
     16994 MEMB     131      SAPE     H18R     HAL2     0.900000E-01   1.00800           0
     16995 MEMB     131      SAPE     H18S     HAL2     0.900000E-01   1.00800           0
     16996 MEMB     131      SAPE     C219     CTL2    -0.180000       12.0110           0
     16997 MEMB     131      SAPE     H19R     HAL2     0.900000E-01   1.00800           0
     16998 MEMB     131      SAPE     H19S     HAL2     0.900000E-01   1.00800           0
     16999 MEMB     131      SAPE     C220     CTL3    -0.270000       12.0110           0
     17000 MEMB     131      SAPE     H20R     HAL3     0.900000E-01   1.00800           0
     17001 MEMB     131      SAPE     H20S     HAL3     0.900000E-01   1.00800           0
     17002 MEMB     131      SAPE     H20T     HAL3     0.900000E-01   1.00800           0
     17003 MEMB     131      SAPE     C33      CTL2    -0.180000       12.0110           0
     17004 MEMB     131      SAPE     H3X      HAL2     0.900000E-01   1.00800           0
     17005 MEMB     131      SAPE     H3Y      HAL2     0.900000E-01   1.00800           0
     17006 MEMB     131      SAPE     C34      CTL2    -0.180000       12.0110           0
     17007 MEMB     131      SAPE     H4X      HAL2     0.900000E-01   1.00800           0
     17008 MEMB     131      SAPE     H4Y      HAL2     0.900000E-01   1.00800           0
     17009 MEMB     131      SAPE     C35      CTL2    -0.180000       12.0110           0
     17010 MEMB     131      SAPE     H5X      HAL2     0.900000E-01   1.00800           0
     17011 MEMB     131      SAPE     H5Y      HAL2     0.900000E-01   1.00800           0
     17012 MEMB     131      SAPE     C36      CTL2    -0.180000       12.0110           0
     17013 MEMB     131      SAPE     H6X      HAL2     0.900000E-01   1.00800           0
     17014 MEMB     131      SAPE     H6Y      HAL2     0.900000E-01   1.00800           0
     17015 MEMB     131      SAPE     C37      CTL2    -0.180000       12.0110           0
     17016 MEMB     131      SAPE     H7X      HAL2     0.900000E-01   1.00800           0
     17017 MEMB     131      SAPE     H7Y      HAL2     0.900000E-01   1.00800           0
     17018 MEMB     131      SAPE     C38      CTL2    -0.180000       12.0110           0
     17019 MEMB     131      SAPE     H8X      HAL2     0.900000E-01   1.00800           0
     17020 MEMB     131      SAPE     H8Y      HAL2     0.900000E-01   1.00800           0
     17021 MEMB     131      SAPE     C39      CTL2    -0.180000       12.0110           0
     17022 MEMB     131      SAPE     H9X      HAL2     0.900000E-01   1.00800           0
     17023 MEMB     131      SAPE     H9Y      HAL2     0.900000E-01   1.00800           0
     17024 MEMB     131      SAPE     C310     CTL2    -0.180000       12.0110           0
     17025 MEMB     131      SAPE     H10X     HAL2     0.900000E-01   1.00800           0
     17026 MEMB     131      SAPE     H10Y     HAL2     0.900000E-01   1.00800           0
     17027 MEMB     131      SAPE     C311     CTL2    -0.180000       12.0110           0
     17028 MEMB     131      SAPE     H11X     HAL2     0.900000E-01   1.00800           0
     17029 MEMB     131      SAPE     H11Y     HAL2     0.900000E-01   1.00800           0
     17030 MEMB     131      SAPE     C312     CTL2    -0.180000       12.0110           0
     17031 MEMB     131      SAPE     H12X     HAL2     0.900000E-01   1.00800           0
     17032 MEMB     131      SAPE     H12Y     HAL2     0.900000E-01   1.00800           0
     17033 MEMB     131      SAPE     C313     CTL2    -0.180000       12.0110           0
     17034 MEMB     131      SAPE     H13X     HAL2     0.900000E-01   1.00800           0
     17035 MEMB     131      SAPE     H13Y     HAL2     0.900000E-01   1.00800           0
     17036 MEMB     131      SAPE     C314     CTL2    -0.180000       12.0110           0
     17037 MEMB     131      SAPE     H14X     HAL2     0.900000E-01   1.00800           0
     17038 MEMB     131      SAPE     H14Y     HAL2     0.900000E-01   1.00800           0
     17039 MEMB     131      SAPE     C315     CTL2    -0.180000       12.0110           0
     17040 MEMB     131      SAPE     H15X     HAL2     0.900000E-01   1.00800           0
     17041 MEMB     131      SAPE     H15Y     HAL2     0.900000E-01   1.00800           0
     17042 MEMB     131      SAPE     C316     CTL2    -0.180000       12.0110           0
     17043 MEMB     131      SAPE     H16X     HAL2     0.900000E-01   1.00800           0
     17044 MEMB     131      SAPE     H16Y     HAL2     0.900000E-01   1.00800           0
     17045 MEMB     131      SAPE     C317     CTL2    -0.180000       12.0110           0
     17046 MEMB     131      SAPE     H17X     HAL2     0.900000E-01   1.00800           0
     17047 MEMB     131      SAPE     H17Y     HAL2     0.900000E-01   1.00800           0
     17048 MEMB     131      SAPE     C318     CTL3    -0.270000       12.0110           0
     17049 MEMB     131      SAPE     H18X     HAL3     0.900000E-01   1.00800           0
     17050 MEMB     131      SAPE     H18Y     HAL3     0.900000E-01   1.00800           0
     17051 MEMB     131      SAPE     H18Z     HAL3     0.900000E-01   1.00800           0
     17052 MEMB     146      SAPE     N        NH3L    -0.300000       14.0070           0
     17053 MEMB     146      SAPE     HN1      HCL      0.330000       1.00800           0
     17054 MEMB     146      SAPE     HN2      HCL      0.330000       1.00800           0
     17055 MEMB     146      SAPE     HN3      HCL      0.330000       1.00800           0
     17056 MEMB     146      SAPE     C12      CTL2     0.130000       12.0110           0
     17057 MEMB     146      SAPE     H12A     HAL2     0.900000E-01   1.00800           0
     17058 MEMB     146      SAPE     H12B     HAL2     0.900000E-01   1.00800           0
     17059 MEMB     146      SAPE     C11      CTL2    -0.800000E-01   12.0110           0
     17060 MEMB     146      SAPE     H11A     HAL2     0.900000E-01   1.00800           0
     17061 MEMB     146      SAPE     H11B     HAL2     0.900000E-01   1.00800           0
     17062 MEMB     146      SAPE     P        PL       1.500000       30.9740           0
     17063 MEMB     146      SAPE     O13      O2L     -0.780000       15.9994           0
     17064 MEMB     146      SAPE     O14      O2L     -0.780000       15.9994           0
     17065 MEMB     146      SAPE     O12      OSLP    -0.570000       15.9994           0
     17066 MEMB     146      SAPE     O11      OSLP    -0.570000       15.9994           0
     17067 MEMB     146      SAPE     C1       CTL2    -0.800000E-01   12.0110           0
     17068 MEMB     146      SAPE     HA       HAL2     0.900000E-01   1.00800           0
     17069 MEMB     146      SAPE     HB       HAL2     0.900000E-01   1.00800           0
     17070 MEMB     146      SAPE     C2       CTL1     0.170000       12.0110           0
     17071 MEMB     146      SAPE     HS       HAL1     0.900000E-01   1.00800           0
     17072 MEMB     146      SAPE     O21      OSL     -0.490000       15.9994           0
     17073 MEMB     146      SAPE     C21      CL       0.900000       12.0110           0
     17074 MEMB     146      SAPE     O22      OBL     -0.630000       15.9994           0
     17075 MEMB     146      SAPE     C22      CTL2    -0.220000       12.0110           0
     17076 MEMB     146      SAPE     H2R      HAL2     0.900000E-01   1.00800           0
     17077 MEMB     146      SAPE     H2S      HAL2     0.900000E-01   1.00800           0
     17078 MEMB     146      SAPE     C3       CTL2     0.800000E-01   12.0110           0
     17079 MEMB     146      SAPE     HX       HAL2     0.900000E-01   1.00800           0
     17080 MEMB     146      SAPE     HY       HAL2     0.900000E-01   1.00800           0
     17081 MEMB     146      SAPE     O31      OSL     -0.490000       15.9994           0
     17082 MEMB     146      SAPE     C31      CL       0.900000       12.0110           0
     17083 MEMB     146      SAPE     O32      OBL     -0.630000       15.9994           0
     17084 MEMB     146      SAPE     C32      CTL2    -0.220000       12.0110           0
     17085 MEMB     146      SAPE     H2X      HAL2     0.900000E-01   1.00800           0
     17086 MEMB     146      SAPE     H2Y      HAL2     0.900000E-01   1.00800           0
     17087 MEMB     146      SAPE     C23      CTL2    -0.180000       12.0110           0
     17088 MEMB     146      SAPE     H3R      HAL2     0.900000E-01   1.00800           0
     17089 MEMB     146      SAPE     H3S      HAL2     0.900000E-01   1.00800           0
     17090 MEMB     146      SAPE     C24      CTL2    -0.180000       12.0110           0
     17091 MEMB     146      SAPE     H4R      HAL2     0.900000E-01   1.00800           0
     17092 MEMB     146      SAPE     H4S      HAL2     0.900000E-01   1.00800           0
     17093 MEMB     146      SAPE     C25      CEL1    -0.150000       12.0110           0
     17094 MEMB     146      SAPE     H5R      HEL1     0.150000       1.00800           0
     17095 MEMB     146      SAPE     C26      CEL1    -0.150000       12.0110           0
     17096 MEMB     146      SAPE     H6R      HEL1     0.150000       1.00800           0
     17097 MEMB     146      SAPE     C27      CTL2    -0.180000       12.0110           0
     17098 MEMB     146      SAPE     H7R      HAL2     0.900000E-01   1.00800           0
     17099 MEMB     146      SAPE     H7S      HAL2     0.900000E-01   1.00800           0
     17100 MEMB     146      SAPE     C28      CEL1    -0.150000       12.0110           0
     17101 MEMB     146      SAPE     H8R      HEL1     0.150000       1.00800           0
     17102 MEMB     146      SAPE     C29      CEL1    -0.150000       12.0110           0
     17103 MEMB     146      SAPE     H9R      HEL1     0.150000       1.00800           0
     17104 MEMB     146      SAPE     C210     CTL2    -0.180000       12.0110           0
     17105 MEMB     146      SAPE     H10R     HAL2     0.900000E-01   1.00800           0
     17106 MEMB     146      SAPE     H10S     HAL2     0.900000E-01   1.00800           0
     17107 MEMB     146      SAPE     C211     CEL1    -0.150000       12.0110           0
     17108 MEMB     146      SAPE     H11R     HEL1     0.150000       1.00800           0
     17109 MEMB     146      SAPE     C212     CEL1    -0.150000       12.0110           0
     17110 MEMB     146      SAPE     H12R     HEL1     0.150000       1.00800           0
     17111 MEMB     146      SAPE     C213     CTL2    -0.180000       12.0110           0
     17112 MEMB     146      SAPE     H13R     HAL2     0.900000E-01   1.00800           0
     17113 MEMB     146      SAPE     H13S     HAL2     0.900000E-01   1.00800           0
     17114 MEMB     146      SAPE     C214     CEL1    -0.150000       12.0110           0
     17115 MEMB     146      SAPE     H14R     HEL1     0.150000       1.00800           0
     17116 MEMB     146      SAPE     C215     CEL1    -0.150000       12.0110           0
     17117 MEMB     146      SAPE     H15R     HEL1     0.150000       1.00800           0
     17118 MEMB     146      SAPE     C216     CTL2    -0.180000       12.0110           0
     17119 MEMB     146      SAPE     H16R     HAL2     0.900000E-01   1.00800           0
     17120 MEMB     146      SAPE     H16S     HAL2     0.900000E-01   1.00800           0
     17121 MEMB     146      SAPE     C217     CTL2    -0.180000       12.0110           0
     17122 MEMB     146      SAPE     H17R     HAL2     0.900000E-01   1.00800           0
     17123 MEMB     146      SAPE     H17S     HAL2     0.900000E-01   1.00800           0
     17124 MEMB     146      SAPE     C218     CTL2    -0.180000       12.0110           0
     17125 MEMB     146      SAPE     H18R     HAL2     0.900000E-01   1.00800           0
     17126 MEMB     146      SAPE     H18S     HAL2     0.900000E-01   1.00800           0
     17127 MEMB     146      SAPE     C219     CTL2    -0.180000       12.0110           0
     17128 MEMB     146      SAPE     H19R     HAL2     0.900000E-01   1.00800           0
     17129 MEMB     146      SAPE     H19S     HAL2     0.900000E-01   1.00800           0
     17130 MEMB     146      SAPE     C220     CTL3    -0.270000       12.0110           0
     17131 MEMB     146      SAPE     H20R     HAL3     0.900000E-01   1.00800           0
     17132 MEMB     146      SAPE     H20S     HAL3     0.900000E-01   1.00800           0
     17133 MEMB     146      SAPE     H20T     HAL3     0.900000E-01   1.00800           0
     17134 MEMB     146      SAPE     C33      CTL2    -0.180000       12.0110           0
     17135 MEMB     146      SAPE     H3X      HAL2     0.900000E-01   1.00800           0
     17136 MEMB     146      SAPE     H3Y      HAL2     0.900000E-01   1.00800           0
     17137 MEMB     146      SAPE     C34      CTL2    -0.180000       12.0110           0
     17138 MEMB     146      SAPE     H4X      HAL2     0.900000E-01   1.00800           0
     17139 MEMB     146      SAPE     H4Y      HAL2     0.900000E-01   1.00800           0
     17140 MEMB     146      SAPE     C35      CTL2    -0.180000       12.0110           0
     17141 MEMB     146      SAPE     H5X      HAL2     0.900000E-01   1.00800           0
     17142 MEMB     146      SAPE     H5Y      HAL2     0.900000E-01   1.00800           0
     17143 MEMB     146      SAPE     C36      CTL2    -0.180000       12.0110           0
     17144 MEMB     146      SAPE     H6X      HAL2     0.900000E-01   1.00800           0
     17145 MEMB     146      SAPE     H6Y      HAL2     0.900000E-01   1.00800           0
     17146 MEMB     146      SAPE     C37      CTL2    -0.180000       12.0110           0
     17147 MEMB     146      SAPE     H7X      HAL2     0.900000E-01   1.00800           0
     17148 MEMB     146      SAPE     H7Y      HAL2     0.900000E-01   1.00800           0
     17149 MEMB     146      SAPE     C38      CTL2    -0.180000       12.0110           0
     17150 MEMB     146      SAPE     H8X      HAL2     0.900000E-01   1.00800           0
     17151 MEMB     146      SAPE     H8Y      HAL2     0.900000E-01   1.00800           0
     17152 MEMB     146      SAPE     C39      CTL2    -0.180000       12.0110           0
     17153 MEMB     146      SAPE     H9X      HAL2     0.900000E-01   1.00800           0
     17154 MEMB     146      SAPE     H9Y      HAL2     0.900000E-01   1.00800           0
     17155 MEMB     146      SAPE     C310     CTL2    -0.180000       12.0110           0
     17156 MEMB     146      SAPE     H10X     HAL2     0.900000E-01   1.00800           0
     17157 MEMB     146      SAPE     H10Y     HAL2     0.900000E-01   1.00800           0
     17158 MEMB     146      SAPE     C311     CTL2    -0.180000       12.0110           0
     17159 MEMB     146      SAPE     H11X     HAL2     0.900000E-01   1.00800           0
     17160 MEMB     146      SAPE     H11Y     HAL2     0.900000E-01   1.00800           0
     17161 MEMB     146      SAPE     C312     CTL2    -0.180000       12.0110           0
     17162 MEMB     146      SAPE     H12X     HAL2     0.900000E-01   1.00800           0
     17163 MEMB     146      SAPE     H12Y     HAL2     0.900000E-01   1.00800           0
     17164 MEMB     146      SAPE     C313     CTL2    -0.180000       12.0110           0
     17165 MEMB     146      SAPE     H13X     HAL2     0.900000E-01   1.00800           0
     17166 MEMB     146      SAPE     H13Y     HAL2     0.900000E-01   1.00800           0
     17167 MEMB     146      SAPE     C314     CTL2    -0.180000       12.0110           0
     17168 MEMB     146      SAPE     H14X     HAL2     0.900000E-01   1.00800           0
     17169 MEMB     146      SAPE     H14Y     HAL2     0.900000E-01   1.00800           0
     17170 MEMB     146      SAPE     C315     CTL2    -0.180000       12.0110           0
     17171 MEMB     146      SAPE     H15X     HAL2     0.900000E-01   1.00800           0
     17172 MEMB     146      SAPE     H15Y     HAL2     0.900000E-01   1.00800           0
     17173 MEMB     146      SAPE     C316     CTL2    -0.180000       12.0110           0
     17174 MEMB     146      SAPE     H16X     HAL2     0.900000E-01   1.00800           0
     17175 MEMB     146      SAPE     H16Y     HAL2     0.900000E-01   1.00800           0
     17176 MEMB     146      SAPE     C317     CTL2    -0.180000       12.0110           0
     17177 MEMB     146      SAPE     H17X     HAL2     0.900000E-01   1.00800           0
     17178 MEMB     146      SAPE     H17Y     HAL2     0.900000E-01   1.00800           0
     17179 MEMB     146      SAPE     C318     CTL3    -0.270000       12.0110           0
     17180 MEMB     146      SAPE     H18X     HAL3     0.900000E-01   1.00800           0
     17181 MEMB     146      SAPE     H18Y     HAL3     0.900000E-01   1.00800           0
     17182 MEMB     146      SAPE     H18Z     HAL3     0.900000E-01   1.00800           0
     17183 MEMB     147      SAPE     N        NH3L    -0.300000       14.0070           0
     17184 MEMB     147      SAPE     HN1      HCL      0.330000       1.00800           0
     17185 MEMB     147      SAPE     HN2      HCL      0.330000       1.00800           0
     17186 MEMB     147      SAPE     HN3      HCL      0.330000       1.00800           0
     17187 MEMB     147      SAPE     C12      CTL2     0.130000       12.0110           0
     17188 MEMB     147      SAPE     H12A     HAL2     0.900000E-01   1.00800           0
     17189 MEMB     147      SAPE     H12B     HAL2     0.900000E-01   1.00800           0
     17190 MEMB     147      SAPE     C11      CTL2    -0.800000E-01   12.0110           0
     17191 MEMB     147      SAPE     H11A     HAL2     0.900000E-01   1.00800           0
     17192 MEMB     147      SAPE     H11B     HAL2     0.900000E-01   1.00800           0
     17193 MEMB     147      SAPE     P        PL       1.500000       30.9740           0
     17194 MEMB     147      SAPE     O13      O2L     -0.780000       15.9994           0
     17195 MEMB     147      SAPE     O14      O2L     -0.780000       15.9994           0
     17196 MEMB     147      SAPE     O12      OSLP    -0.570000       15.9994           0
     17197 MEMB     147      SAPE     O11      OSLP    -0.570000       15.9994           0
     17198 MEMB     147      SAPE     C1       CTL2    -0.800000E-01   12.0110           0
     17199 MEMB     147      SAPE     HA       HAL2     0.900000E-01   1.00800           0
     17200 MEMB     147      SAPE     HB       HAL2     0.900000E-01   1.00800           0
     17201 MEMB     147      SAPE     C2       CTL1     0.170000       12.0110           0
     17202 MEMB     147      SAPE     HS       HAL1     0.900000E-01   1.00800           0
     17203 MEMB     147      SAPE     O21      OSL     -0.490000       15.9994           0
     17204 MEMB     147      SAPE     C21      CL       0.900000       12.0110           0
     17205 MEMB     147      SAPE     O22      OBL     -0.630000       15.9994           0
     17206 MEMB     147      SAPE     C22      CTL2    -0.220000       12.0110           0
     17207 MEMB     147      SAPE     H2R      HAL2     0.900000E-01   1.00800           0
     17208 MEMB     147      SAPE     H2S      HAL2     0.900000E-01   1.00800           0
     17209 MEMB     147      SAPE     C3       CTL2     0.800000E-01   12.0110           0
     17210 MEMB     147      SAPE     HX       HAL2     0.900000E-01   1.00800           0
     17211 MEMB     147      SAPE     HY       HAL2     0.900000E-01   1.00800           0
     17212 MEMB     147      SAPE     O31      OSL     -0.490000       15.9994           0
     17213 MEMB     147      SAPE     C31      CL       0.900000       12.0110           0
     17214 MEMB     147      SAPE     O32      OBL     -0.630000       15.9994           0
     17215 MEMB     147      SAPE     C32      CTL2    -0.220000       12.0110           0
     17216 MEMB     147      SAPE     H2X      HAL2     0.900000E-01   1.00800           0
     17217 MEMB     147      SAPE     H2Y      HAL2     0.900000E-01   1.00800           0
     17218 MEMB     147      SAPE     C23      CTL2    -0.180000       12.0110           0
     17219 MEMB     147      SAPE     H3R      HAL2     0.900000E-01   1.00800           0
     17220 MEMB     147      SAPE     H3S      HAL2     0.900000E-01   1.00800           0
     17221 MEMB     147      SAPE     C24      CTL2    -0.180000       12.0110           0
     17222 MEMB     147      SAPE     H4R      HAL2     0.900000E-01   1.00800           0
     17223 MEMB     147      SAPE     H4S      HAL2     0.900000E-01   1.00800           0
     17224 MEMB     147      SAPE     C25      CEL1    -0.150000       12.0110           0
     17225 MEMB     147      SAPE     H5R      HEL1     0.150000       1.00800           0
     17226 MEMB     147      SAPE     C26      CEL1    -0.150000       12.0110           0
     17227 MEMB     147      SAPE     H6R      HEL1     0.150000       1.00800           0
     17228 MEMB     147      SAPE     C27      CTL2    -0.180000       12.0110           0
     17229 MEMB     147      SAPE     H7R      HAL2     0.900000E-01   1.00800           0
     17230 MEMB     147      SAPE     H7S      HAL2     0.900000E-01   1.00800           0
     17231 MEMB     147      SAPE     C28      CEL1    -0.150000       12.0110           0
     17232 MEMB     147      SAPE     H8R      HEL1     0.150000       1.00800           0
     17233 MEMB     147      SAPE     C29      CEL1    -0.150000       12.0110           0
     17234 MEMB     147      SAPE     H9R      HEL1     0.150000       1.00800           0
     17235 MEMB     147      SAPE     C210     CTL2    -0.180000       12.0110           0
     17236 MEMB     147      SAPE     H10R     HAL2     0.900000E-01   1.00800           0
     17237 MEMB     147      SAPE     H10S     HAL2     0.900000E-01   1.00800           0
     17238 MEMB     147      SAPE     C211     CEL1    -0.150000       12.0110           0
     17239 MEMB     147      SAPE     H11R     HEL1     0.150000       1.00800           0
     17240 MEMB     147      SAPE     C212     CEL1    -0.150000       12.0110           0
     17241 MEMB     147      SAPE     H12R     HEL1     0.150000       1.00800           0
     17242 MEMB     147      SAPE     C213     CTL2    -0.180000       12.0110           0
     17243 MEMB     147      SAPE     H13R     HAL2     0.900000E-01   1.00800           0
     17244 MEMB     147      SAPE     H13S     HAL2     0.900000E-01   1.00800           0
     17245 MEMB     147      SAPE     C214     CEL1    -0.150000       12.0110           0
     17246 MEMB     147      SAPE     H14R     HEL1     0.150000       1.00800           0
     17247 MEMB     147      SAPE     C215     CEL1    -0.150000       12.0110           0
     17248 MEMB     147      SAPE     H15R     HEL1     0.150000       1.00800           0
     17249 MEMB     147      SAPE     C216     CTL2    -0.180000       12.0110           0
     17250 MEMB     147      SAPE     H16R     HAL2     0.900000E-01   1.00800           0
     17251 MEMB     147      SAPE     H16S     HAL2     0.900000E-01   1.00800           0
     17252 MEMB     147      SAPE     C217     CTL2    -0.180000       12.0110           0
     17253 MEMB     147      SAPE     H17R     HAL2     0.900000E-01   1.00800           0
     17254 MEMB     147      SAPE     H17S     HAL2     0.900000E-01   1.00800           0
     17255 MEMB     147      SAPE     C218     CTL2    -0.180000       12.0110           0
     17256 MEMB     147      SAPE     H18R     HAL2     0.900000E-01   1.00800           0
     17257 MEMB     147      SAPE     H18S     HAL2     0.900000E-01   1.00800           0
     17258 MEMB     147      SAPE     C219     CTL2    -0.180000       12.0110           0
     17259 MEMB     147      SAPE     H19R     HAL2     0.900000E-01   1.00800           0
     17260 MEMB     147      SAPE     H19S     HAL2     0.900000E-01   1.00800           0
     17261 MEMB     147      SAPE     C220     CTL3    -0.270000       12.0110           0
     17262 MEMB     147      SAPE     H20R     HAL3     0.900000E-01   1.00800           0
     17263 MEMB     147      SAPE     H20S     HAL3     0.900000E-01   1.00800           0
     17264 MEMB     147      SAPE     H20T     HAL3     0.900000E-01   1.00800           0
     17265 MEMB     147      SAPE     C33      CTL2    -0.180000       12.0110           0
     17266 MEMB     147      SAPE     H3X      HAL2     0.900000E-01   1.00800           0
     17267 MEMB     147      SAPE     H3Y      HAL2     0.900000E-01   1.00800           0
     17268 MEMB     147      SAPE     C34      CTL2    -0.180000       12.0110           0
     17269 MEMB     147      SAPE     H4X      HAL2     0.900000E-01   1.00800           0
     17270 MEMB     147      SAPE     H4Y      HAL2     0.900000E-01   1.00800           0
     17271 MEMB     147      SAPE     C35      CTL2    -0.180000       12.0110           0
     17272 MEMB     147      SAPE     H5X      HAL2     0.900000E-01   1.00800           0
     17273 MEMB     147      SAPE     H5Y      HAL2     0.900000E-01   1.00800           0
     17274 MEMB     147      SAPE     C36      CTL2    -0.180000       12.0110           0
     17275 MEMB     147      SAPE     H6X      HAL2     0.900000E-01   1.00800           0
     17276 MEMB     147      SAPE     H6Y      HAL2     0.900000E-01   1.00800           0
     17277 MEMB     147      SAPE     C37      CTL2    -0.180000       12.0110           0
     17278 MEMB     147      SAPE     H7X      HAL2     0.900000E-01   1.00800           0
     17279 MEMB     147      SAPE     H7Y      HAL2     0.900000E-01   1.00800           0
     17280 MEMB     147      SAPE     C38      CTL2    -0.180000       12.0110           0
     17281 MEMB     147      SAPE     H8X      HAL2     0.900000E-01   1.00800           0
     17282 MEMB     147      SAPE     H8Y      HAL2     0.900000E-01   1.00800           0
     17283 MEMB     147      SAPE     C39      CTL2    -0.180000       12.0110           0
     17284 MEMB     147      SAPE     H9X      HAL2     0.900000E-01   1.00800           0
     17285 MEMB     147      SAPE     H9Y      HAL2     0.900000E-01   1.00800           0
     17286 MEMB     147      SAPE     C310     CTL2    -0.180000       12.0110           0
     17287 MEMB     147      SAPE     H10X     HAL2     0.900000E-01   1.00800           0
     17288 MEMB     147      SAPE     H10Y     HAL2     0.900000E-01   1.00800           0
     17289 MEMB     147      SAPE     C311     CTL2    -0.180000       12.0110           0
     17290 MEMB     147      SAPE     H11X     HAL2     0.900000E-01   1.00800           0
     17291 MEMB     147      SAPE     H11Y     HAL2     0.900000E-01   1.00800           0
     17292 MEMB     147      SAPE     C312     CTL2    -0.180000       12.0110           0
     17293 MEMB     147      SAPE     H12X     HAL2     0.900000E-01   1.00800           0
     17294 MEMB     147      SAPE     H12Y     HAL2     0.900000E-01   1.00800           0
     17295 MEMB     147      SAPE     C313     CTL2    -0.180000       12.0110           0
     17296 MEMB     147      SAPE     H13X     HAL2     0.900000E-01   1.00800           0
     17297 MEMB     147      SAPE     H13Y     HAL2     0.900000E-01   1.00800           0
     17298 MEMB     147      SAPE     C314     CTL2    -0.180000       12.0110           0
     17299 MEMB     147      SAPE     H14X     HAL2     0.900000E-01   1.00800           0
     17300 MEMB     147      SAPE     H14Y     HAL2     0.900000E-01   1.00800           0
     17301 MEMB     147      SAPE     C315     CTL2    -0.180000       12.0110           0
     17302 MEMB     147      SAPE     H15X     HAL2     0.900000E-01   1.00800           0
     17303 MEMB     147      SAPE     H15Y     HAL2     0.900000E-01   1.00800           0
     17304 MEMB     147      SAPE     C316     CTL2    -0.180000       12.0110           0
     17305 MEMB     147      SAPE     H16X     HAL2     0.900000E-01   1.00800           0
     17306 MEMB     147      SAPE     H16Y     HAL2     0.900000E-01   1.00800           0
     17307 MEMB     147      SAPE     C317     CTL2    -0.180000       12.0110           0
     17308 MEMB     147      SAPE     H17X     HAL2     0.900000E-01   1.00800           0
     17309 MEMB     147      SAPE     H17Y     HAL2     0.900000E-01   1.00800           0
     17310 MEMB     147      SAPE     C318     CTL3    -0.270000       12.0110           0
     17311 MEMB     147      SAPE     H18X     HAL3     0.900000E-01   1.00800           0
     17312 MEMB     147      SAPE     H18Y     HAL3     0.900000E-01   1.00800           0
     17313 MEMB     147      SAPE     H18Z     HAL3     0.900000E-01   1.00800           0
     17314 MEMB     159      SAPE     N        NH3L    -0.300000       14.0070           0
     17315 MEMB     159      SAPE     HN1      HCL      0.330000       1.00800           0
     17316 MEMB     159      SAPE     HN2      HCL      0.330000       1.00800           0
     17317 MEMB     159      SAPE     HN3      HCL      0.330000       1.00800           0
     17318 MEMB     159      SAPE     C12      CTL2     0.130000       12.0110           0
     17319 MEMB     159      SAPE     H12A     HAL2     0.900000E-01   1.00800           0
     17320 MEMB     159      SAPE     H12B     HAL2     0.900000E-01   1.00800           0
     17321 MEMB     159      SAPE     C11      CTL2    -0.800000E-01   12.0110           0
     17322 MEMB     159      SAPE     H11A     HAL2     0.900000E-01   1.00800           0
     17323 MEMB     159      SAPE     H11B     HAL2     0.900000E-01   1.00800           0
     17324 MEMB     159      SAPE     P        PL       1.500000       30.9740           0
     17325 MEMB     159      SAPE     O13      O2L     -0.780000       15.9994           0
     17326 MEMB     159      SAPE     O14      O2L     -0.780000       15.9994           0
     17327 MEMB     159      SAPE     O12      OSLP    -0.570000       15.9994           0
     17328 MEMB     159      SAPE     O11      OSLP    -0.570000       15.9994           0
     17329 MEMB     159      SAPE     C1       CTL2    -0.800000E-01   12.0110           0
     17330 MEMB     159      SAPE     HA       HAL2     0.900000E-01   1.00800           0
     17331 MEMB     159      SAPE     HB       HAL2     0.900000E-01   1.00800           0
     17332 MEMB     159      SAPE     C2       CTL1     0.170000       12.0110           0
     17333 MEMB     159      SAPE     HS       HAL1     0.900000E-01   1.00800           0
     17334 MEMB     159      SAPE     O21      OSL     -0.490000       15.9994           0
     17335 MEMB     159      SAPE     C21      CL       0.900000       12.0110           0
     17336 MEMB     159      SAPE     O22      OBL     -0.630000       15.9994           0
     17337 MEMB     159      SAPE     C22      CTL2    -0.220000       12.0110           0
     17338 MEMB     159      SAPE     H2R      HAL2     0.900000E-01   1.00800           0
     17339 MEMB     159      SAPE     H2S      HAL2     0.900000E-01   1.00800           0
     17340 MEMB     159      SAPE     C3       CTL2     0.800000E-01   12.0110           0
     17341 MEMB     159      SAPE     HX       HAL2     0.900000E-01   1.00800           0
     17342 MEMB     159      SAPE     HY       HAL2     0.900000E-01   1.00800           0
     17343 MEMB     159      SAPE     O31      OSL     -0.490000       15.9994           0
     17344 MEMB     159      SAPE     C31      CL       0.900000       12.0110           0
     17345 MEMB     159      SAPE     O32      OBL     -0.630000       15.9994           0
     17346 MEMB     159      SAPE     C32      CTL2    -0.220000       12.0110           0
     17347 MEMB     159      SAPE     H2X      HAL2     0.900000E-01   1.00800           0
     17348 MEMB     159      SAPE     H2Y      HAL2     0.900000E-01   1.00800           0
     17349 MEMB     159      SAPE     C23      CTL2    -0.180000       12.0110           0
     17350 MEMB     159      SAPE     H3R      HAL2     0.900000E-01   1.00800           0
     17351 MEMB     159      SAPE     H3S      HAL2     0.900000E-01   1.00800           0
     17352 MEMB     159      SAPE     C24      CTL2    -0.180000       12.0110           0
     17353 MEMB     159      SAPE     H4R      HAL2     0.900000E-01   1.00800           0
     17354 MEMB     159      SAPE     H4S      HAL2     0.900000E-01   1.00800           0
     17355 MEMB     159      SAPE     C25      CEL1    -0.150000       12.0110           0
     17356 MEMB     159      SAPE     H5R      HEL1     0.150000       1.00800           0
     17357 MEMB     159      SAPE     C26      CEL1    -0.150000       12.0110           0
     17358 MEMB     159      SAPE     H6R      HEL1     0.150000       1.00800           0
     17359 MEMB     159      SAPE     C27      CTL2    -0.180000       12.0110           0
     17360 MEMB     159      SAPE     H7R      HAL2     0.900000E-01   1.00800           0
     17361 MEMB     159      SAPE     H7S      HAL2     0.900000E-01   1.00800           0
     17362 MEMB     159      SAPE     C28      CEL1    -0.150000       12.0110           0
     17363 MEMB     159      SAPE     H8R      HEL1     0.150000       1.00800           0
     17364 MEMB     159      SAPE     C29      CEL1    -0.150000       12.0110           0
     17365 MEMB     159      SAPE     H9R      HEL1     0.150000       1.00800           0
     17366 MEMB     159      SAPE     C210     CTL2    -0.180000       12.0110           0
     17367 MEMB     159      SAPE     H10R     HAL2     0.900000E-01   1.00800           0
     17368 MEMB     159      SAPE     H10S     HAL2     0.900000E-01   1.00800           0
     17369 MEMB     159      SAPE     C211     CEL1    -0.150000       12.0110           0
     17370 MEMB     159      SAPE     H11R     HEL1     0.150000       1.00800           0
     17371 MEMB     159      SAPE     C212     CEL1    -0.150000       12.0110           0
     17372 MEMB     159      SAPE     H12R     HEL1     0.150000       1.00800           0
     17373 MEMB     159      SAPE     C213     CTL2    -0.180000       12.0110           0
     17374 MEMB     159      SAPE     H13R     HAL2     0.900000E-01   1.00800           0
     17375 MEMB     159      SAPE     H13S     HAL2     0.900000E-01   1.00800           0
     17376 MEMB     159      SAPE     C214     CEL1    -0.150000       12.0110           0
     17377 MEMB     159      SAPE     H14R     HEL1     0.150000       1.00800           0
     17378 MEMB     159      SAPE     C215     CEL1    -0.150000       12.0110           0
     17379 MEMB     159      SAPE     H15R     HEL1     0.150000       1.00800           0
     17380 MEMB     159      SAPE     C216     CTL2    -0.180000       12.0110           0
     17381 MEMB     159      SAPE     H16R     HAL2     0.900000E-01   1.00800           0
     17382 MEMB     159      SAPE     H16S     HAL2     0.900000E-01   1.00800           0
     17383 MEMB     159      SAPE     C217     CTL2    -0.180000       12.0110           0
     17384 MEMB     159      SAPE     H17R     HAL2     0.900000E-01   1.00800           0
     17385 MEMB     159      SAPE     H17S     HAL2     0.900000E-01   1.00800           0
     17386 MEMB     159      SAPE     C218     CTL2    -0.180000       12.0110           0
     17387 MEMB     159      SAPE     H18R     HAL2     0.900000E-01   1.00800           0
     17388 MEMB     159      SAPE     H18S     HAL2     0.900000E-01   1.00800           0
     17389 MEMB     159      SAPE     C219     CTL2    -0.180000       12.0110           0
     17390 MEMB     159      SAPE     H19R     HAL2     0.900000E-01   1.00800           0
     17391 MEMB     159      SAPE     H19S     HAL2     0.900000E-01   1.00800           0
     17392 MEMB     159      SAPE     C220     CTL3    -0.270000       12.0110           0
     17393 MEMB     159      SAPE     H20R     HAL3     0.900000E-01   1.00800           0
     17394 MEMB     159      SAPE     H20S     HAL3     0.900000E-01   1.00800           0
     17395 MEMB     159      SAPE     H20T     HAL3     0.900000E-01   1.00800           0
     17396 MEMB     159      SAPE     C33      CTL2    -0.180000       12.0110           0
     17397 MEMB     159      SAPE     H3X      HAL2     0.900000E-01   1.00800           0
     17398 MEMB     159      SAPE     H3Y      HAL2     0.900000E-01   1.00800           0
     17399 MEMB     159      SAPE     C34      CTL2    -0.180000       12.0110           0
     17400 MEMB     159      SAPE     H4X      HAL2     0.900000E-01   1.00800           0
     17401 MEMB     159      SAPE     H4Y      HAL2     0.900000E-01   1.00800           0
     17402 MEMB     159      SAPE     C35      CTL2    -0.180000       12.0110           0
     17403 MEMB     159      SAPE     H5X      HAL2     0.900000E-01   1.00800           0
     17404 MEMB     159      SAPE     H5Y      HAL2     0.900000E-01   1.00800           0
     17405 MEMB     159      SAPE     C36      CTL2    -0.180000       12.0110           0
     17406 MEMB     159      SAPE     H6X      HAL2     0.900000E-01   1.00800           0
     17407 MEMB     159      SAPE     H6Y      HAL2     0.900000E-01   1.00800           0
     17408 MEMB     159      SAPE     C37      CTL2    -0.180000       12.0110           0
     17409 MEMB     159      SAPE     H7X      HAL2     0.900000E-01   1.00800           0
     17410 MEMB     159      SAPE     H7Y      HAL2     0.900000E-01   1.00800           0
     17411 MEMB     159      SAPE     C38      CTL2    -0.180000       12.0110           0
     17412 MEMB     159      SAPE     H8X      HAL2     0.900000E-01   1.00800           0
     17413 MEMB     159      SAPE     H8Y      HAL2     0.900000E-01   1.00800           0
     17414 MEMB     159      SAPE     C39      CTL2    -0.180000       12.0110           0
     17415 MEMB     159      SAPE     H9X      HAL2     0.900000E-01   1.00800           0
     17416 MEMB     159      SAPE     H9Y      HAL2     0.900000E-01   1.00800           0
     17417 MEMB     159      SAPE     C310     CTL2    -0.180000       12.0110           0
     17418 MEMB     159      SAPE     H10X     HAL2     0.900000E-01   1.00800           0
     17419 MEMB     159      SAPE     H10Y     HAL2     0.900000E-01   1.00800           0
     17420 MEMB     159      SAPE     C311     CTL2    -0.180000       12.0110           0
     17421 MEMB     159      SAPE     H11X     HAL2     0.900000E-01   1.00800           0
     17422 MEMB     159      SAPE     H11Y     HAL2     0.900000E-01   1.00800           0
     17423 MEMB     159      SAPE     C312     CTL2    -0.180000       12.0110           0
     17424 MEMB     159      SAPE     H12X     HAL2     0.900000E-01   1.00800           0
     17425 MEMB     159      SAPE     H12Y     HAL2     0.900000E-01   1.00800           0
     17426 MEMB     159      SAPE     C313     CTL2    -0.180000       12.0110           0
     17427 MEMB     159      SAPE     H13X     HAL2     0.900000E-01   1.00800           0
     17428 MEMB     159      SAPE     H13Y     HAL2     0.900000E-01   1.00800           0
     17429 MEMB     159      SAPE     C314     CTL2    -0.180000       12.0110           0
     17430 MEMB     159      SAPE     H14X     HAL2     0.900000E-01   1.00800           0
     17431 MEMB     159      SAPE     H14Y     HAL2     0.900000E-01   1.00800           0
     17432 MEMB     159      SAPE     C315     CTL2    -0.180000       12.0110           0
     17433 MEMB     159      SAPE     H15X     HAL2     0.900000E-01   1.00800           0
     17434 MEMB     159      SAPE     H15Y     HAL2     0.900000E-01   1.00800           0
     17435 MEMB     159      SAPE     C316     CTL2    -0.180000       12.0110           0
     17436 MEMB     159      SAPE     H16X     HAL2     0.900000E-01   1.00800           0
     17437 MEMB     159      SAPE     H16Y     HAL2     0.900000E-01   1.00800           0
     17438 MEMB     159      SAPE     C317     CTL2    -0.180000       12.0110           0
     17439 MEMB     159      SAPE     H17X     HAL2     0.900000E-01   1.00800           0
     17440 MEMB     159      SAPE     H17Y     HAL2     0.900000E-01   1.00800           0
     17441 MEMB     159      SAPE     C318     CTL3    -0.270000       12.0110           0
     17442 MEMB     159      SAPE     H18X     HAL3     0.900000E-01   1.00800           0
     17443 MEMB     159      SAPE     H18Y     HAL3     0.900000E-01   1.00800           0
     17444 MEMB     159      SAPE     H18Z     HAL3     0.900000E-01   1.00800           0
     17445 MEMB     161      SAPE     N        NH3L    -0.300000       14.0070           0
     17446 MEMB     161      SAPE     HN1      HCL      0.330000       1.00800           0
     17447 MEMB     161      SAPE     HN2      HCL      0.330000       1.00800           0
     17448 MEMB     161      SAPE     HN3      HCL      0.330000       1.00800           0
     17449 MEMB     161      SAPE     C12      CTL2     0.130000       12.0110           0
     17450 MEMB     161      SAPE     H12A     HAL2     0.900000E-01   1.00800           0
     17451 MEMB     161      SAPE     H12B     HAL2     0.900000E-01   1.00800           0
     17452 MEMB     161      SAPE     C11      CTL2    -0.800000E-01   12.0110           0
     17453 MEMB     161      SAPE     H11A     HAL2     0.900000E-01   1.00800           0
     17454 MEMB     161      SAPE     H11B     HAL2     0.900000E-01   1.00800           0
     17455 MEMB     161      SAPE     P        PL       1.500000       30.9740           0
     17456 MEMB     161      SAPE     O13      O2L     -0.780000       15.9994           0
     17457 MEMB     161      SAPE     O14      O2L     -0.780000       15.9994           0
     17458 MEMB     161      SAPE     O12      OSLP    -0.570000       15.9994           0
     17459 MEMB     161      SAPE     O11      OSLP    -0.570000       15.9994           0
     17460 MEMB     161      SAPE     C1       CTL2    -0.800000E-01   12.0110           0
     17461 MEMB     161      SAPE     HA       HAL2     0.900000E-01   1.00800           0
     17462 MEMB     161      SAPE     HB       HAL2     0.900000E-01   1.00800           0
     17463 MEMB     161      SAPE     C2       CTL1     0.170000       12.0110           0
     17464 MEMB     161      SAPE     HS       HAL1     0.900000E-01   1.00800           0
     17465 MEMB     161      SAPE     O21      OSL     -0.490000       15.9994           0
     17466 MEMB     161      SAPE     C21      CL       0.900000       12.0110           0
     17467 MEMB     161      SAPE     O22      OBL     -0.630000       15.9994           0
     17468 MEMB     161      SAPE     C22      CTL2    -0.220000       12.0110           0
     17469 MEMB     161      SAPE     H2R      HAL2     0.900000E-01   1.00800           0
     17470 MEMB     161      SAPE     H2S      HAL2     0.900000E-01   1.00800           0
     17471 MEMB     161      SAPE     C3       CTL2     0.800000E-01   12.0110           0
     17472 MEMB     161      SAPE     HX       HAL2     0.900000E-01   1.00800           0
     17473 MEMB     161      SAPE     HY       HAL2     0.900000E-01   1.00800           0
     17474 MEMB     161      SAPE     O31      OSL     -0.490000       15.9994           0
     17475 MEMB     161      SAPE     C31      CL       0.900000       12.0110           0
     17476 MEMB     161      SAPE     O32      OBL     -0.630000       15.9994           0
     17477 MEMB     161      SAPE     C32      CTL2    -0.220000       12.0110           0
     17478 MEMB     161      SAPE     H2X      HAL2     0.900000E-01   1.00800           0
     17479 MEMB     161      SAPE     H2Y      HAL2     0.900000E-01   1.00800           0
     17480 MEMB     161      SAPE     C23      CTL2    -0.180000       12.0110           0
     17481 MEMB     161      SAPE     H3R      HAL2     0.900000E-01   1.00800           0
     17482 MEMB     161      SAPE     H3S      HAL2     0.900000E-01   1.00800           0
     17483 MEMB     161      SAPE     C24      CTL2    -0.180000       12.0110           0
     17484 MEMB     161      SAPE     H4R      HAL2     0.900000E-01   1.00800           0
     17485 MEMB     161      SAPE     H4S      HAL2     0.900000E-01   1.00800           0
     17486 MEMB     161      SAPE     C25      CEL1    -0.150000       12.0110           0
     17487 MEMB     161      SAPE     H5R      HEL1     0.150000       1.00800           0
     17488 MEMB     161      SAPE     C26      CEL1    -0.150000       12.0110           0
     17489 MEMB     161      SAPE     H6R      HEL1     0.150000       1.00800           0
     17490 MEMB     161      SAPE     C27      CTL2    -0.180000       12.0110           0
     17491 MEMB     161      SAPE     H7R      HAL2     0.900000E-01   1.00800           0
     17492 MEMB     161      SAPE     H7S      HAL2     0.900000E-01   1.00800           0
     17493 MEMB     161      SAPE     C28      CEL1    -0.150000       12.0110           0
     17494 MEMB     161      SAPE     H8R      HEL1     0.150000       1.00800           0
     17495 MEMB     161      SAPE     C29      CEL1    -0.150000       12.0110           0
     17496 MEMB     161      SAPE     H9R      HEL1     0.150000       1.00800           0
     17497 MEMB     161      SAPE     C210     CTL2    -0.180000       12.0110           0
     17498 MEMB     161      SAPE     H10R     HAL2     0.900000E-01   1.00800           0
     17499 MEMB     161      SAPE     H10S     HAL2     0.900000E-01   1.00800           0
     17500 MEMB     161      SAPE     C211     CEL1    -0.150000       12.0110           0
     17501 MEMB     161      SAPE     H11R     HEL1     0.150000       1.00800           0
     17502 MEMB     161      SAPE     C212     CEL1    -0.150000       12.0110           0
     17503 MEMB     161      SAPE     H12R     HEL1     0.150000       1.00800           0
     17504 MEMB     161      SAPE     C213     CTL2    -0.180000       12.0110           0
     17505 MEMB     161      SAPE     H13R     HAL2     0.900000E-01   1.00800           0
     17506 MEMB     161      SAPE     H13S     HAL2     0.900000E-01   1.00800           0
     17507 MEMB     161      SAPE     C214     CEL1    -0.150000       12.0110           0
     17508 MEMB     161      SAPE     H14R     HEL1     0.150000       1.00800           0
     17509 MEMB     161      SAPE     C215     CEL1    -0.150000       12.0110           0
     17510 MEMB     161      SAPE     H15R     HEL1     0.150000       1.00800           0
     17511 MEMB     161      SAPE     C216     CTL2    -0.180000       12.0110           0
     17512 MEMB     161      SAPE     H16R     HAL2     0.900000E-01   1.00800           0
     17513 MEMB     161      SAPE     H16S     HAL2     0.900000E-01   1.00800           0
     17514 MEMB     161      SAPE     C217     CTL2    -0.180000       12.0110           0
     17515 MEMB     161      SAPE     H17R     HAL2     0.900000E-01   1.00800           0
     17516 MEMB     161      SAPE     H17S     HAL2     0.900000E-01   1.00800           0
     17517 MEMB     161      SAPE     C218     CTL2    -0.180000       12.0110           0
     17518 MEMB     161      SAPE     H18R     HAL2     0.900000E-01   1.00800           0
     17519 MEMB     161      SAPE     H18S     HAL2     0.900000E-01   1.00800           0
     17520 MEMB     161      SAPE     C219     CTL2    -0.180000       12.0110           0
     17521 MEMB     161      SAPE     H19R     HAL2     0.900000E-01   1.00800           0
     17522 MEMB     161      SAPE     H19S     HAL2     0.900000E-01   1.00800           0
     17523 MEMB     161      SAPE     C220     CTL3    -0.270000       12.0110           0
     17524 MEMB     161      SAPE     H20R     HAL3     0.900000E-01   1.00800           0
     17525 MEMB     161      SAPE     H20S     HAL3     0.900000E-01   1.00800           0
     17526 MEMB     161      SAPE     H20T     HAL3     0.900000E-01   1.00800           0
     17527 MEMB     161      SAPE     C33      CTL2    -0.180000       12.0110           0
     17528 MEMB     161      SAPE     H3X      HAL2     0.900000E-01   1.00800           0
     17529 MEMB     161      SAPE     H3Y      HAL2     0.900000E-01   1.00800           0
     17530 MEMB     161      SAPE     C34      CTL2    -0.180000       12.0110           0
     17531 MEMB     161      SAPE     H4X      HAL2     0.900000E-01   1.00800           0
     17532 MEMB     161      SAPE     H4Y      HAL2     0.900000E-01   1.00800           0
     17533 MEMB     161      SAPE     C35      CTL2    -0.180000       12.0110           0
     17534 MEMB     161      SAPE     H5X      HAL2     0.900000E-01   1.00800           0
     17535 MEMB     161      SAPE     H5Y      HAL2     0.900000E-01   1.00800           0
     17536 MEMB     161      SAPE     C36      CTL2    -0.180000       12.0110           0
     17537 MEMB     161      SAPE     H6X      HAL2     0.900000E-01   1.00800           0
     17538 MEMB     161      SAPE     H6Y      HAL2     0.900000E-01   1.00800           0
     17539 MEMB     161      SAPE     C37      CTL2    -0.180000       12.0110           0
     17540 MEMB     161      SAPE     H7X      HAL2     0.900000E-01   1.00800           0
     17541 MEMB     161      SAPE     H7Y      HAL2     0.900000E-01   1.00800           0
     17542 MEMB     161      SAPE     C38      CTL2    -0.180000       12.0110           0
     17543 MEMB     161      SAPE     H8X      HAL2     0.900000E-01   1.00800           0
     17544 MEMB     161      SAPE     H8Y      HAL2     0.900000E-01   1.00800           0
     17545 MEMB     161      SAPE     C39      CTL2    -0.180000       12.0110           0
     17546 MEMB     161      SAPE     H9X      HAL2     0.900000E-01   1.00800           0
     17547 MEMB     161      SAPE     H9Y      HAL2     0.900000E-01   1.00800           0
     17548 MEMB     161      SAPE     C310     CTL2    -0.180000       12.0110           0
     17549 MEMB     161      SAPE     H10X     HAL2     0.900000E-01   1.00800           0
     17550 MEMB     161      SAPE     H10Y     HAL2     0.900000E-01   1.00800           0
     17551 MEMB     161      SAPE     C311     CTL2    -0.180000       12.0110           0
     17552 MEMB     161      SAPE     H11X     HAL2     0.900000E-01   1.00800           0
     17553 MEMB     161      SAPE     H11Y     HAL2     0.900000E-01   1.00800           0
     17554 MEMB     161      SAPE     C312     CTL2    -0.180000       12.0110           0
     17555 MEMB     161      SAPE     H12X     HAL2     0.900000E-01   1.00800           0
     17556 MEMB     161      SAPE     H12Y     HAL2     0.900000E-01   1.00800           0
     17557 MEMB     161      SAPE     C313     CTL2    -0.180000       12.0110           0
     17558 MEMB     161      SAPE     H13X     HAL2     0.900000E-01   1.00800           0
     17559 MEMB     161      SAPE     H13Y     HAL2     0.900000E-01   1.00800           0
     17560 MEMB     161      SAPE     C314     CTL2    -0.180000       12.0110           0
     17561 MEMB     161      SAPE     H14X     HAL2     0.900000E-01   1.00800           0
     17562 MEMB     161      SAPE     H14Y     HAL2     0.900000E-01   1.00800           0
     17563 MEMB     161      SAPE     C315     CTL2    -0.180000       12.0110           0
     17564 MEMB     161      SAPE     H15X     HAL2     0.900000E-01   1.00800           0
     17565 MEMB     161      SAPE     H15Y     HAL2     0.900000E-01   1.00800           0
     17566 MEMB     161      SAPE     C316     CTL2    -0.180000       12.0110           0
     17567 MEMB     161      SAPE     H16X     HAL2     0.900000E-01   1.00800           0
     17568 MEMB     161      SAPE     H16Y     HAL2     0.900000E-01   1.00800           0
     17569 MEMB     161      SAPE     C317     CTL2    -0.180000       12.0110           0
     17570 MEMB     161      SAPE     H17X     HAL2     0.900000E-01   1.00800           0
     17571 MEMB     161      SAPE     H17Y     HAL2     0.900000E-01   1.00800           0
     17572 MEMB     161      SAPE     C318     CTL3    -0.270000       12.0110           0
     17573 MEMB     161      SAPE     H18X     HAL3     0.900000E-01   1.00800           0
     17574 MEMB     161      SAPE     H18Y     HAL3     0.900000E-01   1.00800           0
     17575 MEMB     161      SAPE     H18Z     HAL3     0.900000E-01   1.00800           0
     17576 MEMB     174      SAPE     N        NH3L    -0.300000       14.0070           0
     17577 MEMB     174      SAPE     HN1      HCL      0.330000       1.00800           0
     17578 MEMB     174      SAPE     HN2      HCL      0.330000       1.00800           0
     17579 MEMB     174      SAPE     HN3      HCL      0.330000       1.00800           0
     17580 MEMB     174      SAPE     C12      CTL2     0.130000       12.0110           0
     17581 MEMB     174      SAPE     H12A     HAL2     0.900000E-01   1.00800           0
     17582 MEMB     174      SAPE     H12B     HAL2     0.900000E-01   1.00800           0
     17583 MEMB     174      SAPE     C11      CTL2    -0.800000E-01   12.0110           0
     17584 MEMB     174      SAPE     H11A     HAL2     0.900000E-01   1.00800           0
     17585 MEMB     174      SAPE     H11B     HAL2     0.900000E-01   1.00800           0
     17586 MEMB     174      SAPE     P        PL       1.500000       30.9740           0
     17587 MEMB     174      SAPE     O13      O2L     -0.780000       15.9994           0
     17588 MEMB     174      SAPE     O14      O2L     -0.780000       15.9994           0
     17589 MEMB     174      SAPE     O12      OSLP    -0.570000       15.9994           0
     17590 MEMB     174      SAPE     O11      OSLP    -0.570000       15.9994           0
     17591 MEMB     174      SAPE     C1       CTL2    -0.800000E-01   12.0110           0
     17592 MEMB     174      SAPE     HA       HAL2     0.900000E-01   1.00800           0
     17593 MEMB     174      SAPE     HB       HAL2     0.900000E-01   1.00800           0
     17594 MEMB     174      SAPE     C2       CTL1     0.170000       12.0110           0
     17595 MEMB     174      SAPE     HS       HAL1     0.900000E-01   1.00800           0
     17596 MEMB     174      SAPE     O21      OSL     -0.490000       15.9994           0
     17597 MEMB     174      SAPE     C21      CL       0.900000       12.0110           0
     17598 MEMB     174      SAPE     O22      OBL     -0.630000       15.9994           0
     17599 MEMB     174      SAPE     C22      CTL2    -0.220000       12.0110           0
     17600 MEMB     174      SAPE     H2R      HAL2     0.900000E-01   1.00800           0
     17601 MEMB     174      SAPE     H2S      HAL2     0.900000E-01   1.00800           0
     17602 MEMB     174      SAPE     C3       CTL2     0.800000E-01   12.0110           0
     17603 MEMB     174      SAPE     HX       HAL2     0.900000E-01   1.00800           0
     17604 MEMB     174      SAPE     HY       HAL2     0.900000E-01   1.00800           0
     17605 MEMB     174      SAPE     O31      OSL     -0.490000       15.9994           0
     17606 MEMB     174      SAPE     C31      CL       0.900000       12.0110           0
     17607 MEMB     174      SAPE     O32      OBL     -0.630000       15.9994           0
     17608 MEMB     174      SAPE     C32      CTL2    -0.220000       12.0110           0
     17609 MEMB     174      SAPE     H2X      HAL2     0.900000E-01   1.00800           0
     17610 MEMB     174      SAPE     H2Y      HAL2     0.900000E-01   1.00800           0
     17611 MEMB     174      SAPE     C23      CTL2    -0.180000       12.0110           0
     17612 MEMB     174      SAPE     H3R      HAL2     0.900000E-01   1.00800           0
     17613 MEMB     174      SAPE     H3S      HAL2     0.900000E-01   1.00800           0
     17614 MEMB     174      SAPE     C24      CTL2    -0.180000       12.0110           0
     17615 MEMB     174      SAPE     H4R      HAL2     0.900000E-01   1.00800           0
     17616 MEMB     174      SAPE     H4S      HAL2     0.900000E-01   1.00800           0
     17617 MEMB     174      SAPE     C25      CEL1    -0.150000       12.0110           0
     17618 MEMB     174      SAPE     H5R      HEL1     0.150000       1.00800           0
     17619 MEMB     174      SAPE     C26      CEL1    -0.150000       12.0110           0
     17620 MEMB     174      SAPE     H6R      HEL1     0.150000       1.00800           0
     17621 MEMB     174      SAPE     C27      CTL2    -0.180000       12.0110           0
     17622 MEMB     174      SAPE     H7R      HAL2     0.900000E-01   1.00800           0
     17623 MEMB     174      SAPE     H7S      HAL2     0.900000E-01   1.00800           0
     17624 MEMB     174      SAPE     C28      CEL1    -0.150000       12.0110           0
     17625 MEMB     174      SAPE     H8R      HEL1     0.150000       1.00800           0
     17626 MEMB     174      SAPE     C29      CEL1    -0.150000       12.0110           0
     17627 MEMB     174      SAPE     H9R      HEL1     0.150000       1.00800           0
     17628 MEMB     174      SAPE     C210     CTL2    -0.180000       12.0110           0
     17629 MEMB     174      SAPE     H10R     HAL2     0.900000E-01   1.00800           0
     17630 MEMB     174      SAPE     H10S     HAL2     0.900000E-01   1.00800           0
     17631 MEMB     174      SAPE     C211     CEL1    -0.150000       12.0110           0
     17632 MEMB     174      SAPE     H11R     HEL1     0.150000       1.00800           0
     17633 MEMB     174      SAPE     C212     CEL1    -0.150000       12.0110           0
     17634 MEMB     174      SAPE     H12R     HEL1     0.150000       1.00800           0
     17635 MEMB     174      SAPE     C213     CTL2    -0.180000       12.0110           0
     17636 MEMB     174      SAPE     H13R     HAL2     0.900000E-01   1.00800           0
     17637 MEMB     174      SAPE     H13S     HAL2     0.900000E-01   1.00800           0
     17638 MEMB     174      SAPE     C214     CEL1    -0.150000       12.0110           0
     17639 MEMB     174      SAPE     H14R     HEL1     0.150000       1.00800           0
     17640 MEMB     174      SAPE     C215     CEL1    -0.150000       12.0110           0
     17641 MEMB     174      SAPE     H15R     HEL1     0.150000       1.00800           0
     17642 MEMB     174      SAPE     C216     CTL2    -0.180000       12.0110           0
     17643 MEMB     174      SAPE     H16R     HAL2     0.900000E-01   1.00800           0
     17644 MEMB     174      SAPE     H16S     HAL2     0.900000E-01   1.00800           0
     17645 MEMB     174      SAPE     C217     CTL2    -0.180000       12.0110           0
     17646 MEMB     174      SAPE     H17R     HAL2     0.900000E-01   1.00800           0
     17647 MEMB     174      SAPE     H17S     HAL2     0.900000E-01   1.00800           0
     17648 MEMB     174      SAPE     C218     CTL2    -0.180000       12.0110           0
     17649 MEMB     174      SAPE     H18R     HAL2     0.900000E-01   1.00800           0
     17650 MEMB     174      SAPE     H18S     HAL2     0.900000E-01   1.00800           0
     17651 MEMB     174      SAPE     C219     CTL2    -0.180000       12.0110           0
     17652 MEMB     174      SAPE     H19R     HAL2     0.900000E-01   1.00800           0
     17653 MEMB     174      SAPE     H19S     HAL2     0.900000E-01   1.00800           0
     17654 MEMB     174      SAPE     C220     CTL3    -0.270000       12.0110           0
     17655 MEMB     174      SAPE     H20R     HAL3     0.900000E-01   1.00800           0
     17656 MEMB     174      SAPE     H20S     HAL3     0.900000E-01   1.00800           0
     17657 MEMB     174      SAPE     H20T     HAL3     0.900000E-01   1.00800           0
     17658 MEMB     174      SAPE     C33      CTL2    -0.180000       12.0110           0
     17659 MEMB     174      SAPE     H3X      HAL2     0.900000E-01   1.00800           0
     17660 MEMB     174      SAPE     H3Y      HAL2     0.900000E-01   1.00800           0
     17661 MEMB     174      SAPE     C34      CTL2    -0.180000       12.0110           0
     17662 MEMB     174      SAPE     H4X      HAL2     0.900000E-01   1.00800           0
     17663 MEMB     174      SAPE     H4Y      HAL2     0.900000E-01   1.00800           0
     17664 MEMB     174      SAPE     C35      CTL2    -0.180000       12.0110           0
     17665 MEMB     174      SAPE     H5X      HAL2     0.900000E-01   1.00800           0
     17666 MEMB     174      SAPE     H5Y      HAL2     0.900000E-01   1.00800           0
     17667 MEMB     174      SAPE     C36      CTL2    -0.180000       12.0110           0
     17668 MEMB     174      SAPE     H6X      HAL2     0.900000E-01   1.00800           0
     17669 MEMB     174      SAPE     H6Y      HAL2     0.900000E-01   1.00800           0
     17670 MEMB     174      SAPE     C37      CTL2    -0.180000       12.0110           0
     17671 MEMB     174      SAPE     H7X      HAL2     0.900000E-01   1.00800           0
     17672 MEMB     174      SAPE     H7Y      HAL2     0.900000E-01   1.00800           0
     17673 MEMB     174      SAPE     C38      CTL2    -0.180000       12.0110           0
     17674 MEMB     174      SAPE     H8X      HAL2     0.900000E-01   1.00800           0
     17675 MEMB     174      SAPE     H8Y      HAL2     0.900000E-01   1.00800           0
     17676 MEMB     174      SAPE     C39      CTL2    -0.180000       12.0110           0
     17677 MEMB     174      SAPE     H9X      HAL2     0.900000E-01   1.00800           0
     17678 MEMB     174      SAPE     H9Y      HAL2     0.900000E-01   1.00800           0
     17679 MEMB     174      SAPE     C310     CTL2    -0.180000       12.0110           0
     17680 MEMB     174      SAPE     H10X     HAL2     0.900000E-01   1.00800           0
     17681 MEMB     174      SAPE     H10Y     HAL2     0.900000E-01   1.00800           0
     17682 MEMB     174      SAPE     C311     CTL2    -0.180000       12.0110           0
     17683 MEMB     174      SAPE     H11X     HAL2     0.900000E-01   1.00800           0
     17684 MEMB     174      SAPE     H11Y     HAL2     0.900000E-01   1.00800           0
     17685 MEMB     174      SAPE     C312     CTL2    -0.180000       12.0110           0
     17686 MEMB     174      SAPE     H12X     HAL2     0.900000E-01   1.00800           0
     17687 MEMB     174      SAPE     H12Y     HAL2     0.900000E-01   1.00800           0
     17688 MEMB     174      SAPE     C313     CTL2    -0.180000       12.0110           0
     17689 MEMB     174      SAPE     H13X     HAL2     0.900000E-01   1.00800           0
     17690 MEMB     174      SAPE     H13Y     HAL2     0.900000E-01   1.00800           0
     17691 MEMB     174      SAPE     C314     CTL2    -0.180000       12.0110           0
     17692 MEMB     174      SAPE     H14X     HAL2     0.900000E-01   1.00800           0
     17693 MEMB     174      SAPE     H14Y     HAL2     0.900000E-01   1.00800           0
     17694 MEMB     174      SAPE     C315     CTL2    -0.180000       12.0110           0
     17695 MEMB     174      SAPE     H15X     HAL2     0.900000E-01   1.00800           0
     17696 MEMB     174      SAPE     H15Y     HAL2     0.900000E-01   1.00800           0
     17697 MEMB     174      SAPE     C316     CTL2    -0.180000       12.0110           0
     17698 MEMB     174      SAPE     H16X     HAL2     0.900000E-01   1.00800           0
     17699 MEMB     174      SAPE     H16Y     HAL2     0.900000E-01   1.00800           0
     17700 MEMB     174      SAPE     C317     CTL2    -0.180000       12.0110           0
     17701 MEMB     174      SAPE     H17X     HAL2     0.900000E-01   1.00800           0
     17702 MEMB     174      SAPE     H17Y     HAL2     0.900000E-01   1.00800           0
     17703 MEMB     174      SAPE     C318     CTL3    -0.270000       12.0110           0
     17704 MEMB     174      SAPE     H18X     HAL3     0.900000E-01   1.00800           0
     17705 MEMB     174      SAPE     H18Y     HAL3     0.900000E-01   1.00800           0
     17706 MEMB     174      SAPE     H18Z     HAL3     0.900000E-01   1.00800           0
     17707 MEMB     176      SAPE     N        NH3L    -0.300000       14.0070           0
     17708 MEMB     176      SAPE     HN1      HCL      0.330000       1.00800           0
     17709 MEMB     176      SAPE     HN2      HCL      0.330000       1.00800           0
     17710 MEMB     176      SAPE     HN3      HCL      0.330000       1.00800           0
     17711 MEMB     176      SAPE     C12      CTL2     0.130000       12.0110           0
     17712 MEMB     176      SAPE     H12A     HAL2     0.900000E-01   1.00800           0
     17713 MEMB     176      SAPE     H12B     HAL2     0.900000E-01   1.00800           0
     17714 MEMB     176      SAPE     C11      CTL2    -0.800000E-01   12.0110           0
     17715 MEMB     176      SAPE     H11A     HAL2     0.900000E-01   1.00800           0
     17716 MEMB     176      SAPE     H11B     HAL2     0.900000E-01   1.00800           0
     17717 MEMB     176      SAPE     P        PL       1.500000       30.9740           0
     17718 MEMB     176      SAPE     O13      O2L     -0.780000       15.9994           0
     17719 MEMB     176      SAPE     O14      O2L     -0.780000       15.9994           0
     17720 MEMB     176      SAPE     O12      OSLP    -0.570000       15.9994           0
     17721 MEMB     176      SAPE     O11      OSLP    -0.570000       15.9994           0
     17722 MEMB     176      SAPE     C1       CTL2    -0.800000E-01   12.0110           0
     17723 MEMB     176      SAPE     HA       HAL2     0.900000E-01   1.00800           0
     17724 MEMB     176      SAPE     HB       HAL2     0.900000E-01   1.00800           0
     17725 MEMB     176      SAPE     C2       CTL1     0.170000       12.0110           0
     17726 MEMB     176      SAPE     HS       HAL1     0.900000E-01   1.00800           0
     17727 MEMB     176      SAPE     O21      OSL     -0.490000       15.9994           0
     17728 MEMB     176      SAPE     C21      CL       0.900000       12.0110           0
     17729 MEMB     176      SAPE     O22      OBL     -0.630000       15.9994           0
     17730 MEMB     176      SAPE     C22      CTL2    -0.220000       12.0110           0
     17731 MEMB     176      SAPE     H2R      HAL2     0.900000E-01   1.00800           0
     17732 MEMB     176      SAPE     H2S      HAL2     0.900000E-01   1.00800           0
     17733 MEMB     176      SAPE     C3       CTL2     0.800000E-01   12.0110           0
     17734 MEMB     176      SAPE     HX       HAL2     0.900000E-01   1.00800           0
     17735 MEMB     176      SAPE     HY       HAL2     0.900000E-01   1.00800           0
     17736 MEMB     176      SAPE     O31      OSL     -0.490000       15.9994           0
     17737 MEMB     176      SAPE     C31      CL       0.900000       12.0110           0
     17738 MEMB     176      SAPE     O32      OBL     -0.630000       15.9994           0
     17739 MEMB     176      SAPE     C32      CTL2    -0.220000       12.0110           0
     17740 MEMB     176      SAPE     H2X      HAL2     0.900000E-01   1.00800           0
     17741 MEMB     176      SAPE     H2Y      HAL2     0.900000E-01   1.00800           0
     17742 MEMB     176      SAPE     C23      CTL2    -0.180000       12.0110           0
     17743 MEMB     176      SAPE     H3R      HAL2     0.900000E-01   1.00800           0
     17744 MEMB     176      SAPE     H3S      HAL2     0.900000E-01   1.00800           0
     17745 MEMB     176      SAPE     C24      CTL2    -0.180000       12.0110           0
     17746 MEMB     176      SAPE     H4R      HAL2     0.900000E-01   1.00800           0
     17747 MEMB     176      SAPE     H4S      HAL2     0.900000E-01   1.00800           0
     17748 MEMB     176      SAPE     C25      CEL1    -0.150000       12.0110           0
     17749 MEMB     176      SAPE     H5R      HEL1     0.150000       1.00800           0
     17750 MEMB     176      SAPE     C26      CEL1    -0.150000       12.0110           0
     17751 MEMB     176      SAPE     H6R      HEL1     0.150000       1.00800           0
     17752 MEMB     176      SAPE     C27      CTL2    -0.180000       12.0110           0
     17753 MEMB     176      SAPE     H7R      HAL2     0.900000E-01   1.00800           0
     17754 MEMB     176      SAPE     H7S      HAL2     0.900000E-01   1.00800           0
     17755 MEMB     176      SAPE     C28      CEL1    -0.150000       12.0110           0
     17756 MEMB     176      SAPE     H8R      HEL1     0.150000       1.00800           0
     17757 MEMB     176      SAPE     C29      CEL1    -0.150000       12.0110           0
     17758 MEMB     176      SAPE     H9R      HEL1     0.150000       1.00800           0
     17759 MEMB     176      SAPE     C210     CTL2    -0.180000       12.0110           0
     17760 MEMB     176      SAPE     H10R     HAL2     0.900000E-01   1.00800           0
     17761 MEMB     176      SAPE     H10S     HAL2     0.900000E-01   1.00800           0
     17762 MEMB     176      SAPE     C211     CEL1    -0.150000       12.0110           0
     17763 MEMB     176      SAPE     H11R     HEL1     0.150000       1.00800           0
     17764 MEMB     176      SAPE     C212     CEL1    -0.150000       12.0110           0
     17765 MEMB     176      SAPE     H12R     HEL1     0.150000       1.00800           0
     17766 MEMB     176      SAPE     C213     CTL2    -0.180000       12.0110           0
     17767 MEMB     176      SAPE     H13R     HAL2     0.900000E-01   1.00800           0
     17768 MEMB     176      SAPE     H13S     HAL2     0.900000E-01   1.00800           0
     17769 MEMB     176      SAPE     C214     CEL1    -0.150000       12.0110           0
     17770 MEMB     176      SAPE     H14R     HEL1     0.150000       1.00800           0
     17771 MEMB     176      SAPE     C215     CEL1    -0.150000       12.0110           0
     17772 MEMB     176      SAPE     H15R     HEL1     0.150000       1.00800           0
     17773 MEMB     176      SAPE     C216     CTL2    -0.180000       12.0110           0
     17774 MEMB     176      SAPE     H16R     HAL2     0.900000E-01   1.00800           0
     17775 MEMB     176      SAPE     H16S     HAL2     0.900000E-01   1.00800           0
     17776 MEMB     176      SAPE     C217     CTL2    -0.180000       12.0110           0
     17777 MEMB     176      SAPE     H17R     HAL2     0.900000E-01   1.00800           0
     17778 MEMB     176      SAPE     H17S     HAL2     0.900000E-01   1.00800           0
     17779 MEMB     176      SAPE     C218     CTL2    -0.180000       12.0110           0
     17780 MEMB     176      SAPE     H18R     HAL2     0.900000E-01   1.00800           0
     17781 MEMB     176      SAPE     H18S     HAL2     0.900000E-01   1.00800           0
     17782 MEMB     176      SAPE     C219     CTL2    -0.180000       12.0110           0
     17783 MEMB     176      SAPE     H19R     HAL2     0.900000E-01   1.00800           0
     17784 MEMB     176      SAPE     H19S     HAL2     0.900000E-01   1.00800           0
     17785 MEMB     176      SAPE     C220     CTL3    -0.270000       12.0110           0
     17786 MEMB     176      SAPE     H20R     HAL3     0.900000E-01   1.00800           0
     17787 MEMB     176      SAPE     H20S     HAL3     0.900000E-01   1.00800           0
     17788 MEMB     176      SAPE     H20T     HAL3     0.900000E-01   1.00800           0
     17789 MEMB     176      SAPE     C33      CTL2    -0.180000       12.0110           0
     17790 MEMB     176      SAPE     H3X      HAL2     0.900000E-01   1.00800           0
     17791 MEMB     176      SAPE     H3Y      HAL2     0.900000E-01   1.00800           0
     17792 MEMB     176      SAPE     C34      CTL2    -0.180000       12.0110           0
     17793 MEMB     176      SAPE     H4X      HAL2     0.900000E-01   1.00800           0
     17794 MEMB     176      SAPE     H4Y      HAL2     0.900000E-01   1.00800           0
     17795 MEMB     176      SAPE     C35      CTL2    -0.180000       12.0110           0
     17796 MEMB     176      SAPE     H5X      HAL2     0.900000E-01   1.00800           0
     17797 MEMB     176      SAPE     H5Y      HAL2     0.900000E-01   1.00800           0
     17798 MEMB     176      SAPE     C36      CTL2    -0.180000       12.0110           0
     17799 MEMB     176      SAPE     H6X      HAL2     0.900000E-01   1.00800           0
     17800 MEMB     176      SAPE     H6Y      HAL2     0.900000E-01   1.00800           0
     17801 MEMB     176      SAPE     C37      CTL2    -0.180000       12.0110           0
     17802 MEMB     176      SAPE     H7X      HAL2     0.900000E-01   1.00800           0
     17803 MEMB     176      SAPE     H7Y      HAL2     0.900000E-01   1.00800           0
     17804 MEMB     176      SAPE     C38      CTL2    -0.180000       12.0110           0
     17805 MEMB     176      SAPE     H8X      HAL2     0.900000E-01   1.00800           0
     17806 MEMB     176      SAPE     H8Y      HAL2     0.900000E-01   1.00800           0
     17807 MEMB     176      SAPE     C39      CTL2    -0.180000       12.0110           0
     17808 MEMB     176      SAPE     H9X      HAL2     0.900000E-01   1.00800           0
     17809 MEMB     176      SAPE     H9Y      HAL2     0.900000E-01   1.00800           0
     17810 MEMB     176      SAPE     C310     CTL2    -0.180000       12.0110           0
     17811 MEMB     176      SAPE     H10X     HAL2     0.900000E-01   1.00800           0
     17812 MEMB     176      SAPE     H10Y     HAL2     0.900000E-01   1.00800           0
     17813 MEMB     176      SAPE     C311     CTL2    -0.180000       12.0110           0
     17814 MEMB     176      SAPE     H11X     HAL2     0.900000E-01   1.00800           0
     17815 MEMB     176      SAPE     H11Y     HAL2     0.900000E-01   1.00800           0
     17816 MEMB     176      SAPE     C312     CTL2    -0.180000       12.0110           0
     17817 MEMB     176      SAPE     H12X     HAL2     0.900000E-01   1.00800           0
     17818 MEMB     176      SAPE     H12Y     HAL2     0.900000E-01   1.00800           0
     17819 MEMB     176      SAPE     C313     CTL2    -0.180000       12.0110           0
     17820 MEMB     176      SAPE     H13X     HAL2     0.900000E-01   1.00800           0
     17821 MEMB     176      SAPE     H13Y     HAL2     0.900000E-01   1.00800           0
     17822 MEMB     176      SAPE     C314     CTL2    -0.180000       12.0110           0
     17823 MEMB     176      SAPE     H14X     HAL2     0.900000E-01   1.00800           0
     17824 MEMB     176      SAPE     H14Y     HAL2     0.900000E-01   1.00800           0
     17825 MEMB     176      SAPE     C315     CTL2    -0.180000       12.0110           0
     17826 MEMB     176      SAPE     H15X     HAL2     0.900000E-01   1.00800           0
     17827 MEMB     176      SAPE     H15Y     HAL2     0.900000E-01   1.00800           0
     17828 MEMB     176      SAPE     C316     CTL2    -0.180000       12.0110           0
     17829 MEMB     176      SAPE     H16X     HAL2     0.900000E-01   1.00800           0
     17830 MEMB     176      SAPE     H16Y     HAL2     0.900000E-01   1.00800           0
     17831 MEMB     176      SAPE     C317     CTL2    -0.180000       12.0110           0
     17832 MEMB     176      SAPE     H17X     HAL2     0.900000E-01   1.00800           0
     17833 MEMB     176      SAPE     H17Y     HAL2     0.900000E-01   1.00800           0
     17834 MEMB     176      SAPE     C318     CTL3    -0.270000       12.0110           0
     17835 MEMB     176      SAPE     H18X     HAL3     0.900000E-01   1.00800           0
     17836 MEMB     176      SAPE     H18Y     HAL3     0.900000E-01   1.00800           0
     17837 MEMB     176      SAPE     H18Z     HAL3     0.900000E-01   1.00800           0
     17838 MEMB     189      SAPE     N        NH3L    -0.300000       14.0070           0
     17839 MEMB     189      SAPE     HN1      HCL      0.330000       1.00800           0
     17840 MEMB     189      SAPE     HN2      HCL      0.330000       1.00800           0
     17841 MEMB     189      SAPE     HN3      HCL      0.330000       1.00800           0
     17842 MEMB     189      SAPE     C12      CTL2     0.130000       12.0110           0
     17843 MEMB     189      SAPE     H12A     HAL2     0.900000E-01   1.00800           0
     17844 MEMB     189      SAPE     H12B     HAL2     0.900000E-01   1.00800           0
     17845 MEMB     189      SAPE     C11      CTL2    -0.800000E-01   12.0110           0
     17846 MEMB     189      SAPE     H11A     HAL2     0.900000E-01   1.00800           0
     17847 MEMB     189      SAPE     H11B     HAL2     0.900000E-01   1.00800           0
     17848 MEMB     189      SAPE     P        PL       1.500000       30.9740           0
     17849 MEMB     189      SAPE     O13      O2L     -0.780000       15.9994           0
     17850 MEMB     189      SAPE     O14      O2L     -0.780000       15.9994           0
     17851 MEMB     189      SAPE     O12      OSLP    -0.570000       15.9994           0
     17852 MEMB     189      SAPE     O11      OSLP    -0.570000       15.9994           0
     17853 MEMB     189      SAPE     C1       CTL2    -0.800000E-01   12.0110           0
     17854 MEMB     189      SAPE     HA       HAL2     0.900000E-01   1.00800           0
     17855 MEMB     189      SAPE     HB       HAL2     0.900000E-01   1.00800           0
     17856 MEMB     189      SAPE     C2       CTL1     0.170000       12.0110           0
     17857 MEMB     189      SAPE     HS       HAL1     0.900000E-01   1.00800           0
     17858 MEMB     189      SAPE     O21      OSL     -0.490000       15.9994           0
     17859 MEMB     189      SAPE     C21      CL       0.900000       12.0110           0
     17860 MEMB     189      SAPE     O22      OBL     -0.630000       15.9994           0
     17861 MEMB     189      SAPE     C22      CTL2    -0.220000       12.0110           0
     17862 MEMB     189      SAPE     H2R      HAL2     0.900000E-01   1.00800           0
     17863 MEMB     189      SAPE     H2S      HAL2     0.900000E-01   1.00800           0
     17864 MEMB     189      SAPE     C3       CTL2     0.800000E-01   12.0110           0
     17865 MEMB     189      SAPE     HX       HAL2     0.900000E-01   1.00800           0
     17866 MEMB     189      SAPE     HY       HAL2     0.900000E-01   1.00800           0
     17867 MEMB     189      SAPE     O31      OSL     -0.490000       15.9994           0
     17868 MEMB     189      SAPE     C31      CL       0.900000       12.0110           0
     17869 MEMB     189      SAPE     O32      OBL     -0.630000       15.9994           0
     17870 MEMB     189      SAPE     C32      CTL2    -0.220000       12.0110           0
     17871 MEMB     189      SAPE     H2X      HAL2     0.900000E-01   1.00800           0
     17872 MEMB     189      SAPE     H2Y      HAL2     0.900000E-01   1.00800           0
     17873 MEMB     189      SAPE     C23      CTL2    -0.180000       12.0110           0
     17874 MEMB     189      SAPE     H3R      HAL2     0.900000E-01   1.00800           0
     17875 MEMB     189      SAPE     H3S      HAL2     0.900000E-01   1.00800           0
     17876 MEMB     189      SAPE     C24      CTL2    -0.180000       12.0110           0
     17877 MEMB     189      SAPE     H4R      HAL2     0.900000E-01   1.00800           0
     17878 MEMB     189      SAPE     H4S      HAL2     0.900000E-01   1.00800           0
     17879 MEMB     189      SAPE     C25      CEL1    -0.150000       12.0110           0
     17880 MEMB     189      SAPE     H5R      HEL1     0.150000       1.00800           0
     17881 MEMB     189      SAPE     C26      CEL1    -0.150000       12.0110           0
     17882 MEMB     189      SAPE     H6R      HEL1     0.150000       1.00800           0
     17883 MEMB     189      SAPE     C27      CTL2    -0.180000       12.0110           0
     17884 MEMB     189      SAPE     H7R      HAL2     0.900000E-01   1.00800           0
     17885 MEMB     189      SAPE     H7S      HAL2     0.900000E-01   1.00800           0
     17886 MEMB     189      SAPE     C28      CEL1    -0.150000       12.0110           0
     17887 MEMB     189      SAPE     H8R      HEL1     0.150000       1.00800           0
     17888 MEMB     189      SAPE     C29      CEL1    -0.150000       12.0110           0
     17889 MEMB     189      SAPE     H9R      HEL1     0.150000       1.00800           0
     17890 MEMB     189      SAPE     C210     CTL2    -0.180000       12.0110           0
     17891 MEMB     189      SAPE     H10R     HAL2     0.900000E-01   1.00800           0
     17892 MEMB     189      SAPE     H10S     HAL2     0.900000E-01   1.00800           0
     17893 MEMB     189      SAPE     C211     CEL1    -0.150000       12.0110           0
     17894 MEMB     189      SAPE     H11R     HEL1     0.150000       1.00800           0
     17895 MEMB     189      SAPE     C212     CEL1    -0.150000       12.0110           0
     17896 MEMB     189      SAPE     H12R     HEL1     0.150000       1.00800           0
     17897 MEMB     189      SAPE     C213     CTL2    -0.180000       12.0110           0
     17898 MEMB     189      SAPE     H13R     HAL2     0.900000E-01   1.00800           0
     17899 MEMB     189      SAPE     H13S     HAL2     0.900000E-01   1.00800           0
     17900 MEMB     189      SAPE     C214     CEL1    -0.150000       12.0110           0
     17901 MEMB     189      SAPE     H14R     HEL1     0.150000       1.00800           0
     17902 MEMB     189      SAPE     C215     CEL1    -0.150000       12.0110           0
     17903 MEMB     189      SAPE     H15R     HEL1     0.150000       1.00800           0
     17904 MEMB     189      SAPE     C216     CTL2    -0.180000       12.0110           0
     17905 MEMB     189      SAPE     H16R     HAL2     0.900000E-01   1.00800           0
     17906 MEMB     189      SAPE     H16S     HAL2     0.900000E-01   1.00800           0
     17907 MEMB     189      SAPE     C217     CTL2    -0.180000       12.0110           0
     17908 MEMB     189      SAPE     H17R     HAL2     0.900000E-01   1.00800           0
     17909 MEMB     189      SAPE     H17S     HAL2     0.900000E-01   1.00800           0
     17910 MEMB     189      SAPE     C218     CTL2    -0.180000       12.0110           0
     17911 MEMB     189      SAPE     H18R     HAL2     0.900000E-01   1.00800           0
     17912 MEMB     189      SAPE     H18S     HAL2     0.900000E-01   1.00800           0
     17913 MEMB     189      SAPE     C219     CTL2    -0.180000       12.0110           0
     17914 MEMB     189      SAPE     H19R     HAL2     0.900000E-01   1.00800           0
     17915 MEMB     189      SAPE     H19S     HAL2     0.900000E-01   1.00800           0
     17916 MEMB     189      SAPE     C220     CTL3    -0.270000       12.0110           0
     17917 MEMB     189      SAPE     H20R     HAL3     0.900000E-01   1.00800           0
     17918 MEMB     189      SAPE     H20S     HAL3     0.900000E-01   1.00800           0
     17919 MEMB     189      SAPE     H20T     HAL3     0.900000E-01   1.00800           0
     17920 MEMB     189      SAPE     C33      CTL2    -0.180000       12.0110           0
     17921 MEMB     189      SAPE     H3X      HAL2     0.900000E-01   1.00800           0
     17922 MEMB     189      SAPE     H3Y      HAL2     0.900000E-01   1.00800           0
     17923 MEMB     189      SAPE     C34      CTL2    -0.180000       12.0110           0
     17924 MEMB     189      SAPE     H4X      HAL2     0.900000E-01   1.00800           0
     17925 MEMB     189      SAPE     H4Y      HAL2     0.900000E-01   1.00800           0
     17926 MEMB     189      SAPE     C35      CTL2    -0.180000       12.0110           0
     17927 MEMB     189      SAPE     H5X      HAL2     0.900000E-01   1.00800           0
     17928 MEMB     189      SAPE     H5Y      HAL2     0.900000E-01   1.00800           0
     17929 MEMB     189      SAPE     C36      CTL2    -0.180000       12.0110           0
     17930 MEMB     189      SAPE     H6X      HAL2     0.900000E-01   1.00800           0
     17931 MEMB     189      SAPE     H6Y      HAL2     0.900000E-01   1.00800           0
     17932 MEMB     189      SAPE     C37      CTL2    -0.180000       12.0110           0
     17933 MEMB     189      SAPE     H7X      HAL2     0.900000E-01   1.00800           0
     17934 MEMB     189      SAPE     H7Y      HAL2     0.900000E-01   1.00800           0
     17935 MEMB     189      SAPE     C38      CTL2    -0.180000       12.0110           0
     17936 MEMB     189      SAPE     H8X      HAL2     0.900000E-01   1.00800           0
     17937 MEMB     189      SAPE     H8Y      HAL2     0.900000E-01   1.00800           0
     17938 MEMB     189      SAPE     C39      CTL2    -0.180000       12.0110           0
     17939 MEMB     189      SAPE     H9X      HAL2     0.900000E-01   1.00800           0
     17940 MEMB     189      SAPE     H9Y      HAL2     0.900000E-01   1.00800           0
     17941 MEMB     189      SAPE     C310     CTL2    -0.180000       12.0110           0
     17942 MEMB     189      SAPE     H10X     HAL2     0.900000E-01   1.00800           0
     17943 MEMB     189      SAPE     H10Y     HAL2     0.900000E-01   1.00800           0
     17944 MEMB     189      SAPE     C311     CTL2    -0.180000       12.0110           0
     17945 MEMB     189      SAPE     H11X     HAL2     0.900000E-01   1.00800           0
     17946 MEMB     189      SAPE     H11Y     HAL2     0.900000E-01   1.00800           0
     17947 MEMB     189      SAPE     C312     CTL2    -0.180000       12.0110           0
     17948 MEMB     189      SAPE     H12X     HAL2     0.900000E-01   1.00800           0
     17949 MEMB     189      SAPE     H12Y     HAL2     0.900000E-01   1.00800           0
     17950 MEMB     189      SAPE     C313     CTL2    -0.180000       12.0110           0
     17951 MEMB     189      SAPE     H13X     HAL2     0.900000E-01   1.00800           0
     17952 MEMB     189      SAPE     H13Y     HAL2     0.900000E-01   1.00800           0
     17953 MEMB     189      SAPE     C314     CTL2    -0.180000       12.0110           0
     17954 MEMB     189      SAPE     H14X     HAL2     0.900000E-01   1.00800           0
     17955 MEMB     189      SAPE     H14Y     HAL2     0.900000E-01   1.00800           0
     17956 MEMB     189      SAPE     C315     CTL2    -0.180000       12.0110           0
     17957 MEMB     189      SAPE     H15X     HAL2     0.900000E-01   1.00800           0
     17958 MEMB     189      SAPE     H15Y     HAL2     0.900000E-01   1.00800           0
     17959 MEMB     189      SAPE     C316     CTL2    -0.180000       12.0110           0
     17960 MEMB     189      SAPE     H16X     HAL2     0.900000E-01   1.00800           0
     17961 MEMB     189      SAPE     H16Y     HAL2     0.900000E-01   1.00800           0
     17962 MEMB     189      SAPE     C317     CTL2    -0.180000       12.0110           0
     17963 MEMB     189      SAPE     H17X     HAL2     0.900000E-01   1.00800           0
     17964 MEMB     189      SAPE     H17Y     HAL2     0.900000E-01   1.00800           0
     17965 MEMB     189      SAPE     C318     CTL3    -0.270000       12.0110           0
     17966 MEMB     189      SAPE     H18X     HAL3     0.900000E-01   1.00800           0
     17967 MEMB     189      SAPE     H18Y     HAL3     0.900000E-01   1.00800           0
     17968 MEMB     189      SAPE     H18Z     HAL3     0.900000E-01   1.00800           0
     17969 MEMB     11       SOPE     N        NH3L    -0.300000       14.0070           0
     17970 MEMB     11       SOPE     HN1      HCL      0.330000       1.00800           0
     17971 MEMB     11       SOPE     HN2      HCL      0.330000       1.00800           0
     17972 MEMB     11       SOPE     HN3      HCL      0.330000       1.00800           0
     17973 MEMB     11       SOPE     C12      CTL2     0.130000       12.0110           0
     17974 MEMB     11       SOPE     H12A     HAL2     0.900000E-01   1.00800           0
     17975 MEMB     11       SOPE     H12B     HAL2     0.900000E-01   1.00800           0
     17976 MEMB     11       SOPE     C11      CTL2    -0.800000E-01   12.0110           0
     17977 MEMB     11       SOPE     H11A     HAL2     0.900000E-01   1.00800           0
     17978 MEMB     11       SOPE     H11B     HAL2     0.900000E-01   1.00800           0
     17979 MEMB     11       SOPE     P        PL       1.500000       30.9740           0
     17980 MEMB     11       SOPE     O13      O2L     -0.780000       15.9994           0
     17981 MEMB     11       SOPE     O14      O2L     -0.780000       15.9994           0
     17982 MEMB     11       SOPE     O12      OSLP    -0.570000       15.9994           0
     17983 MEMB     11       SOPE     O11      OSLP    -0.570000       15.9994           0
     17984 MEMB     11       SOPE     C1       CTL2    -0.800000E-01   12.0110           0
     17985 MEMB     11       SOPE     HA       HAL2     0.900000E-01   1.00800           0
     17986 MEMB     11       SOPE     HB       HAL2     0.900000E-01   1.00800           0
     17987 MEMB     11       SOPE     C2       CTL1     0.170000       12.0110           0
     17988 MEMB     11       SOPE     HS       HAL1     0.900000E-01   1.00800           0
     17989 MEMB     11       SOPE     O21      OSL     -0.490000       15.9994           0
     17990 MEMB     11       SOPE     C21      CL       0.900000       12.0110           0
     17991 MEMB     11       SOPE     O22      OBL     -0.630000       15.9994           0
     17992 MEMB     11       SOPE     C22      CTL2    -0.220000       12.0110           0
     17993 MEMB     11       SOPE     H2R      HAL2     0.900000E-01   1.00800           0
     17994 MEMB     11       SOPE     H2S      HAL2     0.900000E-01   1.00800           0
     17995 MEMB     11       SOPE     C3       CTL2     0.800000E-01   12.0110           0
     17996 MEMB     11       SOPE     HX       HAL2     0.900000E-01   1.00800           0
     17997 MEMB     11       SOPE     HY       HAL2     0.900000E-01   1.00800           0
     17998 MEMB     11       SOPE     O31      OSL     -0.490000       15.9994           0
     17999 MEMB     11       SOPE     C31      CL       0.900000       12.0110           0
     18000 MEMB     11       SOPE     O32      OBL     -0.630000       15.9994           0
     18001 MEMB     11       SOPE     C32      CTL2    -0.220000       12.0110           0
     18002 MEMB     11       SOPE     H2X      HAL2     0.900000E-01   1.00800           0
     18003 MEMB     11       SOPE     H2Y      HAL2     0.900000E-01   1.00800           0
     18004 MEMB     11       SOPE     C23      CTL2    -0.180000       12.0110           0
     18005 MEMB     11       SOPE     H3R      HAL2     0.900000E-01   1.00800           0
     18006 MEMB     11       SOPE     H3S      HAL2     0.900000E-01   1.00800           0
     18007 MEMB     11       SOPE     C24      CTL2    -0.180000       12.0110           0
     18008 MEMB     11       SOPE     H4R      HAL2     0.900000E-01   1.00800           0
     18009 MEMB     11       SOPE     H4S      HAL2     0.900000E-01   1.00800           0
     18010 MEMB     11       SOPE     C25      CTL2    -0.180000       12.0110           0
     18011 MEMB     11       SOPE     H5R      HAL2     0.900000E-01   1.00800           0
     18012 MEMB     11       SOPE     H5S      HAL2     0.900000E-01   1.00800           0
     18013 MEMB     11       SOPE     C26      CTL2    -0.180000       12.0110           0
     18014 MEMB     11       SOPE     H6R      HAL2     0.900000E-01   1.00800           0
     18015 MEMB     11       SOPE     H6S      HAL2     0.900000E-01   1.00800           0
     18016 MEMB     11       SOPE     C27      CTL2    -0.180000       12.0110           0
     18017 MEMB     11       SOPE     H7R      HAL2     0.900000E-01   1.00800           0
     18018 MEMB     11       SOPE     H7S      HAL2     0.900000E-01   1.00800           0
     18019 MEMB     11       SOPE     C28      CTL2    -0.180000       12.0110           0
     18020 MEMB     11       SOPE     H8R      HAL2     0.900000E-01   1.00800           0
     18021 MEMB     11       SOPE     H8S      HAL2     0.900000E-01   1.00800           0
     18022 MEMB     11       SOPE     C29      CEL1    -0.150000       12.0110           0
     18023 MEMB     11       SOPE     H91      HEL1     0.150000       1.00800           0
     18024 MEMB     11       SOPE     C210     CEL1    -0.150000       12.0110           0
     18025 MEMB     11       SOPE     H101     HEL1     0.150000       1.00800           0
     18026 MEMB     11       SOPE     C211     CTL2    -0.180000       12.0110           0
     18027 MEMB     11       SOPE     H11R     HAL2     0.900000E-01   1.00800           0
     18028 MEMB     11       SOPE     H11S     HAL2     0.900000E-01   1.00800           0
     18029 MEMB     11       SOPE     C212     CTL2    -0.180000       12.0110           0
     18030 MEMB     11       SOPE     H12R     HAL2     0.900000E-01   1.00800           0
     18031 MEMB     11       SOPE     H12S     HAL2     0.900000E-01   1.00800           0
     18032 MEMB     11       SOPE     C213     CTL2    -0.180000       12.0110           0
     18033 MEMB     11       SOPE     H13R     HAL2     0.900000E-01   1.00800           0
     18034 MEMB     11       SOPE     H13S     HAL2     0.900000E-01   1.00800           0
     18035 MEMB     11       SOPE     C214     CTL2    -0.180000       12.0110           0
     18036 MEMB     11       SOPE     H14R     HAL2     0.900000E-01   1.00800           0
     18037 MEMB     11       SOPE     H14S     HAL2     0.900000E-01   1.00800           0
     18038 MEMB     11       SOPE     C215     CTL2    -0.180000       12.0110           0
     18039 MEMB     11       SOPE     H15R     HAL2     0.900000E-01   1.00800           0
     18040 MEMB     11       SOPE     H15S     HAL2     0.900000E-01   1.00800           0
     18041 MEMB     11       SOPE     C216     CTL2    -0.180000       12.0110           0
     18042 MEMB     11       SOPE     H16R     HAL2     0.900000E-01   1.00800           0
     18043 MEMB     11       SOPE     H16S     HAL2     0.900000E-01   1.00800           0
     18044 MEMB     11       SOPE     C217     CTL2    -0.180000       12.0110           0
     18045 MEMB     11       SOPE     H17R     HAL2     0.900000E-01   1.00800           0
     18046 MEMB     11       SOPE     H17S     HAL2     0.900000E-01   1.00800           0
     18047 MEMB     11       SOPE     C218     CTL3    -0.270000       12.0110           0
     18048 MEMB     11       SOPE     H18R     HAL3     0.900000E-01   1.00800           0
     18049 MEMB     11       SOPE     H18S     HAL3     0.900000E-01   1.00800           0
     18050 MEMB     11       SOPE     H18T     HAL3     0.900000E-01   1.00800           0
     18051 MEMB     11       SOPE     C33      CTL2    -0.180000       12.0110           0
     18052 MEMB     11       SOPE     H3X      HAL2     0.900000E-01   1.00800           0
     18053 MEMB     11       SOPE     H3Y      HAL2     0.900000E-01   1.00800           0
     18054 MEMB     11       SOPE     C34      CTL2    -0.180000       12.0110           0
     18055 MEMB     11       SOPE     H4X      HAL2     0.900000E-01   1.00800           0
     18056 MEMB     11       SOPE     H4Y      HAL2     0.900000E-01   1.00800           0
     18057 MEMB     11       SOPE     C35      CTL2    -0.180000       12.0110           0
     18058 MEMB     11       SOPE     H5X      HAL2     0.900000E-01   1.00800           0
     18059 MEMB     11       SOPE     H5Y      HAL2     0.900000E-01   1.00800           0
     18060 MEMB     11       SOPE     C36      CTL2    -0.180000       12.0110           0
     18061 MEMB     11       SOPE     H6X      HAL2     0.900000E-01   1.00800           0
     18062 MEMB     11       SOPE     H6Y      HAL2     0.900000E-01   1.00800           0
     18063 MEMB     11       SOPE     C37      CTL2    -0.180000       12.0110           0
     18064 MEMB     11       SOPE     H7X      HAL2     0.900000E-01   1.00800           0
     18065 MEMB     11       SOPE     H7Y      HAL2     0.900000E-01   1.00800           0
     18066 MEMB     11       SOPE     C38      CTL2    -0.180000       12.0110           0
     18067 MEMB     11       SOPE     H8X      HAL2     0.900000E-01   1.00800           0
     18068 MEMB     11       SOPE     H8Y      HAL2     0.900000E-01   1.00800           0
     18069 MEMB     11       SOPE     C39      CTL2    -0.180000       12.0110           0
     18070 MEMB     11       SOPE     H9X      HAL2     0.900000E-01   1.00800           0
     18071 MEMB     11       SOPE     H9Y      HAL2     0.900000E-01   1.00800           0
     18072 MEMB     11       SOPE     C310     CTL2    -0.180000       12.0110           0
     18073 MEMB     11       SOPE     H10X     HAL2     0.900000E-01   1.00800           0
     18074 MEMB     11       SOPE     H10Y     HAL2     0.900000E-01   1.00800           0
     18075 MEMB     11       SOPE     C311     CTL2    -0.180000       12.0110           0
     18076 MEMB     11       SOPE     H11X     HAL2     0.900000E-01   1.00800           0
     18077 MEMB     11       SOPE     H11Y     HAL2     0.900000E-01   1.00800           0
     18078 MEMB     11       SOPE     C312     CTL2    -0.180000       12.0110           0
     18079 MEMB     11       SOPE     H12X     HAL2     0.900000E-01   1.00800           0
     18080 MEMB     11       SOPE     H12Y     HAL2     0.900000E-01   1.00800           0
     18081 MEMB     11       SOPE     C313     CTL2    -0.180000       12.0110           0
     18082 MEMB     11       SOPE     H13X     HAL2     0.900000E-01   1.00800           0
     18083 MEMB     11       SOPE     H13Y     HAL2     0.900000E-01   1.00800           0
     18084 MEMB     11       SOPE     C314     CTL2    -0.180000       12.0110           0
     18085 MEMB     11       SOPE     H14X     HAL2     0.900000E-01   1.00800           0
     18086 MEMB     11       SOPE     H14Y     HAL2     0.900000E-01   1.00800           0
     18087 MEMB     11       SOPE     C315     CTL2    -0.180000       12.0110           0
     18088 MEMB     11       SOPE     H15X     HAL2     0.900000E-01   1.00800           0
     18089 MEMB     11       SOPE     H15Y     HAL2     0.900000E-01   1.00800           0
     18090 MEMB     11       SOPE     C316     CTL2    -0.180000       12.0110           0
     18091 MEMB     11       SOPE     H16X     HAL2     0.900000E-01   1.00800           0
     18092 MEMB     11       SOPE     H16Y     HAL2     0.900000E-01   1.00800           0
     18093 MEMB     11       SOPE     C317     CTL2    -0.180000       12.0110           0
     18094 MEMB     11       SOPE     H17X     HAL2     0.900000E-01   1.00800           0
     18095 MEMB     11       SOPE     H17Y     HAL2     0.900000E-01   1.00800           0
     18096 MEMB     11       SOPE     C318     CTL3    -0.270000       12.0110           0
     18097 MEMB     11       SOPE     H18X     HAL3     0.900000E-01   1.00800           0
     18098 MEMB     11       SOPE     H18Y     HAL3     0.900000E-01   1.00800           0
     18099 MEMB     11       SOPE     H18Z     HAL3     0.900000E-01   1.00800           0
     18100 MEMB     27       SOPE     N        NH3L    -0.300000       14.0070           0
     18101 MEMB     27       SOPE     HN1      HCL      0.330000       1.00800           0
     18102 MEMB     27       SOPE     HN2      HCL      0.330000       1.00800           0
     18103 MEMB     27       SOPE     HN3      HCL      0.330000       1.00800           0
     18104 MEMB     27       SOPE     C12      CTL2     0.130000       12.0110           0
     18105 MEMB     27       SOPE     H12A     HAL2     0.900000E-01   1.00800           0
     18106 MEMB     27       SOPE     H12B     HAL2     0.900000E-01   1.00800           0
     18107 MEMB     27       SOPE     C11      CTL2    -0.800000E-01   12.0110           0
     18108 MEMB     27       SOPE     H11A     HAL2     0.900000E-01   1.00800           0
     18109 MEMB     27       SOPE     H11B     HAL2     0.900000E-01   1.00800           0
     18110 MEMB     27       SOPE     P        PL       1.500000       30.9740           0
     18111 MEMB     27       SOPE     O13      O2L     -0.780000       15.9994           0
     18112 MEMB     27       SOPE     O14      O2L     -0.780000       15.9994           0
     18113 MEMB     27       SOPE     O12      OSLP    -0.570000       15.9994           0
     18114 MEMB     27       SOPE     O11      OSLP    -0.570000       15.9994           0
     18115 MEMB     27       SOPE     C1       CTL2    -0.800000E-01   12.0110           0
     18116 MEMB     27       SOPE     HA       HAL2     0.900000E-01   1.00800           0
     18117 MEMB     27       SOPE     HB       HAL2     0.900000E-01   1.00800           0
     18118 MEMB     27       SOPE     C2       CTL1     0.170000       12.0110           0
     18119 MEMB     27       SOPE     HS       HAL1     0.900000E-01   1.00800           0
     18120 MEMB     27       SOPE     O21      OSL     -0.490000       15.9994           0
     18121 MEMB     27       SOPE     C21      CL       0.900000       12.0110           0
     18122 MEMB     27       SOPE     O22      OBL     -0.630000       15.9994           0
     18123 MEMB     27       SOPE     C22      CTL2    -0.220000       12.0110           0
     18124 MEMB     27       SOPE     H2R      HAL2     0.900000E-01   1.00800           0
     18125 MEMB     27       SOPE     H2S      HAL2     0.900000E-01   1.00800           0
     18126 MEMB     27       SOPE     C3       CTL2     0.800000E-01   12.0110           0
     18127 MEMB     27       SOPE     HX       HAL2     0.900000E-01   1.00800           0
     18128 MEMB     27       SOPE     HY       HAL2     0.900000E-01   1.00800           0
     18129 MEMB     27       SOPE     O31      OSL     -0.490000       15.9994           0
     18130 MEMB     27       SOPE     C31      CL       0.900000       12.0110           0
     18131 MEMB     27       SOPE     O32      OBL     -0.630000       15.9994           0
     18132 MEMB     27       SOPE     C32      CTL2    -0.220000       12.0110           0
     18133 MEMB     27       SOPE     H2X      HAL2     0.900000E-01   1.00800           0
     18134 MEMB     27       SOPE     H2Y      HAL2     0.900000E-01   1.00800           0
     18135 MEMB     27       SOPE     C23      CTL2    -0.180000       12.0110           0
     18136 MEMB     27       SOPE     H3R      HAL2     0.900000E-01   1.00800           0
     18137 MEMB     27       SOPE     H3S      HAL2     0.900000E-01   1.00800           0
     18138 MEMB     27       SOPE     C24      CTL2    -0.180000       12.0110           0
     18139 MEMB     27       SOPE     H4R      HAL2     0.900000E-01   1.00800           0
     18140 MEMB     27       SOPE     H4S      HAL2     0.900000E-01   1.00800           0
     18141 MEMB     27       SOPE     C25      CTL2    -0.180000       12.0110           0
     18142 MEMB     27       SOPE     H5R      HAL2     0.900000E-01   1.00800           0
     18143 MEMB     27       SOPE     H5S      HAL2     0.900000E-01   1.00800           0
     18144 MEMB     27       SOPE     C26      CTL2    -0.180000       12.0110           0
     18145 MEMB     27       SOPE     H6R      HAL2     0.900000E-01   1.00800           0
     18146 MEMB     27       SOPE     H6S      HAL2     0.900000E-01   1.00800           0
     18147 MEMB     27       SOPE     C27      CTL2    -0.180000       12.0110           0
     18148 MEMB     27       SOPE     H7R      HAL2     0.900000E-01   1.00800           0
     18149 MEMB     27       SOPE     H7S      HAL2     0.900000E-01   1.00800           0
     18150 MEMB     27       SOPE     C28      CTL2    -0.180000       12.0110           0
     18151 MEMB     27       SOPE     H8R      HAL2     0.900000E-01   1.00800           0
     18152 MEMB     27       SOPE     H8S      HAL2     0.900000E-01   1.00800           0
     18153 MEMB     27       SOPE     C29      CEL1    -0.150000       12.0110           0
     18154 MEMB     27       SOPE     H91      HEL1     0.150000       1.00800           0
     18155 MEMB     27       SOPE     C210     CEL1    -0.150000       12.0110           0
     18156 MEMB     27       SOPE     H101     HEL1     0.150000       1.00800           0
     18157 MEMB     27       SOPE     C211     CTL2    -0.180000       12.0110           0
     18158 MEMB     27       SOPE     H11R     HAL2     0.900000E-01   1.00800           0
     18159 MEMB     27       SOPE     H11S     HAL2     0.900000E-01   1.00800           0
     18160 MEMB     27       SOPE     C212     CTL2    -0.180000       12.0110           0
     18161 MEMB     27       SOPE     H12R     HAL2     0.900000E-01   1.00800           0
     18162 MEMB     27       SOPE     H12S     HAL2     0.900000E-01   1.00800           0
     18163 MEMB     27       SOPE     C213     CTL2    -0.180000       12.0110           0
     18164 MEMB     27       SOPE     H13R     HAL2     0.900000E-01   1.00800           0
     18165 MEMB     27       SOPE     H13S     HAL2     0.900000E-01   1.00800           0
     18166 MEMB     27       SOPE     C214     CTL2    -0.180000       12.0110           0
     18167 MEMB     27       SOPE     H14R     HAL2     0.900000E-01   1.00800           0
     18168 MEMB     27       SOPE     H14S     HAL2     0.900000E-01   1.00800           0
     18169 MEMB     27       SOPE     C215     CTL2    -0.180000       12.0110           0
     18170 MEMB     27       SOPE     H15R     HAL2     0.900000E-01   1.00800           0
     18171 MEMB     27       SOPE     H15S     HAL2     0.900000E-01   1.00800           0
     18172 MEMB     27       SOPE     C216     CTL2    -0.180000       12.0110           0
     18173 MEMB     27       SOPE     H16R     HAL2     0.900000E-01   1.00800           0
     18174 MEMB     27       SOPE     H16S     HAL2     0.900000E-01   1.00800           0
     18175 MEMB     27       SOPE     C217     CTL2    -0.180000       12.0110           0
     18176 MEMB     27       SOPE     H17R     HAL2     0.900000E-01   1.00800           0
     18177 MEMB     27       SOPE     H17S     HAL2     0.900000E-01   1.00800           0
     18178 MEMB     27       SOPE     C218     CTL3    -0.270000       12.0110           0
     18179 MEMB     27       SOPE     H18R     HAL3     0.900000E-01   1.00800           0
     18180 MEMB     27       SOPE     H18S     HAL3     0.900000E-01   1.00800           0
     18181 MEMB     27       SOPE     H18T     HAL3     0.900000E-01   1.00800           0
     18182 MEMB     27       SOPE     C33      CTL2    -0.180000       12.0110           0
     18183 MEMB     27       SOPE     H3X      HAL2     0.900000E-01   1.00800           0
     18184 MEMB     27       SOPE     H3Y      HAL2     0.900000E-01   1.00800           0
     18185 MEMB     27       SOPE     C34      CTL2    -0.180000       12.0110           0
     18186 MEMB     27       SOPE     H4X      HAL2     0.900000E-01   1.00800           0
     18187 MEMB     27       SOPE     H4Y      HAL2     0.900000E-01   1.00800           0
     18188 MEMB     27       SOPE     C35      CTL2    -0.180000       12.0110           0
     18189 MEMB     27       SOPE     H5X      HAL2     0.900000E-01   1.00800           0
     18190 MEMB     27       SOPE     H5Y      HAL2     0.900000E-01   1.00800           0
     18191 MEMB     27       SOPE     C36      CTL2    -0.180000       12.0110           0
     18192 MEMB     27       SOPE     H6X      HAL2     0.900000E-01   1.00800           0
     18193 MEMB     27       SOPE     H6Y      HAL2     0.900000E-01   1.00800           0
     18194 MEMB     27       SOPE     C37      CTL2    -0.180000       12.0110           0
     18195 MEMB     27       SOPE     H7X      HAL2     0.900000E-01   1.00800           0
     18196 MEMB     27       SOPE     H7Y      HAL2     0.900000E-01   1.00800           0
     18197 MEMB     27       SOPE     C38      CTL2    -0.180000       12.0110           0
     18198 MEMB     27       SOPE     H8X      HAL2     0.900000E-01   1.00800           0
     18199 MEMB     27       SOPE     H8Y      HAL2     0.900000E-01   1.00800           0
     18200 MEMB     27       SOPE     C39      CTL2    -0.180000       12.0110           0
     18201 MEMB     27       SOPE     H9X      HAL2     0.900000E-01   1.00800           0
     18202 MEMB     27       SOPE     H9Y      HAL2     0.900000E-01   1.00800           0
     18203 MEMB     27       SOPE     C310     CTL2    -0.180000       12.0110           0
     18204 MEMB     27       SOPE     H10X     HAL2     0.900000E-01   1.00800           0
     18205 MEMB     27       SOPE     H10Y     HAL2     0.900000E-01   1.00800           0
     18206 MEMB     27       SOPE     C311     CTL2    -0.180000       12.0110           0
     18207 MEMB     27       SOPE     H11X     HAL2     0.900000E-01   1.00800           0
     18208 MEMB     27       SOPE     H11Y     HAL2     0.900000E-01   1.00800           0
     18209 MEMB     27       SOPE     C312     CTL2    -0.180000       12.0110           0
     18210 MEMB     27       SOPE     H12X     HAL2     0.900000E-01   1.00800           0
     18211 MEMB     27       SOPE     H12Y     HAL2     0.900000E-01   1.00800           0
     18212 MEMB     27       SOPE     C313     CTL2    -0.180000       12.0110           0
     18213 MEMB     27       SOPE     H13X     HAL2     0.900000E-01   1.00800           0
     18214 MEMB     27       SOPE     H13Y     HAL2     0.900000E-01   1.00800           0
     18215 MEMB     27       SOPE     C314     CTL2    -0.180000       12.0110           0
     18216 MEMB     27       SOPE     H14X     HAL2     0.900000E-01   1.00800           0
     18217 MEMB     27       SOPE     H14Y     HAL2     0.900000E-01   1.00800           0
     18218 MEMB     27       SOPE     C315     CTL2    -0.180000       12.0110           0
     18219 MEMB     27       SOPE     H15X     HAL2     0.900000E-01   1.00800           0
     18220 MEMB     27       SOPE     H15Y     HAL2     0.900000E-01   1.00800           0
     18221 MEMB     27       SOPE     C316     CTL2    -0.180000       12.0110           0
     18222 MEMB     27       SOPE     H16X     HAL2     0.900000E-01   1.00800           0
     18223 MEMB     27       SOPE     H16Y     HAL2     0.900000E-01   1.00800           0
     18224 MEMB     27       SOPE     C317     CTL2    -0.180000       12.0110           0
     18225 MEMB     27       SOPE     H17X     HAL2     0.900000E-01   1.00800           0
     18226 MEMB     27       SOPE     H17Y     HAL2     0.900000E-01   1.00800           0
     18227 MEMB     27       SOPE     C318     CTL3    -0.270000       12.0110           0
     18228 MEMB     27       SOPE     H18X     HAL3     0.900000E-01   1.00800           0
     18229 MEMB     27       SOPE     H18Y     HAL3     0.900000E-01   1.00800           0
     18230 MEMB     27       SOPE     H18Z     HAL3     0.900000E-01   1.00800           0
     18231 MEMB     33       SOPE     N        NH3L    -0.300000       14.0070           0
     18232 MEMB     33       SOPE     HN1      HCL      0.330000       1.00800           0
     18233 MEMB     33       SOPE     HN2      HCL      0.330000       1.00800           0
     18234 MEMB     33       SOPE     HN3      HCL      0.330000       1.00800           0
     18235 MEMB     33       SOPE     C12      CTL2     0.130000       12.0110           0
     18236 MEMB     33       SOPE     H12A     HAL2     0.900000E-01   1.00800           0
     18237 MEMB     33       SOPE     H12B     HAL2     0.900000E-01   1.00800           0
     18238 MEMB     33       SOPE     C11      CTL2    -0.800000E-01   12.0110           0
     18239 MEMB     33       SOPE     H11A     HAL2     0.900000E-01   1.00800           0
     18240 MEMB     33       SOPE     H11B     HAL2     0.900000E-01   1.00800           0
     18241 MEMB     33       SOPE     P        PL       1.500000       30.9740           0
     18242 MEMB     33       SOPE     O13      O2L     -0.780000       15.9994           0
     18243 MEMB     33       SOPE     O14      O2L     -0.780000       15.9994           0
     18244 MEMB     33       SOPE     O12      OSLP    -0.570000       15.9994           0
     18245 MEMB     33       SOPE     O11      OSLP    -0.570000       15.9994           0
     18246 MEMB     33       SOPE     C1       CTL2    -0.800000E-01   12.0110           0
     18247 MEMB     33       SOPE     HA       HAL2     0.900000E-01   1.00800           0
     18248 MEMB     33       SOPE     HB       HAL2     0.900000E-01   1.00800           0
     18249 MEMB     33       SOPE     C2       CTL1     0.170000       12.0110           0
     18250 MEMB     33       SOPE     HS       HAL1     0.900000E-01   1.00800           0
     18251 MEMB     33       SOPE     O21      OSL     -0.490000       15.9994           0
     18252 MEMB     33       SOPE     C21      CL       0.900000       12.0110           0
     18253 MEMB     33       SOPE     O22      OBL     -0.630000       15.9994           0
     18254 MEMB     33       SOPE     C22      CTL2    -0.220000       12.0110           0
     18255 MEMB     33       SOPE     H2R      HAL2     0.900000E-01   1.00800           0
     18256 MEMB     33       SOPE     H2S      HAL2     0.900000E-01   1.00800           0
     18257 MEMB     33       SOPE     C3       CTL2     0.800000E-01   12.0110           0
     18258 MEMB     33       SOPE     HX       HAL2     0.900000E-01   1.00800           0
     18259 MEMB     33       SOPE     HY       HAL2     0.900000E-01   1.00800           0
     18260 MEMB     33       SOPE     O31      OSL     -0.490000       15.9994           0
     18261 MEMB     33       SOPE     C31      CL       0.900000       12.0110           0
     18262 MEMB     33       SOPE     O32      OBL     -0.630000       15.9994           0
     18263 MEMB     33       SOPE     C32      CTL2    -0.220000       12.0110           0
     18264 MEMB     33       SOPE     H2X      HAL2     0.900000E-01   1.00800           0
     18265 MEMB     33       SOPE     H2Y      HAL2     0.900000E-01   1.00800           0
     18266 MEMB     33       SOPE     C23      CTL2    -0.180000       12.0110           0
     18267 MEMB     33       SOPE     H3R      HAL2     0.900000E-01   1.00800           0
     18268 MEMB     33       SOPE     H3S      HAL2     0.900000E-01   1.00800           0
     18269 MEMB     33       SOPE     C24      CTL2    -0.180000       12.0110           0
     18270 MEMB     33       SOPE     H4R      HAL2     0.900000E-01   1.00800           0
     18271 MEMB     33       SOPE     H4S      HAL2     0.900000E-01   1.00800           0
     18272 MEMB     33       SOPE     C25      CTL2    -0.180000       12.0110           0
     18273 MEMB     33       SOPE     H5R      HAL2     0.900000E-01   1.00800           0
     18274 MEMB     33       SOPE     H5S      HAL2     0.900000E-01   1.00800           0
     18275 MEMB     33       SOPE     C26      CTL2    -0.180000       12.0110           0
     18276 MEMB     33       SOPE     H6R      HAL2     0.900000E-01   1.00800           0
     18277 MEMB     33       SOPE     H6S      HAL2     0.900000E-01   1.00800           0
     18278 MEMB     33       SOPE     C27      CTL2    -0.180000       12.0110           0
     18279 MEMB     33       SOPE     H7R      HAL2     0.900000E-01   1.00800           0
     18280 MEMB     33       SOPE     H7S      HAL2     0.900000E-01   1.00800           0
     18281 MEMB     33       SOPE     C28      CTL2    -0.180000       12.0110           0
     18282 MEMB     33       SOPE     H8R      HAL2     0.900000E-01   1.00800           0
     18283 MEMB     33       SOPE     H8S      HAL2     0.900000E-01   1.00800           0
     18284 MEMB     33       SOPE     C29      CEL1    -0.150000       12.0110           0
     18285 MEMB     33       SOPE     H91      HEL1     0.150000       1.00800           0
     18286 MEMB     33       SOPE     C210     CEL1    -0.150000       12.0110           0
     18287 MEMB     33       SOPE     H101     HEL1     0.150000       1.00800           0
     18288 MEMB     33       SOPE     C211     CTL2    -0.180000       12.0110           0
     18289 MEMB     33       SOPE     H11R     HAL2     0.900000E-01   1.00800           0
     18290 MEMB     33       SOPE     H11S     HAL2     0.900000E-01   1.00800           0
     18291 MEMB     33       SOPE     C212     CTL2    -0.180000       12.0110           0
     18292 MEMB     33       SOPE     H12R     HAL2     0.900000E-01   1.00800           0
     18293 MEMB     33       SOPE     H12S     HAL2     0.900000E-01   1.00800           0
     18294 MEMB     33       SOPE     C213     CTL2    -0.180000       12.0110           0
     18295 MEMB     33       SOPE     H13R     HAL2     0.900000E-01   1.00800           0
     18296 MEMB     33       SOPE     H13S     HAL2     0.900000E-01   1.00800           0
     18297 MEMB     33       SOPE     C214     CTL2    -0.180000       12.0110           0
     18298 MEMB     33       SOPE     H14R     HAL2     0.900000E-01   1.00800           0
     18299 MEMB     33       SOPE     H14S     HAL2     0.900000E-01   1.00800           0
     18300 MEMB     33       SOPE     C215     CTL2    -0.180000       12.0110           0
     18301 MEMB     33       SOPE     H15R     HAL2     0.900000E-01   1.00800           0
     18302 MEMB     33       SOPE     H15S     HAL2     0.900000E-01   1.00800           0
     18303 MEMB     33       SOPE     C216     CTL2    -0.180000       12.0110           0
     18304 MEMB     33       SOPE     H16R     HAL2     0.900000E-01   1.00800           0
     18305 MEMB     33       SOPE     H16S     HAL2     0.900000E-01   1.00800           0
     18306 MEMB     33       SOPE     C217     CTL2    -0.180000       12.0110           0
     18307 MEMB     33       SOPE     H17R     HAL2     0.900000E-01   1.00800           0
     18308 MEMB     33       SOPE     H17S     HAL2     0.900000E-01   1.00800           0
     18309 MEMB     33       SOPE     C218     CTL3    -0.270000       12.0110           0
     18310 MEMB     33       SOPE     H18R     HAL3     0.900000E-01   1.00800           0
     18311 MEMB     33       SOPE     H18S     HAL3     0.900000E-01   1.00800           0
     18312 MEMB     33       SOPE     H18T     HAL3     0.900000E-01   1.00800           0
     18313 MEMB     33       SOPE     C33      CTL2    -0.180000       12.0110           0
     18314 MEMB     33       SOPE     H3X      HAL2     0.900000E-01   1.00800           0
     18315 MEMB     33       SOPE     H3Y      HAL2     0.900000E-01   1.00800           0
     18316 MEMB     33       SOPE     C34      CTL2    -0.180000       12.0110           0
     18317 MEMB     33       SOPE     H4X      HAL2     0.900000E-01   1.00800           0
     18318 MEMB     33       SOPE     H4Y      HAL2     0.900000E-01   1.00800           0
     18319 MEMB     33       SOPE     C35      CTL2    -0.180000       12.0110           0
     18320 MEMB     33       SOPE     H5X      HAL2     0.900000E-01   1.00800           0
     18321 MEMB     33       SOPE     H5Y      HAL2     0.900000E-01   1.00800           0
     18322 MEMB     33       SOPE     C36      CTL2    -0.180000       12.0110           0
     18323 MEMB     33       SOPE     H6X      HAL2     0.900000E-01   1.00800           0
     18324 MEMB     33       SOPE     H6Y      HAL2     0.900000E-01   1.00800           0
     18325 MEMB     33       SOPE     C37      CTL2    -0.180000       12.0110           0
     18326 MEMB     33       SOPE     H7X      HAL2     0.900000E-01   1.00800           0
     18327 MEMB     33       SOPE     H7Y      HAL2     0.900000E-01   1.00800           0
     18328 MEMB     33       SOPE     C38      CTL2    -0.180000       12.0110           0
     18329 MEMB     33       SOPE     H8X      HAL2     0.900000E-01   1.00800           0
     18330 MEMB     33       SOPE     H8Y      HAL2     0.900000E-01   1.00800           0
     18331 MEMB     33       SOPE     C39      CTL2    -0.180000       12.0110           0
     18332 MEMB     33       SOPE     H9X      HAL2     0.900000E-01   1.00800           0
     18333 MEMB     33       SOPE     H9Y      HAL2     0.900000E-01   1.00800           0
     18334 MEMB     33       SOPE     C310     CTL2    -0.180000       12.0110           0
     18335 MEMB     33       SOPE     H10X     HAL2     0.900000E-01   1.00800           0
     18336 MEMB     33       SOPE     H10Y     HAL2     0.900000E-01   1.00800           0
     18337 MEMB     33       SOPE     C311     CTL2    -0.180000       12.0110           0
     18338 MEMB     33       SOPE     H11X     HAL2     0.900000E-01   1.00800           0
     18339 MEMB     33       SOPE     H11Y     HAL2     0.900000E-01   1.00800           0
     18340 MEMB     33       SOPE     C312     CTL2    -0.180000       12.0110           0
     18341 MEMB     33       SOPE     H12X     HAL2     0.900000E-01   1.00800           0
     18342 MEMB     33       SOPE     H12Y     HAL2     0.900000E-01   1.00800           0
     18343 MEMB     33       SOPE     C313     CTL2    -0.180000       12.0110           0
     18344 MEMB     33       SOPE     H13X     HAL2     0.900000E-01   1.00800           0
     18345 MEMB     33       SOPE     H13Y     HAL2     0.900000E-01   1.00800           0
     18346 MEMB     33       SOPE     C314     CTL2    -0.180000       12.0110           0
     18347 MEMB     33       SOPE     H14X     HAL2     0.900000E-01   1.00800           0
     18348 MEMB     33       SOPE     H14Y     HAL2     0.900000E-01   1.00800           0
     18349 MEMB     33       SOPE     C315     CTL2    -0.180000       12.0110           0
     18350 MEMB     33       SOPE     H15X     HAL2     0.900000E-01   1.00800           0
     18351 MEMB     33       SOPE     H15Y     HAL2     0.900000E-01   1.00800           0
     18352 MEMB     33       SOPE     C316     CTL2    -0.180000       12.0110           0
     18353 MEMB     33       SOPE     H16X     HAL2     0.900000E-01   1.00800           0
     18354 MEMB     33       SOPE     H16Y     HAL2     0.900000E-01   1.00800           0
     18355 MEMB     33       SOPE     C317     CTL2    -0.180000       12.0110           0
     18356 MEMB     33       SOPE     H17X     HAL2     0.900000E-01   1.00800           0
     18357 MEMB     33       SOPE     H17Y     HAL2     0.900000E-01   1.00800           0
     18358 MEMB     33       SOPE     C318     CTL3    -0.270000       12.0110           0
     18359 MEMB     33       SOPE     H18X     HAL3     0.900000E-01   1.00800           0
     18360 MEMB     33       SOPE     H18Y     HAL3     0.900000E-01   1.00800           0
     18361 MEMB     33       SOPE     H18Z     HAL3     0.900000E-01   1.00800           0
     18362 MEMB     41       SOPE     N        NH3L    -0.300000       14.0070           0
     18363 MEMB     41       SOPE     HN1      HCL      0.330000       1.00800           0
     18364 MEMB     41       SOPE     HN2      HCL      0.330000       1.00800           0
     18365 MEMB     41       SOPE     HN3      HCL      0.330000       1.00800           0
     18366 MEMB     41       SOPE     C12      CTL2     0.130000       12.0110           0
     18367 MEMB     41       SOPE     H12A     HAL2     0.900000E-01   1.00800           0
     18368 MEMB     41       SOPE     H12B     HAL2     0.900000E-01   1.00800           0
     18369 MEMB     41       SOPE     C11      CTL2    -0.800000E-01   12.0110           0
     18370 MEMB     41       SOPE     H11A     HAL2     0.900000E-01   1.00800           0
     18371 MEMB     41       SOPE     H11B     HAL2     0.900000E-01   1.00800           0
     18372 MEMB     41       SOPE     P        PL       1.500000       30.9740           0
     18373 MEMB     41       SOPE     O13      O2L     -0.780000       15.9994           0
     18374 MEMB     41       SOPE     O14      O2L     -0.780000       15.9994           0
     18375 MEMB     41       SOPE     O12      OSLP    -0.570000       15.9994           0
     18376 MEMB     41       SOPE     O11      OSLP    -0.570000       15.9994           0
     18377 MEMB     41       SOPE     C1       CTL2    -0.800000E-01   12.0110           0
     18378 MEMB     41       SOPE     HA       HAL2     0.900000E-01   1.00800           0
     18379 MEMB     41       SOPE     HB       HAL2     0.900000E-01   1.00800           0
     18380 MEMB     41       SOPE     C2       CTL1     0.170000       12.0110           0
     18381 MEMB     41       SOPE     HS       HAL1     0.900000E-01   1.00800           0
     18382 MEMB     41       SOPE     O21      OSL     -0.490000       15.9994           0
     18383 MEMB     41       SOPE     C21      CL       0.900000       12.0110           0
     18384 MEMB     41       SOPE     O22      OBL     -0.630000       15.9994           0
     18385 MEMB     41       SOPE     C22      CTL2    -0.220000       12.0110           0
     18386 MEMB     41       SOPE     H2R      HAL2     0.900000E-01   1.00800           0
     18387 MEMB     41       SOPE     H2S      HAL2     0.900000E-01   1.00800           0
     18388 MEMB     41       SOPE     C3       CTL2     0.800000E-01   12.0110           0
     18389 MEMB     41       SOPE     HX       HAL2     0.900000E-01   1.00800           0
     18390 MEMB     41       SOPE     HY       HAL2     0.900000E-01   1.00800           0
     18391 MEMB     41       SOPE     O31      OSL     -0.490000       15.9994           0
     18392 MEMB     41       SOPE     C31      CL       0.900000       12.0110           0
     18393 MEMB     41       SOPE     O32      OBL     -0.630000       15.9994           0
     18394 MEMB     41       SOPE     C32      CTL2    -0.220000       12.0110           0
     18395 MEMB     41       SOPE     H2X      HAL2     0.900000E-01   1.00800           0
     18396 MEMB     41       SOPE     H2Y      HAL2     0.900000E-01   1.00800           0
     18397 MEMB     41       SOPE     C23      CTL2    -0.180000       12.0110           0
     18398 MEMB     41       SOPE     H3R      HAL2     0.900000E-01   1.00800           0
     18399 MEMB     41       SOPE     H3S      HAL2     0.900000E-01   1.00800           0
     18400 MEMB     41       SOPE     C24      CTL2    -0.180000       12.0110           0
     18401 MEMB     41       SOPE     H4R      HAL2     0.900000E-01   1.00800           0
     18402 MEMB     41       SOPE     H4S      HAL2     0.900000E-01   1.00800           0
     18403 MEMB     41       SOPE     C25      CTL2    -0.180000       12.0110           0
     18404 MEMB     41       SOPE     H5R      HAL2     0.900000E-01   1.00800           0
     18405 MEMB     41       SOPE     H5S      HAL2     0.900000E-01   1.00800           0
     18406 MEMB     41       SOPE     C26      CTL2    -0.180000       12.0110           0
     18407 MEMB     41       SOPE     H6R      HAL2     0.900000E-01   1.00800           0
     18408 MEMB     41       SOPE     H6S      HAL2     0.900000E-01   1.00800           0
     18409 MEMB     41       SOPE     C27      CTL2    -0.180000       12.0110           0
     18410 MEMB     41       SOPE     H7R      HAL2     0.900000E-01   1.00800           0
     18411 MEMB     41       SOPE     H7S      HAL2     0.900000E-01   1.00800           0
     18412 MEMB     41       SOPE     C28      CTL2    -0.180000       12.0110           0
     18413 MEMB     41       SOPE     H8R      HAL2     0.900000E-01   1.00800           0
     18414 MEMB     41       SOPE     H8S      HAL2     0.900000E-01   1.00800           0
     18415 MEMB     41       SOPE     C29      CEL1    -0.150000       12.0110           0
     18416 MEMB     41       SOPE     H91      HEL1     0.150000       1.00800           0
     18417 MEMB     41       SOPE     C210     CEL1    -0.150000       12.0110           0
     18418 MEMB     41       SOPE     H101     HEL1     0.150000       1.00800           0
     18419 MEMB     41       SOPE     C211     CTL2    -0.180000       12.0110           0
     18420 MEMB     41       SOPE     H11R     HAL2     0.900000E-01   1.00800           0
     18421 MEMB     41       SOPE     H11S     HAL2     0.900000E-01   1.00800           0
     18422 MEMB     41       SOPE     C212     CTL2    -0.180000       12.0110           0
     18423 MEMB     41       SOPE     H12R     HAL2     0.900000E-01   1.00800           0
     18424 MEMB     41       SOPE     H12S     HAL2     0.900000E-01   1.00800           0
     18425 MEMB     41       SOPE     C213     CTL2    -0.180000       12.0110           0
     18426 MEMB     41       SOPE     H13R     HAL2     0.900000E-01   1.00800           0
     18427 MEMB     41       SOPE     H13S     HAL2     0.900000E-01   1.00800           0
     18428 MEMB     41       SOPE     C214     CTL2    -0.180000       12.0110           0
     18429 MEMB     41       SOPE     H14R     HAL2     0.900000E-01   1.00800           0
     18430 MEMB     41       SOPE     H14S     HAL2     0.900000E-01   1.00800           0
     18431 MEMB     41       SOPE     C215     CTL2    -0.180000       12.0110           0
     18432 MEMB     41       SOPE     H15R     HAL2     0.900000E-01   1.00800           0
     18433 MEMB     41       SOPE     H15S     HAL2     0.900000E-01   1.00800           0
     18434 MEMB     41       SOPE     C216     CTL2    -0.180000       12.0110           0
     18435 MEMB     41       SOPE     H16R     HAL2     0.900000E-01   1.00800           0
     18436 MEMB     41       SOPE     H16S     HAL2     0.900000E-01   1.00800           0
     18437 MEMB     41       SOPE     C217     CTL2    -0.180000       12.0110           0
     18438 MEMB     41       SOPE     H17R     HAL2     0.900000E-01   1.00800           0
     18439 MEMB     41       SOPE     H17S     HAL2     0.900000E-01   1.00800           0
     18440 MEMB     41       SOPE     C218     CTL3    -0.270000       12.0110           0
     18441 MEMB     41       SOPE     H18R     HAL3     0.900000E-01   1.00800           0
     18442 MEMB     41       SOPE     H18S     HAL3     0.900000E-01   1.00800           0
     18443 MEMB     41       SOPE     H18T     HAL3     0.900000E-01   1.00800           0
     18444 MEMB     41       SOPE     C33      CTL2    -0.180000       12.0110           0
     18445 MEMB     41       SOPE     H3X      HAL2     0.900000E-01   1.00800           0
     18446 MEMB     41       SOPE     H3Y      HAL2     0.900000E-01   1.00800           0
     18447 MEMB     41       SOPE     C34      CTL2    -0.180000       12.0110           0
     18448 MEMB     41       SOPE     H4X      HAL2     0.900000E-01   1.00800           0
     18449 MEMB     41       SOPE     H4Y      HAL2     0.900000E-01   1.00800           0
     18450 MEMB     41       SOPE     C35      CTL2    -0.180000       12.0110           0
     18451 MEMB     41       SOPE     H5X      HAL2     0.900000E-01   1.00800           0
     18452 MEMB     41       SOPE     H5Y      HAL2     0.900000E-01   1.00800           0
     18453 MEMB     41       SOPE     C36      CTL2    -0.180000       12.0110           0
     18454 MEMB     41       SOPE     H6X      HAL2     0.900000E-01   1.00800           0
     18455 MEMB     41       SOPE     H6Y      HAL2     0.900000E-01   1.00800           0
     18456 MEMB     41       SOPE     C37      CTL2    -0.180000       12.0110           0
     18457 MEMB     41       SOPE     H7X      HAL2     0.900000E-01   1.00800           0
     18458 MEMB     41       SOPE     H7Y      HAL2     0.900000E-01   1.00800           0
     18459 MEMB     41       SOPE     C38      CTL2    -0.180000       12.0110           0
     18460 MEMB     41       SOPE     H8X      HAL2     0.900000E-01   1.00800           0
     18461 MEMB     41       SOPE     H8Y      HAL2     0.900000E-01   1.00800           0
     18462 MEMB     41       SOPE     C39      CTL2    -0.180000       12.0110           0
     18463 MEMB     41       SOPE     H9X      HAL2     0.900000E-01   1.00800           0
     18464 MEMB     41       SOPE     H9Y      HAL2     0.900000E-01   1.00800           0
     18465 MEMB     41       SOPE     C310     CTL2    -0.180000       12.0110           0
     18466 MEMB     41       SOPE     H10X     HAL2     0.900000E-01   1.00800           0
     18467 MEMB     41       SOPE     H10Y     HAL2     0.900000E-01   1.00800           0
     18468 MEMB     41       SOPE     C311     CTL2    -0.180000       12.0110           0
     18469 MEMB     41       SOPE     H11X     HAL2     0.900000E-01   1.00800           0
     18470 MEMB     41       SOPE     H11Y     HAL2     0.900000E-01   1.00800           0
     18471 MEMB     41       SOPE     C312     CTL2    -0.180000       12.0110           0
     18472 MEMB     41       SOPE     H12X     HAL2     0.900000E-01   1.00800           0
     18473 MEMB     41       SOPE     H12Y     HAL2     0.900000E-01   1.00800           0
     18474 MEMB     41       SOPE     C313     CTL2    -0.180000       12.0110           0
     18475 MEMB     41       SOPE     H13X     HAL2     0.900000E-01   1.00800           0
     18476 MEMB     41       SOPE     H13Y     HAL2     0.900000E-01   1.00800           0
     18477 MEMB     41       SOPE     C314     CTL2    -0.180000       12.0110           0
     18478 MEMB     41       SOPE     H14X     HAL2     0.900000E-01   1.00800           0
     18479 MEMB     41       SOPE     H14Y     HAL2     0.900000E-01   1.00800           0
     18480 MEMB     41       SOPE     C315     CTL2    -0.180000       12.0110           0
     18481 MEMB     41       SOPE     H15X     HAL2     0.900000E-01   1.00800           0
     18482 MEMB     41       SOPE     H15Y     HAL2     0.900000E-01   1.00800           0
     18483 MEMB     41       SOPE     C316     CTL2    -0.180000       12.0110           0
     18484 MEMB     41       SOPE     H16X     HAL2     0.900000E-01   1.00800           0
     18485 MEMB     41       SOPE     H16Y     HAL2     0.900000E-01   1.00800           0
     18486 MEMB     41       SOPE     C317     CTL2    -0.180000       12.0110           0
     18487 MEMB     41       SOPE     H17X     HAL2     0.900000E-01   1.00800           0
     18488 MEMB     41       SOPE     H17Y     HAL2     0.900000E-01   1.00800           0
     18489 MEMB     41       SOPE     C318     CTL3    -0.270000       12.0110           0
     18490 MEMB     41       SOPE     H18X     HAL3     0.900000E-01   1.00800           0
     18491 MEMB     41       SOPE     H18Y     HAL3     0.900000E-01   1.00800           0
     18492 MEMB     41       SOPE     H18Z     HAL3     0.900000E-01   1.00800           0
     18493 MEMB     43       SOPE     N        NH3L    -0.300000       14.0070           0
     18494 MEMB     43       SOPE     HN1      HCL      0.330000       1.00800           0
     18495 MEMB     43       SOPE     HN2      HCL      0.330000       1.00800           0
     18496 MEMB     43       SOPE     HN3      HCL      0.330000       1.00800           0
     18497 MEMB     43       SOPE     C12      CTL2     0.130000       12.0110           0
     18498 MEMB     43       SOPE     H12A     HAL2     0.900000E-01   1.00800           0
     18499 MEMB     43       SOPE     H12B     HAL2     0.900000E-01   1.00800           0
     18500 MEMB     43       SOPE     C11      CTL2    -0.800000E-01   12.0110           0
     18501 MEMB     43       SOPE     H11A     HAL2     0.900000E-01   1.00800           0
     18502 MEMB     43       SOPE     H11B     HAL2     0.900000E-01   1.00800           0
     18503 MEMB     43       SOPE     P        PL       1.500000       30.9740           0
     18504 MEMB     43       SOPE     O13      O2L     -0.780000       15.9994           0
     18505 MEMB     43       SOPE     O14      O2L     -0.780000       15.9994           0
     18506 MEMB     43       SOPE     O12      OSLP    -0.570000       15.9994           0
     18507 MEMB     43       SOPE     O11      OSLP    -0.570000       15.9994           0
     18508 MEMB     43       SOPE     C1       CTL2    -0.800000E-01   12.0110           0
     18509 MEMB     43       SOPE     HA       HAL2     0.900000E-01   1.00800           0
     18510 MEMB     43       SOPE     HB       HAL2     0.900000E-01   1.00800           0
     18511 MEMB     43       SOPE     C2       CTL1     0.170000       12.0110           0
     18512 MEMB     43       SOPE     HS       HAL1     0.900000E-01   1.00800           0
     18513 MEMB     43       SOPE     O21      OSL     -0.490000       15.9994           0
     18514 MEMB     43       SOPE     C21      CL       0.900000       12.0110           0
     18515 MEMB     43       SOPE     O22      OBL     -0.630000       15.9994           0
     18516 MEMB     43       SOPE     C22      CTL2    -0.220000       12.0110           0
     18517 MEMB     43       SOPE     H2R      HAL2     0.900000E-01   1.00800           0
     18518 MEMB     43       SOPE     H2S      HAL2     0.900000E-01   1.00800           0
     18519 MEMB     43       SOPE     C3       CTL2     0.800000E-01   12.0110           0
     18520 MEMB     43       SOPE     HX       HAL2     0.900000E-01   1.00800           0
     18521 MEMB     43       SOPE     HY       HAL2     0.900000E-01   1.00800           0
     18522 MEMB     43       SOPE     O31      OSL     -0.490000       15.9994           0
     18523 MEMB     43       SOPE     C31      CL       0.900000       12.0110           0
     18524 MEMB     43       SOPE     O32      OBL     -0.630000       15.9994           0
     18525 MEMB     43       SOPE     C32      CTL2    -0.220000       12.0110           0
     18526 MEMB     43       SOPE     H2X      HAL2     0.900000E-01   1.00800           0
     18527 MEMB     43       SOPE     H2Y      HAL2     0.900000E-01   1.00800           0
     18528 MEMB     43       SOPE     C23      CTL2    -0.180000       12.0110           0
     18529 MEMB     43       SOPE     H3R      HAL2     0.900000E-01   1.00800           0
     18530 MEMB     43       SOPE     H3S      HAL2     0.900000E-01   1.00800           0
     18531 MEMB     43       SOPE     C24      CTL2    -0.180000       12.0110           0
     18532 MEMB     43       SOPE     H4R      HAL2     0.900000E-01   1.00800           0
     18533 MEMB     43       SOPE     H4S      HAL2     0.900000E-01   1.00800           0
     18534 MEMB     43       SOPE     C25      CTL2    -0.180000       12.0110           0
     18535 MEMB     43       SOPE     H5R      HAL2     0.900000E-01   1.00800           0
     18536 MEMB     43       SOPE     H5S      HAL2     0.900000E-01   1.00800           0
     18537 MEMB     43       SOPE     C26      CTL2    -0.180000       12.0110           0
     18538 MEMB     43       SOPE     H6R      HAL2     0.900000E-01   1.00800           0
     18539 MEMB     43       SOPE     H6S      HAL2     0.900000E-01   1.00800           0
     18540 MEMB     43       SOPE     C27      CTL2    -0.180000       12.0110           0
     18541 MEMB     43       SOPE     H7R      HAL2     0.900000E-01   1.00800           0
     18542 MEMB     43       SOPE     H7S      HAL2     0.900000E-01   1.00800           0
     18543 MEMB     43       SOPE     C28      CTL2    -0.180000       12.0110           0
     18544 MEMB     43       SOPE     H8R      HAL2     0.900000E-01   1.00800           0
     18545 MEMB     43       SOPE     H8S      HAL2     0.900000E-01   1.00800           0
     18546 MEMB     43       SOPE     C29      CEL1    -0.150000       12.0110           0
     18547 MEMB     43       SOPE     H91      HEL1     0.150000       1.00800           0
     18548 MEMB     43       SOPE     C210     CEL1    -0.150000       12.0110           0
     18549 MEMB     43       SOPE     H101     HEL1     0.150000       1.00800           0
     18550 MEMB     43       SOPE     C211     CTL2    -0.180000       12.0110           0
     18551 MEMB     43       SOPE     H11R     HAL2     0.900000E-01   1.00800           0
     18552 MEMB     43       SOPE     H11S     HAL2     0.900000E-01   1.00800           0
     18553 MEMB     43       SOPE     C212     CTL2    -0.180000       12.0110           0
     18554 MEMB     43       SOPE     H12R     HAL2     0.900000E-01   1.00800           0
     18555 MEMB     43       SOPE     H12S     HAL2     0.900000E-01   1.00800           0
     18556 MEMB     43       SOPE     C213     CTL2    -0.180000       12.0110           0
     18557 MEMB     43       SOPE     H13R     HAL2     0.900000E-01   1.00800           0
     18558 MEMB     43       SOPE     H13S     HAL2     0.900000E-01   1.00800           0
     18559 MEMB     43       SOPE     C214     CTL2    -0.180000       12.0110           0
     18560 MEMB     43       SOPE     H14R     HAL2     0.900000E-01   1.00800           0
     18561 MEMB     43       SOPE     H14S     HAL2     0.900000E-01   1.00800           0
     18562 MEMB     43       SOPE     C215     CTL2    -0.180000       12.0110           0
     18563 MEMB     43       SOPE     H15R     HAL2     0.900000E-01   1.00800           0
     18564 MEMB     43       SOPE     H15S     HAL2     0.900000E-01   1.00800           0
     18565 MEMB     43       SOPE     C216     CTL2    -0.180000       12.0110           0
     18566 MEMB     43       SOPE     H16R     HAL2     0.900000E-01   1.00800           0
     18567 MEMB     43       SOPE     H16S     HAL2     0.900000E-01   1.00800           0
     18568 MEMB     43       SOPE     C217     CTL2    -0.180000       12.0110           0
     18569 MEMB     43       SOPE     H17R     HAL2     0.900000E-01   1.00800           0
     18570 MEMB     43       SOPE     H17S     HAL2     0.900000E-01   1.00800           0
     18571 MEMB     43       SOPE     C218     CTL3    -0.270000       12.0110           0
     18572 MEMB     43       SOPE     H18R     HAL3     0.900000E-01   1.00800           0
     18573 MEMB     43       SOPE     H18S     HAL3     0.900000E-01   1.00800           0
     18574 MEMB     43       SOPE     H18T     HAL3     0.900000E-01   1.00800           0
     18575 MEMB     43       SOPE     C33      CTL2    -0.180000       12.0110           0
     18576 MEMB     43       SOPE     H3X      HAL2     0.900000E-01   1.00800           0
     18577 MEMB     43       SOPE     H3Y      HAL2     0.900000E-01   1.00800           0
     18578 MEMB     43       SOPE     C34      CTL2    -0.180000       12.0110           0
     18579 MEMB     43       SOPE     H4X      HAL2     0.900000E-01   1.00800           0
     18580 MEMB     43       SOPE     H4Y      HAL2     0.900000E-01   1.00800           0
     18581 MEMB     43       SOPE     C35      CTL2    -0.180000       12.0110           0
     18582 MEMB     43       SOPE     H5X      HAL2     0.900000E-01   1.00800           0
     18583 MEMB     43       SOPE     H5Y      HAL2     0.900000E-01   1.00800           0
     18584 MEMB     43       SOPE     C36      CTL2    -0.180000       12.0110           0
     18585 MEMB     43       SOPE     H6X      HAL2     0.900000E-01   1.00800           0
     18586 MEMB     43       SOPE     H6Y      HAL2     0.900000E-01   1.00800           0
     18587 MEMB     43       SOPE     C37      CTL2    -0.180000       12.0110           0
     18588 MEMB     43       SOPE     H7X      HAL2     0.900000E-01   1.00800           0
     18589 MEMB     43       SOPE     H7Y      HAL2     0.900000E-01   1.00800           0
     18590 MEMB     43       SOPE     C38      CTL2    -0.180000       12.0110           0
     18591 MEMB     43       SOPE     H8X      HAL2     0.900000E-01   1.00800           0
     18592 MEMB     43       SOPE     H8Y      HAL2     0.900000E-01   1.00800           0
     18593 MEMB     43       SOPE     C39      CTL2    -0.180000       12.0110           0
     18594 MEMB     43       SOPE     H9X      HAL2     0.900000E-01   1.00800           0
     18595 MEMB     43       SOPE     H9Y      HAL2     0.900000E-01   1.00800           0
     18596 MEMB     43       SOPE     C310     CTL2    -0.180000       12.0110           0
     18597 MEMB     43       SOPE     H10X     HAL2     0.900000E-01   1.00800           0
     18598 MEMB     43       SOPE     H10Y     HAL2     0.900000E-01   1.00800           0
     18599 MEMB     43       SOPE     C311     CTL2    -0.180000       12.0110           0
     18600 MEMB     43       SOPE     H11X     HAL2     0.900000E-01   1.00800           0
     18601 MEMB     43       SOPE     H11Y     HAL2     0.900000E-01   1.00800           0
     18602 MEMB     43       SOPE     C312     CTL2    -0.180000       12.0110           0
     18603 MEMB     43       SOPE     H12X     HAL2     0.900000E-01   1.00800           0
     18604 MEMB     43       SOPE     H12Y     HAL2     0.900000E-01   1.00800           0
     18605 MEMB     43       SOPE     C313     CTL2    -0.180000       12.0110           0
     18606 MEMB     43       SOPE     H13X     HAL2     0.900000E-01   1.00800           0
     18607 MEMB     43       SOPE     H13Y     HAL2     0.900000E-01   1.00800           0
     18608 MEMB     43       SOPE     C314     CTL2    -0.180000       12.0110           0
     18609 MEMB     43       SOPE     H14X     HAL2     0.900000E-01   1.00800           0
     18610 MEMB     43       SOPE     H14Y     HAL2     0.900000E-01   1.00800           0
     18611 MEMB     43       SOPE     C315     CTL2    -0.180000       12.0110           0
     18612 MEMB     43       SOPE     H15X     HAL2     0.900000E-01   1.00800           0
     18613 MEMB     43       SOPE     H15Y     HAL2     0.900000E-01   1.00800           0
     18614 MEMB     43       SOPE     C316     CTL2    -0.180000       12.0110           0
     18615 MEMB     43       SOPE     H16X     HAL2     0.900000E-01   1.00800           0
     18616 MEMB     43       SOPE     H16Y     HAL2     0.900000E-01   1.00800           0
     18617 MEMB     43       SOPE     C317     CTL2    -0.180000       12.0110           0
     18618 MEMB     43       SOPE     H17X     HAL2     0.900000E-01   1.00800           0
     18619 MEMB     43       SOPE     H17Y     HAL2     0.900000E-01   1.00800           0
     18620 MEMB     43       SOPE     C318     CTL3    -0.270000       12.0110           0
     18621 MEMB     43       SOPE     H18X     HAL3     0.900000E-01   1.00800           0
     18622 MEMB     43       SOPE     H18Y     HAL3     0.900000E-01   1.00800           0
     18623 MEMB     43       SOPE     H18Z     HAL3     0.900000E-01   1.00800           0
     18624 MEMB     92       SOPE     N        NH3L    -0.300000       14.0070           0
     18625 MEMB     92       SOPE     HN1      HCL      0.330000       1.00800           0
     18626 MEMB     92       SOPE     HN2      HCL      0.330000       1.00800           0
     18627 MEMB     92       SOPE     HN3      HCL      0.330000       1.00800           0
     18628 MEMB     92       SOPE     C12      CTL2     0.130000       12.0110           0
     18629 MEMB     92       SOPE     H12A     HAL2     0.900000E-01   1.00800           0
     18630 MEMB     92       SOPE     H12B     HAL2     0.900000E-01   1.00800           0
     18631 MEMB     92       SOPE     C11      CTL2    -0.800000E-01   12.0110           0
     18632 MEMB     92       SOPE     H11A     HAL2     0.900000E-01   1.00800           0
     18633 MEMB     92       SOPE     H11B     HAL2     0.900000E-01   1.00800           0
     18634 MEMB     92       SOPE     P        PL       1.500000       30.9740           0
     18635 MEMB     92       SOPE     O13      O2L     -0.780000       15.9994           0
     18636 MEMB     92       SOPE     O14      O2L     -0.780000       15.9994           0
     18637 MEMB     92       SOPE     O12      OSLP    -0.570000       15.9994           0
     18638 MEMB     92       SOPE     O11      OSLP    -0.570000       15.9994           0
     18639 MEMB     92       SOPE     C1       CTL2    -0.800000E-01   12.0110           0
     18640 MEMB     92       SOPE     HA       HAL2     0.900000E-01   1.00800           0
     18641 MEMB     92       SOPE     HB       HAL2     0.900000E-01   1.00800           0
     18642 MEMB     92       SOPE     C2       CTL1     0.170000       12.0110           0
     18643 MEMB     92       SOPE     HS       HAL1     0.900000E-01   1.00800           0
     18644 MEMB     92       SOPE     O21      OSL     -0.490000       15.9994           0
     18645 MEMB     92       SOPE     C21      CL       0.900000       12.0110           0
     18646 MEMB     92       SOPE     O22      OBL     -0.630000       15.9994           0
     18647 MEMB     92       SOPE     C22      CTL2    -0.220000       12.0110           0
     18648 MEMB     92       SOPE     H2R      HAL2     0.900000E-01   1.00800           0
     18649 MEMB     92       SOPE     H2S      HAL2     0.900000E-01   1.00800           0
     18650 MEMB     92       SOPE     C3       CTL2     0.800000E-01   12.0110           0
     18651 MEMB     92       SOPE     HX       HAL2     0.900000E-01   1.00800           0
     18652 MEMB     92       SOPE     HY       HAL2     0.900000E-01   1.00800           0
     18653 MEMB     92       SOPE     O31      OSL     -0.490000       15.9994           0
     18654 MEMB     92       SOPE     C31      CL       0.900000       12.0110           0
     18655 MEMB     92       SOPE     O32      OBL     -0.630000       15.9994           0
     18656 MEMB     92       SOPE     C32      CTL2    -0.220000       12.0110           0
     18657 MEMB     92       SOPE     H2X      HAL2     0.900000E-01   1.00800           0
     18658 MEMB     92       SOPE     H2Y      HAL2     0.900000E-01   1.00800           0
     18659 MEMB     92       SOPE     C23      CTL2    -0.180000       12.0110           0
     18660 MEMB     92       SOPE     H3R      HAL2     0.900000E-01   1.00800           0
     18661 MEMB     92       SOPE     H3S      HAL2     0.900000E-01   1.00800           0
     18662 MEMB     92       SOPE     C24      CTL2    -0.180000       12.0110           0
     18663 MEMB     92       SOPE     H4R      HAL2     0.900000E-01   1.00800           0
     18664 MEMB     92       SOPE     H4S      HAL2     0.900000E-01   1.00800           0
     18665 MEMB     92       SOPE     C25      CTL2    -0.180000       12.0110           0
     18666 MEMB     92       SOPE     H5R      HAL2     0.900000E-01   1.00800           0
     18667 MEMB     92       SOPE     H5S      HAL2     0.900000E-01   1.00800           0
     18668 MEMB     92       SOPE     C26      CTL2    -0.180000       12.0110           0
     18669 MEMB     92       SOPE     H6R      HAL2     0.900000E-01   1.00800           0
     18670 MEMB     92       SOPE     H6S      HAL2     0.900000E-01   1.00800           0
     18671 MEMB     92       SOPE     C27      CTL2    -0.180000       12.0110           0
     18672 MEMB     92       SOPE     H7R      HAL2     0.900000E-01   1.00800           0
     18673 MEMB     92       SOPE     H7S      HAL2     0.900000E-01   1.00800           0
     18674 MEMB     92       SOPE     C28      CTL2    -0.180000       12.0110           0
     18675 MEMB     92       SOPE     H8R      HAL2     0.900000E-01   1.00800           0
     18676 MEMB     92       SOPE     H8S      HAL2     0.900000E-01   1.00800           0
     18677 MEMB     92       SOPE     C29      CEL1    -0.150000       12.0110           0
     18678 MEMB     92       SOPE     H91      HEL1     0.150000       1.00800           0
     18679 MEMB     92       SOPE     C210     CEL1    -0.150000       12.0110           0
     18680 MEMB     92       SOPE     H101     HEL1     0.150000       1.00800           0
     18681 MEMB     92       SOPE     C211     CTL2    -0.180000       12.0110           0
     18682 MEMB     92       SOPE     H11R     HAL2     0.900000E-01   1.00800           0
     18683 MEMB     92       SOPE     H11S     HAL2     0.900000E-01   1.00800           0
     18684 MEMB     92       SOPE     C212     CTL2    -0.180000       12.0110           0
     18685 MEMB     92       SOPE     H12R     HAL2     0.900000E-01   1.00800           0
     18686 MEMB     92       SOPE     H12S     HAL2     0.900000E-01   1.00800           0
     18687 MEMB     92       SOPE     C213     CTL2    -0.180000       12.0110           0
     18688 MEMB     92       SOPE     H13R     HAL2     0.900000E-01   1.00800           0
     18689 MEMB     92       SOPE     H13S     HAL2     0.900000E-01   1.00800           0
     18690 MEMB     92       SOPE     C214     CTL2    -0.180000       12.0110           0
     18691 MEMB     92       SOPE     H14R     HAL2     0.900000E-01   1.00800           0
     18692 MEMB     92       SOPE     H14S     HAL2     0.900000E-01   1.00800           0
     18693 MEMB     92       SOPE     C215     CTL2    -0.180000       12.0110           0
     18694 MEMB     92       SOPE     H15R     HAL2     0.900000E-01   1.00800           0
     18695 MEMB     92       SOPE     H15S     HAL2     0.900000E-01   1.00800           0
     18696 MEMB     92       SOPE     C216     CTL2    -0.180000       12.0110           0
     18697 MEMB     92       SOPE     H16R     HAL2     0.900000E-01   1.00800           0
     18698 MEMB     92       SOPE     H16S     HAL2     0.900000E-01   1.00800           0
     18699 MEMB     92       SOPE     C217     CTL2    -0.180000       12.0110           0
     18700 MEMB     92       SOPE     H17R     HAL2     0.900000E-01   1.00800           0
     18701 MEMB     92       SOPE     H17S     HAL2     0.900000E-01   1.00800           0
     18702 MEMB     92       SOPE     C218     CTL3    -0.270000       12.0110           0
     18703 MEMB     92       SOPE     H18R     HAL3     0.900000E-01   1.00800           0
     18704 MEMB     92       SOPE     H18S     HAL3     0.900000E-01   1.00800           0
     18705 MEMB     92       SOPE     H18T     HAL3     0.900000E-01   1.00800           0
     18706 MEMB     92       SOPE     C33      CTL2    -0.180000       12.0110           0
     18707 MEMB     92       SOPE     H3X      HAL2     0.900000E-01   1.00800           0
     18708 MEMB     92       SOPE     H3Y      HAL2     0.900000E-01   1.00800           0
     18709 MEMB     92       SOPE     C34      CTL2    -0.180000       12.0110           0
     18710 MEMB     92       SOPE     H4X      HAL2     0.900000E-01   1.00800           0
     18711 MEMB     92       SOPE     H4Y      HAL2     0.900000E-01   1.00800           0
     18712 MEMB     92       SOPE     C35      CTL2    -0.180000       12.0110           0
     18713 MEMB     92       SOPE     H5X      HAL2     0.900000E-01   1.00800           0
     18714 MEMB     92       SOPE     H5Y      HAL2     0.900000E-01   1.00800           0
     18715 MEMB     92       SOPE     C36      CTL2    -0.180000       12.0110           0
     18716 MEMB     92       SOPE     H6X      HAL2     0.900000E-01   1.00800           0
     18717 MEMB     92       SOPE     H6Y      HAL2     0.900000E-01   1.00800           0
     18718 MEMB     92       SOPE     C37      CTL2    -0.180000       12.0110           0
     18719 MEMB     92       SOPE     H7X      HAL2     0.900000E-01   1.00800           0
     18720 MEMB     92       SOPE     H7Y      HAL2     0.900000E-01   1.00800           0
     18721 MEMB     92       SOPE     C38      CTL2    -0.180000       12.0110           0
     18722 MEMB     92       SOPE     H8X      HAL2     0.900000E-01   1.00800           0
     18723 MEMB     92       SOPE     H8Y      HAL2     0.900000E-01   1.00800           0
     18724 MEMB     92       SOPE     C39      CTL2    -0.180000       12.0110           0
     18725 MEMB     92       SOPE     H9X      HAL2     0.900000E-01   1.00800           0
     18726 MEMB     92       SOPE     H9Y      HAL2     0.900000E-01   1.00800           0
     18727 MEMB     92       SOPE     C310     CTL2    -0.180000       12.0110           0
     18728 MEMB     92       SOPE     H10X     HAL2     0.900000E-01   1.00800           0
     18729 MEMB     92       SOPE     H10Y     HAL2     0.900000E-01   1.00800           0
     18730 MEMB     92       SOPE     C311     CTL2    -0.180000       12.0110           0
     18731 MEMB     92       SOPE     H11X     HAL2     0.900000E-01   1.00800           0
     18732 MEMB     92       SOPE     H11Y     HAL2     0.900000E-01   1.00800           0
     18733 MEMB     92       SOPE     C312     CTL2    -0.180000       12.0110           0
     18734 MEMB     92       SOPE     H12X     HAL2     0.900000E-01   1.00800           0
     18735 MEMB     92       SOPE     H12Y     HAL2     0.900000E-01   1.00800           0
     18736 MEMB     92       SOPE     C313     CTL2    -0.180000       12.0110           0
     18737 MEMB     92       SOPE     H13X     HAL2     0.900000E-01   1.00800           0
     18738 MEMB     92       SOPE     H13Y     HAL2     0.900000E-01   1.00800           0
     18739 MEMB     92       SOPE     C314     CTL2    -0.180000       12.0110           0
     18740 MEMB     92       SOPE     H14X     HAL2     0.900000E-01   1.00800           0
     18741 MEMB     92       SOPE     H14Y     HAL2     0.900000E-01   1.00800           0
     18742 MEMB     92       SOPE     C315     CTL2    -0.180000       12.0110           0
     18743 MEMB     92       SOPE     H15X     HAL2     0.900000E-01   1.00800           0
     18744 MEMB     92       SOPE     H15Y     HAL2     0.900000E-01   1.00800           0
     18745 MEMB     92       SOPE     C316     CTL2    -0.180000       12.0110           0
     18746 MEMB     92       SOPE     H16X     HAL2     0.900000E-01   1.00800           0
     18747 MEMB     92       SOPE     H16Y     HAL2     0.900000E-01   1.00800           0
     18748 MEMB     92       SOPE     C317     CTL2    -0.180000       12.0110           0
     18749 MEMB     92       SOPE     H17X     HAL2     0.900000E-01   1.00800           0
     18750 MEMB     92       SOPE     H17Y     HAL2     0.900000E-01   1.00800           0
     18751 MEMB     92       SOPE     C318     CTL3    -0.270000       12.0110           0
     18752 MEMB     92       SOPE     H18X     HAL3     0.900000E-01   1.00800           0
     18753 MEMB     92       SOPE     H18Y     HAL3     0.900000E-01   1.00800           0
     18754 MEMB     92       SOPE     H18Z     HAL3     0.900000E-01   1.00800           0
     18755 MEMB     109      SOPE     N        NH3L    -0.300000       14.0070           0
     18756 MEMB     109      SOPE     HN1      HCL      0.330000       1.00800           0
     18757 MEMB     109      SOPE     HN2      HCL      0.330000       1.00800           0
     18758 MEMB     109      SOPE     HN3      HCL      0.330000       1.00800           0
     18759 MEMB     109      SOPE     C12      CTL2     0.130000       12.0110           0
     18760 MEMB     109      SOPE     H12A     HAL2     0.900000E-01   1.00800           0
     18761 MEMB     109      SOPE     H12B     HAL2     0.900000E-01   1.00800           0
     18762 MEMB     109      SOPE     C11      CTL2    -0.800000E-01   12.0110           0
     18763 MEMB     109      SOPE     H11A     HAL2     0.900000E-01   1.00800           0
     18764 MEMB     109      SOPE     H11B     HAL2     0.900000E-01   1.00800           0
     18765 MEMB     109      SOPE     P        PL       1.500000       30.9740           0
     18766 MEMB     109      SOPE     O13      O2L     -0.780000       15.9994           0
     18767 MEMB     109      SOPE     O14      O2L     -0.780000       15.9994           0
     18768 MEMB     109      SOPE     O12      OSLP    -0.570000       15.9994           0
     18769 MEMB     109      SOPE     O11      OSLP    -0.570000       15.9994           0
     18770 MEMB     109      SOPE     C1       CTL2    -0.800000E-01   12.0110           0
     18771 MEMB     109      SOPE     HA       HAL2     0.900000E-01   1.00800           0
     18772 MEMB     109      SOPE     HB       HAL2     0.900000E-01   1.00800           0
     18773 MEMB     109      SOPE     C2       CTL1     0.170000       12.0110           0
     18774 MEMB     109      SOPE     HS       HAL1     0.900000E-01   1.00800           0
     18775 MEMB     109      SOPE     O21      OSL     -0.490000       15.9994           0
     18776 MEMB     109      SOPE     C21      CL       0.900000       12.0110           0
     18777 MEMB     109      SOPE     O22      OBL     -0.630000       15.9994           0
     18778 MEMB     109      SOPE     C22      CTL2    -0.220000       12.0110           0
     18779 MEMB     109      SOPE     H2R      HAL2     0.900000E-01   1.00800           0
     18780 MEMB     109      SOPE     H2S      HAL2     0.900000E-01   1.00800           0
     18781 MEMB     109      SOPE     C3       CTL2     0.800000E-01   12.0110           0
     18782 MEMB     109      SOPE     HX       HAL2     0.900000E-01   1.00800           0
     18783 MEMB     109      SOPE     HY       HAL2     0.900000E-01   1.00800           0
     18784 MEMB     109      SOPE     O31      OSL     -0.490000       15.9994           0
     18785 MEMB     109      SOPE     C31      CL       0.900000       12.0110           0
     18786 MEMB     109      SOPE     O32      OBL     -0.630000       15.9994           0
     18787 MEMB     109      SOPE     C32      CTL2    -0.220000       12.0110           0
     18788 MEMB     109      SOPE     H2X      HAL2     0.900000E-01   1.00800           0
     18789 MEMB     109      SOPE     H2Y      HAL2     0.900000E-01   1.00800           0
     18790 MEMB     109      SOPE     C23      CTL2    -0.180000       12.0110           0
     18791 MEMB     109      SOPE     H3R      HAL2     0.900000E-01   1.00800           0
     18792 MEMB     109      SOPE     H3S      HAL2     0.900000E-01   1.00800           0
     18793 MEMB     109      SOPE     C24      CTL2    -0.180000       12.0110           0
     18794 MEMB     109      SOPE     H4R      HAL2     0.900000E-01   1.00800           0
     18795 MEMB     109      SOPE     H4S      HAL2     0.900000E-01   1.00800           0
     18796 MEMB     109      SOPE     C25      CTL2    -0.180000       12.0110           0
     18797 MEMB     109      SOPE     H5R      HAL2     0.900000E-01   1.00800           0
     18798 MEMB     109      SOPE     H5S      HAL2     0.900000E-01   1.00800           0
     18799 MEMB     109      SOPE     C26      CTL2    -0.180000       12.0110           0
     18800 MEMB     109      SOPE     H6R      HAL2     0.900000E-01   1.00800           0
     18801 MEMB     109      SOPE     H6S      HAL2     0.900000E-01   1.00800           0
     18802 MEMB     109      SOPE     C27      CTL2    -0.180000       12.0110           0
     18803 MEMB     109      SOPE     H7R      HAL2     0.900000E-01   1.00800           0
     18804 MEMB     109      SOPE     H7S      HAL2     0.900000E-01   1.00800           0
     18805 MEMB     109      SOPE     C28      CTL2    -0.180000       12.0110           0
     18806 MEMB     109      SOPE     H8R      HAL2     0.900000E-01   1.00800           0
     18807 MEMB     109      SOPE     H8S      HAL2     0.900000E-01   1.00800           0
     18808 MEMB     109      SOPE     C29      CEL1    -0.150000       12.0110           0
     18809 MEMB     109      SOPE     H91      HEL1     0.150000       1.00800           0
     18810 MEMB     109      SOPE     C210     CEL1    -0.150000       12.0110           0
     18811 MEMB     109      SOPE     H101     HEL1     0.150000       1.00800           0
     18812 MEMB     109      SOPE     C211     CTL2    -0.180000       12.0110           0
     18813 MEMB     109      SOPE     H11R     HAL2     0.900000E-01   1.00800           0
     18814 MEMB     109      SOPE     H11S     HAL2     0.900000E-01   1.00800           0
     18815 MEMB     109      SOPE     C212     CTL2    -0.180000       12.0110           0
     18816 MEMB     109      SOPE     H12R     HAL2     0.900000E-01   1.00800           0
     18817 MEMB     109      SOPE     H12S     HAL2     0.900000E-01   1.00800           0
     18818 MEMB     109      SOPE     C213     CTL2    -0.180000       12.0110           0
     18819 MEMB     109      SOPE     H13R     HAL2     0.900000E-01   1.00800           0
     18820 MEMB     109      SOPE     H13S     HAL2     0.900000E-01   1.00800           0
     18821 MEMB     109      SOPE     C214     CTL2    -0.180000       12.0110           0
     18822 MEMB     109      SOPE     H14R     HAL2     0.900000E-01   1.00800           0
     18823 MEMB     109      SOPE     H14S     HAL2     0.900000E-01   1.00800           0
     18824 MEMB     109      SOPE     C215     CTL2    -0.180000       12.0110           0
     18825 MEMB     109      SOPE     H15R     HAL2     0.900000E-01   1.00800           0
     18826 MEMB     109      SOPE     H15S     HAL2     0.900000E-01   1.00800           0
     18827 MEMB     109      SOPE     C216     CTL2    -0.180000       12.0110           0
     18828 MEMB     109      SOPE     H16R     HAL2     0.900000E-01   1.00800           0
     18829 MEMB     109      SOPE     H16S     HAL2     0.900000E-01   1.00800           0
     18830 MEMB     109      SOPE     C217     CTL2    -0.180000       12.0110           0
     18831 MEMB     109      SOPE     H17R     HAL2     0.900000E-01   1.00800           0
     18832 MEMB     109      SOPE     H17S     HAL2     0.900000E-01   1.00800           0
     18833 MEMB     109      SOPE     C218     CTL3    -0.270000       12.0110           0
     18834 MEMB     109      SOPE     H18R     HAL3     0.900000E-01   1.00800           0
     18835 MEMB     109      SOPE     H18S     HAL3     0.900000E-01   1.00800           0
     18836 MEMB     109      SOPE     H18T     HAL3     0.900000E-01   1.00800           0
     18837 MEMB     109      SOPE     C33      CTL2    -0.180000       12.0110           0
     18838 MEMB     109      SOPE     H3X      HAL2     0.900000E-01   1.00800           0
     18839 MEMB     109      SOPE     H3Y      HAL2     0.900000E-01   1.00800           0
     18840 MEMB     109      SOPE     C34      CTL2    -0.180000       12.0110           0
     18841 MEMB     109      SOPE     H4X      HAL2     0.900000E-01   1.00800           0
     18842 MEMB     109      SOPE     H4Y      HAL2     0.900000E-01   1.00800           0
     18843 MEMB     109      SOPE     C35      CTL2    -0.180000       12.0110           0
     18844 MEMB     109      SOPE     H5X      HAL2     0.900000E-01   1.00800           0
     18845 MEMB     109      SOPE     H5Y      HAL2     0.900000E-01   1.00800           0
     18846 MEMB     109      SOPE     C36      CTL2    -0.180000       12.0110           0
     18847 MEMB     109      SOPE     H6X      HAL2     0.900000E-01   1.00800           0
     18848 MEMB     109      SOPE     H6Y      HAL2     0.900000E-01   1.00800           0
     18849 MEMB     109      SOPE     C37      CTL2    -0.180000       12.0110           0
     18850 MEMB     109      SOPE     H7X      HAL2     0.900000E-01   1.00800           0
     18851 MEMB     109      SOPE     H7Y      HAL2     0.900000E-01   1.00800           0
     18852 MEMB     109      SOPE     C38      CTL2    -0.180000       12.0110           0
     18853 MEMB     109      SOPE     H8X      HAL2     0.900000E-01   1.00800           0
     18854 MEMB     109      SOPE     H8Y      HAL2     0.900000E-01   1.00800           0
     18855 MEMB     109      SOPE     C39      CTL2    -0.180000       12.0110           0
     18856 MEMB     109      SOPE     H9X      HAL2     0.900000E-01   1.00800           0
     18857 MEMB     109      SOPE     H9Y      HAL2     0.900000E-01   1.00800           0
     18858 MEMB     109      SOPE     C310     CTL2    -0.180000       12.0110           0
     18859 MEMB     109      SOPE     H10X     HAL2     0.900000E-01   1.00800           0
     18860 MEMB     109      SOPE     H10Y     HAL2     0.900000E-01   1.00800           0
     18861 MEMB     109      SOPE     C311     CTL2    -0.180000       12.0110           0
     18862 MEMB     109      SOPE     H11X     HAL2     0.900000E-01   1.00800           0
     18863 MEMB     109      SOPE     H11Y     HAL2     0.900000E-01   1.00800           0
     18864 MEMB     109      SOPE     C312     CTL2    -0.180000       12.0110           0
     18865 MEMB     109      SOPE     H12X     HAL2     0.900000E-01   1.00800           0
     18866 MEMB     109      SOPE     H12Y     HAL2     0.900000E-01   1.00800           0
     18867 MEMB     109      SOPE     C313     CTL2    -0.180000       12.0110           0
     18868 MEMB     109      SOPE     H13X     HAL2     0.900000E-01   1.00800           0
     18869 MEMB     109      SOPE     H13Y     HAL2     0.900000E-01   1.00800           0
     18870 MEMB     109      SOPE     C314     CTL2    -0.180000       12.0110           0
     18871 MEMB     109      SOPE     H14X     HAL2     0.900000E-01   1.00800           0
     18872 MEMB     109      SOPE     H14Y     HAL2     0.900000E-01   1.00800           0
     18873 MEMB     109      SOPE     C315     CTL2    -0.180000       12.0110           0
     18874 MEMB     109      SOPE     H15X     HAL2     0.900000E-01   1.00800           0
     18875 MEMB     109      SOPE     H15Y     HAL2     0.900000E-01   1.00800           0
     18876 MEMB     109      SOPE     C316     CTL2    -0.180000       12.0110           0
     18877 MEMB     109      SOPE     H16X     HAL2     0.900000E-01   1.00800           0
     18878 MEMB     109      SOPE     H16Y     HAL2     0.900000E-01   1.00800           0
     18879 MEMB     109      SOPE     C317     CTL2    -0.180000       12.0110           0
     18880 MEMB     109      SOPE     H17X     HAL2     0.900000E-01   1.00800           0
     18881 MEMB     109      SOPE     H17Y     HAL2     0.900000E-01   1.00800           0
     18882 MEMB     109      SOPE     C318     CTL3    -0.270000       12.0110           0
     18883 MEMB     109      SOPE     H18X     HAL3     0.900000E-01   1.00800           0
     18884 MEMB     109      SOPE     H18Y     HAL3     0.900000E-01   1.00800           0
     18885 MEMB     109      SOPE     H18Z     HAL3     0.900000E-01   1.00800           0
     18886 MEMB     136      SOPE     N        NH3L    -0.300000       14.0070           0
     18887 MEMB     136      SOPE     HN1      HCL      0.330000       1.00800           0
     18888 MEMB     136      SOPE     HN2      HCL      0.330000       1.00800           0
     18889 MEMB     136      SOPE     HN3      HCL      0.330000       1.00800           0
     18890 MEMB     136      SOPE     C12      CTL2     0.130000       12.0110           0
     18891 MEMB     136      SOPE     H12A     HAL2     0.900000E-01   1.00800           0
     18892 MEMB     136      SOPE     H12B     HAL2     0.900000E-01   1.00800           0
     18893 MEMB     136      SOPE     C11      CTL2    -0.800000E-01   12.0110           0
     18894 MEMB     136      SOPE     H11A     HAL2     0.900000E-01   1.00800           0
     18895 MEMB     136      SOPE     H11B     HAL2     0.900000E-01   1.00800           0
     18896 MEMB     136      SOPE     P        PL       1.500000       30.9740           0
     18897 MEMB     136      SOPE     O13      O2L     -0.780000       15.9994           0
     18898 MEMB     136      SOPE     O14      O2L     -0.780000       15.9994           0
     18899 MEMB     136      SOPE     O12      OSLP    -0.570000       15.9994           0
     18900 MEMB     136      SOPE     O11      OSLP    -0.570000       15.9994           0
     18901 MEMB     136      SOPE     C1       CTL2    -0.800000E-01   12.0110           0
     18902 MEMB     136      SOPE     HA       HAL2     0.900000E-01   1.00800           0
     18903 MEMB     136      SOPE     HB       HAL2     0.900000E-01   1.00800           0
     18904 MEMB     136      SOPE     C2       CTL1     0.170000       12.0110           0
     18905 MEMB     136      SOPE     HS       HAL1     0.900000E-01   1.00800           0
     18906 MEMB     136      SOPE     O21      OSL     -0.490000       15.9994           0
     18907 MEMB     136      SOPE     C21      CL       0.900000       12.0110           0
     18908 MEMB     136      SOPE     O22      OBL     -0.630000       15.9994           0
     18909 MEMB     136      SOPE     C22      CTL2    -0.220000       12.0110           0
     18910 MEMB     136      SOPE     H2R      HAL2     0.900000E-01   1.00800           0
     18911 MEMB     136      SOPE     H2S      HAL2     0.900000E-01   1.00800           0
     18912 MEMB     136      SOPE     C3       CTL2     0.800000E-01   12.0110           0
     18913 MEMB     136      SOPE     HX       HAL2     0.900000E-01   1.00800           0
     18914 MEMB     136      SOPE     HY       HAL2     0.900000E-01   1.00800           0
     18915 MEMB     136      SOPE     O31      OSL     -0.490000       15.9994           0
     18916 MEMB     136      SOPE     C31      CL       0.900000       12.0110           0
     18917 MEMB     136      SOPE     O32      OBL     -0.630000       15.9994           0
     18918 MEMB     136      SOPE     C32      CTL2    -0.220000       12.0110           0
     18919 MEMB     136      SOPE     H2X      HAL2     0.900000E-01   1.00800           0
     18920 MEMB     136      SOPE     H2Y      HAL2     0.900000E-01   1.00800           0
     18921 MEMB     136      SOPE     C23      CTL2    -0.180000       12.0110           0
     18922 MEMB     136      SOPE     H3R      HAL2     0.900000E-01   1.00800           0
     18923 MEMB     136      SOPE     H3S      HAL2     0.900000E-01   1.00800           0
     18924 MEMB     136      SOPE     C24      CTL2    -0.180000       12.0110           0
     18925 MEMB     136      SOPE     H4R      HAL2     0.900000E-01   1.00800           0
     18926 MEMB     136      SOPE     H4S      HAL2     0.900000E-01   1.00800           0
     18927 MEMB     136      SOPE     C25      CTL2    -0.180000       12.0110           0
     18928 MEMB     136      SOPE     H5R      HAL2     0.900000E-01   1.00800           0
     18929 MEMB     136      SOPE     H5S      HAL2     0.900000E-01   1.00800           0
     18930 MEMB     136      SOPE     C26      CTL2    -0.180000       12.0110           0
     18931 MEMB     136      SOPE     H6R      HAL2     0.900000E-01   1.00800           0
     18932 MEMB     136      SOPE     H6S      HAL2     0.900000E-01   1.00800           0
     18933 MEMB     136      SOPE     C27      CTL2    -0.180000       12.0110           0
     18934 MEMB     136      SOPE     H7R      HAL2     0.900000E-01   1.00800           0
     18935 MEMB     136      SOPE     H7S      HAL2     0.900000E-01   1.00800           0
     18936 MEMB     136      SOPE     C28      CTL2    -0.180000       12.0110           0
     18937 MEMB     136      SOPE     H8R      HAL2     0.900000E-01   1.00800           0
     18938 MEMB     136      SOPE     H8S      HAL2     0.900000E-01   1.00800           0
     18939 MEMB     136      SOPE     C29      CEL1    -0.150000       12.0110           0
     18940 MEMB     136      SOPE     H91      HEL1     0.150000       1.00800           0
     18941 MEMB     136      SOPE     C210     CEL1    -0.150000       12.0110           0
     18942 MEMB     136      SOPE     H101     HEL1     0.150000       1.00800           0
     18943 MEMB     136      SOPE     C211     CTL2    -0.180000       12.0110           0
     18944 MEMB     136      SOPE     H11R     HAL2     0.900000E-01   1.00800           0
     18945 MEMB     136      SOPE     H11S     HAL2     0.900000E-01   1.00800           0
     18946 MEMB     136      SOPE     C212     CTL2    -0.180000       12.0110           0
     18947 MEMB     136      SOPE     H12R     HAL2     0.900000E-01   1.00800           0
     18948 MEMB     136      SOPE     H12S     HAL2     0.900000E-01   1.00800           0
     18949 MEMB     136      SOPE     C213     CTL2    -0.180000       12.0110           0
     18950 MEMB     136      SOPE     H13R     HAL2     0.900000E-01   1.00800           0
     18951 MEMB     136      SOPE     H13S     HAL2     0.900000E-01   1.00800           0
     18952 MEMB     136      SOPE     C214     CTL2    -0.180000       12.0110           0
     18953 MEMB     136      SOPE     H14R     HAL2     0.900000E-01   1.00800           0
     18954 MEMB     136      SOPE     H14S     HAL2     0.900000E-01   1.00800           0
     18955 MEMB     136      SOPE     C215     CTL2    -0.180000       12.0110           0
     18956 MEMB     136      SOPE     H15R     HAL2     0.900000E-01   1.00800           0
     18957 MEMB     136      SOPE     H15S     HAL2     0.900000E-01   1.00800           0
     18958 MEMB     136      SOPE     C216     CTL2    -0.180000       12.0110           0
     18959 MEMB     136      SOPE     H16R     HAL2     0.900000E-01   1.00800           0
     18960 MEMB     136      SOPE     H16S     HAL2     0.900000E-01   1.00800           0
     18961 MEMB     136      SOPE     C217     CTL2    -0.180000       12.0110           0
     18962 MEMB     136      SOPE     H17R     HAL2     0.900000E-01   1.00800           0
     18963 MEMB     136      SOPE     H17S     HAL2     0.900000E-01   1.00800           0
     18964 MEMB     136      SOPE     C218     CTL3    -0.270000       12.0110           0
     18965 MEMB     136      SOPE     H18R     HAL3     0.900000E-01   1.00800           0
     18966 MEMB     136      SOPE     H18S     HAL3     0.900000E-01   1.00800           0
     18967 MEMB     136      SOPE     H18T     HAL3     0.900000E-01   1.00800           0
     18968 MEMB     136      SOPE     C33      CTL2    -0.180000       12.0110           0
     18969 MEMB     136      SOPE     H3X      HAL2     0.900000E-01   1.00800           0
     18970 MEMB     136      SOPE     H3Y      HAL2     0.900000E-01   1.00800           0
     18971 MEMB     136      SOPE     C34      CTL2    -0.180000       12.0110           0
     18972 MEMB     136      SOPE     H4X      HAL2     0.900000E-01   1.00800           0
     18973 MEMB     136      SOPE     H4Y      HAL2     0.900000E-01   1.00800           0
     18974 MEMB     136      SOPE     C35      CTL2    -0.180000       12.0110           0
     18975 MEMB     136      SOPE     H5X      HAL2     0.900000E-01   1.00800           0
     18976 MEMB     136      SOPE     H5Y      HAL2     0.900000E-01   1.00800           0
     18977 MEMB     136      SOPE     C36      CTL2    -0.180000       12.0110           0
     18978 MEMB     136      SOPE     H6X      HAL2     0.900000E-01   1.00800           0
     18979 MEMB     136      SOPE     H6Y      HAL2     0.900000E-01   1.00800           0
     18980 MEMB     136      SOPE     C37      CTL2    -0.180000       12.0110           0
     18981 MEMB     136      SOPE     H7X      HAL2     0.900000E-01   1.00800           0
     18982 MEMB     136      SOPE     H7Y      HAL2     0.900000E-01   1.00800           0
     18983 MEMB     136      SOPE     C38      CTL2    -0.180000       12.0110           0
     18984 MEMB     136      SOPE     H8X      HAL2     0.900000E-01   1.00800           0
     18985 MEMB     136      SOPE     H8Y      HAL2     0.900000E-01   1.00800           0
     18986 MEMB     136      SOPE     C39      CTL2    -0.180000       12.0110           0
     18987 MEMB     136      SOPE     H9X      HAL2     0.900000E-01   1.00800           0
     18988 MEMB     136      SOPE     H9Y      HAL2     0.900000E-01   1.00800           0
     18989 MEMB     136      SOPE     C310     CTL2    -0.180000       12.0110           0
     18990 MEMB     136      SOPE     H10X     HAL2     0.900000E-01   1.00800           0
     18991 MEMB     136      SOPE     H10Y     HAL2     0.900000E-01   1.00800           0
     18992 MEMB     136      SOPE     C311     CTL2    -0.180000       12.0110           0
     18993 MEMB     136      SOPE     H11X     HAL2     0.900000E-01   1.00800           0
     18994 MEMB     136      SOPE     H11Y     HAL2     0.900000E-01   1.00800           0
     18995 MEMB     136      SOPE     C312     CTL2    -0.180000       12.0110           0
     18996 MEMB     136      SOPE     H12X     HAL2     0.900000E-01   1.00800           0
     18997 MEMB     136      SOPE     H12Y     HAL2     0.900000E-01   1.00800           0
     18998 MEMB     136      SOPE     C313     CTL2    -0.180000       12.0110           0
     18999 MEMB     136      SOPE     H13X     HAL2     0.900000E-01   1.00800           0
     19000 MEMB     136      SOPE     H13Y     HAL2     0.900000E-01   1.00800           0
     19001 MEMB     136      SOPE     C314     CTL2    -0.180000       12.0110           0
     19002 MEMB     136      SOPE     H14X     HAL2     0.900000E-01   1.00800           0
     19003 MEMB     136      SOPE     H14Y     HAL2     0.900000E-01   1.00800           0
     19004 MEMB     136      SOPE     C315     CTL2    -0.180000       12.0110           0
     19005 MEMB     136      SOPE     H15X     HAL2     0.900000E-01   1.00800           0
     19006 MEMB     136      SOPE     H15Y     HAL2     0.900000E-01   1.00800           0
     19007 MEMB     136      SOPE     C316     CTL2    -0.180000       12.0110           0
     19008 MEMB     136      SOPE     H16X     HAL2     0.900000E-01   1.00800           0
     19009 MEMB     136      SOPE     H16Y     HAL2     0.900000E-01   1.00800           0
     19010 MEMB     136      SOPE     C317     CTL2    -0.180000       12.0110           0
     19011 MEMB     136      SOPE     H17X     HAL2     0.900000E-01   1.00800           0
     19012 MEMB     136      SOPE     H17Y     HAL2     0.900000E-01   1.00800           0
     19013 MEMB     136      SOPE     C318     CTL3    -0.270000       12.0110           0
     19014 MEMB     136      SOPE     H18X     HAL3     0.900000E-01   1.00800           0
     19015 MEMB     136      SOPE     H18Y     HAL3     0.900000E-01   1.00800           0
     19016 MEMB     136      SOPE     H18Z     HAL3     0.900000E-01   1.00800           0
     19017 MEMB     144      SOPE     N        NH3L    -0.300000       14.0070           0
     19018 MEMB     144      SOPE     HN1      HCL      0.330000       1.00800           0
     19019 MEMB     144      SOPE     HN2      HCL      0.330000       1.00800           0
     19020 MEMB     144      SOPE     HN3      HCL      0.330000       1.00800           0
     19021 MEMB     144      SOPE     C12      CTL2     0.130000       12.0110           0
     19022 MEMB     144      SOPE     H12A     HAL2     0.900000E-01   1.00800           0
     19023 MEMB     144      SOPE     H12B     HAL2     0.900000E-01   1.00800           0
     19024 MEMB     144      SOPE     C11      CTL2    -0.800000E-01   12.0110           0
     19025 MEMB     144      SOPE     H11A     HAL2     0.900000E-01   1.00800           0
     19026 MEMB     144      SOPE     H11B     HAL2     0.900000E-01   1.00800           0
     19027 MEMB     144      SOPE     P        PL       1.500000       30.9740           0
     19028 MEMB     144      SOPE     O13      O2L     -0.780000       15.9994           0
     19029 MEMB     144      SOPE     O14      O2L     -0.780000       15.9994           0
     19030 MEMB     144      SOPE     O12      OSLP    -0.570000       15.9994           0
     19031 MEMB     144      SOPE     O11      OSLP    -0.570000       15.9994           0
     19032 MEMB     144      SOPE     C1       CTL2    -0.800000E-01   12.0110           0
     19033 MEMB     144      SOPE     HA       HAL2     0.900000E-01   1.00800           0
     19034 MEMB     144      SOPE     HB       HAL2     0.900000E-01   1.00800           0
     19035 MEMB     144      SOPE     C2       CTL1     0.170000       12.0110           0
     19036 MEMB     144      SOPE     HS       HAL1     0.900000E-01   1.00800           0
     19037 MEMB     144      SOPE     O21      OSL     -0.490000       15.9994           0
     19038 MEMB     144      SOPE     C21      CL       0.900000       12.0110           0
     19039 MEMB     144      SOPE     O22      OBL     -0.630000       15.9994           0
     19040 MEMB     144      SOPE     C22      CTL2    -0.220000       12.0110           0
     19041 MEMB     144      SOPE     H2R      HAL2     0.900000E-01   1.00800           0
     19042 MEMB     144      SOPE     H2S      HAL2     0.900000E-01   1.00800           0
     19043 MEMB     144      SOPE     C3       CTL2     0.800000E-01   12.0110           0
     19044 MEMB     144      SOPE     HX       HAL2     0.900000E-01   1.00800           0
     19045 MEMB     144      SOPE     HY       HAL2     0.900000E-01   1.00800           0
     19046 MEMB     144      SOPE     O31      OSL     -0.490000       15.9994           0
     19047 MEMB     144      SOPE     C31      CL       0.900000       12.0110           0
     19048 MEMB     144      SOPE     O32      OBL     -0.630000       15.9994           0
     19049 MEMB     144      SOPE     C32      CTL2    -0.220000       12.0110           0
     19050 MEMB     144      SOPE     H2X      HAL2     0.900000E-01   1.00800           0
     19051 MEMB     144      SOPE     H2Y      HAL2     0.900000E-01   1.00800           0
     19052 MEMB     144      SOPE     C23      CTL2    -0.180000       12.0110           0
     19053 MEMB     144      SOPE     H3R      HAL2     0.900000E-01   1.00800           0
     19054 MEMB     144      SOPE     H3S      HAL2     0.900000E-01   1.00800           0
     19055 MEMB     144      SOPE     C24      CTL2    -0.180000       12.0110           0
     19056 MEMB     144      SOPE     H4R      HAL2     0.900000E-01   1.00800           0
     19057 MEMB     144      SOPE     H4S      HAL2     0.900000E-01   1.00800           0
     19058 MEMB     144      SOPE     C25      CTL2    -0.180000       12.0110           0
     19059 MEMB     144      SOPE     H5R      HAL2     0.900000E-01   1.00800           0
     19060 MEMB     144      SOPE     H5S      HAL2     0.900000E-01   1.00800           0
     19061 MEMB     144      SOPE     C26      CTL2    -0.180000       12.0110           0
     19062 MEMB     144      SOPE     H6R      HAL2     0.900000E-01   1.00800           0
     19063 MEMB     144      SOPE     H6S      HAL2     0.900000E-01   1.00800           0
     19064 MEMB     144      SOPE     C27      CTL2    -0.180000       12.0110           0
     19065 MEMB     144      SOPE     H7R      HAL2     0.900000E-01   1.00800           0
     19066 MEMB     144      SOPE     H7S      HAL2     0.900000E-01   1.00800           0
     19067 MEMB     144      SOPE     C28      CTL2    -0.180000       12.0110           0
     19068 MEMB     144      SOPE     H8R      HAL2     0.900000E-01   1.00800           0
     19069 MEMB     144      SOPE     H8S      HAL2     0.900000E-01   1.00800           0
     19070 MEMB     144      SOPE     C29      CEL1    -0.150000       12.0110           0
     19071 MEMB     144      SOPE     H91      HEL1     0.150000       1.00800           0
     19072 MEMB     144      SOPE     C210     CEL1    -0.150000       12.0110           0
     19073 MEMB     144      SOPE     H101     HEL1     0.150000       1.00800           0
     19074 MEMB     144      SOPE     C211     CTL2    -0.180000       12.0110           0
     19075 MEMB     144      SOPE     H11R     HAL2     0.900000E-01   1.00800           0
     19076 MEMB     144      SOPE     H11S     HAL2     0.900000E-01   1.00800           0
     19077 MEMB     144      SOPE     C212     CTL2    -0.180000       12.0110           0
     19078 MEMB     144      SOPE     H12R     HAL2     0.900000E-01   1.00800           0
     19079 MEMB     144      SOPE     H12S     HAL2     0.900000E-01   1.00800           0
     19080 MEMB     144      SOPE     C213     CTL2    -0.180000       12.0110           0
     19081 MEMB     144      SOPE     H13R     HAL2     0.900000E-01   1.00800           0
     19082 MEMB     144      SOPE     H13S     HAL2     0.900000E-01   1.00800           0
     19083 MEMB     144      SOPE     C214     CTL2    -0.180000       12.0110           0
     19084 MEMB     144      SOPE     H14R     HAL2     0.900000E-01   1.00800           0
     19085 MEMB     144      SOPE     H14S     HAL2     0.900000E-01   1.00800           0
     19086 MEMB     144      SOPE     C215     CTL2    -0.180000       12.0110           0
     19087 MEMB     144      SOPE     H15R     HAL2     0.900000E-01   1.00800           0
     19088 MEMB     144      SOPE     H15S     HAL2     0.900000E-01   1.00800           0
     19089 MEMB     144      SOPE     C216     CTL2    -0.180000       12.0110           0
     19090 MEMB     144      SOPE     H16R     HAL2     0.900000E-01   1.00800           0
     19091 MEMB     144      SOPE     H16S     HAL2     0.900000E-01   1.00800           0
     19092 MEMB     144      SOPE     C217     CTL2    -0.180000       12.0110           0
     19093 MEMB     144      SOPE     H17R     HAL2     0.900000E-01   1.00800           0
     19094 MEMB     144      SOPE     H17S     HAL2     0.900000E-01   1.00800           0
     19095 MEMB     144      SOPE     C218     CTL3    -0.270000       12.0110           0
     19096 MEMB     144      SOPE     H18R     HAL3     0.900000E-01   1.00800           0
     19097 MEMB     144      SOPE     H18S     HAL3     0.900000E-01   1.00800           0
     19098 MEMB     144      SOPE     H18T     HAL3     0.900000E-01   1.00800           0
     19099 MEMB     144      SOPE     C33      CTL2    -0.180000       12.0110           0
     19100 MEMB     144      SOPE     H3X      HAL2     0.900000E-01   1.00800           0
     19101 MEMB     144      SOPE     H3Y      HAL2     0.900000E-01   1.00800           0
     19102 MEMB     144      SOPE     C34      CTL2    -0.180000       12.0110           0
     19103 MEMB     144      SOPE     H4X      HAL2     0.900000E-01   1.00800           0
     19104 MEMB     144      SOPE     H4Y      HAL2     0.900000E-01   1.00800           0
     19105 MEMB     144      SOPE     C35      CTL2    -0.180000       12.0110           0
     19106 MEMB     144      SOPE     H5X      HAL2     0.900000E-01   1.00800           0
     19107 MEMB     144      SOPE     H5Y      HAL2     0.900000E-01   1.00800           0
     19108 MEMB     144      SOPE     C36      CTL2    -0.180000       12.0110           0
     19109 MEMB     144      SOPE     H6X      HAL2     0.900000E-01   1.00800           0
     19110 MEMB     144      SOPE     H6Y      HAL2     0.900000E-01   1.00800           0
     19111 MEMB     144      SOPE     C37      CTL2    -0.180000       12.0110           0
     19112 MEMB     144      SOPE     H7X      HAL2     0.900000E-01   1.00800           0
     19113 MEMB     144      SOPE     H7Y      HAL2     0.900000E-01   1.00800           0
     19114 MEMB     144      SOPE     C38      CTL2    -0.180000       12.0110           0
     19115 MEMB     144      SOPE     H8X      HAL2     0.900000E-01   1.00800           0
     19116 MEMB     144      SOPE     H8Y      HAL2     0.900000E-01   1.00800           0
     19117 MEMB     144      SOPE     C39      CTL2    -0.180000       12.0110           0
     19118 MEMB     144      SOPE     H9X      HAL2     0.900000E-01   1.00800           0
     19119 MEMB     144      SOPE     H9Y      HAL2     0.900000E-01   1.00800           0
     19120 MEMB     144      SOPE     C310     CTL2    -0.180000       12.0110           0
     19121 MEMB     144      SOPE     H10X     HAL2     0.900000E-01   1.00800           0
     19122 MEMB     144      SOPE     H10Y     HAL2     0.900000E-01   1.00800           0
     19123 MEMB     144      SOPE     C311     CTL2    -0.180000       12.0110           0
     19124 MEMB     144      SOPE     H11X     HAL2     0.900000E-01   1.00800           0
     19125 MEMB     144      SOPE     H11Y     HAL2     0.900000E-01   1.00800           0
     19126 MEMB     144      SOPE     C312     CTL2    -0.180000       12.0110           0
     19127 MEMB     144      SOPE     H12X     HAL2     0.900000E-01   1.00800           0
     19128 MEMB     144      SOPE     H12Y     HAL2     0.900000E-01   1.00800           0
     19129 MEMB     144      SOPE     C313     CTL2    -0.180000       12.0110           0
     19130 MEMB     144      SOPE     H13X     HAL2     0.900000E-01   1.00800           0
     19131 MEMB     144      SOPE     H13Y     HAL2     0.900000E-01   1.00800           0
     19132 MEMB     144      SOPE     C314     CTL2    -0.180000       12.0110           0
     19133 MEMB     144      SOPE     H14X     HAL2     0.900000E-01   1.00800           0
     19134 MEMB     144      SOPE     H14Y     HAL2     0.900000E-01   1.00800           0
     19135 MEMB     144      SOPE     C315     CTL2    -0.180000       12.0110           0
     19136 MEMB     144      SOPE     H15X     HAL2     0.900000E-01   1.00800           0
     19137 MEMB     144      SOPE     H15Y     HAL2     0.900000E-01   1.00800           0
     19138 MEMB     144      SOPE     C316     CTL2    -0.180000       12.0110           0
     19139 MEMB     144      SOPE     H16X     HAL2     0.900000E-01   1.00800           0
     19140 MEMB     144      SOPE     H16Y     HAL2     0.900000E-01   1.00800           0
     19141 MEMB     144      SOPE     C317     CTL2    -0.180000       12.0110           0
     19142 MEMB     144      SOPE     H17X     HAL2     0.900000E-01   1.00800           0
     19143 MEMB     144      SOPE     H17Y     HAL2     0.900000E-01   1.00800           0
     19144 MEMB     144      SOPE     C318     CTL3    -0.270000       12.0110           0
     19145 MEMB     144      SOPE     H18X     HAL3     0.900000E-01   1.00800           0
     19146 MEMB     144      SOPE     H18Y     HAL3     0.900000E-01   1.00800           0
     19147 MEMB     144      SOPE     H18Z     HAL3     0.900000E-01   1.00800           0
     19148 MEMB     148      SOPE     N        NH3L    -0.300000       14.0070           0
     19149 MEMB     148      SOPE     HN1      HCL      0.330000       1.00800           0
     19150 MEMB     148      SOPE     HN2      HCL      0.330000       1.00800           0
     19151 MEMB     148      SOPE     HN3      HCL      0.330000       1.00800           0
     19152 MEMB     148      SOPE     C12      CTL2     0.130000       12.0110           0
     19153 MEMB     148      SOPE     H12A     HAL2     0.900000E-01   1.00800           0
     19154 MEMB     148      SOPE     H12B     HAL2     0.900000E-01   1.00800           0
     19155 MEMB     148      SOPE     C11      CTL2    -0.800000E-01   12.0110           0
     19156 MEMB     148      SOPE     H11A     HAL2     0.900000E-01   1.00800           0
     19157 MEMB     148      SOPE     H11B     HAL2     0.900000E-01   1.00800           0
     19158 MEMB     148      SOPE     P        PL       1.500000       30.9740           0
     19159 MEMB     148      SOPE     O13      O2L     -0.780000       15.9994           0
     19160 MEMB     148      SOPE     O14      O2L     -0.780000       15.9994           0
     19161 MEMB     148      SOPE     O12      OSLP    -0.570000       15.9994           0
     19162 MEMB     148      SOPE     O11      OSLP    -0.570000       15.9994           0
     19163 MEMB     148      SOPE     C1       CTL2    -0.800000E-01   12.0110           0
     19164 MEMB     148      SOPE     HA       HAL2     0.900000E-01   1.00800           0
     19165 MEMB     148      SOPE     HB       HAL2     0.900000E-01   1.00800           0
     19166 MEMB     148      SOPE     C2       CTL1     0.170000       12.0110           0
     19167 MEMB     148      SOPE     HS       HAL1     0.900000E-01   1.00800           0
     19168 MEMB     148      SOPE     O21      OSL     -0.490000       15.9994           0
     19169 MEMB     148      SOPE     C21      CL       0.900000       12.0110           0
     19170 MEMB     148      SOPE     O22      OBL     -0.630000       15.9994           0
     19171 MEMB     148      SOPE     C22      CTL2    -0.220000       12.0110           0
     19172 MEMB     148      SOPE     H2R      HAL2     0.900000E-01   1.00800           0
     19173 MEMB     148      SOPE     H2S      HAL2     0.900000E-01   1.00800           0
     19174 MEMB     148      SOPE     C3       CTL2     0.800000E-01   12.0110           0
     19175 MEMB     148      SOPE     HX       HAL2     0.900000E-01   1.00800           0
     19176 MEMB     148      SOPE     HY       HAL2     0.900000E-01   1.00800           0
     19177 MEMB     148      SOPE     O31      OSL     -0.490000       15.9994           0
     19178 MEMB     148      SOPE     C31      CL       0.900000       12.0110           0
     19179 MEMB     148      SOPE     O32      OBL     -0.630000       15.9994           0
     19180 MEMB     148      SOPE     C32      CTL2    -0.220000       12.0110           0
     19181 MEMB     148      SOPE     H2X      HAL2     0.900000E-01   1.00800           0
     19182 MEMB     148      SOPE     H2Y      HAL2     0.900000E-01   1.00800           0
     19183 MEMB     148      SOPE     C23      CTL2    -0.180000       12.0110           0
     19184 MEMB     148      SOPE     H3R      HAL2     0.900000E-01   1.00800           0
     19185 MEMB     148      SOPE     H3S      HAL2     0.900000E-01   1.00800           0
     19186 MEMB     148      SOPE     C24      CTL2    -0.180000       12.0110           0
     19187 MEMB     148      SOPE     H4R      HAL2     0.900000E-01   1.00800           0
     19188 MEMB     148      SOPE     H4S      HAL2     0.900000E-01   1.00800           0
     19189 MEMB     148      SOPE     C25      CTL2    -0.180000       12.0110           0
     19190 MEMB     148      SOPE     H5R      HAL2     0.900000E-01   1.00800           0
     19191 MEMB     148      SOPE     H5S      HAL2     0.900000E-01   1.00800           0
     19192 MEMB     148      SOPE     C26      CTL2    -0.180000       12.0110           0
     19193 MEMB     148      SOPE     H6R      HAL2     0.900000E-01   1.00800           0
     19194 MEMB     148      SOPE     H6S      HAL2     0.900000E-01   1.00800           0
     19195 MEMB     148      SOPE     C27      CTL2    -0.180000       12.0110           0
     19196 MEMB     148      SOPE     H7R      HAL2     0.900000E-01   1.00800           0
     19197 MEMB     148      SOPE     H7S      HAL2     0.900000E-01   1.00800           0
     19198 MEMB     148      SOPE     C28      CTL2    -0.180000       12.0110           0
     19199 MEMB     148      SOPE     H8R      HAL2     0.900000E-01   1.00800           0
     19200 MEMB     148      SOPE     H8S      HAL2     0.900000E-01   1.00800           0
     19201 MEMB     148      SOPE     C29      CEL1    -0.150000       12.0110           0
     19202 MEMB     148      SOPE     H91      HEL1     0.150000       1.00800           0
     19203 MEMB     148      SOPE     C210     CEL1    -0.150000       12.0110           0
     19204 MEMB     148      SOPE     H101     HEL1     0.150000       1.00800           0
     19205 MEMB     148      SOPE     C211     CTL2    -0.180000       12.0110           0
     19206 MEMB     148      SOPE     H11R     HAL2     0.900000E-01   1.00800           0
     19207 MEMB     148      SOPE     H11S     HAL2     0.900000E-01   1.00800           0
     19208 MEMB     148      SOPE     C212     CTL2    -0.180000       12.0110           0
     19209 MEMB     148      SOPE     H12R     HAL2     0.900000E-01   1.00800           0
     19210 MEMB     148      SOPE     H12S     HAL2     0.900000E-01   1.00800           0
     19211 MEMB     148      SOPE     C213     CTL2    -0.180000       12.0110           0
     19212 MEMB     148      SOPE     H13R     HAL2     0.900000E-01   1.00800           0
     19213 MEMB     148      SOPE     H13S     HAL2     0.900000E-01   1.00800           0
     19214 MEMB     148      SOPE     C214     CTL2    -0.180000       12.0110           0
     19215 MEMB     148      SOPE     H14R     HAL2     0.900000E-01   1.00800           0
     19216 MEMB     148      SOPE     H14S     HAL2     0.900000E-01   1.00800           0
     19217 MEMB     148      SOPE     C215     CTL2    -0.180000       12.0110           0
     19218 MEMB     148      SOPE     H15R     HAL2     0.900000E-01   1.00800           0
     19219 MEMB     148      SOPE     H15S     HAL2     0.900000E-01   1.00800           0
     19220 MEMB     148      SOPE     C216     CTL2    -0.180000       12.0110           0
     19221 MEMB     148      SOPE     H16R     HAL2     0.900000E-01   1.00800           0
     19222 MEMB     148      SOPE     H16S     HAL2     0.900000E-01   1.00800           0
     19223 MEMB     148      SOPE     C217     CTL2    -0.180000       12.0110           0
     19224 MEMB     148      SOPE     H17R     HAL2     0.900000E-01   1.00800           0
     19225 MEMB     148      SOPE     H17S     HAL2     0.900000E-01   1.00800           0
     19226 MEMB     148      SOPE     C218     CTL3    -0.270000       12.0110           0
     19227 MEMB     148      SOPE     H18R     HAL3     0.900000E-01   1.00800           0
     19228 MEMB     148      SOPE     H18S     HAL3     0.900000E-01   1.00800           0
     19229 MEMB     148      SOPE     H18T     HAL3     0.900000E-01   1.00800           0
     19230 MEMB     148      SOPE     C33      CTL2    -0.180000       12.0110           0
     19231 MEMB     148      SOPE     H3X      HAL2     0.900000E-01   1.00800           0
     19232 MEMB     148      SOPE     H3Y      HAL2     0.900000E-01   1.00800           0
     19233 MEMB     148      SOPE     C34      CTL2    -0.180000       12.0110           0
     19234 MEMB     148      SOPE     H4X      HAL2     0.900000E-01   1.00800           0
     19235 MEMB     148      SOPE     H4Y      HAL2     0.900000E-01   1.00800           0
     19236 MEMB     148      SOPE     C35      CTL2    -0.180000       12.0110           0
     19237 MEMB     148      SOPE     H5X      HAL2     0.900000E-01   1.00800           0
     19238 MEMB     148      SOPE     H5Y      HAL2     0.900000E-01   1.00800           0
     19239 MEMB     148      SOPE     C36      CTL2    -0.180000       12.0110           0
     19240 MEMB     148      SOPE     H6X      HAL2     0.900000E-01   1.00800           0
     19241 MEMB     148      SOPE     H6Y      HAL2     0.900000E-01   1.00800           0
     19242 MEMB     148      SOPE     C37      CTL2    -0.180000       12.0110           0
     19243 MEMB     148      SOPE     H7X      HAL2     0.900000E-01   1.00800           0
     19244 MEMB     148      SOPE     H7Y      HAL2     0.900000E-01   1.00800           0
     19245 MEMB     148      SOPE     C38      CTL2    -0.180000       12.0110           0
     19246 MEMB     148      SOPE     H8X      HAL2     0.900000E-01   1.00800           0
     19247 MEMB     148      SOPE     H8Y      HAL2     0.900000E-01   1.00800           0
     19248 MEMB     148      SOPE     C39      CTL2    -0.180000       12.0110           0
     19249 MEMB     148      SOPE     H9X      HAL2     0.900000E-01   1.00800           0
     19250 MEMB     148      SOPE     H9Y      HAL2     0.900000E-01   1.00800           0
     19251 MEMB     148      SOPE     C310     CTL2    -0.180000       12.0110           0
     19252 MEMB     148      SOPE     H10X     HAL2     0.900000E-01   1.00800           0
     19253 MEMB     148      SOPE     H10Y     HAL2     0.900000E-01   1.00800           0
     19254 MEMB     148      SOPE     C311     CTL2    -0.180000       12.0110           0
     19255 MEMB     148      SOPE     H11X     HAL2     0.900000E-01   1.00800           0
     19256 MEMB     148      SOPE     H11Y     HAL2     0.900000E-01   1.00800           0
     19257 MEMB     148      SOPE     C312     CTL2    -0.180000       12.0110           0
     19258 MEMB     148      SOPE     H12X     HAL2     0.900000E-01   1.00800           0
     19259 MEMB     148      SOPE     H12Y     HAL2     0.900000E-01   1.00800           0
     19260 MEMB     148      SOPE     C313     CTL2    -0.180000       12.0110           0
     19261 MEMB     148      SOPE     H13X     HAL2     0.900000E-01   1.00800           0
     19262 MEMB     148      SOPE     H13Y     HAL2     0.900000E-01   1.00800           0
     19263 MEMB     148      SOPE     C314     CTL2    -0.180000       12.0110           0
     19264 MEMB     148      SOPE     H14X     HAL2     0.900000E-01   1.00800           0
     19265 MEMB     148      SOPE     H14Y     HAL2     0.900000E-01   1.00800           0
     19266 MEMB     148      SOPE     C315     CTL2    -0.180000       12.0110           0
     19267 MEMB     148      SOPE     H15X     HAL2     0.900000E-01   1.00800           0
     19268 MEMB     148      SOPE     H15Y     HAL2     0.900000E-01   1.00800           0
     19269 MEMB     148      SOPE     C316     CTL2    -0.180000       12.0110           0
     19270 MEMB     148      SOPE     H16X     HAL2     0.900000E-01   1.00800           0
     19271 MEMB     148      SOPE     H16Y     HAL2     0.900000E-01   1.00800           0
     19272 MEMB     148      SOPE     C317     CTL2    -0.180000       12.0110           0
     19273 MEMB     148      SOPE     H17X     HAL2     0.900000E-01   1.00800           0
     19274 MEMB     148      SOPE     H17Y     HAL2     0.900000E-01   1.00800           0
     19275 MEMB     148      SOPE     C318     CTL3    -0.270000       12.0110           0
     19276 MEMB     148      SOPE     H18X     HAL3     0.900000E-01   1.00800           0
     19277 MEMB     148      SOPE     H18Y     HAL3     0.900000E-01   1.00800           0
     19278 MEMB     148      SOPE     H18Z     HAL3     0.900000E-01   1.00800           0
     19279 MEMB     168      SOPE     N        NH3L    -0.300000       14.0070           0
     19280 MEMB     168      SOPE     HN1      HCL      0.330000       1.00800           0
     19281 MEMB     168      SOPE     HN2      HCL      0.330000       1.00800           0
     19282 MEMB     168      SOPE     HN3      HCL      0.330000       1.00800           0
     19283 MEMB     168      SOPE     C12      CTL2     0.130000       12.0110           0
     19284 MEMB     168      SOPE     H12A     HAL2     0.900000E-01   1.00800           0
     19285 MEMB     168      SOPE     H12B     HAL2     0.900000E-01   1.00800           0
     19286 MEMB     168      SOPE     C11      CTL2    -0.800000E-01   12.0110           0
     19287 MEMB     168      SOPE     H11A     HAL2     0.900000E-01   1.00800           0
     19288 MEMB     168      SOPE     H11B     HAL2     0.900000E-01   1.00800           0
     19289 MEMB     168      SOPE     P        PL       1.500000       30.9740           0
     19290 MEMB     168      SOPE     O13      O2L     -0.780000       15.9994           0
     19291 MEMB     168      SOPE     O14      O2L     -0.780000       15.9994           0
     19292 MEMB     168      SOPE     O12      OSLP    -0.570000       15.9994           0
     19293 MEMB     168      SOPE     O11      OSLP    -0.570000       15.9994           0
     19294 MEMB     168      SOPE     C1       CTL2    -0.800000E-01   12.0110           0
     19295 MEMB     168      SOPE     HA       HAL2     0.900000E-01   1.00800           0
     19296 MEMB     168      SOPE     HB       HAL2     0.900000E-01   1.00800           0
     19297 MEMB     168      SOPE     C2       CTL1     0.170000       12.0110           0
     19298 MEMB     168      SOPE     HS       HAL1     0.900000E-01   1.00800           0
     19299 MEMB     168      SOPE     O21      OSL     -0.490000       15.9994           0
     19300 MEMB     168      SOPE     C21      CL       0.900000       12.0110           0
     19301 MEMB     168      SOPE     O22      OBL     -0.630000       15.9994           0
     19302 MEMB     168      SOPE     C22      CTL2    -0.220000       12.0110           0
     19303 MEMB     168      SOPE     H2R      HAL2     0.900000E-01   1.00800           0
     19304 MEMB     168      SOPE     H2S      HAL2     0.900000E-01   1.00800           0
     19305 MEMB     168      SOPE     C3       CTL2     0.800000E-01   12.0110           0
     19306 MEMB     168      SOPE     HX       HAL2     0.900000E-01   1.00800           0
     19307 MEMB     168      SOPE     HY       HAL2     0.900000E-01   1.00800           0
     19308 MEMB     168      SOPE     O31      OSL     -0.490000       15.9994           0
     19309 MEMB     168      SOPE     C31      CL       0.900000       12.0110           0
     19310 MEMB     168      SOPE     O32      OBL     -0.630000       15.9994           0
     19311 MEMB     168      SOPE     C32      CTL2    -0.220000       12.0110           0
     19312 MEMB     168      SOPE     H2X      HAL2     0.900000E-01   1.00800           0
     19313 MEMB     168      SOPE     H2Y      HAL2     0.900000E-01   1.00800           0
     19314 MEMB     168      SOPE     C23      CTL2    -0.180000       12.0110           0
     19315 MEMB     168      SOPE     H3R      HAL2     0.900000E-01   1.00800           0
     19316 MEMB     168      SOPE     H3S      HAL2     0.900000E-01   1.00800           0
     19317 MEMB     168      SOPE     C24      CTL2    -0.180000       12.0110           0
     19318 MEMB     168      SOPE     H4R      HAL2     0.900000E-01   1.00800           0
     19319 MEMB     168      SOPE     H4S      HAL2     0.900000E-01   1.00800           0
     19320 MEMB     168      SOPE     C25      CTL2    -0.180000       12.0110           0
     19321 MEMB     168      SOPE     H5R      HAL2     0.900000E-01   1.00800           0
     19322 MEMB     168      SOPE     H5S      HAL2     0.900000E-01   1.00800           0
     19323 MEMB     168      SOPE     C26      CTL2    -0.180000       12.0110           0
     19324 MEMB     168      SOPE     H6R      HAL2     0.900000E-01   1.00800           0
     19325 MEMB     168      SOPE     H6S      HAL2     0.900000E-01   1.00800           0
     19326 MEMB     168      SOPE     C27      CTL2    -0.180000       12.0110           0
     19327 MEMB     168      SOPE     H7R      HAL2     0.900000E-01   1.00800           0
     19328 MEMB     168      SOPE     H7S      HAL2     0.900000E-01   1.00800           0
     19329 MEMB     168      SOPE     C28      CTL2    -0.180000       12.0110           0
     19330 MEMB     168      SOPE     H8R      HAL2     0.900000E-01   1.00800           0
     19331 MEMB     168      SOPE     H8S      HAL2     0.900000E-01   1.00800           0
     19332 MEMB     168      SOPE     C29      CEL1    -0.150000       12.0110           0
     19333 MEMB     168      SOPE     H91      HEL1     0.150000       1.00800           0
     19334 MEMB     168      SOPE     C210     CEL1    -0.150000       12.0110           0
     19335 MEMB     168      SOPE     H101     HEL1     0.150000       1.00800           0
     19336 MEMB     168      SOPE     C211     CTL2    -0.180000       12.0110           0
     19337 MEMB     168      SOPE     H11R     HAL2     0.900000E-01   1.00800           0
     19338 MEMB     168      SOPE     H11S     HAL2     0.900000E-01   1.00800           0
     19339 MEMB     168      SOPE     C212     CTL2    -0.180000       12.0110           0
     19340 MEMB     168      SOPE     H12R     HAL2     0.900000E-01   1.00800           0
     19341 MEMB     168      SOPE     H12S     HAL2     0.900000E-01   1.00800           0
     19342 MEMB     168      SOPE     C213     CTL2    -0.180000       12.0110           0
     19343 MEMB     168      SOPE     H13R     HAL2     0.900000E-01   1.00800           0
     19344 MEMB     168      SOPE     H13S     HAL2     0.900000E-01   1.00800           0
     19345 MEMB     168      SOPE     C214     CTL2    -0.180000       12.0110           0
     19346 MEMB     168      SOPE     H14R     HAL2     0.900000E-01   1.00800           0
     19347 MEMB     168      SOPE     H14S     HAL2     0.900000E-01   1.00800           0
     19348 MEMB     168      SOPE     C215     CTL2    -0.180000       12.0110           0
     19349 MEMB     168      SOPE     H15R     HAL2     0.900000E-01   1.00800           0
     19350 MEMB     168      SOPE     H15S     HAL2     0.900000E-01   1.00800           0
     19351 MEMB     168      SOPE     C216     CTL2    -0.180000       12.0110           0
     19352 MEMB     168      SOPE     H16R     HAL2     0.900000E-01   1.00800           0
     19353 MEMB     168      SOPE     H16S     HAL2     0.900000E-01   1.00800           0
     19354 MEMB     168      SOPE     C217     CTL2    -0.180000       12.0110           0
     19355 MEMB     168      SOPE     H17R     HAL2     0.900000E-01   1.00800           0
     19356 MEMB     168      SOPE     H17S     HAL2     0.900000E-01   1.00800           0
     19357 MEMB     168      SOPE     C218     CTL3    -0.270000       12.0110           0
     19358 MEMB     168      SOPE     H18R     HAL3     0.900000E-01   1.00800           0
     19359 MEMB     168      SOPE     H18S     HAL3     0.900000E-01   1.00800           0
     19360 MEMB     168      SOPE     H18T     HAL3     0.900000E-01   1.00800           0
     19361 MEMB     168      SOPE     C33      CTL2    -0.180000       12.0110           0
     19362 MEMB     168      SOPE     H3X      HAL2     0.900000E-01   1.00800           0
     19363 MEMB     168      SOPE     H3Y      HAL2     0.900000E-01   1.00800           0
     19364 MEMB     168      SOPE     C34      CTL2    -0.180000       12.0110           0
     19365 MEMB     168      SOPE     H4X      HAL2     0.900000E-01   1.00800           0
     19366 MEMB     168      SOPE     H4Y      HAL2     0.900000E-01   1.00800           0
     19367 MEMB     168      SOPE     C35      CTL2    -0.180000       12.0110           0
     19368 MEMB     168      SOPE     H5X      HAL2     0.900000E-01   1.00800           0
     19369 MEMB     168      SOPE     H5Y      HAL2     0.900000E-01   1.00800           0
     19370 MEMB     168      SOPE     C36      CTL2    -0.180000       12.0110           0
     19371 MEMB     168      SOPE     H6X      HAL2     0.900000E-01   1.00800           0
     19372 MEMB     168      SOPE     H6Y      HAL2     0.900000E-01   1.00800           0
     19373 MEMB     168      SOPE     C37      CTL2    -0.180000       12.0110           0
     19374 MEMB     168      SOPE     H7X      HAL2     0.900000E-01   1.00800           0
     19375 MEMB     168      SOPE     H7Y      HAL2     0.900000E-01   1.00800           0
     19376 MEMB     168      SOPE     C38      CTL2    -0.180000       12.0110           0
     19377 MEMB     168      SOPE     H8X      HAL2     0.900000E-01   1.00800           0
     19378 MEMB     168      SOPE     H8Y      HAL2     0.900000E-01   1.00800           0
     19379 MEMB     168      SOPE     C39      CTL2    -0.180000       12.0110           0
     19380 MEMB     168      SOPE     H9X      HAL2     0.900000E-01   1.00800           0
     19381 MEMB     168      SOPE     H9Y      HAL2     0.900000E-01   1.00800           0
     19382 MEMB     168      SOPE     C310     CTL2    -0.180000       12.0110           0
     19383 MEMB     168      SOPE     H10X     HAL2     0.900000E-01   1.00800           0
     19384 MEMB     168      SOPE     H10Y     HAL2     0.900000E-01   1.00800           0
     19385 MEMB     168      SOPE     C311     CTL2    -0.180000       12.0110           0
     19386 MEMB     168      SOPE     H11X     HAL2     0.900000E-01   1.00800           0
     19387 MEMB     168      SOPE     H11Y     HAL2     0.900000E-01   1.00800           0
     19388 MEMB     168      SOPE     C312     CTL2    -0.180000       12.0110           0
     19389 MEMB     168      SOPE     H12X     HAL2     0.900000E-01   1.00800           0
     19390 MEMB     168      SOPE     H12Y     HAL2     0.900000E-01   1.00800           0
     19391 MEMB     168      SOPE     C313     CTL2    -0.180000       12.0110           0
     19392 MEMB     168      SOPE     H13X     HAL2     0.900000E-01   1.00800           0
     19393 MEMB     168      SOPE     H13Y     HAL2     0.900000E-01   1.00800           0
     19394 MEMB     168      SOPE     C314     CTL2    -0.180000       12.0110           0
     19395 MEMB     168      SOPE     H14X     HAL2     0.900000E-01   1.00800           0
     19396 MEMB     168      SOPE     H14Y     HAL2     0.900000E-01   1.00800           0
     19397 MEMB     168      SOPE     C315     CTL2    -0.180000       12.0110           0
     19398 MEMB     168      SOPE     H15X     HAL2     0.900000E-01   1.00800           0
     19399 MEMB     168      SOPE     H15Y     HAL2     0.900000E-01   1.00800           0
     19400 MEMB     168      SOPE     C316     CTL2    -0.180000       12.0110           0
     19401 MEMB     168      SOPE     H16X     HAL2     0.900000E-01   1.00800           0
     19402 MEMB     168      SOPE     H16Y     HAL2     0.900000E-01   1.00800           0
     19403 MEMB     168      SOPE     C317     CTL2    -0.180000       12.0110           0
     19404 MEMB     168      SOPE     H17X     HAL2     0.900000E-01   1.00800           0
     19405 MEMB     168      SOPE     H17Y     HAL2     0.900000E-01   1.00800           0
     19406 MEMB     168      SOPE     C318     CTL3    -0.270000       12.0110           0
     19407 MEMB     168      SOPE     H18X     HAL3     0.900000E-01   1.00800           0
     19408 MEMB     168      SOPE     H18Y     HAL3     0.900000E-01   1.00800           0
     19409 MEMB     168      SOPE     H18Z     HAL3     0.900000E-01   1.00800           0
     19410 MEMB     180      SOPE     N        NH3L    -0.300000       14.0070           0
     19411 MEMB     180      SOPE     HN1      HCL      0.330000       1.00800           0
     19412 MEMB     180      SOPE     HN2      HCL      0.330000       1.00800           0
     19413 MEMB     180      SOPE     HN3      HCL      0.330000       1.00800           0
     19414 MEMB     180      SOPE     C12      CTL2     0.130000       12.0110           0
     19415 MEMB     180      SOPE     H12A     HAL2     0.900000E-01   1.00800           0
     19416 MEMB     180      SOPE     H12B     HAL2     0.900000E-01   1.00800           0
     19417 MEMB     180      SOPE     C11      CTL2    -0.800000E-01   12.0110           0
     19418 MEMB     180      SOPE     H11A     HAL2     0.900000E-01   1.00800           0
     19419 MEMB     180      SOPE     H11B     HAL2     0.900000E-01   1.00800           0
     19420 MEMB     180      SOPE     P        PL       1.500000       30.9740           0
     19421 MEMB     180      SOPE     O13      O2L     -0.780000       15.9994           0
     19422 MEMB     180      SOPE     O14      O2L     -0.780000       15.9994           0
     19423 MEMB     180      SOPE     O12      OSLP    -0.570000       15.9994           0
     19424 MEMB     180      SOPE     O11      OSLP    -0.570000       15.9994           0
     19425 MEMB     180      SOPE     C1       CTL2    -0.800000E-01   12.0110           0
     19426 MEMB     180      SOPE     HA       HAL2     0.900000E-01   1.00800           0
     19427 MEMB     180      SOPE     HB       HAL2     0.900000E-01   1.00800           0
     19428 MEMB     180      SOPE     C2       CTL1     0.170000       12.0110           0
     19429 MEMB     180      SOPE     HS       HAL1     0.900000E-01   1.00800           0
     19430 MEMB     180      SOPE     O21      OSL     -0.490000       15.9994           0
     19431 MEMB     180      SOPE     C21      CL       0.900000       12.0110           0
     19432 MEMB     180      SOPE     O22      OBL     -0.630000       15.9994           0
     19433 MEMB     180      SOPE     C22      CTL2    -0.220000       12.0110           0
     19434 MEMB     180      SOPE     H2R      HAL2     0.900000E-01   1.00800           0
     19435 MEMB     180      SOPE     H2S      HAL2     0.900000E-01   1.00800           0
     19436 MEMB     180      SOPE     C3       CTL2     0.800000E-01   12.0110           0
     19437 MEMB     180      SOPE     HX       HAL2     0.900000E-01   1.00800           0
     19438 MEMB     180      SOPE     HY       HAL2     0.900000E-01   1.00800           0
     19439 MEMB     180      SOPE     O31      OSL     -0.490000       15.9994           0
     19440 MEMB     180      SOPE     C31      CL       0.900000       12.0110           0
     19441 MEMB     180      SOPE     O32      OBL     -0.630000       15.9994           0
     19442 MEMB     180      SOPE     C32      CTL2    -0.220000       12.0110           0
     19443 MEMB     180      SOPE     H2X      HAL2     0.900000E-01   1.00800           0
     19444 MEMB     180      SOPE     H2Y      HAL2     0.900000E-01   1.00800           0
     19445 MEMB     180      SOPE     C23      CTL2    -0.180000       12.0110           0
     19446 MEMB     180      SOPE     H3R      HAL2     0.900000E-01   1.00800           0
     19447 MEMB     180      SOPE     H3S      HAL2     0.900000E-01   1.00800           0
     19448 MEMB     180      SOPE     C24      CTL2    -0.180000       12.0110           0
     19449 MEMB     180      SOPE     H4R      HAL2     0.900000E-01   1.00800           0
     19450 MEMB     180      SOPE     H4S      HAL2     0.900000E-01   1.00800           0
     19451 MEMB     180      SOPE     C25      CTL2    -0.180000       12.0110           0
     19452 MEMB     180      SOPE     H5R      HAL2     0.900000E-01   1.00800           0
     19453 MEMB     180      SOPE     H5S      HAL2     0.900000E-01   1.00800           0
     19454 MEMB     180      SOPE     C26      CTL2    -0.180000       12.0110           0
     19455 MEMB     180      SOPE     H6R      HAL2     0.900000E-01   1.00800           0
     19456 MEMB     180      SOPE     H6S      HAL2     0.900000E-01   1.00800           0
     19457 MEMB     180      SOPE     C27      CTL2    -0.180000       12.0110           0
     19458 MEMB     180      SOPE     H7R      HAL2     0.900000E-01   1.00800           0
     19459 MEMB     180      SOPE     H7S      HAL2     0.900000E-01   1.00800           0
     19460 MEMB     180      SOPE     C28      CTL2    -0.180000       12.0110           0
     19461 MEMB     180      SOPE     H8R      HAL2     0.900000E-01   1.00800           0
     19462 MEMB     180      SOPE     H8S      HAL2     0.900000E-01   1.00800           0
     19463 MEMB     180      SOPE     C29      CEL1    -0.150000       12.0110           0
     19464 MEMB     180      SOPE     H91      HEL1     0.150000       1.00800           0
     19465 MEMB     180      SOPE     C210     CEL1    -0.150000       12.0110           0
     19466 MEMB     180      SOPE     H101     HEL1     0.150000       1.00800           0
     19467 MEMB     180      SOPE     C211     CTL2    -0.180000       12.0110           0
     19468 MEMB     180      SOPE     H11R     HAL2     0.900000E-01   1.00800           0
     19469 MEMB     180      SOPE     H11S     HAL2     0.900000E-01   1.00800           0
     19470 MEMB     180      SOPE     C212     CTL2    -0.180000       12.0110           0
     19471 MEMB     180      SOPE     H12R     HAL2     0.900000E-01   1.00800           0
     19472 MEMB     180      SOPE     H12S     HAL2     0.900000E-01   1.00800           0
     19473 MEMB     180      SOPE     C213     CTL2    -0.180000       12.0110           0
     19474 MEMB     180      SOPE     H13R     HAL2     0.900000E-01   1.00800           0
     19475 MEMB     180      SOPE     H13S     HAL2     0.900000E-01   1.00800           0
     19476 MEMB     180      SOPE     C214     CTL2    -0.180000       12.0110           0
     19477 MEMB     180      SOPE     H14R     HAL2     0.900000E-01   1.00800           0
     19478 MEMB     180      SOPE     H14S     HAL2     0.900000E-01   1.00800           0
     19479 MEMB     180      SOPE     C215     CTL2    -0.180000       12.0110           0
     19480 MEMB     180      SOPE     H15R     HAL2     0.900000E-01   1.00800           0
     19481 MEMB     180      SOPE     H15S     HAL2     0.900000E-01   1.00800           0
     19482 MEMB     180      SOPE     C216     CTL2    -0.180000       12.0110           0
     19483 MEMB     180      SOPE     H16R     HAL2     0.900000E-01   1.00800           0
     19484 MEMB     180      SOPE     H16S     HAL2     0.900000E-01   1.00800           0
     19485 MEMB     180      SOPE     C217     CTL2    -0.180000       12.0110           0
     19486 MEMB     180      SOPE     H17R     HAL2     0.900000E-01   1.00800           0
     19487 MEMB     180      SOPE     H17S     HAL2     0.900000E-01   1.00800           0
     19488 MEMB     180      SOPE     C218     CTL3    -0.270000       12.0110           0
     19489 MEMB     180      SOPE     H18R     HAL3     0.900000E-01   1.00800           0
     19490 MEMB     180      SOPE     H18S     HAL3     0.900000E-01   1.00800           0
     19491 MEMB     180      SOPE     H18T     HAL3     0.900000E-01   1.00800           0
     19492 MEMB     180      SOPE     C33      CTL2    -0.180000       12.0110           0
     19493 MEMB     180      SOPE     H3X      HAL2     0.900000E-01   1.00800           0
     19494 MEMB     180      SOPE     H3Y      HAL2     0.900000E-01   1.00800           0
     19495 MEMB     180      SOPE     C34      CTL2    -0.180000       12.0110           0
     19496 MEMB     180      SOPE     H4X      HAL2     0.900000E-01   1.00800           0
     19497 MEMB     180      SOPE     H4Y      HAL2     0.900000E-01   1.00800           0
     19498 MEMB     180      SOPE     C35      CTL2    -0.180000       12.0110           0
     19499 MEMB     180      SOPE     H5X      HAL2     0.900000E-01   1.00800           0
     19500 MEMB     180      SOPE     H5Y      HAL2     0.900000E-01   1.00800           0
     19501 MEMB     180      SOPE     C36      CTL2    -0.180000       12.0110           0
     19502 MEMB     180      SOPE     H6X      HAL2     0.900000E-01   1.00800           0
     19503 MEMB     180      SOPE     H6Y      HAL2     0.900000E-01   1.00800           0
     19504 MEMB     180      SOPE     C37      CTL2    -0.180000       12.0110           0
     19505 MEMB     180      SOPE     H7X      HAL2     0.900000E-01   1.00800           0
     19506 MEMB     180      SOPE     H7Y      HAL2     0.900000E-01   1.00800           0
     19507 MEMB     180      SOPE     C38      CTL2    -0.180000       12.0110           0
     19508 MEMB     180      SOPE     H8X      HAL2     0.900000E-01   1.00800           0
     19509 MEMB     180      SOPE     H8Y      HAL2     0.900000E-01   1.00800           0
     19510 MEMB     180      SOPE     C39      CTL2    -0.180000       12.0110           0
     19511 MEMB     180      SOPE     H9X      HAL2     0.900000E-01   1.00800           0
     19512 MEMB     180      SOPE     H9Y      HAL2     0.900000E-01   1.00800           0
     19513 MEMB     180      SOPE     C310     CTL2    -0.180000       12.0110           0
     19514 MEMB     180      SOPE     H10X     HAL2     0.900000E-01   1.00800           0
     19515 MEMB     180      SOPE     H10Y     HAL2     0.900000E-01   1.00800           0
     19516 MEMB     180      SOPE     C311     CTL2    -0.180000       12.0110           0
     19517 MEMB     180      SOPE     H11X     HAL2     0.900000E-01   1.00800           0
     19518 MEMB     180      SOPE     H11Y     HAL2     0.900000E-01   1.00800           0
     19519 MEMB     180      SOPE     C312     CTL2    -0.180000       12.0110           0
     19520 MEMB     180      SOPE     H12X     HAL2     0.900000E-01   1.00800           0
     19521 MEMB     180      SOPE     H12Y     HAL2     0.900000E-01   1.00800           0
     19522 MEMB     180      SOPE     C313     CTL2    -0.180000       12.0110           0
     19523 MEMB     180      SOPE     H13X     HAL2     0.900000E-01   1.00800           0
     19524 MEMB     180      SOPE     H13Y     HAL2     0.900000E-01   1.00800           0
     19525 MEMB     180      SOPE     C314     CTL2    -0.180000       12.0110           0
     19526 MEMB     180      SOPE     H14X     HAL2     0.900000E-01   1.00800           0
     19527 MEMB     180      SOPE     H14Y     HAL2     0.900000E-01   1.00800           0
     19528 MEMB     180      SOPE     C315     CTL2    -0.180000       12.0110           0
     19529 MEMB     180      SOPE     H15X     HAL2     0.900000E-01   1.00800           0
     19530 MEMB     180      SOPE     H15Y     HAL2     0.900000E-01   1.00800           0
     19531 MEMB     180      SOPE     C316     CTL2    -0.180000       12.0110           0
     19532 MEMB     180      SOPE     H16X     HAL2     0.900000E-01   1.00800           0
     19533 MEMB     180      SOPE     H16Y     HAL2     0.900000E-01   1.00800           0
     19534 MEMB     180      SOPE     C317     CTL2    -0.180000       12.0110           0
     19535 MEMB     180      SOPE     H17X     HAL2     0.900000E-01   1.00800           0
     19536 MEMB     180      SOPE     H17Y     HAL2     0.900000E-01   1.00800           0
     19537 MEMB     180      SOPE     C318     CTL3    -0.270000       12.0110           0
     19538 MEMB     180      SOPE     H18X     HAL3     0.900000E-01   1.00800           0
     19539 MEMB     180      SOPE     H18Y     HAL3     0.900000E-01   1.00800           0
     19540 MEMB     180      SOPE     H18Z     HAL3     0.900000E-01   1.00800           0
     19541 MEMB     19       SAPI     C12      CC3161   0.140000       12.0110           0
     19542 MEMB     19       SAPI     H2       HCA1     0.900000E-01   1.00800           0
     19543 MEMB     19       SAPI     O2       OC311   -0.650000       15.9994           0
     19544 MEMB     19       SAPI     HO2      HCP1     0.420000       1.00800           0
     19545 MEMB     19       SAPI     C13      CC3161   0.140000       12.0110           0
     19546 MEMB     19       SAPI     H3       HCA1     0.900000E-01   1.00800           0
     19547 MEMB     19       SAPI     O3       OC311   -0.650000       15.9994           0
     19548 MEMB     19       SAPI     HO3      HCP1     0.420000       1.00800           0
     19549 MEMB     19       SAPI     C14      CC3161   0.140000       12.0110           0
     19550 MEMB     19       SAPI     H4       HCA1     0.900000E-01   1.00800           0
     19551 MEMB     19       SAPI     O4       OC311   -0.650000       15.9994           0
     19552 MEMB     19       SAPI     HO4      HCP1     0.420000       1.00800           0
     19553 MEMB     19       SAPI     C15      CC3161   0.140000       12.0110           0
     19554 MEMB     19       SAPI     H5       HCA1     0.900000E-01   1.00800           0
     19555 MEMB     19       SAPI     O5       OC311   -0.650000       15.9994           0
     19556 MEMB     19       SAPI     HO5      HCP1     0.420000       1.00800           0
     19557 MEMB     19       SAPI     C16      CC3161   0.140000       12.0110           0
     19558 MEMB     19       SAPI     H6       HCA1     0.900000E-01   1.00800           0
     19559 MEMB     19       SAPI     O6       OC311   -0.650000       15.9994           0
     19560 MEMB     19       SAPI     HO6      HCP1     0.420000       1.00800           0
     19561 MEMB     19       SAPI     C11      CC3161  -0.800000E-01   12.0110           0
     19562 MEMB     19       SAPI     H1       HCA1     0.900000E-01   1.00800           0
     19563 MEMB     19       SAPI     P        PL       1.590000       30.9740           0
     19564 MEMB     19       SAPI     O13      O2L     -0.780000       15.9994           0
     19565 MEMB     19       SAPI     O14      O2L     -0.780000       15.9994           0
     19566 MEMB     19       SAPI     O12      OC30P   -0.570000       15.9994           0
     19567 MEMB     19       SAPI     O11      OSLP    -0.570000       15.9994           0
     19568 MEMB     19       SAPI     C1       CTL2    -0.800000E-01   12.0110           0
     19569 MEMB     19       SAPI     HA       HAL2     0.900000E-01   1.00800           0
     19570 MEMB     19       SAPI     HB       HAL2     0.900000E-01   1.00800           0
     19571 MEMB     19       SAPI     C2       CTL1     0.170000       12.0110           0
     19572 MEMB     19       SAPI     HS       HAL1     0.900000E-01   1.00800           0
     19573 MEMB     19       SAPI     O21      OSL     -0.490000       15.9994           0
     19574 MEMB     19       SAPI     C21      CL       0.900000       12.0110           0
     19575 MEMB     19       SAPI     O22      OBL     -0.630000       15.9994           0
     19576 MEMB     19       SAPI     C22      CTL2    -0.220000       12.0110           0
     19577 MEMB     19       SAPI     H2R      HAL2     0.900000E-01   1.00800           0
     19578 MEMB     19       SAPI     H2S      HAL2     0.900000E-01   1.00800           0
     19579 MEMB     19       SAPI     C3       CTL2     0.800000E-01   12.0110           0
     19580 MEMB     19       SAPI     HX       HAL2     0.900000E-01   1.00800           0
     19581 MEMB     19       SAPI     HY       HAL2     0.900000E-01   1.00800           0
     19582 MEMB     19       SAPI     O31      OSL     -0.490000       15.9994           0
     19583 MEMB     19       SAPI     C31      CL       0.900000       12.0110           0
     19584 MEMB     19       SAPI     O32      OBL     -0.630000       15.9994           0
     19585 MEMB     19       SAPI     C32      CTL2    -0.220000       12.0110           0
     19586 MEMB     19       SAPI     H2X      HAL2     0.900000E-01   1.00800           0
     19587 MEMB     19       SAPI     H2Y      HAL2     0.900000E-01   1.00800           0
     19588 MEMB     19       SAPI     C23      CTL2    -0.180000       12.0110           0
     19589 MEMB     19       SAPI     H3R      HAL2     0.900000E-01   1.00800           0
     19590 MEMB     19       SAPI     H3S      HAL2     0.900000E-01   1.00800           0
     19591 MEMB     19       SAPI     C24      CTL2    -0.180000       12.0110           0
     19592 MEMB     19       SAPI     H4R      HAL2     0.900000E-01   1.00800           0
     19593 MEMB     19       SAPI     H4S      HAL2     0.900000E-01   1.00800           0
     19594 MEMB     19       SAPI     C25      CEL1    -0.150000       12.0110           0
     19595 MEMB     19       SAPI     H5R      HEL1     0.150000       1.00800           0
     19596 MEMB     19       SAPI     C26      CEL1    -0.150000       12.0110           0
     19597 MEMB     19       SAPI     H6R      HEL1     0.150000       1.00800           0
     19598 MEMB     19       SAPI     C27      CTL2    -0.180000       12.0110           0
     19599 MEMB     19       SAPI     H7R      HAL2     0.900000E-01   1.00800           0
     19600 MEMB     19       SAPI     H7S      HAL2     0.900000E-01   1.00800           0
     19601 MEMB     19       SAPI     C28      CEL1    -0.150000       12.0110           0
     19602 MEMB     19       SAPI     H8R      HEL1     0.150000       1.00800           0
     19603 MEMB     19       SAPI     C29      CEL1    -0.150000       12.0110           0
     19604 MEMB     19       SAPI     H9R      HEL1     0.150000       1.00800           0
     19605 MEMB     19       SAPI     C210     CTL2    -0.180000       12.0110           0
     19606 MEMB     19       SAPI     H10R     HAL2     0.900000E-01   1.00800           0
     19607 MEMB     19       SAPI     H10S     HAL2     0.900000E-01   1.00800           0
     19608 MEMB     19       SAPI     C211     CEL1    -0.150000       12.0110           0
     19609 MEMB     19       SAPI     H11R     HEL1     0.150000       1.00800           0
     19610 MEMB     19       SAPI     C212     CEL1    -0.150000       12.0110           0
     19611 MEMB     19       SAPI     H12R     HEL1     0.150000       1.00800           0
     19612 MEMB     19       SAPI     C213     CTL2    -0.180000       12.0110           0
     19613 MEMB     19       SAPI     H13R     HAL2     0.900000E-01   1.00800           0
     19614 MEMB     19       SAPI     H13S     HAL2     0.900000E-01   1.00800           0
     19615 MEMB     19       SAPI     C214     CEL1    -0.150000       12.0110           0
     19616 MEMB     19       SAPI     H14R     HEL1     0.150000       1.00800           0
     19617 MEMB     19       SAPI     C215     CEL1    -0.150000       12.0110           0
     19618 MEMB     19       SAPI     H15R     HEL1     0.150000       1.00800           0
     19619 MEMB     19       SAPI     C216     CTL2    -0.180000       12.0110           0
     19620 MEMB     19       SAPI     H16R     HAL2     0.900000E-01   1.00800           0
     19621 MEMB     19       SAPI     H16S     HAL2     0.900000E-01   1.00800           0
     19622 MEMB     19       SAPI     C217     CTL2    -0.180000       12.0110           0
     19623 MEMB     19       SAPI     H17R     HAL2     0.900000E-01   1.00800           0
     19624 MEMB     19       SAPI     H17S     HAL2     0.900000E-01   1.00800           0
     19625 MEMB     19       SAPI     C218     CTL2    -0.180000       12.0110           0
     19626 MEMB     19       SAPI     H18R     HAL2     0.900000E-01   1.00800           0
     19627 MEMB     19       SAPI     H18S     HAL2     0.900000E-01   1.00800           0
     19628 MEMB     19       SAPI     C219     CTL2    -0.180000       12.0110           0
     19629 MEMB     19       SAPI     H19R     HAL2     0.900000E-01   1.00800           0
     19630 MEMB     19       SAPI     H19S     HAL2     0.900000E-01   1.00800           0
     19631 MEMB     19       SAPI     C220     CTL3    -0.270000       12.0110           0
     19632 MEMB     19       SAPI     H20R     HAL3     0.900000E-01   1.00800           0
     19633 MEMB     19       SAPI     H20S     HAL3     0.900000E-01   1.00800           0
     19634 MEMB     19       SAPI     H20T     HAL3     0.900000E-01   1.00800           0
     19635 MEMB     19       SAPI     C33      CTL2    -0.180000       12.0110           0
     19636 MEMB     19       SAPI     H3X      HAL2     0.900000E-01   1.00800           0
     19637 MEMB     19       SAPI     H3Y      HAL2     0.900000E-01   1.00800           0
     19638 MEMB     19       SAPI     C34      CTL2    -0.180000       12.0110           0
     19639 MEMB     19       SAPI     H4X      HAL2     0.900000E-01   1.00800           0
     19640 MEMB     19       SAPI     H4Y      HAL2     0.900000E-01   1.00800           0
     19641 MEMB     19       SAPI     C35      CTL2    -0.180000       12.0110           0
     19642 MEMB     19       SAPI     H5X      HAL2     0.900000E-01   1.00800           0
     19643 MEMB     19       SAPI     H5Y      HAL2     0.900000E-01   1.00800           0
     19644 MEMB     19       SAPI     C36      CTL2    -0.180000       12.0110           0
     19645 MEMB     19       SAPI     H6X      HAL2     0.900000E-01   1.00800           0
     19646 MEMB     19       SAPI     H6Y      HAL2     0.900000E-01   1.00800           0
     19647 MEMB     19       SAPI     C37      CTL2    -0.180000       12.0110           0
     19648 MEMB     19       SAPI     H7X      HAL2     0.900000E-01   1.00800           0
     19649 MEMB     19       SAPI     H7Y      HAL2     0.900000E-01   1.00800           0
     19650 MEMB     19       SAPI     C38      CTL2    -0.180000       12.0110           0
     19651 MEMB     19       SAPI     H8X      HAL2     0.900000E-01   1.00800           0
     19652 MEMB     19       SAPI     H8Y      HAL2     0.900000E-01   1.00800           0
     19653 MEMB     19       SAPI     C39      CTL2    -0.180000       12.0110           0
     19654 MEMB     19       SAPI     H9X      HAL2     0.900000E-01   1.00800           0
     19655 MEMB     19       SAPI     H9Y      HAL2     0.900000E-01   1.00800           0
     19656 MEMB     19       SAPI     C310     CTL2    -0.180000       12.0110           0
     19657 MEMB     19       SAPI     H10X     HAL2     0.900000E-01   1.00800           0
     19658 MEMB     19       SAPI     H10Y     HAL2     0.900000E-01   1.00800           0
     19659 MEMB     19       SAPI     C311     CTL2    -0.180000       12.0110           0
     19660 MEMB     19       SAPI     H11X     HAL2     0.900000E-01   1.00800           0
     19661 MEMB     19       SAPI     H11Y     HAL2     0.900000E-01   1.00800           0
     19662 MEMB     19       SAPI     C312     CTL2    -0.180000       12.0110           0
     19663 MEMB     19       SAPI     H12X     HAL2     0.900000E-01   1.00800           0
     19664 MEMB     19       SAPI     H12Y     HAL2     0.900000E-01   1.00800           0
     19665 MEMB     19       SAPI     C313     CTL2    -0.180000       12.0110           0
     19666 MEMB     19       SAPI     H13X     HAL2     0.900000E-01   1.00800           0
     19667 MEMB     19       SAPI     H13Y     HAL2     0.900000E-01   1.00800           0
     19668 MEMB     19       SAPI     C314     CTL2    -0.180000       12.0110           0
     19669 MEMB     19       SAPI     H14X     HAL2     0.900000E-01   1.00800           0
     19670 MEMB     19       SAPI     H14Y     HAL2     0.900000E-01   1.00800           0
     19671 MEMB     19       SAPI     C315     CTL2    -0.180000       12.0110           0
     19672 MEMB     19       SAPI     H15X     HAL2     0.900000E-01   1.00800           0
     19673 MEMB     19       SAPI     H15Y     HAL2     0.900000E-01   1.00800           0
     19674 MEMB     19       SAPI     C316     CTL2    -0.180000       12.0110           0
     19675 MEMB     19       SAPI     H16X     HAL2     0.900000E-01   1.00800           0
     19676 MEMB     19       SAPI     H16Y     HAL2     0.900000E-01   1.00800           0
     19677 MEMB     19       SAPI     C317     CTL2    -0.180000       12.0110           0
     19678 MEMB     19       SAPI     H17X     HAL2     0.900000E-01   1.00800           0
     19679 MEMB     19       SAPI     H17Y     HAL2     0.900000E-01   1.00800           0
     19680 MEMB     19       SAPI     C318     CTL3    -0.270000       12.0110           0
     19681 MEMB     19       SAPI     H18X     HAL3     0.900000E-01   1.00800           0
     19682 MEMB     19       SAPI     H18Y     HAL3     0.900000E-01   1.00800           0
     19683 MEMB     19       SAPI     H18Z     HAL3     0.900000E-01   1.00800           0
     19684 MEMB     34       SAPI     C12      CC3161   0.140000       12.0110           0
     19685 MEMB     34       SAPI     H2       HCA1     0.900000E-01   1.00800           0
     19686 MEMB     34       SAPI     O2       OC311   -0.650000       15.9994           0
     19687 MEMB     34       SAPI     HO2      HCP1     0.420000       1.00800           0
     19688 MEMB     34       SAPI     C13      CC3161   0.140000       12.0110           0
     19689 MEMB     34       SAPI     H3       HCA1     0.900000E-01   1.00800           0
     19690 MEMB     34       SAPI     O3       OC311   -0.650000       15.9994           0
     19691 MEMB     34       SAPI     HO3      HCP1     0.420000       1.00800           0
     19692 MEMB     34       SAPI     C14      CC3161   0.140000       12.0110           0
     19693 MEMB     34       SAPI     H4       HCA1     0.900000E-01   1.00800           0
     19694 MEMB     34       SAPI     O4       OC311   -0.650000       15.9994           0
     19695 MEMB     34       SAPI     HO4      HCP1     0.420000       1.00800           0
     19696 MEMB     34       SAPI     C15      CC3161   0.140000       12.0110           0
     19697 MEMB     34       SAPI     H5       HCA1     0.900000E-01   1.00800           0
     19698 MEMB     34       SAPI     O5       OC311   -0.650000       15.9994           0
     19699 MEMB     34       SAPI     HO5      HCP1     0.420000       1.00800           0
     19700 MEMB     34       SAPI     C16      CC3161   0.140000       12.0110           0
     19701 MEMB     34       SAPI     H6       HCA1     0.900000E-01   1.00800           0
     19702 MEMB     34       SAPI     O6       OC311   -0.650000       15.9994           0
     19703 MEMB     34       SAPI     HO6      HCP1     0.420000       1.00800           0
     19704 MEMB     34       SAPI     C11      CC3161  -0.800000E-01   12.0110           0
     19705 MEMB     34       SAPI     H1       HCA1     0.900000E-01   1.00800           0
     19706 MEMB     34       SAPI     P        PL       1.590000       30.9740           0
     19707 MEMB     34       SAPI     O13      O2L     -0.780000       15.9994           0
     19708 MEMB     34       SAPI     O14      O2L     -0.780000       15.9994           0
     19709 MEMB     34       SAPI     O12      OC30P   -0.570000       15.9994           0
     19710 MEMB     34       SAPI     O11      OSLP    -0.570000       15.9994           0
     19711 MEMB     34       SAPI     C1       CTL2    -0.800000E-01   12.0110           0
     19712 MEMB     34       SAPI     HA       HAL2     0.900000E-01   1.00800           0
     19713 MEMB     34       SAPI     HB       HAL2     0.900000E-01   1.00800           0
     19714 MEMB     34       SAPI     C2       CTL1     0.170000       12.0110           0
     19715 MEMB     34       SAPI     HS       HAL1     0.900000E-01   1.00800           0
     19716 MEMB     34       SAPI     O21      OSL     -0.490000       15.9994           0
     19717 MEMB     34       SAPI     C21      CL       0.900000       12.0110           0
     19718 MEMB     34       SAPI     O22      OBL     -0.630000       15.9994           0
     19719 MEMB     34       SAPI     C22      CTL2    -0.220000       12.0110           0
     19720 MEMB     34       SAPI     H2R      HAL2     0.900000E-01   1.00800           0
     19721 MEMB     34       SAPI     H2S      HAL2     0.900000E-01   1.00800           0
     19722 MEMB     34       SAPI     C3       CTL2     0.800000E-01   12.0110           0
     19723 MEMB     34       SAPI     HX       HAL2     0.900000E-01   1.00800           0
     19724 MEMB     34       SAPI     HY       HAL2     0.900000E-01   1.00800           0
     19725 MEMB     34       SAPI     O31      OSL     -0.490000       15.9994           0
     19726 MEMB     34       SAPI     C31      CL       0.900000       12.0110           0
     19727 MEMB     34       SAPI     O32      OBL     -0.630000       15.9994           0
     19728 MEMB     34       SAPI     C32      CTL2    -0.220000       12.0110           0
     19729 MEMB     34       SAPI     H2X      HAL2     0.900000E-01   1.00800           0
     19730 MEMB     34       SAPI     H2Y      HAL2     0.900000E-01   1.00800           0
     19731 MEMB     34       SAPI     C23      CTL2    -0.180000       12.0110           0
     19732 MEMB     34       SAPI     H3R      HAL2     0.900000E-01   1.00800           0
     19733 MEMB     34       SAPI     H3S      HAL2     0.900000E-01   1.00800           0
     19734 MEMB     34       SAPI     C24      CTL2    -0.180000       12.0110           0
     19735 MEMB     34       SAPI     H4R      HAL2     0.900000E-01   1.00800           0
     19736 MEMB     34       SAPI     H4S      HAL2     0.900000E-01   1.00800           0
     19737 MEMB     34       SAPI     C25      CEL1    -0.150000       12.0110           0
     19738 MEMB     34       SAPI     H5R      HEL1     0.150000       1.00800           0
     19739 MEMB     34       SAPI     C26      CEL1    -0.150000       12.0110           0
     19740 MEMB     34       SAPI     H6R      HEL1     0.150000       1.00800           0
     19741 MEMB     34       SAPI     C27      CTL2    -0.180000       12.0110           0
     19742 MEMB     34       SAPI     H7R      HAL2     0.900000E-01   1.00800           0
     19743 MEMB     34       SAPI     H7S      HAL2     0.900000E-01   1.00800           0
     19744 MEMB     34       SAPI     C28      CEL1    -0.150000       12.0110           0
     19745 MEMB     34       SAPI     H8R      HEL1     0.150000       1.00800           0
     19746 MEMB     34       SAPI     C29      CEL1    -0.150000       12.0110           0
     19747 MEMB     34       SAPI     H9R      HEL1     0.150000       1.00800           0
     19748 MEMB     34       SAPI     C210     CTL2    -0.180000       12.0110           0
     19749 MEMB     34       SAPI     H10R     HAL2     0.900000E-01   1.00800           0
     19750 MEMB     34       SAPI     H10S     HAL2     0.900000E-01   1.00800           0
     19751 MEMB     34       SAPI     C211     CEL1    -0.150000       12.0110           0
     19752 MEMB     34       SAPI     H11R     HEL1     0.150000       1.00800           0
     19753 MEMB     34       SAPI     C212     CEL1    -0.150000       12.0110           0
     19754 MEMB     34       SAPI     H12R     HEL1     0.150000       1.00800           0
     19755 MEMB     34       SAPI     C213     CTL2    -0.180000       12.0110           0
     19756 MEMB     34       SAPI     H13R     HAL2     0.900000E-01   1.00800           0
     19757 MEMB     34       SAPI     H13S     HAL2     0.900000E-01   1.00800           0
     19758 MEMB     34       SAPI     C214     CEL1    -0.150000       12.0110           0
     19759 MEMB     34       SAPI     H14R     HEL1     0.150000       1.00800           0
     19760 MEMB     34       SAPI     C215     CEL1    -0.150000       12.0110           0
     19761 MEMB     34       SAPI     H15R     HEL1     0.150000       1.00800           0
     19762 MEMB     34       SAPI     C216     CTL2    -0.180000       12.0110           0
     19763 MEMB     34       SAPI     H16R     HAL2     0.900000E-01   1.00800           0
     19764 MEMB     34       SAPI     H16S     HAL2     0.900000E-01   1.00800           0
     19765 MEMB     34       SAPI     C217     CTL2    -0.180000       12.0110           0
     19766 MEMB     34       SAPI     H17R     HAL2     0.900000E-01   1.00800           0
     19767 MEMB     34       SAPI     H17S     HAL2     0.900000E-01   1.00800           0
     19768 MEMB     34       SAPI     C218     CTL2    -0.180000       12.0110           0
     19769 MEMB     34       SAPI     H18R     HAL2     0.900000E-01   1.00800           0
     19770 MEMB     34       SAPI     H18S     HAL2     0.900000E-01   1.00800           0
     19771 MEMB     34       SAPI     C219     CTL2    -0.180000       12.0110           0
     19772 MEMB     34       SAPI     H19R     HAL2     0.900000E-01   1.00800           0
     19773 MEMB     34       SAPI     H19S     HAL2     0.900000E-01   1.00800           0
     19774 MEMB     34       SAPI     C220     CTL3    -0.270000       12.0110           0
     19775 MEMB     34       SAPI     H20R     HAL3     0.900000E-01   1.00800           0
     19776 MEMB     34       SAPI     H20S     HAL3     0.900000E-01   1.00800           0
     19777 MEMB     34       SAPI     H20T     HAL3     0.900000E-01   1.00800           0
     19778 MEMB     34       SAPI     C33      CTL2    -0.180000       12.0110           0
     19779 MEMB     34       SAPI     H3X      HAL2     0.900000E-01   1.00800           0
     19780 MEMB     34       SAPI     H3Y      HAL2     0.900000E-01   1.00800           0
     19781 MEMB     34       SAPI     C34      CTL2    -0.180000       12.0110           0
     19782 MEMB     34       SAPI     H4X      HAL2     0.900000E-01   1.00800           0
     19783 MEMB     34       SAPI     H4Y      HAL2     0.900000E-01   1.00800           0
     19784 MEMB     34       SAPI     C35      CTL2    -0.180000       12.0110           0
     19785 MEMB     34       SAPI     H5X      HAL2     0.900000E-01   1.00800           0
     19786 MEMB     34       SAPI     H5Y      HAL2     0.900000E-01   1.00800           0
     19787 MEMB     34       SAPI     C36      CTL2    -0.180000       12.0110           0
     19788 MEMB     34       SAPI     H6X      HAL2     0.900000E-01   1.00800           0
     19789 MEMB     34       SAPI     H6Y      HAL2     0.900000E-01   1.00800           0
     19790 MEMB     34       SAPI     C37      CTL2    -0.180000       12.0110           0
     19791 MEMB     34       SAPI     H7X      HAL2     0.900000E-01   1.00800           0
     19792 MEMB     34       SAPI     H7Y      HAL2     0.900000E-01   1.00800           0
     19793 MEMB     34       SAPI     C38      CTL2    -0.180000       12.0110           0
     19794 MEMB     34       SAPI     H8X      HAL2     0.900000E-01   1.00800           0
     19795 MEMB     34       SAPI     H8Y      HAL2     0.900000E-01   1.00800           0
     19796 MEMB     34       SAPI     C39      CTL2    -0.180000       12.0110           0
     19797 MEMB     34       SAPI     H9X      HAL2     0.900000E-01   1.00800           0
     19798 MEMB     34       SAPI     H9Y      HAL2     0.900000E-01   1.00800           0
     19799 MEMB     34       SAPI     C310     CTL2    -0.180000       12.0110           0
     19800 MEMB     34       SAPI     H10X     HAL2     0.900000E-01   1.00800           0
     19801 MEMB     34       SAPI     H10Y     HAL2     0.900000E-01   1.00800           0
     19802 MEMB     34       SAPI     C311     CTL2    -0.180000       12.0110           0
     19803 MEMB     34       SAPI     H11X     HAL2     0.900000E-01   1.00800           0
     19804 MEMB     34       SAPI     H11Y     HAL2     0.900000E-01   1.00800           0
     19805 MEMB     34       SAPI     C312     CTL2    -0.180000       12.0110           0
     19806 MEMB     34       SAPI     H12X     HAL2     0.900000E-01   1.00800           0
     19807 MEMB     34       SAPI     H12Y     HAL2     0.900000E-01   1.00800           0
     19808 MEMB     34       SAPI     C313     CTL2    -0.180000       12.0110           0
     19809 MEMB     34       SAPI     H13X     HAL2     0.900000E-01   1.00800           0
     19810 MEMB     34       SAPI     H13Y     HAL2     0.900000E-01   1.00800           0
     19811 MEMB     34       SAPI     C314     CTL2    -0.180000       12.0110           0
     19812 MEMB     34       SAPI     H14X     HAL2     0.900000E-01   1.00800           0
     19813 MEMB     34       SAPI     H14Y     HAL2     0.900000E-01   1.00800           0
     19814 MEMB     34       SAPI     C315     CTL2    -0.180000       12.0110           0
     19815 MEMB     34       SAPI     H15X     HAL2     0.900000E-01   1.00800           0
     19816 MEMB     34       SAPI     H15Y     HAL2     0.900000E-01   1.00800           0
     19817 MEMB     34       SAPI     C316     CTL2    -0.180000       12.0110           0
     19818 MEMB     34       SAPI     H16X     HAL2     0.900000E-01   1.00800           0
     19819 MEMB     34       SAPI     H16Y     HAL2     0.900000E-01   1.00800           0
     19820 MEMB     34       SAPI     C317     CTL2    -0.180000       12.0110           0
     19821 MEMB     34       SAPI     H17X     HAL2     0.900000E-01   1.00800           0
     19822 MEMB     34       SAPI     H17Y     HAL2     0.900000E-01   1.00800           0
     19823 MEMB     34       SAPI     C318     CTL3    -0.270000       12.0110           0
     19824 MEMB     34       SAPI     H18X     HAL3     0.900000E-01   1.00800           0
     19825 MEMB     34       SAPI     H18Y     HAL3     0.900000E-01   1.00800           0
     19826 MEMB     34       SAPI     H18Z     HAL3     0.900000E-01   1.00800           0
     19827 MEMB     122      SAPI     C12      CC3161   0.140000       12.0110           0
     19828 MEMB     122      SAPI     H2       HCA1     0.900000E-01   1.00800           0
     19829 MEMB     122      SAPI     O2       OC311   -0.650000       15.9994           0
     19830 MEMB     122      SAPI     HO2      HCP1     0.420000       1.00800           0
     19831 MEMB     122      SAPI     C13      CC3161   0.140000       12.0110           0
     19832 MEMB     122      SAPI     H3       HCA1     0.900000E-01   1.00800           0
     19833 MEMB     122      SAPI     O3       OC311   -0.650000       15.9994           0
     19834 MEMB     122      SAPI     HO3      HCP1     0.420000       1.00800           0
     19835 MEMB     122      SAPI     C14      CC3161   0.140000       12.0110           0
     19836 MEMB     122      SAPI     H4       HCA1     0.900000E-01   1.00800           0
     19837 MEMB     122      SAPI     O4       OC311   -0.650000       15.9994           0
     19838 MEMB     122      SAPI     HO4      HCP1     0.420000       1.00800           0
     19839 MEMB     122      SAPI     C15      CC3161   0.140000       12.0110           0
     19840 MEMB     122      SAPI     H5       HCA1     0.900000E-01   1.00800           0
     19841 MEMB     122      SAPI     O5       OC311   -0.650000       15.9994           0
     19842 MEMB     122      SAPI     HO5      HCP1     0.420000       1.00800           0
     19843 MEMB     122      SAPI     C16      CC3161   0.140000       12.0110           0
     19844 MEMB     122      SAPI     H6       HCA1     0.900000E-01   1.00800           0
     19845 MEMB     122      SAPI     O6       OC311   -0.650000       15.9994           0
     19846 MEMB     122      SAPI     HO6      HCP1     0.420000       1.00800           0
     19847 MEMB     122      SAPI     C11      CC3161  -0.800000E-01   12.0110           0
     19848 MEMB     122      SAPI     H1       HCA1     0.900000E-01   1.00800           0
     19849 MEMB     122      SAPI     P        PL       1.590000       30.9740           0
     19850 MEMB     122      SAPI     O13      O2L     -0.780000       15.9994           0
     19851 MEMB     122      SAPI     O14      O2L     -0.780000       15.9994           0
     19852 MEMB     122      SAPI     O12      OC30P   -0.570000       15.9994           0
     19853 MEMB     122      SAPI     O11      OSLP    -0.570000       15.9994           0
     19854 MEMB     122      SAPI     C1       CTL2    -0.800000E-01   12.0110           0
     19855 MEMB     122      SAPI     HA       HAL2     0.900000E-01   1.00800           0
     19856 MEMB     122      SAPI     HB       HAL2     0.900000E-01   1.00800           0
     19857 MEMB     122      SAPI     C2       CTL1     0.170000       12.0110           0
     19858 MEMB     122      SAPI     HS       HAL1     0.900000E-01   1.00800           0
     19859 MEMB     122      SAPI     O21      OSL     -0.490000       15.9994           0
     19860 MEMB     122      SAPI     C21      CL       0.900000       12.0110           0
     19861 MEMB     122      SAPI     O22      OBL     -0.630000       15.9994           0
     19862 MEMB     122      SAPI     C22      CTL2    -0.220000       12.0110           0
     19863 MEMB     122      SAPI     H2R      HAL2     0.900000E-01   1.00800           0
     19864 MEMB     122      SAPI     H2S      HAL2     0.900000E-01   1.00800           0
     19865 MEMB     122      SAPI     C3       CTL2     0.800000E-01   12.0110           0
     19866 MEMB     122      SAPI     HX       HAL2     0.900000E-01   1.00800           0
     19867 MEMB     122      SAPI     HY       HAL2     0.900000E-01   1.00800           0
     19868 MEMB     122      SAPI     O31      OSL     -0.490000       15.9994           0
     19869 MEMB     122      SAPI     C31      CL       0.900000       12.0110           0
     19870 MEMB     122      SAPI     O32      OBL     -0.630000       15.9994           0
     19871 MEMB     122      SAPI     C32      CTL2    -0.220000       12.0110           0
     19872 MEMB     122      SAPI     H2X      HAL2     0.900000E-01   1.00800           0
     19873 MEMB     122      SAPI     H2Y      HAL2     0.900000E-01   1.00800           0
     19874 MEMB     122      SAPI     C23      CTL2    -0.180000       12.0110           0
     19875 MEMB     122      SAPI     H3R      HAL2     0.900000E-01   1.00800           0
     19876 MEMB     122      SAPI     H3S      HAL2     0.900000E-01   1.00800           0
     19877 MEMB     122      SAPI     C24      CTL2    -0.180000       12.0110           0
     19878 MEMB     122      SAPI     H4R      HAL2     0.900000E-01   1.00800           0
     19879 MEMB     122      SAPI     H4S      HAL2     0.900000E-01   1.00800           0
     19880 MEMB     122      SAPI     C25      CEL1    -0.150000       12.0110           0
     19881 MEMB     122      SAPI     H5R      HEL1     0.150000       1.00800           0
     19882 MEMB     122      SAPI     C26      CEL1    -0.150000       12.0110           0
     19883 MEMB     122      SAPI     H6R      HEL1     0.150000       1.00800           0
     19884 MEMB     122      SAPI     C27      CTL2    -0.180000       12.0110           0
     19885 MEMB     122      SAPI     H7R      HAL2     0.900000E-01   1.00800           0
     19886 MEMB     122      SAPI     H7S      HAL2     0.900000E-01   1.00800           0
     19887 MEMB     122      SAPI     C28      CEL1    -0.150000       12.0110           0
     19888 MEMB     122      SAPI     H8R      HEL1     0.150000       1.00800           0
     19889 MEMB     122      SAPI     C29      CEL1    -0.150000       12.0110           0
     19890 MEMB     122      SAPI     H9R      HEL1     0.150000       1.00800           0
     19891 MEMB     122      SAPI     C210     CTL2    -0.180000       12.0110           0
     19892 MEMB     122      SAPI     H10R     HAL2     0.900000E-01   1.00800           0
     19893 MEMB     122      SAPI     H10S     HAL2     0.900000E-01   1.00800           0
     19894 MEMB     122      SAPI     C211     CEL1    -0.150000       12.0110           0
     19895 MEMB     122      SAPI     H11R     HEL1     0.150000       1.00800           0
     19896 MEMB     122      SAPI     C212     CEL1    -0.150000       12.0110           0
     19897 MEMB     122      SAPI     H12R     HEL1     0.150000       1.00800           0
     19898 MEMB     122      SAPI     C213     CTL2    -0.180000       12.0110           0
     19899 MEMB     122      SAPI     H13R     HAL2     0.900000E-01   1.00800           0
     19900 MEMB     122      SAPI     H13S     HAL2     0.900000E-01   1.00800           0
     19901 MEMB     122      SAPI     C214     CEL1    -0.150000       12.0110           0
     19902 MEMB     122      SAPI     H14R     HEL1     0.150000       1.00800           0
     19903 MEMB     122      SAPI     C215     CEL1    -0.150000       12.0110           0
     19904 MEMB     122      SAPI     H15R     HEL1     0.150000       1.00800           0
     19905 MEMB     122      SAPI     C216     CTL2    -0.180000       12.0110           0
     19906 MEMB     122      SAPI     H16R     HAL2     0.900000E-01   1.00800           0
     19907 MEMB     122      SAPI     H16S     HAL2     0.900000E-01   1.00800           0
     19908 MEMB     122      SAPI     C217     CTL2    -0.180000       12.0110           0
     19909 MEMB     122      SAPI     H17R     HAL2     0.900000E-01   1.00800           0
     19910 MEMB     122      SAPI     H17S     HAL2     0.900000E-01   1.00800           0
     19911 MEMB     122      SAPI     C218     CTL2    -0.180000       12.0110           0
     19912 MEMB     122      SAPI     H18R     HAL2     0.900000E-01   1.00800           0
     19913 MEMB     122      SAPI     H18S     HAL2     0.900000E-01   1.00800           0
     19914 MEMB     122      SAPI     C219     CTL2    -0.180000       12.0110           0
     19915 MEMB     122      SAPI     H19R     HAL2     0.900000E-01   1.00800           0
     19916 MEMB     122      SAPI     H19S     HAL2     0.900000E-01   1.00800           0
     19917 MEMB     122      SAPI     C220     CTL3    -0.270000       12.0110           0
     19918 MEMB     122      SAPI     H20R     HAL3     0.900000E-01   1.00800           0
     19919 MEMB     122      SAPI     H20S     HAL3     0.900000E-01   1.00800           0
     19920 MEMB     122      SAPI     H20T     HAL3     0.900000E-01   1.00800           0
     19921 MEMB     122      SAPI     C33      CTL2    -0.180000       12.0110           0
     19922 MEMB     122      SAPI     H3X      HAL2     0.900000E-01   1.00800           0
     19923 MEMB     122      SAPI     H3Y      HAL2     0.900000E-01   1.00800           0
     19924 MEMB     122      SAPI     C34      CTL2    -0.180000       12.0110           0
     19925 MEMB     122      SAPI     H4X      HAL2     0.900000E-01   1.00800           0
     19926 MEMB     122      SAPI     H4Y      HAL2     0.900000E-01   1.00800           0
     19927 MEMB     122      SAPI     C35      CTL2    -0.180000       12.0110           0
     19928 MEMB     122      SAPI     H5X      HAL2     0.900000E-01   1.00800           0
     19929 MEMB     122      SAPI     H5Y      HAL2     0.900000E-01   1.00800           0
     19930 MEMB     122      SAPI     C36      CTL2    -0.180000       12.0110           0
     19931 MEMB     122      SAPI     H6X      HAL2     0.900000E-01   1.00800           0
     19932 MEMB     122      SAPI     H6Y      HAL2     0.900000E-01   1.00800           0
     19933 MEMB     122      SAPI     C37      CTL2    -0.180000       12.0110           0
     19934 MEMB     122      SAPI     H7X      HAL2     0.900000E-01   1.00800           0
     19935 MEMB     122      SAPI     H7Y      HAL2     0.900000E-01   1.00800           0
     19936 MEMB     122      SAPI     C38      CTL2    -0.180000       12.0110           0
     19937 MEMB     122      SAPI     H8X      HAL2     0.900000E-01   1.00800           0
     19938 MEMB     122      SAPI     H8Y      HAL2     0.900000E-01   1.00800           0
     19939 MEMB     122      SAPI     C39      CTL2    -0.180000       12.0110           0
     19940 MEMB     122      SAPI     H9X      HAL2     0.900000E-01   1.00800           0
     19941 MEMB     122      SAPI     H9Y      HAL2     0.900000E-01   1.00800           0
     19942 MEMB     122      SAPI     C310     CTL2    -0.180000       12.0110           0
     19943 MEMB     122      SAPI     H10X     HAL2     0.900000E-01   1.00800           0
     19944 MEMB     122      SAPI     H10Y     HAL2     0.900000E-01   1.00800           0
     19945 MEMB     122      SAPI     C311     CTL2    -0.180000       12.0110           0
     19946 MEMB     122      SAPI     H11X     HAL2     0.900000E-01   1.00800           0
     19947 MEMB     122      SAPI     H11Y     HAL2     0.900000E-01   1.00800           0
     19948 MEMB     122      SAPI     C312     CTL2    -0.180000       12.0110           0
     19949 MEMB     122      SAPI     H12X     HAL2     0.900000E-01   1.00800           0
     19950 MEMB     122      SAPI     H12Y     HAL2     0.900000E-01   1.00800           0
     19951 MEMB     122      SAPI     C313     CTL2    -0.180000       12.0110           0
     19952 MEMB     122      SAPI     H13X     HAL2     0.900000E-01   1.00800           0
     19953 MEMB     122      SAPI     H13Y     HAL2     0.900000E-01   1.00800           0
     19954 MEMB     122      SAPI     C314     CTL2    -0.180000       12.0110           0
     19955 MEMB     122      SAPI     H14X     HAL2     0.900000E-01   1.00800           0
     19956 MEMB     122      SAPI     H14Y     HAL2     0.900000E-01   1.00800           0
     19957 MEMB     122      SAPI     C315     CTL2    -0.180000       12.0110           0
     19958 MEMB     122      SAPI     H15X     HAL2     0.900000E-01   1.00800           0
     19959 MEMB     122      SAPI     H15Y     HAL2     0.900000E-01   1.00800           0
     19960 MEMB     122      SAPI     C316     CTL2    -0.180000       12.0110           0
     19961 MEMB     122      SAPI     H16X     HAL2     0.900000E-01   1.00800           0
     19962 MEMB     122      SAPI     H16Y     HAL2     0.900000E-01   1.00800           0
     19963 MEMB     122      SAPI     C317     CTL2    -0.180000       12.0110           0
     19964 MEMB     122      SAPI     H17X     HAL2     0.900000E-01   1.00800           0
     19965 MEMB     122      SAPI     H17Y     HAL2     0.900000E-01   1.00800           0
     19966 MEMB     122      SAPI     C318     CTL3    -0.270000       12.0110           0
     19967 MEMB     122      SAPI     H18X     HAL3     0.900000E-01   1.00800           0
     19968 MEMB     122      SAPI     H18Y     HAL3     0.900000E-01   1.00800           0
     19969 MEMB     122      SAPI     H18Z     HAL3     0.900000E-01   1.00800           0
     19970 MEMB     149      SAPI     C12      CC3161   0.140000       12.0110           0
     19971 MEMB     149      SAPI     H2       HCA1     0.900000E-01   1.00800           0
     19972 MEMB     149      SAPI     O2       OC311   -0.650000       15.9994           0
     19973 MEMB     149      SAPI     HO2      HCP1     0.420000       1.00800           0
     19974 MEMB     149      SAPI     C13      CC3161   0.140000       12.0110           0
     19975 MEMB     149      SAPI     H3       HCA1     0.900000E-01   1.00800           0
     19976 MEMB     149      SAPI     O3       OC311   -0.650000       15.9994           0
     19977 MEMB     149      SAPI     HO3      HCP1     0.420000       1.00800           0
     19978 MEMB     149      SAPI     C14      CC3161   0.140000       12.0110           0
     19979 MEMB     149      SAPI     H4       HCA1     0.900000E-01   1.00800           0
     19980 MEMB     149      SAPI     O4       OC311   -0.650000       15.9994           0
     19981 MEMB     149      SAPI     HO4      HCP1     0.420000       1.00800           0
     19982 MEMB     149      SAPI     C15      CC3161   0.140000       12.0110           0
     19983 MEMB     149      SAPI     H5       HCA1     0.900000E-01   1.00800           0
     19984 MEMB     149      SAPI     O5       OC311   -0.650000       15.9994           0
     19985 MEMB     149      SAPI     HO5      HCP1     0.420000       1.00800           0
     19986 MEMB     149      SAPI     C16      CC3161   0.140000       12.0110           0
     19987 MEMB     149      SAPI     H6       HCA1     0.900000E-01   1.00800           0
     19988 MEMB     149      SAPI     O6       OC311   -0.650000       15.9994           0
     19989 MEMB     149      SAPI     HO6      HCP1     0.420000       1.00800           0
     19990 MEMB     149      SAPI     C11      CC3161  -0.800000E-01   12.0110           0
     19991 MEMB     149      SAPI     H1       HCA1     0.900000E-01   1.00800           0
     19992 MEMB     149      SAPI     P        PL       1.590000       30.9740           0
     19993 MEMB     149      SAPI     O13      O2L     -0.780000       15.9994           0
     19994 MEMB     149      SAPI     O14      O2L     -0.780000       15.9994           0
     19995 MEMB     149      SAPI     O12      OC30P   -0.570000       15.9994           0
     19996 MEMB     149      SAPI     O11      OSLP    -0.570000       15.9994           0
     19997 MEMB     149      SAPI     C1       CTL2    -0.800000E-01   12.0110           0
     19998 MEMB     149      SAPI     HA       HAL2     0.900000E-01   1.00800           0
     19999 MEMB     149      SAPI     HB       HAL2     0.900000E-01   1.00800           0
     20000 MEMB     149      SAPI     C2       CTL1     0.170000       12.0110           0
     20001 MEMB     149      SAPI     HS       HAL1     0.900000E-01   1.00800           0
     20002 MEMB     149      SAPI     O21      OSL     -0.490000       15.9994           0
     20003 MEMB     149      SAPI     C21      CL       0.900000       12.0110           0
     20004 MEMB     149      SAPI     O22      OBL     -0.630000       15.9994           0
     20005 MEMB     149      SAPI     C22      CTL2    -0.220000       12.0110           0
     20006 MEMB     149      SAPI     H2R      HAL2     0.900000E-01   1.00800           0
     20007 MEMB     149      SAPI     H2S      HAL2     0.900000E-01   1.00800           0
     20008 MEMB     149      SAPI     C3       CTL2     0.800000E-01   12.0110           0
     20009 MEMB     149      SAPI     HX       HAL2     0.900000E-01   1.00800           0
     20010 MEMB     149      SAPI     HY       HAL2     0.900000E-01   1.00800           0
     20011 MEMB     149      SAPI     O31      OSL     -0.490000       15.9994           0
     20012 MEMB     149      SAPI     C31      CL       0.900000       12.0110           0
     20013 MEMB     149      SAPI     O32      OBL     -0.630000       15.9994           0
     20014 MEMB     149      SAPI     C32      CTL2    -0.220000       12.0110           0
     20015 MEMB     149      SAPI     H2X      HAL2     0.900000E-01   1.00800           0
     20016 MEMB     149      SAPI     H2Y      HAL2     0.900000E-01   1.00800           0
     20017 MEMB     149      SAPI     C23      CTL2    -0.180000       12.0110           0
     20018 MEMB     149      SAPI     H3R      HAL2     0.900000E-01   1.00800           0
     20019 MEMB     149      SAPI     H3S      HAL2     0.900000E-01   1.00800           0
     20020 MEMB     149      SAPI     C24      CTL2    -0.180000       12.0110           0
     20021 MEMB     149      SAPI     H4R      HAL2     0.900000E-01   1.00800           0
     20022 MEMB     149      SAPI     H4S      HAL2     0.900000E-01   1.00800           0
     20023 MEMB     149      SAPI     C25      CEL1    -0.150000       12.0110           0
     20024 MEMB     149      SAPI     H5R      HEL1     0.150000       1.00800           0
     20025 MEMB     149      SAPI     C26      CEL1    -0.150000       12.0110           0
     20026 MEMB     149      SAPI     H6R      HEL1     0.150000       1.00800           0
     20027 MEMB     149      SAPI     C27      CTL2    -0.180000       12.0110           0
     20028 MEMB     149      SAPI     H7R      HAL2     0.900000E-01   1.00800           0
     20029 MEMB     149      SAPI     H7S      HAL2     0.900000E-01   1.00800           0
     20030 MEMB     149      SAPI     C28      CEL1    -0.150000       12.0110           0
     20031 MEMB     149      SAPI     H8R      HEL1     0.150000       1.00800           0
     20032 MEMB     149      SAPI     C29      CEL1    -0.150000       12.0110           0
     20033 MEMB     149      SAPI     H9R      HEL1     0.150000       1.00800           0
     20034 MEMB     149      SAPI     C210     CTL2    -0.180000       12.0110           0
     20035 MEMB     149      SAPI     H10R     HAL2     0.900000E-01   1.00800           0
     20036 MEMB     149      SAPI     H10S     HAL2     0.900000E-01   1.00800           0
     20037 MEMB     149      SAPI     C211     CEL1    -0.150000       12.0110           0
     20038 MEMB     149      SAPI     H11R     HEL1     0.150000       1.00800           0
     20039 MEMB     149      SAPI     C212     CEL1    -0.150000       12.0110           0
     20040 MEMB     149      SAPI     H12R     HEL1     0.150000       1.00800           0
     20041 MEMB     149      SAPI     C213     CTL2    -0.180000       12.0110           0
     20042 MEMB     149      SAPI     H13R     HAL2     0.900000E-01   1.00800           0
     20043 MEMB     149      SAPI     H13S     HAL2     0.900000E-01   1.00800           0
     20044 MEMB     149      SAPI     C214     CEL1    -0.150000       12.0110           0
     20045 MEMB     149      SAPI     H14R     HEL1     0.150000       1.00800           0
     20046 MEMB     149      SAPI     C215     CEL1    -0.150000       12.0110           0
     20047 MEMB     149      SAPI     H15R     HEL1     0.150000       1.00800           0
     20048 MEMB     149      SAPI     C216     CTL2    -0.180000       12.0110           0
     20049 MEMB     149      SAPI     H16R     HAL2     0.900000E-01   1.00800           0
     20050 MEMB     149      SAPI     H16S     HAL2     0.900000E-01   1.00800           0
     20051 MEMB     149      SAPI     C217     CTL2    -0.180000       12.0110           0
     20052 MEMB     149      SAPI     H17R     HAL2     0.900000E-01   1.00800           0
     20053 MEMB     149      SAPI     H17S     HAL2     0.900000E-01   1.00800           0
     20054 MEMB     149      SAPI     C218     CTL2    -0.180000       12.0110           0
     20055 MEMB     149      SAPI     H18R     HAL2     0.900000E-01   1.00800           0
     20056 MEMB     149      SAPI     H18S     HAL2     0.900000E-01   1.00800           0
     20057 MEMB     149      SAPI     C219     CTL2    -0.180000       12.0110           0
     20058 MEMB     149      SAPI     H19R     HAL2     0.900000E-01   1.00800           0
     20059 MEMB     149      SAPI     H19S     HAL2     0.900000E-01   1.00800           0
     20060 MEMB     149      SAPI     C220     CTL3    -0.270000       12.0110           0
     20061 MEMB     149      SAPI     H20R     HAL3     0.900000E-01   1.00800           0
     20062 MEMB     149      SAPI     H20S     HAL3     0.900000E-01   1.00800           0
     20063 MEMB     149      SAPI     H20T     HAL3     0.900000E-01   1.00800           0
     20064 MEMB     149      SAPI     C33      CTL2    -0.180000       12.0110           0
     20065 MEMB     149      SAPI     H3X      HAL2     0.900000E-01   1.00800           0
     20066 MEMB     149      SAPI     H3Y      HAL2     0.900000E-01   1.00800           0
     20067 MEMB     149      SAPI     C34      CTL2    -0.180000       12.0110           0
     20068 MEMB     149      SAPI     H4X      HAL2     0.900000E-01   1.00800           0
     20069 MEMB     149      SAPI     H4Y      HAL2     0.900000E-01   1.00800           0
     20070 MEMB     149      SAPI     C35      CTL2    -0.180000       12.0110           0
     20071 MEMB     149      SAPI     H5X      HAL2     0.900000E-01   1.00800           0
     20072 MEMB     149      SAPI     H5Y      HAL2     0.900000E-01   1.00800           0
     20073 MEMB     149      SAPI     C36      CTL2    -0.180000       12.0110           0
     20074 MEMB     149      SAPI     H6X      HAL2     0.900000E-01   1.00800           0
     20075 MEMB     149      SAPI     H6Y      HAL2     0.900000E-01   1.00800           0
     20076 MEMB     149      SAPI     C37      CTL2    -0.180000       12.0110           0
     20077 MEMB     149      SAPI     H7X      HAL2     0.900000E-01   1.00800           0
     20078 MEMB     149      SAPI     H7Y      HAL2     0.900000E-01   1.00800           0
     20079 MEMB     149      SAPI     C38      CTL2    -0.180000       12.0110           0
     20080 MEMB     149      SAPI     H8X      HAL2     0.900000E-01   1.00800           0
     20081 MEMB     149      SAPI     H8Y      HAL2     0.900000E-01   1.00800           0
     20082 MEMB     149      SAPI     C39      CTL2    -0.180000       12.0110           0
     20083 MEMB     149      SAPI     H9X      HAL2     0.900000E-01   1.00800           0
     20084 MEMB     149      SAPI     H9Y      HAL2     0.900000E-01   1.00800           0
     20085 MEMB     149      SAPI     C310     CTL2    -0.180000       12.0110           0
     20086 MEMB     149      SAPI     H10X     HAL2     0.900000E-01   1.00800           0
     20087 MEMB     149      SAPI     H10Y     HAL2     0.900000E-01   1.00800           0
     20088 MEMB     149      SAPI     C311     CTL2    -0.180000       12.0110           0
     20089 MEMB     149      SAPI     H11X     HAL2     0.900000E-01   1.00800           0
     20090 MEMB     149      SAPI     H11Y     HAL2     0.900000E-01   1.00800           0
     20091 MEMB     149      SAPI     C312     CTL2    -0.180000       12.0110           0
     20092 MEMB     149      SAPI     H12X     HAL2     0.900000E-01   1.00800           0
     20093 MEMB     149      SAPI     H12Y     HAL2     0.900000E-01   1.00800           0
     20094 MEMB     149      SAPI     C313     CTL2    -0.180000       12.0110           0
     20095 MEMB     149      SAPI     H13X     HAL2     0.900000E-01   1.00800           0
     20096 MEMB     149      SAPI     H13Y     HAL2     0.900000E-01   1.00800           0
     20097 MEMB     149      SAPI     C314     CTL2    -0.180000       12.0110           0
     20098 MEMB     149      SAPI     H14X     HAL2     0.900000E-01   1.00800           0
     20099 MEMB     149      SAPI     H14Y     HAL2     0.900000E-01   1.00800           0
     20100 MEMB     149      SAPI     C315     CTL2    -0.180000       12.0110           0
     20101 MEMB     149      SAPI     H15X     HAL2     0.900000E-01   1.00800           0
     20102 MEMB     149      SAPI     H15Y     HAL2     0.900000E-01   1.00800           0
     20103 MEMB     149      SAPI     C316     CTL2    -0.180000       12.0110           0
     20104 MEMB     149      SAPI     H16X     HAL2     0.900000E-01   1.00800           0
     20105 MEMB     149      SAPI     H16Y     HAL2     0.900000E-01   1.00800           0
     20106 MEMB     149      SAPI     C317     CTL2    -0.180000       12.0110           0
     20107 MEMB     149      SAPI     H17X     HAL2     0.900000E-01   1.00800           0
     20108 MEMB     149      SAPI     H17Y     HAL2     0.900000E-01   1.00800           0
     20109 MEMB     149      SAPI     C318     CTL3    -0.270000       12.0110           0
     20110 MEMB     149      SAPI     H18X     HAL3     0.900000E-01   1.00800           0
     20111 MEMB     149      SAPI     H18Y     HAL3     0.900000E-01   1.00800           0
     20112 MEMB     149      SAPI     H18Z     HAL3     0.900000E-01   1.00800           0
     20113 MEMB     23       SLPC     N        NTL     -0.600000       14.0070           0
     20114 MEMB     23       SLPC     C13      CTL5    -0.350000       12.0110           0
     20115 MEMB     23       SLPC     H13A     HL       0.250000       1.00800           0
     20116 MEMB     23       SLPC     H13B     HL       0.250000       1.00800           0
     20117 MEMB     23       SLPC     H13C     HL       0.250000       1.00800           0
     20118 MEMB     23       SLPC     C14      CTL5    -0.350000       12.0110           0
     20119 MEMB     23       SLPC     H14A     HL       0.250000       1.00800           0
     20120 MEMB     23       SLPC     H14B     HL       0.250000       1.00800           0
     20121 MEMB     23       SLPC     H14C     HL       0.250000       1.00800           0
     20122 MEMB     23       SLPC     C15      CTL5    -0.350000       12.0110           0
     20123 MEMB     23       SLPC     H15A     HL       0.250000       1.00800           0
     20124 MEMB     23       SLPC     H15B     HL       0.250000       1.00800           0
     20125 MEMB     23       SLPC     H15C     HL       0.250000       1.00800           0
     20126 MEMB     23       SLPC     C12      CTL2    -0.100000       12.0110           0
     20127 MEMB     23       SLPC     H12A     HL       0.250000       1.00800           0
     20128 MEMB     23       SLPC     H12B     HL       0.250000       1.00800           0
     20129 MEMB     23       SLPC     C11      CTL2    -0.800000E-01   12.0110           0
     20130 MEMB     23       SLPC     H11A     HAL2     0.900000E-01   1.00800           0
     20131 MEMB     23       SLPC     H11B     HAL2     0.900000E-01   1.00800           0
     20132 MEMB     23       SLPC     P        PL       1.500000       30.9740           0
     20133 MEMB     23       SLPC     O13      O2L     -0.780000       15.9994           0
     20134 MEMB     23       SLPC     O14      O2L     -0.780000       15.9994           0
     20135 MEMB     23       SLPC     O12      OSLP    -0.570000       15.9994           0
     20136 MEMB     23       SLPC     O11      OSLP    -0.570000       15.9994           0
     20137 MEMB     23       SLPC     C1       CTL2    -0.800000E-01   12.0110           0
     20138 MEMB     23       SLPC     HA       HAL2     0.900000E-01   1.00800           0
     20139 MEMB     23       SLPC     HB       HAL2     0.900000E-01   1.00800           0
     20140 MEMB     23       SLPC     C2       CTL1     0.170000       12.0110           0
     20141 MEMB     23       SLPC     HS       HAL1     0.900000E-01   1.00800           0
     20142 MEMB     23       SLPC     O21      OSL     -0.490000       15.9994           0
     20143 MEMB     23       SLPC     C21      CL       0.900000       12.0110           0
     20144 MEMB     23       SLPC     O22      OBL     -0.630000       15.9994           0
     20145 MEMB     23       SLPC     C22      CTL2    -0.220000       12.0110           0
     20146 MEMB     23       SLPC     H2R      HAL2     0.900000E-01   1.00800           0
     20147 MEMB     23       SLPC     H2S      HAL2     0.900000E-01   1.00800           0
     20148 MEMB     23       SLPC     C3       CTL2     0.800000E-01   12.0110           0
     20149 MEMB     23       SLPC     HX       HAL2     0.900000E-01   1.00800           0
     20150 MEMB     23       SLPC     HY       HAL2     0.900000E-01   1.00800           0
     20151 MEMB     23       SLPC     O31      OSL     -0.490000       15.9994           0
     20152 MEMB     23       SLPC     C31      CL       0.900000       12.0110           0
     20153 MEMB     23       SLPC     O32      OBL     -0.630000       15.9994           0
     20154 MEMB     23       SLPC     C32      CTL2    -0.220000       12.0110           0
     20155 MEMB     23       SLPC     H2X      HAL2     0.900000E-01   1.00800           0
     20156 MEMB     23       SLPC     H2Y      HAL2     0.900000E-01   1.00800           0
     20157 MEMB     23       SLPC     C23      CTL2    -0.180000       12.0110           0
     20158 MEMB     23       SLPC     H3R      HAL2     0.900000E-01   1.00800           0
     20159 MEMB     23       SLPC     H3S      HAL2     0.900000E-01   1.00800           0
     20160 MEMB     23       SLPC     C24      CTL2    -0.180000       12.0110           0
     20161 MEMB     23       SLPC     H4R      HAL2     0.900000E-01   1.00800           0
     20162 MEMB     23       SLPC     H4S      HAL2     0.900000E-01   1.00800           0
     20163 MEMB     23       SLPC     C25      CTL2    -0.180000       12.0110           0
     20164 MEMB     23       SLPC     H5R      HAL2     0.900000E-01   1.00800           0
     20165 MEMB     23       SLPC     H5S      HAL2     0.900000E-01   1.00800           0
     20166 MEMB     23       SLPC     C26      CTL2    -0.180000       12.0110           0
     20167 MEMB     23       SLPC     H6R      HAL2     0.900000E-01   1.00800           0
     20168 MEMB     23       SLPC     H6S      HAL2     0.900000E-01   1.00800           0
     20169 MEMB     23       SLPC     C27      CTL2    -0.180000       12.0110           0
     20170 MEMB     23       SLPC     H7R      HAL2     0.900000E-01   1.00800           0
     20171 MEMB     23       SLPC     H7S      HAL2     0.900000E-01   1.00800           0
     20172 MEMB     23       SLPC     C28      CTL2    -0.180000       12.0110           0
     20173 MEMB     23       SLPC     H8R      HAL2     0.900000E-01   1.00800           0
     20174 MEMB     23       SLPC     H8S      HAL2     0.900000E-01   1.00800           0
     20175 MEMB     23       SLPC     C29      CEL1    -0.150000       12.0110           0
     20176 MEMB     23       SLPC     H9R      HEL1     0.150000       1.00800           0
     20177 MEMB     23       SLPC     C210     CEL1    -0.150000       12.0110           0
     20178 MEMB     23       SLPC     H10R     HEL1     0.150000       1.00800           0
     20179 MEMB     23       SLPC     C211     CTL2    -0.180000       12.0110           0
     20180 MEMB     23       SLPC     H11R     HAL2     0.900000E-01   1.00800           0
     20181 MEMB     23       SLPC     H11S     HAL2     0.900000E-01   1.00800           0
     20182 MEMB     23       SLPC     C212     CEL1    -0.150000       12.0110           0
     20183 MEMB     23       SLPC     H12R     HEL1     0.150000       1.00800           0
     20184 MEMB     23       SLPC     C213     CEL1    -0.150000       12.0110           0
     20185 MEMB     23       SLPC     H13R     HEL1     0.150000       1.00800           0
     20186 MEMB     23       SLPC     C214     CTL2    -0.180000       12.0110           0
     20187 MEMB     23       SLPC     H14R     HAL2     0.900000E-01   1.00800           0
     20188 MEMB     23       SLPC     H14S     HAL2     0.900000E-01   1.00800           0
     20189 MEMB     23       SLPC     C215     CTL2    -0.180000       12.0110           0
     20190 MEMB     23       SLPC     H15R     HAL2     0.900000E-01   1.00800           0
     20191 MEMB     23       SLPC     H15S     HAL2     0.900000E-01   1.00800           0
     20192 MEMB     23       SLPC     C216     CTL2    -0.180000       12.0110           0
     20193 MEMB     23       SLPC     H16R     HAL2     0.900000E-01   1.00800           0
     20194 MEMB     23       SLPC     H16S     HAL2     0.900000E-01   1.00800           0
     20195 MEMB     23       SLPC     C217     CTL2    -0.180000       12.0110           0
     20196 MEMB     23       SLPC     H17R     HAL2     0.900000E-01   1.00800           0
     20197 MEMB     23       SLPC     H17S     HAL2     0.900000E-01   1.00800           0
     20198 MEMB     23       SLPC     C218     CTL3    -0.270000       12.0110           0
     20199 MEMB     23       SLPC     H18R     HAL3     0.900000E-01   1.00800           0
     20200 MEMB     23       SLPC     H18S     HAL3     0.900000E-01   1.00800           0
     20201 MEMB     23       SLPC     H18T     HAL3     0.900000E-01   1.00800           0
     20202 MEMB     23       SLPC     C33      CTL2    -0.180000       12.0110           0
     20203 MEMB     23       SLPC     H3X      HAL2     0.900000E-01   1.00800           0
     20204 MEMB     23       SLPC     H3Y      HAL2     0.900000E-01   1.00800           0
     20205 MEMB     23       SLPC     C34      CTL2    -0.180000       12.0110           0
     20206 MEMB     23       SLPC     H4X      HAL2     0.900000E-01   1.00800           0
     20207 MEMB     23       SLPC     H4Y      HAL2     0.900000E-01   1.00800           0
     20208 MEMB     23       SLPC     C35      CTL2    -0.180000       12.0110           0
     20209 MEMB     23       SLPC     H5X      HAL2     0.900000E-01   1.00800           0
     20210 MEMB     23       SLPC     H5Y      HAL2     0.900000E-01   1.00800           0
     20211 MEMB     23       SLPC     C36      CTL2    -0.180000       12.0110           0
     20212 MEMB     23       SLPC     H6X      HAL2     0.900000E-01   1.00800           0
     20213 MEMB     23       SLPC     H6Y      HAL2     0.900000E-01   1.00800           0
     20214 MEMB     23       SLPC     C37      CTL2    -0.180000       12.0110           0
     20215 MEMB     23       SLPC     H7X      HAL2     0.900000E-01   1.00800           0
     20216 MEMB     23       SLPC     H7Y      HAL2     0.900000E-01   1.00800           0
     20217 MEMB     23       SLPC     C38      CTL2    -0.180000       12.0110           0
     20218 MEMB     23       SLPC     H8X      HAL2     0.900000E-01   1.00800           0
     20219 MEMB     23       SLPC     H8Y      HAL2     0.900000E-01   1.00800           0
     20220 MEMB     23       SLPC     C39      CTL2    -0.180000       12.0110           0
     20221 MEMB     23       SLPC     H9X      HAL2     0.900000E-01   1.00800           0
     20222 MEMB     23       SLPC     H9Y      HAL2     0.900000E-01   1.00800           0
     20223 MEMB     23       SLPC     C310     CTL2    -0.180000       12.0110           0
     20224 MEMB     23       SLPC     H10X     HAL2     0.900000E-01   1.00800           0
     20225 MEMB     23       SLPC     H10Y     HAL2     0.900000E-01   1.00800           0
     20226 MEMB     23       SLPC     C311     CTL2    -0.180000       12.0110           0
     20227 MEMB     23       SLPC     H11X     HAL2     0.900000E-01   1.00800           0
     20228 MEMB     23       SLPC     H11Y     HAL2     0.900000E-01   1.00800           0
     20229 MEMB     23       SLPC     C312     CTL2    -0.180000       12.0110           0
     20230 MEMB     23       SLPC     H12X     HAL2     0.900000E-01   1.00800           0
     20231 MEMB     23       SLPC     H12Y     HAL2     0.900000E-01   1.00800           0
     20232 MEMB     23       SLPC     C313     CTL2    -0.180000       12.0110           0
     20233 MEMB     23       SLPC     H13X     HAL2     0.900000E-01   1.00800           0
     20234 MEMB     23       SLPC     H13Y     HAL2     0.900000E-01   1.00800           0
     20235 MEMB     23       SLPC     C314     CTL2    -0.180000       12.0110           0
     20236 MEMB     23       SLPC     H14X     HAL2     0.900000E-01   1.00800           0
     20237 MEMB     23       SLPC     H14Y     HAL2     0.900000E-01   1.00800           0
     20238 MEMB     23       SLPC     C315     CTL2    -0.180000       12.0110           0
     20239 MEMB     23       SLPC     H15X     HAL2     0.900000E-01   1.00800           0
     20240 MEMB     23       SLPC     H15Y     HAL2     0.900000E-01   1.00800           0
     20241 MEMB     23       SLPC     C316     CTL2    -0.180000       12.0110           0
     20242 MEMB     23       SLPC     H16X     HAL2     0.900000E-01   1.00800           0
     20243 MEMB     23       SLPC     H16Y     HAL2     0.900000E-01   1.00800           0
     20244 MEMB     23       SLPC     C317     CTL2    -0.180000       12.0110           0
     20245 MEMB     23       SLPC     H17X     HAL2     0.900000E-01   1.00800           0
     20246 MEMB     23       SLPC     H17Y     HAL2     0.900000E-01   1.00800           0
     20247 MEMB     23       SLPC     C318     CTL3    -0.270000       12.0110           0
     20248 MEMB     23       SLPC     H18X     HAL3     0.900000E-01   1.00800           0
     20249 MEMB     23       SLPC     H18Y     HAL3     0.900000E-01   1.00800           0
     20250 MEMB     23       SLPC     H18Z     HAL3     0.900000E-01   1.00800           0
     20251 MEMB     28       SLPC     N        NTL     -0.600000       14.0070           0
     20252 MEMB     28       SLPC     C13      CTL5    -0.350000       12.0110           0
     20253 MEMB     28       SLPC     H13A     HL       0.250000       1.00800           0
     20254 MEMB     28       SLPC     H13B     HL       0.250000       1.00800           0
     20255 MEMB     28       SLPC     H13C     HL       0.250000       1.00800           0
     20256 MEMB     28       SLPC     C14      CTL5    -0.350000       12.0110           0
     20257 MEMB     28       SLPC     H14A     HL       0.250000       1.00800           0
     20258 MEMB     28       SLPC     H14B     HL       0.250000       1.00800           0
     20259 MEMB     28       SLPC     H14C     HL       0.250000       1.00800           0
     20260 MEMB     28       SLPC     C15      CTL5    -0.350000       12.0110           0
     20261 MEMB     28       SLPC     H15A     HL       0.250000       1.00800           0
     20262 MEMB     28       SLPC     H15B     HL       0.250000       1.00800           0
     20263 MEMB     28       SLPC     H15C     HL       0.250000       1.00800           0
     20264 MEMB     28       SLPC     C12      CTL2    -0.100000       12.0110           0
     20265 MEMB     28       SLPC     H12A     HL       0.250000       1.00800           0
     20266 MEMB     28       SLPC     H12B     HL       0.250000       1.00800           0
     20267 MEMB     28       SLPC     C11      CTL2    -0.800000E-01   12.0110           0
     20268 MEMB     28       SLPC     H11A     HAL2     0.900000E-01   1.00800           0
     20269 MEMB     28       SLPC     H11B     HAL2     0.900000E-01   1.00800           0
     20270 MEMB     28       SLPC     P        PL       1.500000       30.9740           0
     20271 MEMB     28       SLPC     O13      O2L     -0.780000       15.9994           0
     20272 MEMB     28       SLPC     O14      O2L     -0.780000       15.9994           0
     20273 MEMB     28       SLPC     O12      OSLP    -0.570000       15.9994           0
     20274 MEMB     28       SLPC     O11      OSLP    -0.570000       15.9994           0
     20275 MEMB     28       SLPC     C1       CTL2    -0.800000E-01   12.0110           0
     20276 MEMB     28       SLPC     HA       HAL2     0.900000E-01   1.00800           0
     20277 MEMB     28       SLPC     HB       HAL2     0.900000E-01   1.00800           0
     20278 MEMB     28       SLPC     C2       CTL1     0.170000       12.0110           0
     20279 MEMB     28       SLPC     HS       HAL1     0.900000E-01   1.00800           0
     20280 MEMB     28       SLPC     O21      OSL     -0.490000       15.9994           0
     20281 MEMB     28       SLPC     C21      CL       0.900000       12.0110           0
     20282 MEMB     28       SLPC     O22      OBL     -0.630000       15.9994           0
     20283 MEMB     28       SLPC     C22      CTL2    -0.220000       12.0110           0
     20284 MEMB     28       SLPC     H2R      HAL2     0.900000E-01   1.00800           0
     20285 MEMB     28       SLPC     H2S      HAL2     0.900000E-01   1.00800           0
     20286 MEMB     28       SLPC     C3       CTL2     0.800000E-01   12.0110           0
     20287 MEMB     28       SLPC     HX       HAL2     0.900000E-01   1.00800           0
     20288 MEMB     28       SLPC     HY       HAL2     0.900000E-01   1.00800           0
     20289 MEMB     28       SLPC     O31      OSL     -0.490000       15.9994           0
     20290 MEMB     28       SLPC     C31      CL       0.900000       12.0110           0
     20291 MEMB     28       SLPC     O32      OBL     -0.630000       15.9994           0
     20292 MEMB     28       SLPC     C32      CTL2    -0.220000       12.0110           0
     20293 MEMB     28       SLPC     H2X      HAL2     0.900000E-01   1.00800           0
     20294 MEMB     28       SLPC     H2Y      HAL2     0.900000E-01   1.00800           0
     20295 MEMB     28       SLPC     C23      CTL2    -0.180000       12.0110           0
     20296 MEMB     28       SLPC     H3R      HAL2     0.900000E-01   1.00800           0
     20297 MEMB     28       SLPC     H3S      HAL2     0.900000E-01   1.00800           0
     20298 MEMB     28       SLPC     C24      CTL2    -0.180000       12.0110           0
     20299 MEMB     28       SLPC     H4R      HAL2     0.900000E-01   1.00800           0
     20300 MEMB     28       SLPC     H4S      HAL2     0.900000E-01   1.00800           0
     20301 MEMB     28       SLPC     C25      CTL2    -0.180000       12.0110           0
     20302 MEMB     28       SLPC     H5R      HAL2     0.900000E-01   1.00800           0
     20303 MEMB     28       SLPC     H5S      HAL2     0.900000E-01   1.00800           0
     20304 MEMB     28       SLPC     C26      CTL2    -0.180000       12.0110           0
     20305 MEMB     28       SLPC     H6R      HAL2     0.900000E-01   1.00800           0
     20306 MEMB     28       SLPC     H6S      HAL2     0.900000E-01   1.00800           0
     20307 MEMB     28       SLPC     C27      CTL2    -0.180000       12.0110           0
     20308 MEMB     28       SLPC     H7R      HAL2     0.900000E-01   1.00800           0
     20309 MEMB     28       SLPC     H7S      HAL2     0.900000E-01   1.00800           0
     20310 MEMB     28       SLPC     C28      CTL2    -0.180000       12.0110           0
     20311 MEMB     28       SLPC     H8R      HAL2     0.900000E-01   1.00800           0
     20312 MEMB     28       SLPC     H8S      HAL2     0.900000E-01   1.00800           0
     20313 MEMB     28       SLPC     C29      CEL1    -0.150000       12.0110           0
     20314 MEMB     28       SLPC     H9R      HEL1     0.150000       1.00800           0
     20315 MEMB     28       SLPC     C210     CEL1    -0.150000       12.0110           0
     20316 MEMB     28       SLPC     H10R     HEL1     0.150000       1.00800           0
     20317 MEMB     28       SLPC     C211     CTL2    -0.180000       12.0110           0
     20318 MEMB     28       SLPC     H11R     HAL2     0.900000E-01   1.00800           0
     20319 MEMB     28       SLPC     H11S     HAL2     0.900000E-01   1.00800           0
     20320 MEMB     28       SLPC     C212     CEL1    -0.150000       12.0110           0
     20321 MEMB     28       SLPC     H12R     HEL1     0.150000       1.00800           0
     20322 MEMB     28       SLPC     C213     CEL1    -0.150000       12.0110           0
     20323 MEMB     28       SLPC     H13R     HEL1     0.150000       1.00800           0
     20324 MEMB     28       SLPC     C214     CTL2    -0.180000       12.0110           0
     20325 MEMB     28       SLPC     H14R     HAL2     0.900000E-01   1.00800           0
     20326 MEMB     28       SLPC     H14S     HAL2     0.900000E-01   1.00800           0
     20327 MEMB     28       SLPC     C215     CTL2    -0.180000       12.0110           0
     20328 MEMB     28       SLPC     H15R     HAL2     0.900000E-01   1.00800           0
     20329 MEMB     28       SLPC     H15S     HAL2     0.900000E-01   1.00800           0
     20330 MEMB     28       SLPC     C216     CTL2    -0.180000       12.0110           0
     20331 MEMB     28       SLPC     H16R     HAL2     0.900000E-01   1.00800           0
     20332 MEMB     28       SLPC     H16S     HAL2     0.900000E-01   1.00800           0
     20333 MEMB     28       SLPC     C217     CTL2    -0.180000       12.0110           0
     20334 MEMB     28       SLPC     H17R     HAL2     0.900000E-01   1.00800           0
     20335 MEMB     28       SLPC     H17S     HAL2     0.900000E-01   1.00800           0
     20336 MEMB     28       SLPC     C218     CTL3    -0.270000       12.0110           0
     20337 MEMB     28       SLPC     H18R     HAL3     0.900000E-01   1.00800           0
     20338 MEMB     28       SLPC     H18S     HAL3     0.900000E-01   1.00800           0
     20339 MEMB     28       SLPC     H18T     HAL3     0.900000E-01   1.00800           0
     20340 MEMB     28       SLPC     C33      CTL2    -0.180000       12.0110           0
     20341 MEMB     28       SLPC     H3X      HAL2     0.900000E-01   1.00800           0
     20342 MEMB     28       SLPC     H3Y      HAL2     0.900000E-01   1.00800           0
     20343 MEMB     28       SLPC     C34      CTL2    -0.180000       12.0110           0
     20344 MEMB     28       SLPC     H4X      HAL2     0.900000E-01   1.00800           0
     20345 MEMB     28       SLPC     H4Y      HAL2     0.900000E-01   1.00800           0
     20346 MEMB     28       SLPC     C35      CTL2    -0.180000       12.0110           0
     20347 MEMB     28       SLPC     H5X      HAL2     0.900000E-01   1.00800           0
     20348 MEMB     28       SLPC     H5Y      HAL2     0.900000E-01   1.00800           0
     20349 MEMB     28       SLPC     C36      CTL2    -0.180000       12.0110           0
     20350 MEMB     28       SLPC     H6X      HAL2     0.900000E-01   1.00800           0
     20351 MEMB     28       SLPC     H6Y      HAL2     0.900000E-01   1.00800           0
     20352 MEMB     28       SLPC     C37      CTL2    -0.180000       12.0110           0
     20353 MEMB     28       SLPC     H7X      HAL2     0.900000E-01   1.00800           0
     20354 MEMB     28       SLPC     H7Y      HAL2     0.900000E-01   1.00800           0
     20355 MEMB     28       SLPC     C38      CTL2    -0.180000       12.0110           0
     20356 MEMB     28       SLPC     H8X      HAL2     0.900000E-01   1.00800           0
     20357 MEMB     28       SLPC     H8Y      HAL2     0.900000E-01   1.00800           0
     20358 MEMB     28       SLPC     C39      CTL2    -0.180000       12.0110           0
     20359 MEMB     28       SLPC     H9X      HAL2     0.900000E-01   1.00800           0
     20360 MEMB     28       SLPC     H9Y      HAL2     0.900000E-01   1.00800           0
     20361 MEMB     28       SLPC     C310     CTL2    -0.180000       12.0110           0
     20362 MEMB     28       SLPC     H10X     HAL2     0.900000E-01   1.00800           0
     20363 MEMB     28       SLPC     H10Y     HAL2     0.900000E-01   1.00800           0
     20364 MEMB     28       SLPC     C311     CTL2    -0.180000       12.0110           0
     20365 MEMB     28       SLPC     H11X     HAL2     0.900000E-01   1.00800           0
     20366 MEMB     28       SLPC     H11Y     HAL2     0.900000E-01   1.00800           0
     20367 MEMB     28       SLPC     C312     CTL2    -0.180000       12.0110           0
     20368 MEMB     28       SLPC     H12X     HAL2     0.900000E-01   1.00800           0
     20369 MEMB     28       SLPC     H12Y     HAL2     0.900000E-01   1.00800           0
     20370 MEMB     28       SLPC     C313     CTL2    -0.180000       12.0110           0
     20371 MEMB     28       SLPC     H13X     HAL2     0.900000E-01   1.00800           0
     20372 MEMB     28       SLPC     H13Y     HAL2     0.900000E-01   1.00800           0
     20373 MEMB     28       SLPC     C314     CTL2    -0.180000       12.0110           0
     20374 MEMB     28       SLPC     H14X     HAL2     0.900000E-01   1.00800           0
     20375 MEMB     28       SLPC     H14Y     HAL2     0.900000E-01   1.00800           0
     20376 MEMB     28       SLPC     C315     CTL2    -0.180000       12.0110           0
     20377 MEMB     28       SLPC     H15X     HAL2     0.900000E-01   1.00800           0
     20378 MEMB     28       SLPC     H15Y     HAL2     0.900000E-01   1.00800           0
     20379 MEMB     28       SLPC     C316     CTL2    -0.180000       12.0110           0
     20380 MEMB     28       SLPC     H16X     HAL2     0.900000E-01   1.00800           0
     20381 MEMB     28       SLPC     H16Y     HAL2     0.900000E-01   1.00800           0
     20382 MEMB     28       SLPC     C317     CTL2    -0.180000       12.0110           0
     20383 MEMB     28       SLPC     H17X     HAL2     0.900000E-01   1.00800           0
     20384 MEMB     28       SLPC     H17Y     HAL2     0.900000E-01   1.00800           0
     20385 MEMB     28       SLPC     C318     CTL3    -0.270000       12.0110           0
     20386 MEMB     28       SLPC     H18X     HAL3     0.900000E-01   1.00800           0
     20387 MEMB     28       SLPC     H18Y     HAL3     0.900000E-01   1.00800           0
     20388 MEMB     28       SLPC     H18Z     HAL3     0.900000E-01   1.00800           0
     20389 MEMB     32       SLPC     N        NTL     -0.600000       14.0070           0
     20390 MEMB     32       SLPC     C13      CTL5    -0.350000       12.0110           0
     20391 MEMB     32       SLPC     H13A     HL       0.250000       1.00800           0
     20392 MEMB     32       SLPC     H13B     HL       0.250000       1.00800           0
     20393 MEMB     32       SLPC     H13C     HL       0.250000       1.00800           0
     20394 MEMB     32       SLPC     C14      CTL5    -0.350000       12.0110           0
     20395 MEMB     32       SLPC     H14A     HL       0.250000       1.00800           0
     20396 MEMB     32       SLPC     H14B     HL       0.250000       1.00800           0
     20397 MEMB     32       SLPC     H14C     HL       0.250000       1.00800           0
     20398 MEMB     32       SLPC     C15      CTL5    -0.350000       12.0110           0
     20399 MEMB     32       SLPC     H15A     HL       0.250000       1.00800           0
     20400 MEMB     32       SLPC     H15B     HL       0.250000       1.00800           0
     20401 MEMB     32       SLPC     H15C     HL       0.250000       1.00800           0
     20402 MEMB     32       SLPC     C12      CTL2    -0.100000       12.0110           0
     20403 MEMB     32       SLPC     H12A     HL       0.250000       1.00800           0
     20404 MEMB     32       SLPC     H12B     HL       0.250000       1.00800           0
     20405 MEMB     32       SLPC     C11      CTL2    -0.800000E-01   12.0110           0
     20406 MEMB     32       SLPC     H11A     HAL2     0.900000E-01   1.00800           0
     20407 MEMB     32       SLPC     H11B     HAL2     0.900000E-01   1.00800           0
     20408 MEMB     32       SLPC     P        PL       1.500000       30.9740           0
     20409 MEMB     32       SLPC     O13      O2L     -0.780000       15.9994           0
     20410 MEMB     32       SLPC     O14      O2L     -0.780000       15.9994           0
     20411 MEMB     32       SLPC     O12      OSLP    -0.570000       15.9994           0
     20412 MEMB     32       SLPC     O11      OSLP    -0.570000       15.9994           0
     20413 MEMB     32       SLPC     C1       CTL2    -0.800000E-01   12.0110           0
     20414 MEMB     32       SLPC     HA       HAL2     0.900000E-01   1.00800           0
     20415 MEMB     32       SLPC     HB       HAL2     0.900000E-01   1.00800           0
     20416 MEMB     32       SLPC     C2       CTL1     0.170000       12.0110           0
     20417 MEMB     32       SLPC     HS       HAL1     0.900000E-01   1.00800           0
     20418 MEMB     32       SLPC     O21      OSL     -0.490000       15.9994           0
     20419 MEMB     32       SLPC     C21      CL       0.900000       12.0110           0
     20420 MEMB     32       SLPC     O22      OBL     -0.630000       15.9994           0
     20421 MEMB     32       SLPC     C22      CTL2    -0.220000       12.0110           0
     20422 MEMB     32       SLPC     H2R      HAL2     0.900000E-01   1.00800           0
     20423 MEMB     32       SLPC     H2S      HAL2     0.900000E-01   1.00800           0
     20424 MEMB     32       SLPC     C3       CTL2     0.800000E-01   12.0110           0
     20425 MEMB     32       SLPC     HX       HAL2     0.900000E-01   1.00800           0
     20426 MEMB     32       SLPC     HY       HAL2     0.900000E-01   1.00800           0
     20427 MEMB     32       SLPC     O31      OSL     -0.490000       15.9994           0
     20428 MEMB     32       SLPC     C31      CL       0.900000       12.0110           0
     20429 MEMB     32       SLPC     O32      OBL     -0.630000       15.9994           0
     20430 MEMB     32       SLPC     C32      CTL2    -0.220000       12.0110           0
     20431 MEMB     32       SLPC     H2X      HAL2     0.900000E-01   1.00800           0
     20432 MEMB     32       SLPC     H2Y      HAL2     0.900000E-01   1.00800           0
     20433 MEMB     32       SLPC     C23      CTL2    -0.180000       12.0110           0
     20434 MEMB     32       SLPC     H3R      HAL2     0.900000E-01   1.00800           0
     20435 MEMB     32       SLPC     H3S      HAL2     0.900000E-01   1.00800           0
     20436 MEMB     32       SLPC     C24      CTL2    -0.180000       12.0110           0
     20437 MEMB     32       SLPC     H4R      HAL2     0.900000E-01   1.00800           0
     20438 MEMB     32       SLPC     H4S      HAL2     0.900000E-01   1.00800           0
     20439 MEMB     32       SLPC     C25      CTL2    -0.180000       12.0110           0
     20440 MEMB     32       SLPC     H5R      HAL2     0.900000E-01   1.00800           0
     20441 MEMB     32       SLPC     H5S      HAL2     0.900000E-01   1.00800           0
     20442 MEMB     32       SLPC     C26      CTL2    -0.180000       12.0110           0
     20443 MEMB     32       SLPC     H6R      HAL2     0.900000E-01   1.00800           0
     20444 MEMB     32       SLPC     H6S      HAL2     0.900000E-01   1.00800           0
     20445 MEMB     32       SLPC     C27      CTL2    -0.180000       12.0110           0
     20446 MEMB     32       SLPC     H7R      HAL2     0.900000E-01   1.00800           0
     20447 MEMB     32       SLPC     H7S      HAL2     0.900000E-01   1.00800           0
     20448 MEMB     32       SLPC     C28      CTL2    -0.180000       12.0110           0
     20449 MEMB     32       SLPC     H8R      HAL2     0.900000E-01   1.00800           0
     20450 MEMB     32       SLPC     H8S      HAL2     0.900000E-01   1.00800           0
     20451 MEMB     32       SLPC     C29      CEL1    -0.150000       12.0110           0
     20452 MEMB     32       SLPC     H9R      HEL1     0.150000       1.00800           0
     20453 MEMB     32       SLPC     C210     CEL1    -0.150000       12.0110           0
     20454 MEMB     32       SLPC     H10R     HEL1     0.150000       1.00800           0
     20455 MEMB     32       SLPC     C211     CTL2    -0.180000       12.0110           0
     20456 MEMB     32       SLPC     H11R     HAL2     0.900000E-01   1.00800           0
     20457 MEMB     32       SLPC     H11S     HAL2     0.900000E-01   1.00800           0
     20458 MEMB     32       SLPC     C212     CEL1    -0.150000       12.0110           0
     20459 MEMB     32       SLPC     H12R     HEL1     0.150000       1.00800           0
     20460 MEMB     32       SLPC     C213     CEL1    -0.150000       12.0110           0
     20461 MEMB     32       SLPC     H13R     HEL1     0.150000       1.00800           0
     20462 MEMB     32       SLPC     C214     CTL2    -0.180000       12.0110           0
     20463 MEMB     32       SLPC     H14R     HAL2     0.900000E-01   1.00800           0
     20464 MEMB     32       SLPC     H14S     HAL2     0.900000E-01   1.00800           0
     20465 MEMB     32       SLPC     C215     CTL2    -0.180000       12.0110           0
     20466 MEMB     32       SLPC     H15R     HAL2     0.900000E-01   1.00800           0
     20467 MEMB     32       SLPC     H15S     HAL2     0.900000E-01   1.00800           0
     20468 MEMB     32       SLPC     C216     CTL2    -0.180000       12.0110           0
     20469 MEMB     32       SLPC     H16R     HAL2     0.900000E-01   1.00800           0
     20470 MEMB     32       SLPC     H16S     HAL2     0.900000E-01   1.00800           0
     20471 MEMB     32       SLPC     C217     CTL2    -0.180000       12.0110           0
     20472 MEMB     32       SLPC     H17R     HAL2     0.900000E-01   1.00800           0
     20473 MEMB     32       SLPC     H17S     HAL2     0.900000E-01   1.00800           0
     20474 MEMB     32       SLPC     C218     CTL3    -0.270000       12.0110           0
     20475 MEMB     32       SLPC     H18R     HAL3     0.900000E-01   1.00800           0
     20476 MEMB     32       SLPC     H18S     HAL3     0.900000E-01   1.00800           0
     20477 MEMB     32       SLPC     H18T     HAL3     0.900000E-01   1.00800           0
     20478 MEMB     32       SLPC     C33      CTL2    -0.180000       12.0110           0
     20479 MEMB     32       SLPC     H3X      HAL2     0.900000E-01   1.00800           0
     20480 MEMB     32       SLPC     H3Y      HAL2     0.900000E-01   1.00800           0
     20481 MEMB     32       SLPC     C34      CTL2    -0.180000       12.0110           0
     20482 MEMB     32       SLPC     H4X      HAL2     0.900000E-01   1.00800           0
     20483 MEMB     32       SLPC     H4Y      HAL2     0.900000E-01   1.00800           0
     20484 MEMB     32       SLPC     C35      CTL2    -0.180000       12.0110           0
     20485 MEMB     32       SLPC     H5X      HAL2     0.900000E-01   1.00800           0
     20486 MEMB     32       SLPC     H5Y      HAL2     0.900000E-01   1.00800           0
     20487 MEMB     32       SLPC     C36      CTL2    -0.180000       12.0110           0
     20488 MEMB     32       SLPC     H6X      HAL2     0.900000E-01   1.00800           0
     20489 MEMB     32       SLPC     H6Y      HAL2     0.900000E-01   1.00800           0
     20490 MEMB     32       SLPC     C37      CTL2    -0.180000       12.0110           0
     20491 MEMB     32       SLPC     H7X      HAL2     0.900000E-01   1.00800           0
     20492 MEMB     32       SLPC     H7Y      HAL2     0.900000E-01   1.00800           0
     20493 MEMB     32       SLPC     C38      CTL2    -0.180000       12.0110           0
     20494 MEMB     32       SLPC     H8X      HAL2     0.900000E-01   1.00800           0
     20495 MEMB     32       SLPC     H8Y      HAL2     0.900000E-01   1.00800           0
     20496 MEMB     32       SLPC     C39      CTL2    -0.180000       12.0110           0
     20497 MEMB     32       SLPC     H9X      HAL2     0.900000E-01   1.00800           0
     20498 MEMB     32       SLPC     H9Y      HAL2     0.900000E-01   1.00800           0
     20499 MEMB     32       SLPC     C310     CTL2    -0.180000       12.0110           0
     20500 MEMB     32       SLPC     H10X     HAL2     0.900000E-01   1.00800           0
     20501 MEMB     32       SLPC     H10Y     HAL2     0.900000E-01   1.00800           0
     20502 MEMB     32       SLPC     C311     CTL2    -0.180000       12.0110           0
     20503 MEMB     32       SLPC     H11X     HAL2     0.900000E-01   1.00800           0
     20504 MEMB     32       SLPC     H11Y     HAL2     0.900000E-01   1.00800           0
     20505 MEMB     32       SLPC     C312     CTL2    -0.180000       12.0110           0
     20506 MEMB     32       SLPC     H12X     HAL2     0.900000E-01   1.00800           0
     20507 MEMB     32       SLPC     H12Y     HAL2     0.900000E-01   1.00800           0
     20508 MEMB     32       SLPC     C313     CTL2    -0.180000       12.0110           0
     20509 MEMB     32       SLPC     H13X     HAL2     0.900000E-01   1.00800           0
     20510 MEMB     32       SLPC     H13Y     HAL2     0.900000E-01   1.00800           0
     20511 MEMB     32       SLPC     C314     CTL2    -0.180000       12.0110           0
     20512 MEMB     32       SLPC     H14X     HAL2     0.900000E-01   1.00800           0
     20513 MEMB     32       SLPC     H14Y     HAL2     0.900000E-01   1.00800           0
     20514 MEMB     32       SLPC     C315     CTL2    -0.180000       12.0110           0
     20515 MEMB     32       SLPC     H15X     HAL2     0.900000E-01   1.00800           0
     20516 MEMB     32       SLPC     H15Y     HAL2     0.900000E-01   1.00800           0
     20517 MEMB     32       SLPC     C316     CTL2    -0.180000       12.0110           0
     20518 MEMB     32       SLPC     H16X     HAL2     0.900000E-01   1.00800           0
     20519 MEMB     32       SLPC     H16Y     HAL2     0.900000E-01   1.00800           0
     20520 MEMB     32       SLPC     C317     CTL2    -0.180000       12.0110           0
     20521 MEMB     32       SLPC     H17X     HAL2     0.900000E-01   1.00800           0
     20522 MEMB     32       SLPC     H17Y     HAL2     0.900000E-01   1.00800           0
     20523 MEMB     32       SLPC     C318     CTL3    -0.270000       12.0110           0
     20524 MEMB     32       SLPC     H18X     HAL3     0.900000E-01   1.00800           0
     20525 MEMB     32       SLPC     H18Y     HAL3     0.900000E-01   1.00800           0
     20526 MEMB     32       SLPC     H18Z     HAL3     0.900000E-01   1.00800           0
     20527 MEMB     42       SLPC     N        NTL     -0.600000       14.0070           0
     20528 MEMB     42       SLPC     C13      CTL5    -0.350000       12.0110           0
     20529 MEMB     42       SLPC     H13A     HL       0.250000       1.00800           0
     20530 MEMB     42       SLPC     H13B     HL       0.250000       1.00800           0
     20531 MEMB     42       SLPC     H13C     HL       0.250000       1.00800           0
     20532 MEMB     42       SLPC     C14      CTL5    -0.350000       12.0110           0
     20533 MEMB     42       SLPC     H14A     HL       0.250000       1.00800           0
     20534 MEMB     42       SLPC     H14B     HL       0.250000       1.00800           0
     20535 MEMB     42       SLPC     H14C     HL       0.250000       1.00800           0
     20536 MEMB     42       SLPC     C15      CTL5    -0.350000       12.0110           0
     20537 MEMB     42       SLPC     H15A     HL       0.250000       1.00800           0
     20538 MEMB     42       SLPC     H15B     HL       0.250000       1.00800           0
     20539 MEMB     42       SLPC     H15C     HL       0.250000       1.00800           0
     20540 MEMB     42       SLPC     C12      CTL2    -0.100000       12.0110           0
     20541 MEMB     42       SLPC     H12A     HL       0.250000       1.00800           0
     20542 MEMB     42       SLPC     H12B     HL       0.250000       1.00800           0
     20543 MEMB     42       SLPC     C11      CTL2    -0.800000E-01   12.0110           0
     20544 MEMB     42       SLPC     H11A     HAL2     0.900000E-01   1.00800           0
     20545 MEMB     42       SLPC     H11B     HAL2     0.900000E-01   1.00800           0
     20546 MEMB     42       SLPC     P        PL       1.500000       30.9740           0
     20547 MEMB     42       SLPC     O13      O2L     -0.780000       15.9994           0
     20548 MEMB     42       SLPC     O14      O2L     -0.780000       15.9994           0
     20549 MEMB     42       SLPC     O12      OSLP    -0.570000       15.9994           0
     20550 MEMB     42       SLPC     O11      OSLP    -0.570000       15.9994           0
     20551 MEMB     42       SLPC     C1       CTL2    -0.800000E-01   12.0110           0
     20552 MEMB     42       SLPC     HA       HAL2     0.900000E-01   1.00800           0
     20553 MEMB     42       SLPC     HB       HAL2     0.900000E-01   1.00800           0
     20554 MEMB     42       SLPC     C2       CTL1     0.170000       12.0110           0
     20555 MEMB     42       SLPC     HS       HAL1     0.900000E-01   1.00800           0
     20556 MEMB     42       SLPC     O21      OSL     -0.490000       15.9994           0
     20557 MEMB     42       SLPC     C21      CL       0.900000       12.0110           0
     20558 MEMB     42       SLPC     O22      OBL     -0.630000       15.9994           0
     20559 MEMB     42       SLPC     C22      CTL2    -0.220000       12.0110           0
     20560 MEMB     42       SLPC     H2R      HAL2     0.900000E-01   1.00800           0
     20561 MEMB     42       SLPC     H2S      HAL2     0.900000E-01   1.00800           0
     20562 MEMB     42       SLPC     C3       CTL2     0.800000E-01   12.0110           0
     20563 MEMB     42       SLPC     HX       HAL2     0.900000E-01   1.00800           0
     20564 MEMB     42       SLPC     HY       HAL2     0.900000E-01   1.00800           0
     20565 MEMB     42       SLPC     O31      OSL     -0.490000       15.9994           0
     20566 MEMB     42       SLPC     C31      CL       0.900000       12.0110           0
     20567 MEMB     42       SLPC     O32      OBL     -0.630000       15.9994           0
     20568 MEMB     42       SLPC     C32      CTL2    -0.220000       12.0110           0
     20569 MEMB     42       SLPC     H2X      HAL2     0.900000E-01   1.00800           0
     20570 MEMB     42       SLPC     H2Y      HAL2     0.900000E-01   1.00800           0
     20571 MEMB     42       SLPC     C23      CTL2    -0.180000       12.0110           0
     20572 MEMB     42       SLPC     H3R      HAL2     0.900000E-01   1.00800           0
     20573 MEMB     42       SLPC     H3S      HAL2     0.900000E-01   1.00800           0
     20574 MEMB     42       SLPC     C24      CTL2    -0.180000       12.0110           0
     20575 MEMB     42       SLPC     H4R      HAL2     0.900000E-01   1.00800           0
     20576 MEMB     42       SLPC     H4S      HAL2     0.900000E-01   1.00800           0
     20577 MEMB     42       SLPC     C25      CTL2    -0.180000       12.0110           0
     20578 MEMB     42       SLPC     H5R      HAL2     0.900000E-01   1.00800           0
     20579 MEMB     42       SLPC     H5S      HAL2     0.900000E-01   1.00800           0
     20580 MEMB     42       SLPC     C26      CTL2    -0.180000       12.0110           0
     20581 MEMB     42       SLPC     H6R      HAL2     0.900000E-01   1.00800           0
     20582 MEMB     42       SLPC     H6S      HAL2     0.900000E-01   1.00800           0
     20583 MEMB     42       SLPC     C27      CTL2    -0.180000       12.0110           0
     20584 MEMB     42       SLPC     H7R      HAL2     0.900000E-01   1.00800           0
     20585 MEMB     42       SLPC     H7S      HAL2     0.900000E-01   1.00800           0
     20586 MEMB     42       SLPC     C28      CTL2    -0.180000       12.0110           0
     20587 MEMB     42       SLPC     H8R      HAL2     0.900000E-01   1.00800           0
     20588 MEMB     42       SLPC     H8S      HAL2     0.900000E-01   1.00800           0
     20589 MEMB     42       SLPC     C29      CEL1    -0.150000       12.0110           0
     20590 MEMB     42       SLPC     H9R      HEL1     0.150000       1.00800           0
     20591 MEMB     42       SLPC     C210     CEL1    -0.150000       12.0110           0
     20592 MEMB     42       SLPC     H10R     HEL1     0.150000       1.00800           0
     20593 MEMB     42       SLPC     C211     CTL2    -0.180000       12.0110           0
     20594 MEMB     42       SLPC     H11R     HAL2     0.900000E-01   1.00800           0
     20595 MEMB     42       SLPC     H11S     HAL2     0.900000E-01   1.00800           0
     20596 MEMB     42       SLPC     C212     CEL1    -0.150000       12.0110           0
     20597 MEMB     42       SLPC     H12R     HEL1     0.150000       1.00800           0
     20598 MEMB     42       SLPC     C213     CEL1    -0.150000       12.0110           0
     20599 MEMB     42       SLPC     H13R     HEL1     0.150000       1.00800           0
     20600 MEMB     42       SLPC     C214     CTL2    -0.180000       12.0110           0
     20601 MEMB     42       SLPC     H14R     HAL2     0.900000E-01   1.00800           0
     20602 MEMB     42       SLPC     H14S     HAL2     0.900000E-01   1.00800           0
     20603 MEMB     42       SLPC     C215     CTL2    -0.180000       12.0110           0
     20604 MEMB     42       SLPC     H15R     HAL2     0.900000E-01   1.00800           0
     20605 MEMB     42       SLPC     H15S     HAL2     0.900000E-01   1.00800           0
     20606 MEMB     42       SLPC     C216     CTL2    -0.180000       12.0110           0
     20607 MEMB     42       SLPC     H16R     HAL2     0.900000E-01   1.00800           0
     20608 MEMB     42       SLPC     H16S     HAL2     0.900000E-01   1.00800           0
     20609 MEMB     42       SLPC     C217     CTL2    -0.180000       12.0110           0
     20610 MEMB     42       SLPC     H17R     HAL2     0.900000E-01   1.00800           0
     20611 MEMB     42       SLPC     H17S     HAL2     0.900000E-01   1.00800           0
     20612 MEMB     42       SLPC     C218     CTL3    -0.270000       12.0110           0
     20613 MEMB     42       SLPC     H18R     HAL3     0.900000E-01   1.00800           0
     20614 MEMB     42       SLPC     H18S     HAL3     0.900000E-01   1.00800           0
     20615 MEMB     42       SLPC     H18T     HAL3     0.900000E-01   1.00800           0
     20616 MEMB     42       SLPC     C33      CTL2    -0.180000       12.0110           0
     20617 MEMB     42       SLPC     H3X      HAL2     0.900000E-01   1.00800           0
     20618 MEMB     42       SLPC     H3Y      HAL2     0.900000E-01   1.00800           0
     20619 MEMB     42       SLPC     C34      CTL2    -0.180000       12.0110           0
     20620 MEMB     42       SLPC     H4X      HAL2     0.900000E-01   1.00800           0
     20621 MEMB     42       SLPC     H4Y      HAL2     0.900000E-01   1.00800           0
     20622 MEMB     42       SLPC     C35      CTL2    -0.180000       12.0110           0
     20623 MEMB     42       SLPC     H5X      HAL2     0.900000E-01   1.00800           0
     20624 MEMB     42       SLPC     H5Y      HAL2     0.900000E-01   1.00800           0
     20625 MEMB     42       SLPC     C36      CTL2    -0.180000       12.0110           0
     20626 MEMB     42       SLPC     H6X      HAL2     0.900000E-01   1.00800           0
     20627 MEMB     42       SLPC     H6Y      HAL2     0.900000E-01   1.00800           0
     20628 MEMB     42       SLPC     C37      CTL2    -0.180000       12.0110           0
     20629 MEMB     42       SLPC     H7X      HAL2     0.900000E-01   1.00800           0
     20630 MEMB     42       SLPC     H7Y      HAL2     0.900000E-01   1.00800           0
     20631 MEMB     42       SLPC     C38      CTL2    -0.180000       12.0110           0
     20632 MEMB     42       SLPC     H8X      HAL2     0.900000E-01   1.00800           0
     20633 MEMB     42       SLPC     H8Y      HAL2     0.900000E-01   1.00800           0
     20634 MEMB     42       SLPC     C39      CTL2    -0.180000       12.0110           0
     20635 MEMB     42       SLPC     H9X      HAL2     0.900000E-01   1.00800           0
     20636 MEMB     42       SLPC     H9Y      HAL2     0.900000E-01   1.00800           0
     20637 MEMB     42       SLPC     C310     CTL2    -0.180000       12.0110           0
     20638 MEMB     42       SLPC     H10X     HAL2     0.900000E-01   1.00800           0
     20639 MEMB     42       SLPC     H10Y     HAL2     0.900000E-01   1.00800           0
     20640 MEMB     42       SLPC     C311     CTL2    -0.180000       12.0110           0
     20641 MEMB     42       SLPC     H11X     HAL2     0.900000E-01   1.00800           0
     20642 MEMB     42       SLPC     H11Y     HAL2     0.900000E-01   1.00800           0
     20643 MEMB     42       SLPC     C312     CTL2    -0.180000       12.0110           0
     20644 MEMB     42       SLPC     H12X     HAL2     0.900000E-01   1.00800           0
     20645 MEMB     42       SLPC     H12Y     HAL2     0.900000E-01   1.00800           0
     20646 MEMB     42       SLPC     C313     CTL2    -0.180000       12.0110           0
     20647 MEMB     42       SLPC     H13X     HAL2     0.900000E-01   1.00800           0
     20648 MEMB     42       SLPC     H13Y     HAL2     0.900000E-01   1.00800           0
     20649 MEMB     42       SLPC     C314     CTL2    -0.180000       12.0110           0
     20650 MEMB     42       SLPC     H14X     HAL2     0.900000E-01   1.00800           0
     20651 MEMB     42       SLPC     H14Y     HAL2     0.900000E-01   1.00800           0
     20652 MEMB     42       SLPC     C315     CTL2    -0.180000       12.0110           0
     20653 MEMB     42       SLPC     H15X     HAL2     0.900000E-01   1.00800           0
     20654 MEMB     42       SLPC     H15Y     HAL2     0.900000E-01   1.00800           0
     20655 MEMB     42       SLPC     C316     CTL2    -0.180000       12.0110           0
     20656 MEMB     42       SLPC     H16X     HAL2     0.900000E-01   1.00800           0
     20657 MEMB     42       SLPC     H16Y     HAL2     0.900000E-01   1.00800           0
     20658 MEMB     42       SLPC     C317     CTL2    -0.180000       12.0110           0
     20659 MEMB     42       SLPC     H17X     HAL2     0.900000E-01   1.00800           0
     20660 MEMB     42       SLPC     H17Y     HAL2     0.900000E-01   1.00800           0
     20661 MEMB     42       SLPC     C318     CTL3    -0.270000       12.0110           0
     20662 MEMB     42       SLPC     H18X     HAL3     0.900000E-01   1.00800           0
     20663 MEMB     42       SLPC     H18Y     HAL3     0.900000E-01   1.00800           0
     20664 MEMB     42       SLPC     H18Z     HAL3     0.900000E-01   1.00800           0
     20665 MEMB     59       SLPC     N        NTL     -0.600000       14.0070           0
     20666 MEMB     59       SLPC     C13      CTL5    -0.350000       12.0110           0
     20667 MEMB     59       SLPC     H13A     HL       0.250000       1.00800           0
     20668 MEMB     59       SLPC     H13B     HL       0.250000       1.00800           0
     20669 MEMB     59       SLPC     H13C     HL       0.250000       1.00800           0
     20670 MEMB     59       SLPC     C14      CTL5    -0.350000       12.0110           0
     20671 MEMB     59       SLPC     H14A     HL       0.250000       1.00800           0
     20672 MEMB     59       SLPC     H14B     HL       0.250000       1.00800           0
     20673 MEMB     59       SLPC     H14C     HL       0.250000       1.00800           0
     20674 MEMB     59       SLPC     C15      CTL5    -0.350000       12.0110           0
     20675 MEMB     59       SLPC     H15A     HL       0.250000       1.00800           0
     20676 MEMB     59       SLPC     H15B     HL       0.250000       1.00800           0
     20677 MEMB     59       SLPC     H15C     HL       0.250000       1.00800           0
     20678 MEMB     59       SLPC     C12      CTL2    -0.100000       12.0110           0
     20679 MEMB     59       SLPC     H12A     HL       0.250000       1.00800           0
     20680 MEMB     59       SLPC     H12B     HL       0.250000       1.00800           0
     20681 MEMB     59       SLPC     C11      CTL2    -0.800000E-01   12.0110           0
     20682 MEMB     59       SLPC     H11A     HAL2     0.900000E-01   1.00800           0
     20683 MEMB     59       SLPC     H11B     HAL2     0.900000E-01   1.00800           0
     20684 MEMB     59       SLPC     P        PL       1.500000       30.9740           0
     20685 MEMB     59       SLPC     O13      O2L     -0.780000       15.9994           0
     20686 MEMB     59       SLPC     O14      O2L     -0.780000       15.9994           0
     20687 MEMB     59       SLPC     O12      OSLP    -0.570000       15.9994           0
     20688 MEMB     59       SLPC     O11      OSLP    -0.570000       15.9994           0
     20689 MEMB     59       SLPC     C1       CTL2    -0.800000E-01   12.0110           0
     20690 MEMB     59       SLPC     HA       HAL2     0.900000E-01   1.00800           0
     20691 MEMB     59       SLPC     HB       HAL2     0.900000E-01   1.00800           0
     20692 MEMB     59       SLPC     C2       CTL1     0.170000       12.0110           0
     20693 MEMB     59       SLPC     HS       HAL1     0.900000E-01   1.00800           0
     20694 MEMB     59       SLPC     O21      OSL     -0.490000       15.9994           0
     20695 MEMB     59       SLPC     C21      CL       0.900000       12.0110           0
     20696 MEMB     59       SLPC     O22      OBL     -0.630000       15.9994           0
     20697 MEMB     59       SLPC     C22      CTL2    -0.220000       12.0110           0
     20698 MEMB     59       SLPC     H2R      HAL2     0.900000E-01   1.00800           0
     20699 MEMB     59       SLPC     H2S      HAL2     0.900000E-01   1.00800           0
     20700 MEMB     59       SLPC     C3       CTL2     0.800000E-01   12.0110           0
     20701 MEMB     59       SLPC     HX       HAL2     0.900000E-01   1.00800           0
     20702 MEMB     59       SLPC     HY       HAL2     0.900000E-01   1.00800           0
     20703 MEMB     59       SLPC     O31      OSL     -0.490000       15.9994           0
     20704 MEMB     59       SLPC     C31      CL       0.900000       12.0110           0
     20705 MEMB     59       SLPC     O32      OBL     -0.630000       15.9994           0
     20706 MEMB     59       SLPC     C32      CTL2    -0.220000       12.0110           0
     20707 MEMB     59       SLPC     H2X      HAL2     0.900000E-01   1.00800           0
     20708 MEMB     59       SLPC     H2Y      HAL2     0.900000E-01   1.00800           0
     20709 MEMB     59       SLPC     C23      CTL2    -0.180000       12.0110           0
     20710 MEMB     59       SLPC     H3R      HAL2     0.900000E-01   1.00800           0
     20711 MEMB     59       SLPC     H3S      HAL2     0.900000E-01   1.00800           0
     20712 MEMB     59       SLPC     C24      CTL2    -0.180000       12.0110           0
     20713 MEMB     59       SLPC     H4R      HAL2     0.900000E-01   1.00800           0
     20714 MEMB     59       SLPC     H4S      HAL2     0.900000E-01   1.00800           0
     20715 MEMB     59       SLPC     C25      CTL2    -0.180000       12.0110           0
     20716 MEMB     59       SLPC     H5R      HAL2     0.900000E-01   1.00800           0
     20717 MEMB     59       SLPC     H5S      HAL2     0.900000E-01   1.00800           0
     20718 MEMB     59       SLPC     C26      CTL2    -0.180000       12.0110           0
     20719 MEMB     59       SLPC     H6R      HAL2     0.900000E-01   1.00800           0
     20720 MEMB     59       SLPC     H6S      HAL2     0.900000E-01   1.00800           0
     20721 MEMB     59       SLPC     C27      CTL2    -0.180000       12.0110           0
     20722 MEMB     59       SLPC     H7R      HAL2     0.900000E-01   1.00800           0
     20723 MEMB     59       SLPC     H7S      HAL2     0.900000E-01   1.00800           0
     20724 MEMB     59       SLPC     C28      CTL2    -0.180000       12.0110           0
     20725 MEMB     59       SLPC     H8R      HAL2     0.900000E-01   1.00800           0
     20726 MEMB     59       SLPC     H8S      HAL2     0.900000E-01   1.00800           0
     20727 MEMB     59       SLPC     C29      CEL1    -0.150000       12.0110           0
     20728 MEMB     59       SLPC     H9R      HEL1     0.150000       1.00800           0
     20729 MEMB     59       SLPC     C210     CEL1    -0.150000       12.0110           0
     20730 MEMB     59       SLPC     H10R     HEL1     0.150000       1.00800           0
     20731 MEMB     59       SLPC     C211     CTL2    -0.180000       12.0110           0
     20732 MEMB     59       SLPC     H11R     HAL2     0.900000E-01   1.00800           0
     20733 MEMB     59       SLPC     H11S     HAL2     0.900000E-01   1.00800           0
     20734 MEMB     59       SLPC     C212     CEL1    -0.150000       12.0110           0
     20735 MEMB     59       SLPC     H12R     HEL1     0.150000       1.00800           0
     20736 MEMB     59       SLPC     C213     CEL1    -0.150000       12.0110           0
     20737 MEMB     59       SLPC     H13R     HEL1     0.150000       1.00800           0
     20738 MEMB     59       SLPC     C214     CTL2    -0.180000       12.0110           0
     20739 MEMB     59       SLPC     H14R     HAL2     0.900000E-01   1.00800           0
     20740 MEMB     59       SLPC     H14S     HAL2     0.900000E-01   1.00800           0
     20741 MEMB     59       SLPC     C215     CTL2    -0.180000       12.0110           0
     20742 MEMB     59       SLPC     H15R     HAL2     0.900000E-01   1.00800           0
     20743 MEMB     59       SLPC     H15S     HAL2     0.900000E-01   1.00800           0
     20744 MEMB     59       SLPC     C216     CTL2    -0.180000       12.0110           0
     20745 MEMB     59       SLPC     H16R     HAL2     0.900000E-01   1.00800           0
     20746 MEMB     59       SLPC     H16S     HAL2     0.900000E-01   1.00800           0
     20747 MEMB     59       SLPC     C217     CTL2    -0.180000       12.0110           0
     20748 MEMB     59       SLPC     H17R     HAL2     0.900000E-01   1.00800           0
     20749 MEMB     59       SLPC     H17S     HAL2     0.900000E-01   1.00800           0
     20750 MEMB     59       SLPC     C218     CTL3    -0.270000       12.0110           0
     20751 MEMB     59       SLPC     H18R     HAL3     0.900000E-01   1.00800           0
     20752 MEMB     59       SLPC     H18S     HAL3     0.900000E-01   1.00800           0
     20753 MEMB     59       SLPC     H18T     HAL3     0.900000E-01   1.00800           0
     20754 MEMB     59       SLPC     C33      CTL2    -0.180000       12.0110           0
     20755 MEMB     59       SLPC     H3X      HAL2     0.900000E-01   1.00800           0
     20756 MEMB     59       SLPC     H3Y      HAL2     0.900000E-01   1.00800           0
     20757 MEMB     59       SLPC     C34      CTL2    -0.180000       12.0110           0
     20758 MEMB     59       SLPC     H4X      HAL2     0.900000E-01   1.00800           0
     20759 MEMB     59       SLPC     H4Y      HAL2     0.900000E-01   1.00800           0
     20760 MEMB     59       SLPC     C35      CTL2    -0.180000       12.0110           0
     20761 MEMB     59       SLPC     H5X      HAL2     0.900000E-01   1.00800           0
     20762 MEMB     59       SLPC     H5Y      HAL2     0.900000E-01   1.00800           0
     20763 MEMB     59       SLPC     C36      CTL2    -0.180000       12.0110           0
     20764 MEMB     59       SLPC     H6X      HAL2     0.900000E-01   1.00800           0
     20765 MEMB     59       SLPC     H6Y      HAL2     0.900000E-01   1.00800           0
     20766 MEMB     59       SLPC     C37      CTL2    -0.180000       12.0110           0
     20767 MEMB     59       SLPC     H7X      HAL2     0.900000E-01   1.00800           0
     20768 MEMB     59       SLPC     H7Y      HAL2     0.900000E-01   1.00800           0
     20769 MEMB     59       SLPC     C38      CTL2    -0.180000       12.0110           0
     20770 MEMB     59       SLPC     H8X      HAL2     0.900000E-01   1.00800           0
     20771 MEMB     59       SLPC     H8Y      HAL2     0.900000E-01   1.00800           0
     20772 MEMB     59       SLPC     C39      CTL2    -0.180000       12.0110           0
     20773 MEMB     59       SLPC     H9X      HAL2     0.900000E-01   1.00800           0
     20774 MEMB     59       SLPC     H9Y      HAL2     0.900000E-01   1.00800           0
     20775 MEMB     59       SLPC     C310     CTL2    -0.180000       12.0110           0
     20776 MEMB     59       SLPC     H10X     HAL2     0.900000E-01   1.00800           0
     20777 MEMB     59       SLPC     H10Y     HAL2     0.900000E-01   1.00800           0
     20778 MEMB     59       SLPC     C311     CTL2    -0.180000       12.0110           0
     20779 MEMB     59       SLPC     H11X     HAL2     0.900000E-01   1.00800           0
     20780 MEMB     59       SLPC     H11Y     HAL2     0.900000E-01   1.00800           0
     20781 MEMB     59       SLPC     C312     CTL2    -0.180000       12.0110           0
     20782 MEMB     59       SLPC     H12X     HAL2     0.900000E-01   1.00800           0
     20783 MEMB     59       SLPC     H12Y     HAL2     0.900000E-01   1.00800           0
     20784 MEMB     59       SLPC     C313     CTL2    -0.180000       12.0110           0
     20785 MEMB     59       SLPC     H13X     HAL2     0.900000E-01   1.00800           0
     20786 MEMB     59       SLPC     H13Y     HAL2     0.900000E-01   1.00800           0
     20787 MEMB     59       SLPC     C314     CTL2    -0.180000       12.0110           0
     20788 MEMB     59       SLPC     H14X     HAL2     0.900000E-01   1.00800           0
     20789 MEMB     59       SLPC     H14Y     HAL2     0.900000E-01   1.00800           0
     20790 MEMB     59       SLPC     C315     CTL2    -0.180000       12.0110           0
     20791 MEMB     59       SLPC     H15X     HAL2     0.900000E-01   1.00800           0
     20792 MEMB     59       SLPC     H15Y     HAL2     0.900000E-01   1.00800           0
     20793 MEMB     59       SLPC     C316     CTL2    -0.180000       12.0110           0
     20794 MEMB     59       SLPC     H16X     HAL2     0.900000E-01   1.00800           0
     20795 MEMB     59       SLPC     H16Y     HAL2     0.900000E-01   1.00800           0
     20796 MEMB     59       SLPC     C317     CTL2    -0.180000       12.0110           0
     20797 MEMB     59       SLPC     H17X     HAL2     0.900000E-01   1.00800           0
     20798 MEMB     59       SLPC     H17Y     HAL2     0.900000E-01   1.00800           0
     20799 MEMB     59       SLPC     C318     CTL3    -0.270000       12.0110           0
     20800 MEMB     59       SLPC     H18X     HAL3     0.900000E-01   1.00800           0
     20801 MEMB     59       SLPC     H18Y     HAL3     0.900000E-01   1.00800           0
     20802 MEMB     59       SLPC     H18Z     HAL3     0.900000E-01   1.00800           0
     20803 MEMB     88       SLPC     N        NTL     -0.600000       14.0070           0
     20804 MEMB     88       SLPC     C13      CTL5    -0.350000       12.0110           0
     20805 MEMB     88       SLPC     H13A     HL       0.250000       1.00800           0
     20806 MEMB     88       SLPC     H13B     HL       0.250000       1.00800           0
     20807 MEMB     88       SLPC     H13C     HL       0.250000       1.00800           0
     20808 MEMB     88       SLPC     C14      CTL5    -0.350000       12.0110           0
     20809 MEMB     88       SLPC     H14A     HL       0.250000       1.00800           0
     20810 MEMB     88       SLPC     H14B     HL       0.250000       1.00800           0
     20811 MEMB     88       SLPC     H14C     HL       0.250000       1.00800           0
     20812 MEMB     88       SLPC     C15      CTL5    -0.350000       12.0110           0
     20813 MEMB     88       SLPC     H15A     HL       0.250000       1.00800           0
     20814 MEMB     88       SLPC     H15B     HL       0.250000       1.00800           0
     20815 MEMB     88       SLPC     H15C     HL       0.250000       1.00800           0
     20816 MEMB     88       SLPC     C12      CTL2    -0.100000       12.0110           0
     20817 MEMB     88       SLPC     H12A     HL       0.250000       1.00800           0
     20818 MEMB     88       SLPC     H12B     HL       0.250000       1.00800           0
     20819 MEMB     88       SLPC     C11      CTL2    -0.800000E-01   12.0110           0
     20820 MEMB     88       SLPC     H11A     HAL2     0.900000E-01   1.00800           0
     20821 MEMB     88       SLPC     H11B     HAL2     0.900000E-01   1.00800           0
     20822 MEMB     88       SLPC     P        PL       1.500000       30.9740           0
     20823 MEMB     88       SLPC     O13      O2L     -0.780000       15.9994           0
     20824 MEMB     88       SLPC     O14      O2L     -0.780000       15.9994           0
     20825 MEMB     88       SLPC     O12      OSLP    -0.570000       15.9994           0
     20826 MEMB     88       SLPC     O11      OSLP    -0.570000       15.9994           0
     20827 MEMB     88       SLPC     C1       CTL2    -0.800000E-01   12.0110           0
     20828 MEMB     88       SLPC     HA       HAL2     0.900000E-01   1.00800           0
     20829 MEMB     88       SLPC     HB       HAL2     0.900000E-01   1.00800           0
     20830 MEMB     88       SLPC     C2       CTL1     0.170000       12.0110           0
     20831 MEMB     88       SLPC     HS       HAL1     0.900000E-01   1.00800           0
     20832 MEMB     88       SLPC     O21      OSL     -0.490000       15.9994           0
     20833 MEMB     88       SLPC     C21      CL       0.900000       12.0110           0
     20834 MEMB     88       SLPC     O22      OBL     -0.630000       15.9994           0
     20835 MEMB     88       SLPC     C22      CTL2    -0.220000       12.0110           0
     20836 MEMB     88       SLPC     H2R      HAL2     0.900000E-01   1.00800           0
     20837 MEMB     88       SLPC     H2S      HAL2     0.900000E-01   1.00800           0
     20838 MEMB     88       SLPC     C3       CTL2     0.800000E-01   12.0110           0
     20839 MEMB     88       SLPC     HX       HAL2     0.900000E-01   1.00800           0
     20840 MEMB     88       SLPC     HY       HAL2     0.900000E-01   1.00800           0
     20841 MEMB     88       SLPC     O31      OSL     -0.490000       15.9994           0
     20842 MEMB     88       SLPC     C31      CL       0.900000       12.0110           0
     20843 MEMB     88       SLPC     O32      OBL     -0.630000       15.9994           0
     20844 MEMB     88       SLPC     C32      CTL2    -0.220000       12.0110           0
     20845 MEMB     88       SLPC     H2X      HAL2     0.900000E-01   1.00800           0
     20846 MEMB     88       SLPC     H2Y      HAL2     0.900000E-01   1.00800           0
     20847 MEMB     88       SLPC     C23      CTL2    -0.180000       12.0110           0
     20848 MEMB     88       SLPC     H3R      HAL2     0.900000E-01   1.00800           0
     20849 MEMB     88       SLPC     H3S      HAL2     0.900000E-01   1.00800           0
     20850 MEMB     88       SLPC     C24      CTL2    -0.180000       12.0110           0
     20851 MEMB     88       SLPC     H4R      HAL2     0.900000E-01   1.00800           0
     20852 MEMB     88       SLPC     H4S      HAL2     0.900000E-01   1.00800           0
     20853 MEMB     88       SLPC     C25      CTL2    -0.180000       12.0110           0
     20854 MEMB     88       SLPC     H5R      HAL2     0.900000E-01   1.00800           0
     20855 MEMB     88       SLPC     H5S      HAL2     0.900000E-01   1.00800           0
     20856 MEMB     88       SLPC     C26      CTL2    -0.180000       12.0110           0
     20857 MEMB     88       SLPC     H6R      HAL2     0.900000E-01   1.00800           0
     20858 MEMB     88       SLPC     H6S      HAL2     0.900000E-01   1.00800           0
     20859 MEMB     88       SLPC     C27      CTL2    -0.180000       12.0110           0
     20860 MEMB     88       SLPC     H7R      HAL2     0.900000E-01   1.00800           0
     20861 MEMB     88       SLPC     H7S      HAL2     0.900000E-01   1.00800           0
     20862 MEMB     88       SLPC     C28      CTL2    -0.180000       12.0110           0
     20863 MEMB     88       SLPC     H8R      HAL2     0.900000E-01   1.00800           0
     20864 MEMB     88       SLPC     H8S      HAL2     0.900000E-01   1.00800           0
     20865 MEMB     88       SLPC     C29      CEL1    -0.150000       12.0110           0
     20866 MEMB     88       SLPC     H9R      HEL1     0.150000       1.00800           0
     20867 MEMB     88       SLPC     C210     CEL1    -0.150000       12.0110           0
     20868 MEMB     88       SLPC     H10R     HEL1     0.150000       1.00800           0
     20869 MEMB     88       SLPC     C211     CTL2    -0.180000       12.0110           0
     20870 MEMB     88       SLPC     H11R     HAL2     0.900000E-01   1.00800           0
     20871 MEMB     88       SLPC     H11S     HAL2     0.900000E-01   1.00800           0
     20872 MEMB     88       SLPC     C212     CEL1    -0.150000       12.0110           0
     20873 MEMB     88       SLPC     H12R     HEL1     0.150000       1.00800           0
     20874 MEMB     88       SLPC     C213     CEL1    -0.150000       12.0110           0
     20875 MEMB     88       SLPC     H13R     HEL1     0.150000       1.00800           0
     20876 MEMB     88       SLPC     C214     CTL2    -0.180000       12.0110           0
     20877 MEMB     88       SLPC     H14R     HAL2     0.900000E-01   1.00800           0
     20878 MEMB     88       SLPC     H14S     HAL2     0.900000E-01   1.00800           0
     20879 MEMB     88       SLPC     C215     CTL2    -0.180000       12.0110           0
     20880 MEMB     88       SLPC     H15R     HAL2     0.900000E-01   1.00800           0
     20881 MEMB     88       SLPC     H15S     HAL2     0.900000E-01   1.00800           0
     20882 MEMB     88       SLPC     C216     CTL2    -0.180000       12.0110           0
     20883 MEMB     88       SLPC     H16R     HAL2     0.900000E-01   1.00800           0
     20884 MEMB     88       SLPC     H16S     HAL2     0.900000E-01   1.00800           0
     20885 MEMB     88       SLPC     C217     CTL2    -0.180000       12.0110           0
     20886 MEMB     88       SLPC     H17R     HAL2     0.900000E-01   1.00800           0
     20887 MEMB     88       SLPC     H17S     HAL2     0.900000E-01   1.00800           0
     20888 MEMB     88       SLPC     C218     CTL3    -0.270000       12.0110           0
     20889 MEMB     88       SLPC     H18R     HAL3     0.900000E-01   1.00800           0
     20890 MEMB     88       SLPC     H18S     HAL3     0.900000E-01   1.00800           0
     20891 MEMB     88       SLPC     H18T     HAL3     0.900000E-01   1.00800           0
     20892 MEMB     88       SLPC     C33      CTL2    -0.180000       12.0110           0
     20893 MEMB     88       SLPC     H3X      HAL2     0.900000E-01   1.00800           0
     20894 MEMB     88       SLPC     H3Y      HAL2     0.900000E-01   1.00800           0
     20895 MEMB     88       SLPC     C34      CTL2    -0.180000       12.0110           0
     20896 MEMB     88       SLPC     H4X      HAL2     0.900000E-01   1.00800           0
     20897 MEMB     88       SLPC     H4Y      HAL2     0.900000E-01   1.00800           0
     20898 MEMB     88       SLPC     C35      CTL2    -0.180000       12.0110           0
     20899 MEMB     88       SLPC     H5X      HAL2     0.900000E-01   1.00800           0
     20900 MEMB     88       SLPC     H5Y      HAL2     0.900000E-01   1.00800           0
     20901 MEMB     88       SLPC     C36      CTL2    -0.180000       12.0110           0
     20902 MEMB     88       SLPC     H6X      HAL2     0.900000E-01   1.00800           0
     20903 MEMB     88       SLPC     H6Y      HAL2     0.900000E-01   1.00800           0
     20904 MEMB     88       SLPC     C37      CTL2    -0.180000       12.0110           0
     20905 MEMB     88       SLPC     H7X      HAL2     0.900000E-01   1.00800           0
     20906 MEMB     88       SLPC     H7Y      HAL2     0.900000E-01   1.00800           0
     20907 MEMB     88       SLPC     C38      CTL2    -0.180000       12.0110           0
     20908 MEMB     88       SLPC     H8X      HAL2     0.900000E-01   1.00800           0
     20909 MEMB     88       SLPC     H8Y      HAL2     0.900000E-01   1.00800           0
     20910 MEMB     88       SLPC     C39      CTL2    -0.180000       12.0110           0
     20911 MEMB     88       SLPC     H9X      HAL2     0.900000E-01   1.00800           0
     20912 MEMB     88       SLPC     H9Y      HAL2     0.900000E-01   1.00800           0
     20913 MEMB     88       SLPC     C310     CTL2    -0.180000       12.0110           0
     20914 MEMB     88       SLPC     H10X     HAL2     0.900000E-01   1.00800           0
     20915 MEMB     88       SLPC     H10Y     HAL2     0.900000E-01   1.00800           0
     20916 MEMB     88       SLPC     C311     CTL2    -0.180000       12.0110           0
     20917 MEMB     88       SLPC     H11X     HAL2     0.900000E-01   1.00800           0
     20918 MEMB     88       SLPC     H11Y     HAL2     0.900000E-01   1.00800           0
     20919 MEMB     88       SLPC     C312     CTL2    -0.180000       12.0110           0
     20920 MEMB     88       SLPC     H12X     HAL2     0.900000E-01   1.00800           0
     20921 MEMB     88       SLPC     H12Y     HAL2     0.900000E-01   1.00800           0
     20922 MEMB     88       SLPC     C313     CTL2    -0.180000       12.0110           0
     20923 MEMB     88       SLPC     H13X     HAL2     0.900000E-01   1.00800           0
     20924 MEMB     88       SLPC     H13Y     HAL2     0.900000E-01   1.00800           0
     20925 MEMB     88       SLPC     C314     CTL2    -0.180000       12.0110           0
     20926 MEMB     88       SLPC     H14X     HAL2     0.900000E-01   1.00800           0
     20927 MEMB     88       SLPC     H14Y     HAL2     0.900000E-01   1.00800           0
     20928 MEMB     88       SLPC     C315     CTL2    -0.180000       12.0110           0
     20929 MEMB     88       SLPC     H15X     HAL2     0.900000E-01   1.00800           0
     20930 MEMB     88       SLPC     H15Y     HAL2     0.900000E-01   1.00800           0
     20931 MEMB     88       SLPC     C316     CTL2    -0.180000       12.0110           0
     20932 MEMB     88       SLPC     H16X     HAL2     0.900000E-01   1.00800           0
     20933 MEMB     88       SLPC     H16Y     HAL2     0.900000E-01   1.00800           0
     20934 MEMB     88       SLPC     C317     CTL2    -0.180000       12.0110           0
     20935 MEMB     88       SLPC     H17X     HAL2     0.900000E-01   1.00800           0
     20936 MEMB     88       SLPC     H17Y     HAL2     0.900000E-01   1.00800           0
     20937 MEMB     88       SLPC     C318     CTL3    -0.270000       12.0110           0
     20938 MEMB     88       SLPC     H18X     HAL3     0.900000E-01   1.00800           0
     20939 MEMB     88       SLPC     H18Y     HAL3     0.900000E-01   1.00800           0
     20940 MEMB     88       SLPC     H18Z     HAL3     0.900000E-01   1.00800           0
     20941 MEMB     89       SLPC     N        NTL     -0.600000       14.0070           0
     20942 MEMB     89       SLPC     C13      CTL5    -0.350000       12.0110           0
     20943 MEMB     89       SLPC     H13A     HL       0.250000       1.00800           0
     20944 MEMB     89       SLPC     H13B     HL       0.250000       1.00800           0
     20945 MEMB     89       SLPC     H13C     HL       0.250000       1.00800           0
     20946 MEMB     89       SLPC     C14      CTL5    -0.350000       12.0110           0
     20947 MEMB     89       SLPC     H14A     HL       0.250000       1.00800           0
     20948 MEMB     89       SLPC     H14B     HL       0.250000       1.00800           0
     20949 MEMB     89       SLPC     H14C     HL       0.250000       1.00800           0
     20950 MEMB     89       SLPC     C15      CTL5    -0.350000       12.0110           0
     20951 MEMB     89       SLPC     H15A     HL       0.250000       1.00800           0
     20952 MEMB     89       SLPC     H15B     HL       0.250000       1.00800           0
     20953 MEMB     89       SLPC     H15C     HL       0.250000       1.00800           0
     20954 MEMB     89       SLPC     C12      CTL2    -0.100000       12.0110           0
     20955 MEMB     89       SLPC     H12A     HL       0.250000       1.00800           0
     20956 MEMB     89       SLPC     H12B     HL       0.250000       1.00800           0
     20957 MEMB     89       SLPC     C11      CTL2    -0.800000E-01   12.0110           0
     20958 MEMB     89       SLPC     H11A     HAL2     0.900000E-01   1.00800           0
     20959 MEMB     89       SLPC     H11B     HAL2     0.900000E-01   1.00800           0
     20960 MEMB     89       SLPC     P        PL       1.500000       30.9740           0
     20961 MEMB     89       SLPC     O13      O2L     -0.780000       15.9994           0
     20962 MEMB     89       SLPC     O14      O2L     -0.780000       15.9994           0
     20963 MEMB     89       SLPC     O12      OSLP    -0.570000       15.9994           0
     20964 MEMB     89       SLPC     O11      OSLP    -0.570000       15.9994           0
     20965 MEMB     89       SLPC     C1       CTL2    -0.800000E-01   12.0110           0
     20966 MEMB     89       SLPC     HA       HAL2     0.900000E-01   1.00800           0
     20967 MEMB     89       SLPC     HB       HAL2     0.900000E-01   1.00800           0
     20968 MEMB     89       SLPC     C2       CTL1     0.170000       12.0110           0
     20969 MEMB     89       SLPC     HS       HAL1     0.900000E-01   1.00800           0
     20970 MEMB     89       SLPC     O21      OSL     -0.490000       15.9994           0
     20971 MEMB     89       SLPC     C21      CL       0.900000       12.0110           0
     20972 MEMB     89       SLPC     O22      OBL     -0.630000       15.9994           0
     20973 MEMB     89       SLPC     C22      CTL2    -0.220000       12.0110           0
     20974 MEMB     89       SLPC     H2R      HAL2     0.900000E-01   1.00800           0
     20975 MEMB     89       SLPC     H2S      HAL2     0.900000E-01   1.00800           0
     20976 MEMB     89       SLPC     C3       CTL2     0.800000E-01   12.0110           0
     20977 MEMB     89       SLPC     HX       HAL2     0.900000E-01   1.00800           0
     20978 MEMB     89       SLPC     HY       HAL2     0.900000E-01   1.00800           0
     20979 MEMB     89       SLPC     O31      OSL     -0.490000       15.9994           0
     20980 MEMB     89       SLPC     C31      CL       0.900000       12.0110           0
     20981 MEMB     89       SLPC     O32      OBL     -0.630000       15.9994           0
     20982 MEMB     89       SLPC     C32      CTL2    -0.220000       12.0110           0
     20983 MEMB     89       SLPC     H2X      HAL2     0.900000E-01   1.00800           0
     20984 MEMB     89       SLPC     H2Y      HAL2     0.900000E-01   1.00800           0
     20985 MEMB     89       SLPC     C23      CTL2    -0.180000       12.0110           0
     20986 MEMB     89       SLPC     H3R      HAL2     0.900000E-01   1.00800           0
     20987 MEMB     89       SLPC     H3S      HAL2     0.900000E-01   1.00800           0
     20988 MEMB     89       SLPC     C24      CTL2    -0.180000       12.0110           0
     20989 MEMB     89       SLPC     H4R      HAL2     0.900000E-01   1.00800           0
     20990 MEMB     89       SLPC     H4S      HAL2     0.900000E-01   1.00800           0
     20991 MEMB     89       SLPC     C25      CTL2    -0.180000       12.0110           0
     20992 MEMB     89       SLPC     H5R      HAL2     0.900000E-01   1.00800           0
     20993 MEMB     89       SLPC     H5S      HAL2     0.900000E-01   1.00800           0
     20994 MEMB     89       SLPC     C26      CTL2    -0.180000       12.0110           0
     20995 MEMB     89       SLPC     H6R      HAL2     0.900000E-01   1.00800           0
     20996 MEMB     89       SLPC     H6S      HAL2     0.900000E-01   1.00800           0
     20997 MEMB     89       SLPC     C27      CTL2    -0.180000       12.0110           0
     20998 MEMB     89       SLPC     H7R      HAL2     0.900000E-01   1.00800           0
     20999 MEMB     89       SLPC     H7S      HAL2     0.900000E-01   1.00800           0
     21000 MEMB     89       SLPC     C28      CTL2    -0.180000       12.0110           0
     21001 MEMB     89       SLPC     H8R      HAL2     0.900000E-01   1.00800           0
     21002 MEMB     89       SLPC     H8S      HAL2     0.900000E-01   1.00800           0
     21003 MEMB     89       SLPC     C29      CEL1    -0.150000       12.0110           0
     21004 MEMB     89       SLPC     H9R      HEL1     0.150000       1.00800           0
     21005 MEMB     89       SLPC     C210     CEL1    -0.150000       12.0110           0
     21006 MEMB     89       SLPC     H10R     HEL1     0.150000       1.00800           0
     21007 MEMB     89       SLPC     C211     CTL2    -0.180000       12.0110           0
     21008 MEMB     89       SLPC     H11R     HAL2     0.900000E-01   1.00800           0
     21009 MEMB     89       SLPC     H11S     HAL2     0.900000E-01   1.00800           0
     21010 MEMB     89       SLPC     C212     CEL1    -0.150000       12.0110           0
     21011 MEMB     89       SLPC     H12R     HEL1     0.150000       1.00800           0
     21012 MEMB     89       SLPC     C213     CEL1    -0.150000       12.0110           0
     21013 MEMB     89       SLPC     H13R     HEL1     0.150000       1.00800           0
     21014 MEMB     89       SLPC     C214     CTL2    -0.180000       12.0110           0
     21015 MEMB     89       SLPC     H14R     HAL2     0.900000E-01   1.00800           0
     21016 MEMB     89       SLPC     H14S     HAL2     0.900000E-01   1.00800           0
     21017 MEMB     89       SLPC     C215     CTL2    -0.180000       12.0110           0
     21018 MEMB     89       SLPC     H15R     HAL2     0.900000E-01   1.00800           0
     21019 MEMB     89       SLPC     H15S     HAL2     0.900000E-01   1.00800           0
     21020 MEMB     89       SLPC     C216     CTL2    -0.180000       12.0110           0
     21021 MEMB     89       SLPC     H16R     HAL2     0.900000E-01   1.00800           0
     21022 MEMB     89       SLPC     H16S     HAL2     0.900000E-01   1.00800           0
     21023 MEMB     89       SLPC     C217     CTL2    -0.180000       12.0110           0
     21024 MEMB     89       SLPC     H17R     HAL2     0.900000E-01   1.00800           0
     21025 MEMB     89       SLPC     H17S     HAL2     0.900000E-01   1.00800           0
     21026 MEMB     89       SLPC     C218     CTL3    -0.270000       12.0110           0
     21027 MEMB     89       SLPC     H18R     HAL3     0.900000E-01   1.00800           0
     21028 MEMB     89       SLPC     H18S     HAL3     0.900000E-01   1.00800           0
     21029 MEMB     89       SLPC     H18T     HAL3     0.900000E-01   1.00800           0
     21030 MEMB     89       SLPC     C33      CTL2    -0.180000       12.0110           0
     21031 MEMB     89       SLPC     H3X      HAL2     0.900000E-01   1.00800           0
     21032 MEMB     89       SLPC     H3Y      HAL2     0.900000E-01   1.00800           0
     21033 MEMB     89       SLPC     C34      CTL2    -0.180000       12.0110           0
     21034 MEMB     89       SLPC     H4X      HAL2     0.900000E-01   1.00800           0
     21035 MEMB     89       SLPC     H4Y      HAL2     0.900000E-01   1.00800           0
     21036 MEMB     89       SLPC     C35      CTL2    -0.180000       12.0110           0
     21037 MEMB     89       SLPC     H5X      HAL2     0.900000E-01   1.00800           0
     21038 MEMB     89       SLPC     H5Y      HAL2     0.900000E-01   1.00800           0
     21039 MEMB     89       SLPC     C36      CTL2    -0.180000       12.0110           0
     21040 MEMB     89       SLPC     H6X      HAL2     0.900000E-01   1.00800           0
     21041 MEMB     89       SLPC     H6Y      HAL2     0.900000E-01   1.00800           0
     21042 MEMB     89       SLPC     C37      CTL2    -0.180000       12.0110           0
     21043 MEMB     89       SLPC     H7X      HAL2     0.900000E-01   1.00800           0
     21044 MEMB     89       SLPC     H7Y      HAL2     0.900000E-01   1.00800           0
     21045 MEMB     89       SLPC     C38      CTL2    -0.180000       12.0110           0
     21046 MEMB     89       SLPC     H8X      HAL2     0.900000E-01   1.00800           0
     21047 MEMB     89       SLPC     H8Y      HAL2     0.900000E-01   1.00800           0
     21048 MEMB     89       SLPC     C39      CTL2    -0.180000       12.0110           0
     21049 MEMB     89       SLPC     H9X      HAL2     0.900000E-01   1.00800           0
     21050 MEMB     89       SLPC     H9Y      HAL2     0.900000E-01   1.00800           0
     21051 MEMB     89       SLPC     C310     CTL2    -0.180000       12.0110           0
     21052 MEMB     89       SLPC     H10X     HAL2     0.900000E-01   1.00800           0
     21053 MEMB     89       SLPC     H10Y     HAL2     0.900000E-01   1.00800           0
     21054 MEMB     89       SLPC     C311     CTL2    -0.180000       12.0110           0
     21055 MEMB     89       SLPC     H11X     HAL2     0.900000E-01   1.00800           0
     21056 MEMB     89       SLPC     H11Y     HAL2     0.900000E-01   1.00800           0
     21057 MEMB     89       SLPC     C312     CTL2    -0.180000       12.0110           0
     21058 MEMB     89       SLPC     H12X     HAL2     0.900000E-01   1.00800           0
     21059 MEMB     89       SLPC     H12Y     HAL2     0.900000E-01   1.00800           0
     21060 MEMB     89       SLPC     C313     CTL2    -0.180000       12.0110           0
     21061 MEMB     89       SLPC     H13X     HAL2     0.900000E-01   1.00800           0
     21062 MEMB     89       SLPC     H13Y     HAL2     0.900000E-01   1.00800           0
     21063 MEMB     89       SLPC     C314     CTL2    -0.180000       12.0110           0
     21064 MEMB     89       SLPC     H14X     HAL2     0.900000E-01   1.00800           0
     21065 MEMB     89       SLPC     H14Y     HAL2     0.900000E-01   1.00800           0
     21066 MEMB     89       SLPC     C315     CTL2    -0.180000       12.0110           0
     21067 MEMB     89       SLPC     H15X     HAL2     0.900000E-01   1.00800           0
     21068 MEMB     89       SLPC     H15Y     HAL2     0.900000E-01   1.00800           0
     21069 MEMB     89       SLPC     C316     CTL2    -0.180000       12.0110           0
     21070 MEMB     89       SLPC     H16X     HAL2     0.900000E-01   1.00800           0
     21071 MEMB     89       SLPC     H16Y     HAL2     0.900000E-01   1.00800           0
     21072 MEMB     89       SLPC     C317     CTL2    -0.180000       12.0110           0
     21073 MEMB     89       SLPC     H17X     HAL2     0.900000E-01   1.00800           0
     21074 MEMB     89       SLPC     H17Y     HAL2     0.900000E-01   1.00800           0
     21075 MEMB     89       SLPC     C318     CTL3    -0.270000       12.0110           0
     21076 MEMB     89       SLPC     H18X     HAL3     0.900000E-01   1.00800           0
     21077 MEMB     89       SLPC     H18Y     HAL3     0.900000E-01   1.00800           0
     21078 MEMB     89       SLPC     H18Z     HAL3     0.900000E-01   1.00800           0
     21079 MEMB     94       SLPC     N        NTL     -0.600000       14.0070           0
     21080 MEMB     94       SLPC     C13      CTL5    -0.350000       12.0110           0
     21081 MEMB     94       SLPC     H13A     HL       0.250000       1.00800           0
     21082 MEMB     94       SLPC     H13B     HL       0.250000       1.00800           0
     21083 MEMB     94       SLPC     H13C     HL       0.250000       1.00800           0
     21084 MEMB     94       SLPC     C14      CTL5    -0.350000       12.0110           0
     21085 MEMB     94       SLPC     H14A     HL       0.250000       1.00800           0
     21086 MEMB     94       SLPC     H14B     HL       0.250000       1.00800           0
     21087 MEMB     94       SLPC     H14C     HL       0.250000       1.00800           0
     21088 MEMB     94       SLPC     C15      CTL5    -0.350000       12.0110           0
     21089 MEMB     94       SLPC     H15A     HL       0.250000       1.00800           0
     21090 MEMB     94       SLPC     H15B     HL       0.250000       1.00800           0
     21091 MEMB     94       SLPC     H15C     HL       0.250000       1.00800           0
     21092 MEMB     94       SLPC     C12      CTL2    -0.100000       12.0110           0
     21093 MEMB     94       SLPC     H12A     HL       0.250000       1.00800           0
     21094 MEMB     94       SLPC     H12B     HL       0.250000       1.00800           0
     21095 MEMB     94       SLPC     C11      CTL2    -0.800000E-01   12.0110           0
     21096 MEMB     94       SLPC     H11A     HAL2     0.900000E-01   1.00800           0
     21097 MEMB     94       SLPC     H11B     HAL2     0.900000E-01   1.00800           0
     21098 MEMB     94       SLPC     P        PL       1.500000       30.9740           0
     21099 MEMB     94       SLPC     O13      O2L     -0.780000       15.9994           0
     21100 MEMB     94       SLPC     O14      O2L     -0.780000       15.9994           0
     21101 MEMB     94       SLPC     O12      OSLP    -0.570000       15.9994           0
     21102 MEMB     94       SLPC     O11      OSLP    -0.570000       15.9994           0
     21103 MEMB     94       SLPC     C1       CTL2    -0.800000E-01   12.0110           0
     21104 MEMB     94       SLPC     HA       HAL2     0.900000E-01   1.00800           0
     21105 MEMB     94       SLPC     HB       HAL2     0.900000E-01   1.00800           0
     21106 MEMB     94       SLPC     C2       CTL1     0.170000       12.0110           0
     21107 MEMB     94       SLPC     HS       HAL1     0.900000E-01   1.00800           0
     21108 MEMB     94       SLPC     O21      OSL     -0.490000       15.9994           0
     21109 MEMB     94       SLPC     C21      CL       0.900000       12.0110           0
     21110 MEMB     94       SLPC     O22      OBL     -0.630000       15.9994           0
     21111 MEMB     94       SLPC     C22      CTL2    -0.220000       12.0110           0
     21112 MEMB     94       SLPC     H2R      HAL2     0.900000E-01   1.00800           0
     21113 MEMB     94       SLPC     H2S      HAL2     0.900000E-01   1.00800           0
     21114 MEMB     94       SLPC     C3       CTL2     0.800000E-01   12.0110           0
     21115 MEMB     94       SLPC     HX       HAL2     0.900000E-01   1.00800           0
     21116 MEMB     94       SLPC     HY       HAL2     0.900000E-01   1.00800           0
     21117 MEMB     94       SLPC     O31      OSL     -0.490000       15.9994           0
     21118 MEMB     94       SLPC     C31      CL       0.900000       12.0110           0
     21119 MEMB     94       SLPC     O32      OBL     -0.630000       15.9994           0
     21120 MEMB     94       SLPC     C32      CTL2    -0.220000       12.0110           0
     21121 MEMB     94       SLPC     H2X      HAL2     0.900000E-01   1.00800           0
     21122 MEMB     94       SLPC     H2Y      HAL2     0.900000E-01   1.00800           0
     21123 MEMB     94       SLPC     C23      CTL2    -0.180000       12.0110           0
     21124 MEMB     94       SLPC     H3R      HAL2     0.900000E-01   1.00800           0
     21125 MEMB     94       SLPC     H3S      HAL2     0.900000E-01   1.00800           0
     21126 MEMB     94       SLPC     C24      CTL2    -0.180000       12.0110           0
     21127 MEMB     94       SLPC     H4R      HAL2     0.900000E-01   1.00800           0
     21128 MEMB     94       SLPC     H4S      HAL2     0.900000E-01   1.00800           0
     21129 MEMB     94       SLPC     C25      CTL2    -0.180000       12.0110           0
     21130 MEMB     94       SLPC     H5R      HAL2     0.900000E-01   1.00800           0
     21131 MEMB     94       SLPC     H5S      HAL2     0.900000E-01   1.00800           0
     21132 MEMB     94       SLPC     C26      CTL2    -0.180000       12.0110           0
     21133 MEMB     94       SLPC     H6R      HAL2     0.900000E-01   1.00800           0
     21134 MEMB     94       SLPC     H6S      HAL2     0.900000E-01   1.00800           0
     21135 MEMB     94       SLPC     C27      CTL2    -0.180000       12.0110           0
     21136 MEMB     94       SLPC     H7R      HAL2     0.900000E-01   1.00800           0
     21137 MEMB     94       SLPC     H7S      HAL2     0.900000E-01   1.00800           0
     21138 MEMB     94       SLPC     C28      CTL2    -0.180000       12.0110           0
     21139 MEMB     94       SLPC     H8R      HAL2     0.900000E-01   1.00800           0
     21140 MEMB     94       SLPC     H8S      HAL2     0.900000E-01   1.00800           0
     21141 MEMB     94       SLPC     C29      CEL1    -0.150000       12.0110           0
     21142 MEMB     94       SLPC     H9R      HEL1     0.150000       1.00800           0
     21143 MEMB     94       SLPC     C210     CEL1    -0.150000       12.0110           0
     21144 MEMB     94       SLPC     H10R     HEL1     0.150000       1.00800           0
     21145 MEMB     94       SLPC     C211     CTL2    -0.180000       12.0110           0
     21146 MEMB     94       SLPC     H11R     HAL2     0.900000E-01   1.00800           0
     21147 MEMB     94       SLPC     H11S     HAL2     0.900000E-01   1.00800           0
     21148 MEMB     94       SLPC     C212     CEL1    -0.150000       12.0110           0
     21149 MEMB     94       SLPC     H12R     HEL1     0.150000       1.00800           0
     21150 MEMB     94       SLPC     C213     CEL1    -0.150000       12.0110           0
     21151 MEMB     94       SLPC     H13R     HEL1     0.150000       1.00800           0
     21152 MEMB     94       SLPC     C214     CTL2    -0.180000       12.0110           0
     21153 MEMB     94       SLPC     H14R     HAL2     0.900000E-01   1.00800           0
     21154 MEMB     94       SLPC     H14S     HAL2     0.900000E-01   1.00800           0
     21155 MEMB     94       SLPC     C215     CTL2    -0.180000       12.0110           0
     21156 MEMB     94       SLPC     H15R     HAL2     0.900000E-01   1.00800           0
     21157 MEMB     94       SLPC     H15S     HAL2     0.900000E-01   1.00800           0
     21158 MEMB     94       SLPC     C216     CTL2    -0.180000       12.0110           0
     21159 MEMB     94       SLPC     H16R     HAL2     0.900000E-01   1.00800           0
     21160 MEMB     94       SLPC     H16S     HAL2     0.900000E-01   1.00800           0
     21161 MEMB     94       SLPC     C217     CTL2    -0.180000       12.0110           0
     21162 MEMB     94       SLPC     H17R     HAL2     0.900000E-01   1.00800           0
     21163 MEMB     94       SLPC     H17S     HAL2     0.900000E-01   1.00800           0
     21164 MEMB     94       SLPC     C218     CTL3    -0.270000       12.0110           0
     21165 MEMB     94       SLPC     H18R     HAL3     0.900000E-01   1.00800           0
     21166 MEMB     94       SLPC     H18S     HAL3     0.900000E-01   1.00800           0
     21167 MEMB     94       SLPC     H18T     HAL3     0.900000E-01   1.00800           0
     21168 MEMB     94       SLPC     C33      CTL2    -0.180000       12.0110           0
     21169 MEMB     94       SLPC     H3X      HAL2     0.900000E-01   1.00800           0
     21170 MEMB     94       SLPC     H3Y      HAL2     0.900000E-01   1.00800           0
     21171 MEMB     94       SLPC     C34      CTL2    -0.180000       12.0110           0
     21172 MEMB     94       SLPC     H4X      HAL2     0.900000E-01   1.00800           0
     21173 MEMB     94       SLPC     H4Y      HAL2     0.900000E-01   1.00800           0
     21174 MEMB     94       SLPC     C35      CTL2    -0.180000       12.0110           0
     21175 MEMB     94       SLPC     H5X      HAL2     0.900000E-01   1.00800           0
     21176 MEMB     94       SLPC     H5Y      HAL2     0.900000E-01   1.00800           0
     21177 MEMB     94       SLPC     C36      CTL2    -0.180000       12.0110           0
     21178 MEMB     94       SLPC     H6X      HAL2     0.900000E-01   1.00800           0
     21179 MEMB     94       SLPC     H6Y      HAL2     0.900000E-01   1.00800           0
     21180 MEMB     94       SLPC     C37      CTL2    -0.180000       12.0110           0
     21181 MEMB     94       SLPC     H7X      HAL2     0.900000E-01   1.00800           0
     21182 MEMB     94       SLPC     H7Y      HAL2     0.900000E-01   1.00800           0
     21183 MEMB     94       SLPC     C38      CTL2    -0.180000       12.0110           0
     21184 MEMB     94       SLPC     H8X      HAL2     0.900000E-01   1.00800           0
     21185 MEMB     94       SLPC     H8Y      HAL2     0.900000E-01   1.00800           0
     21186 MEMB     94       SLPC     C39      CTL2    -0.180000       12.0110           0
     21187 MEMB     94       SLPC     H9X      HAL2     0.900000E-01   1.00800           0
     21188 MEMB     94       SLPC     H9Y      HAL2     0.900000E-01   1.00800           0
     21189 MEMB     94       SLPC     C310     CTL2    -0.180000       12.0110           0
     21190 MEMB     94       SLPC     H10X     HAL2     0.900000E-01   1.00800           0
     21191 MEMB     94       SLPC     H10Y     HAL2     0.900000E-01   1.00800           0
     21192 MEMB     94       SLPC     C311     CTL2    -0.180000       12.0110           0
     21193 MEMB     94       SLPC     H11X     HAL2     0.900000E-01   1.00800           0
     21194 MEMB     94       SLPC     H11Y     HAL2     0.900000E-01   1.00800           0
     21195 MEMB     94       SLPC     C312     CTL2    -0.180000       12.0110           0
     21196 MEMB     94       SLPC     H12X     HAL2     0.900000E-01   1.00800           0
     21197 MEMB     94       SLPC     H12Y     HAL2     0.900000E-01   1.00800           0
     21198 MEMB     94       SLPC     C313     CTL2    -0.180000       12.0110           0
     21199 MEMB     94       SLPC     H13X     HAL2     0.900000E-01   1.00800           0
     21200 MEMB     94       SLPC     H13Y     HAL2     0.900000E-01   1.00800           0
     21201 MEMB     94       SLPC     C314     CTL2    -0.180000       12.0110           0
     21202 MEMB     94       SLPC     H14X     HAL2     0.900000E-01   1.00800           0
     21203 MEMB     94       SLPC     H14Y     HAL2     0.900000E-01   1.00800           0
     21204 MEMB     94       SLPC     C315     CTL2    -0.180000       12.0110           0
     21205 MEMB     94       SLPC     H15X     HAL2     0.900000E-01   1.00800           0
     21206 MEMB     94       SLPC     H15Y     HAL2     0.900000E-01   1.00800           0
     21207 MEMB     94       SLPC     C316     CTL2    -0.180000       12.0110           0
     21208 MEMB     94       SLPC     H16X     HAL2     0.900000E-01   1.00800           0
     21209 MEMB     94       SLPC     H16Y     HAL2     0.900000E-01   1.00800           0
     21210 MEMB     94       SLPC     C317     CTL2    -0.180000       12.0110           0
     21211 MEMB     94       SLPC     H17X     HAL2     0.900000E-01   1.00800           0
     21212 MEMB     94       SLPC     H17Y     HAL2     0.900000E-01   1.00800           0
     21213 MEMB     94       SLPC     C318     CTL3    -0.270000       12.0110           0
     21214 MEMB     94       SLPC     H18X     HAL3     0.900000E-01   1.00800           0
     21215 MEMB     94       SLPC     H18Y     HAL3     0.900000E-01   1.00800           0
     21216 MEMB     94       SLPC     H18Z     HAL3     0.900000E-01   1.00800           0
     21217 MEMB     106      SLPC     N        NTL     -0.600000       14.0070           0
     21218 MEMB     106      SLPC     C13      CTL5    -0.350000       12.0110           0
     21219 MEMB     106      SLPC     H13A     HL       0.250000       1.00800           0
     21220 MEMB     106      SLPC     H13B     HL       0.250000       1.00800           0
     21221 MEMB     106      SLPC     H13C     HL       0.250000       1.00800           0
     21222 MEMB     106      SLPC     C14      CTL5    -0.350000       12.0110           0
     21223 MEMB     106      SLPC     H14A     HL       0.250000       1.00800           0
     21224 MEMB     106      SLPC     H14B     HL       0.250000       1.00800           0
     21225 MEMB     106      SLPC     H14C     HL       0.250000       1.00800           0
     21226 MEMB     106      SLPC     C15      CTL5    -0.350000       12.0110           0
     21227 MEMB     106      SLPC     H15A     HL       0.250000       1.00800           0
     21228 MEMB     106      SLPC     H15B     HL       0.250000       1.00800           0
     21229 MEMB     106      SLPC     H15C     HL       0.250000       1.00800           0
     21230 MEMB     106      SLPC     C12      CTL2    -0.100000       12.0110           0
     21231 MEMB     106      SLPC     H12A     HL       0.250000       1.00800           0
     21232 MEMB     106      SLPC     H12B     HL       0.250000       1.00800           0
     21233 MEMB     106      SLPC     C11      CTL2    -0.800000E-01   12.0110           0
     21234 MEMB     106      SLPC     H11A     HAL2     0.900000E-01   1.00800           0
     21235 MEMB     106      SLPC     H11B     HAL2     0.900000E-01   1.00800           0
     21236 MEMB     106      SLPC     P        PL       1.500000       30.9740           0
     21237 MEMB     106      SLPC     O13      O2L     -0.780000       15.9994           0
     21238 MEMB     106      SLPC     O14      O2L     -0.780000       15.9994           0
     21239 MEMB     106      SLPC     O12      OSLP    -0.570000       15.9994           0
     21240 MEMB     106      SLPC     O11      OSLP    -0.570000       15.9994           0
     21241 MEMB     106      SLPC     C1       CTL2    -0.800000E-01   12.0110           0
     21242 MEMB     106      SLPC     HA       HAL2     0.900000E-01   1.00800           0
     21243 MEMB     106      SLPC     HB       HAL2     0.900000E-01   1.00800           0
     21244 MEMB     106      SLPC     C2       CTL1     0.170000       12.0110           0
     21245 MEMB     106      SLPC     HS       HAL1     0.900000E-01   1.00800           0
     21246 MEMB     106      SLPC     O21      OSL     -0.490000       15.9994           0
     21247 MEMB     106      SLPC     C21      CL       0.900000       12.0110           0
     21248 MEMB     106      SLPC     O22      OBL     -0.630000       15.9994           0
     21249 MEMB     106      SLPC     C22      CTL2    -0.220000       12.0110           0
     21250 MEMB     106      SLPC     H2R      HAL2     0.900000E-01   1.00800           0
     21251 MEMB     106      SLPC     H2S      HAL2     0.900000E-01   1.00800           0
     21252 MEMB     106      SLPC     C3       CTL2     0.800000E-01   12.0110           0
     21253 MEMB     106      SLPC     HX       HAL2     0.900000E-01   1.00800           0
     21254 MEMB     106      SLPC     HY       HAL2     0.900000E-01   1.00800           0
     21255 MEMB     106      SLPC     O31      OSL     -0.490000       15.9994           0
     21256 MEMB     106      SLPC     C31      CL       0.900000       12.0110           0
     21257 MEMB     106      SLPC     O32      OBL     -0.630000       15.9994           0
     21258 MEMB     106      SLPC     C32      CTL2    -0.220000       12.0110           0
     21259 MEMB     106      SLPC     H2X      HAL2     0.900000E-01   1.00800           0
     21260 MEMB     106      SLPC     H2Y      HAL2     0.900000E-01   1.00800           0
     21261 MEMB     106      SLPC     C23      CTL2    -0.180000       12.0110           0
     21262 MEMB     106      SLPC     H3R      HAL2     0.900000E-01   1.00800           0
     21263 MEMB     106      SLPC     H3S      HAL2     0.900000E-01   1.00800           0
     21264 MEMB     106      SLPC     C24      CTL2    -0.180000       12.0110           0
     21265 MEMB     106      SLPC     H4R      HAL2     0.900000E-01   1.00800           0
     21266 MEMB     106      SLPC     H4S      HAL2     0.900000E-01   1.00800           0
     21267 MEMB     106      SLPC     C25      CTL2    -0.180000       12.0110           0
     21268 MEMB     106      SLPC     H5R      HAL2     0.900000E-01   1.00800           0
     21269 MEMB     106      SLPC     H5S      HAL2     0.900000E-01   1.00800           0
     21270 MEMB     106      SLPC     C26      CTL2    -0.180000       12.0110           0
     21271 MEMB     106      SLPC     H6R      HAL2     0.900000E-01   1.00800           0
     21272 MEMB     106      SLPC     H6S      HAL2     0.900000E-01   1.00800           0
     21273 MEMB     106      SLPC     C27      CTL2    -0.180000       12.0110           0
     21274 MEMB     106      SLPC     H7R      HAL2     0.900000E-01   1.00800           0
     21275 MEMB     106      SLPC     H7S      HAL2     0.900000E-01   1.00800           0
     21276 MEMB     106      SLPC     C28      CTL2    -0.180000       12.0110           0
     21277 MEMB     106      SLPC     H8R      HAL2     0.900000E-01   1.00800           0
     21278 MEMB     106      SLPC     H8S      HAL2     0.900000E-01   1.00800           0
     21279 MEMB     106      SLPC     C29      CEL1    -0.150000       12.0110           0
     21280 MEMB     106      SLPC     H9R      HEL1     0.150000       1.00800           0
     21281 MEMB     106      SLPC     C210     CEL1    -0.150000       12.0110           0
     21282 MEMB     106      SLPC     H10R     HEL1     0.150000       1.00800           0
     21283 MEMB     106      SLPC     C211     CTL2    -0.180000       12.0110           0
     21284 MEMB     106      SLPC     H11R     HAL2     0.900000E-01   1.00800           0
     21285 MEMB     106      SLPC     H11S     HAL2     0.900000E-01   1.00800           0
     21286 MEMB     106      SLPC     C212     CEL1    -0.150000       12.0110           0
     21287 MEMB     106      SLPC     H12R     HEL1     0.150000       1.00800           0
     21288 MEMB     106      SLPC     C213     CEL1    -0.150000       12.0110           0
     21289 MEMB     106      SLPC     H13R     HEL1     0.150000       1.00800           0
     21290 MEMB     106      SLPC     C214     CTL2    -0.180000       12.0110           0
     21291 MEMB     106      SLPC     H14R     HAL2     0.900000E-01   1.00800           0
     21292 MEMB     106      SLPC     H14S     HAL2     0.900000E-01   1.00800           0
     21293 MEMB     106      SLPC     C215     CTL2    -0.180000       12.0110           0
     21294 MEMB     106      SLPC     H15R     HAL2     0.900000E-01   1.00800           0
     21295 MEMB     106      SLPC     H15S     HAL2     0.900000E-01   1.00800           0
     21296 MEMB     106      SLPC     C216     CTL2    -0.180000       12.0110           0
     21297 MEMB     106      SLPC     H16R     HAL2     0.900000E-01   1.00800           0
     21298 MEMB     106      SLPC     H16S     HAL2     0.900000E-01   1.00800           0
     21299 MEMB     106      SLPC     C217     CTL2    -0.180000       12.0110           0
     21300 MEMB     106      SLPC     H17R     HAL2     0.900000E-01   1.00800           0
     21301 MEMB     106      SLPC     H17S     HAL2     0.900000E-01   1.00800           0
     21302 MEMB     106      SLPC     C218     CTL3    -0.270000       12.0110           0
     21303 MEMB     106      SLPC     H18R     HAL3     0.900000E-01   1.00800           0
     21304 MEMB     106      SLPC     H18S     HAL3     0.900000E-01   1.00800           0
     21305 MEMB     106      SLPC     H18T     HAL3     0.900000E-01   1.00800           0
     21306 MEMB     106      SLPC     C33      CTL2    -0.180000       12.0110           0
     21307 MEMB     106      SLPC     H3X      HAL2     0.900000E-01   1.00800           0
     21308 MEMB     106      SLPC     H3Y      HAL2     0.900000E-01   1.00800           0
     21309 MEMB     106      SLPC     C34      CTL2    -0.180000       12.0110           0
     21310 MEMB     106      SLPC     H4X      HAL2     0.900000E-01   1.00800           0
     21311 MEMB     106      SLPC     H4Y      HAL2     0.900000E-01   1.00800           0
     21312 MEMB     106      SLPC     C35      CTL2    -0.180000       12.0110           0
     21313 MEMB     106      SLPC     H5X      HAL2     0.900000E-01   1.00800           0
     21314 MEMB     106      SLPC     H5Y      HAL2     0.900000E-01   1.00800           0
     21315 MEMB     106      SLPC     C36      CTL2    -0.180000       12.0110           0
     21316 MEMB     106      SLPC     H6X      HAL2     0.900000E-01   1.00800           0
     21317 MEMB     106      SLPC     H6Y      HAL2     0.900000E-01   1.00800           0
     21318 MEMB     106      SLPC     C37      CTL2    -0.180000       12.0110           0
     21319 MEMB     106      SLPC     H7X      HAL2     0.900000E-01   1.00800           0
     21320 MEMB     106      SLPC     H7Y      HAL2     0.900000E-01   1.00800           0
     21321 MEMB     106      SLPC     C38      CTL2    -0.180000       12.0110           0
     21322 MEMB     106      SLPC     H8X      HAL2     0.900000E-01   1.00800           0
     21323 MEMB     106      SLPC     H8Y      HAL2     0.900000E-01   1.00800           0
     21324 MEMB     106      SLPC     C39      CTL2    -0.180000       12.0110           0
     21325 MEMB     106      SLPC     H9X      HAL2     0.900000E-01   1.00800           0
     21326 MEMB     106      SLPC     H9Y      HAL2     0.900000E-01   1.00800           0
     21327 MEMB     106      SLPC     C310     CTL2    -0.180000       12.0110           0
     21328 MEMB     106      SLPC     H10X     HAL2     0.900000E-01   1.00800           0
     21329 MEMB     106      SLPC     H10Y     HAL2     0.900000E-01   1.00800           0
     21330 MEMB     106      SLPC     C311     CTL2    -0.180000       12.0110           0
     21331 MEMB     106      SLPC     H11X     HAL2     0.900000E-01   1.00800           0
     21332 MEMB     106      SLPC     H11Y     HAL2     0.900000E-01   1.00800           0
     21333 MEMB     106      SLPC     C312     CTL2    -0.180000       12.0110           0
     21334 MEMB     106      SLPC     H12X     HAL2     0.900000E-01   1.00800           0
     21335 MEMB     106      SLPC     H12Y     HAL2     0.900000E-01   1.00800           0
     21336 MEMB     106      SLPC     C313     CTL2    -0.180000       12.0110           0
     21337 MEMB     106      SLPC     H13X     HAL2     0.900000E-01   1.00800           0
     21338 MEMB     106      SLPC     H13Y     HAL2     0.900000E-01   1.00800           0
     21339 MEMB     106      SLPC     C314     CTL2    -0.180000       12.0110           0
     21340 MEMB     106      SLPC     H14X     HAL2     0.900000E-01   1.00800           0
     21341 MEMB     106      SLPC     H14Y     HAL2     0.900000E-01   1.00800           0
     21342 MEMB     106      SLPC     C315     CTL2    -0.180000       12.0110           0
     21343 MEMB     106      SLPC     H15X     HAL2     0.900000E-01   1.00800           0
     21344 MEMB     106      SLPC     H15Y     HAL2     0.900000E-01   1.00800           0
     21345 MEMB     106      SLPC     C316     CTL2    -0.180000       12.0110           0
     21346 MEMB     106      SLPC     H16X     HAL2     0.900000E-01   1.00800           0
     21347 MEMB     106      SLPC     H16Y     HAL2     0.900000E-01   1.00800           0
     21348 MEMB     106      SLPC     C317     CTL2    -0.180000       12.0110           0
     21349 MEMB     106      SLPC     H17X     HAL2     0.900000E-01   1.00800           0
     21350 MEMB     106      SLPC     H17Y     HAL2     0.900000E-01   1.00800           0
     21351 MEMB     106      SLPC     C318     CTL3    -0.270000       12.0110           0
     21352 MEMB     106      SLPC     H18X     HAL3     0.900000E-01   1.00800           0
     21353 MEMB     106      SLPC     H18Y     HAL3     0.900000E-01   1.00800           0
     21354 MEMB     106      SLPC     H18Z     HAL3     0.900000E-01   1.00800           0
     21355 MEMB     111      SLPC     N        NTL     -0.600000       14.0070           0
     21356 MEMB     111      SLPC     C13      CTL5    -0.350000       12.0110           0
     21357 MEMB     111      SLPC     H13A     HL       0.250000       1.00800           0
     21358 MEMB     111      SLPC     H13B     HL       0.250000       1.00800           0
     21359 MEMB     111      SLPC     H13C     HL       0.250000       1.00800           0
     21360 MEMB     111      SLPC     C14      CTL5    -0.350000       12.0110           0
     21361 MEMB     111      SLPC     H14A     HL       0.250000       1.00800           0
     21362 MEMB     111      SLPC     H14B     HL       0.250000       1.00800           0
     21363 MEMB     111      SLPC     H14C     HL       0.250000       1.00800           0
     21364 MEMB     111      SLPC     C15      CTL5    -0.350000       12.0110           0
     21365 MEMB     111      SLPC     H15A     HL       0.250000       1.00800           0
     21366 MEMB     111      SLPC     H15B     HL       0.250000       1.00800           0
     21367 MEMB     111      SLPC     H15C     HL       0.250000       1.00800           0
     21368 MEMB     111      SLPC     C12      CTL2    -0.100000       12.0110           0
     21369 MEMB     111      SLPC     H12A     HL       0.250000       1.00800           0
     21370 MEMB     111      SLPC     H12B     HL       0.250000       1.00800           0
     21371 MEMB     111      SLPC     C11      CTL2    -0.800000E-01   12.0110           0
     21372 MEMB     111      SLPC     H11A     HAL2     0.900000E-01   1.00800           0
     21373 MEMB     111      SLPC     H11B     HAL2     0.900000E-01   1.00800           0
     21374 MEMB     111      SLPC     P        PL       1.500000       30.9740           0
     21375 MEMB     111      SLPC     O13      O2L     -0.780000       15.9994           0
     21376 MEMB     111      SLPC     O14      O2L     -0.780000       15.9994           0
     21377 MEMB     111      SLPC     O12      OSLP    -0.570000       15.9994           0
     21378 MEMB     111      SLPC     O11      OSLP    -0.570000       15.9994           0
     21379 MEMB     111      SLPC     C1       CTL2    -0.800000E-01   12.0110           0
     21380 MEMB     111      SLPC     HA       HAL2     0.900000E-01   1.00800           0
     21381 MEMB     111      SLPC     HB       HAL2     0.900000E-01   1.00800           0
     21382 MEMB     111      SLPC     C2       CTL1     0.170000       12.0110           0
     21383 MEMB     111      SLPC     HS       HAL1     0.900000E-01   1.00800           0
     21384 MEMB     111      SLPC     O21      OSL     -0.490000       15.9994           0
     21385 MEMB     111      SLPC     C21      CL       0.900000       12.0110           0
     21386 MEMB     111      SLPC     O22      OBL     -0.630000       15.9994           0
     21387 MEMB     111      SLPC     C22      CTL2    -0.220000       12.0110           0
     21388 MEMB     111      SLPC     H2R      HAL2     0.900000E-01   1.00800           0
     21389 MEMB     111      SLPC     H2S      HAL2     0.900000E-01   1.00800           0
     21390 MEMB     111      SLPC     C3       CTL2     0.800000E-01   12.0110           0
     21391 MEMB     111      SLPC     HX       HAL2     0.900000E-01   1.00800           0
     21392 MEMB     111      SLPC     HY       HAL2     0.900000E-01   1.00800           0
     21393 MEMB     111      SLPC     O31      OSL     -0.490000       15.9994           0
     21394 MEMB     111      SLPC     C31      CL       0.900000       12.0110           0
     21395 MEMB     111      SLPC     O32      OBL     -0.630000       15.9994           0
     21396 MEMB     111      SLPC     C32      CTL2    -0.220000       12.0110           0
     21397 MEMB     111      SLPC     H2X      HAL2     0.900000E-01   1.00800           0
     21398 MEMB     111      SLPC     H2Y      HAL2     0.900000E-01   1.00800           0
     21399 MEMB     111      SLPC     C23      CTL2    -0.180000       12.0110           0
     21400 MEMB     111      SLPC     H3R      HAL2     0.900000E-01   1.00800           0
     21401 MEMB     111      SLPC     H3S      HAL2     0.900000E-01   1.00800           0
     21402 MEMB     111      SLPC     C24      CTL2    -0.180000       12.0110           0
     21403 MEMB     111      SLPC     H4R      HAL2     0.900000E-01   1.00800           0
     21404 MEMB     111      SLPC     H4S      HAL2     0.900000E-01   1.00800           0
     21405 MEMB     111      SLPC     C25      CTL2    -0.180000       12.0110           0
     21406 MEMB     111      SLPC     H5R      HAL2     0.900000E-01   1.00800           0
     21407 MEMB     111      SLPC     H5S      HAL2     0.900000E-01   1.00800           0
     21408 MEMB     111      SLPC     C26      CTL2    -0.180000       12.0110           0
     21409 MEMB     111      SLPC     H6R      HAL2     0.900000E-01   1.00800           0
     21410 MEMB     111      SLPC     H6S      HAL2     0.900000E-01   1.00800           0
     21411 MEMB     111      SLPC     C27      CTL2    -0.180000       12.0110           0
     21412 MEMB     111      SLPC     H7R      HAL2     0.900000E-01   1.00800           0
     21413 MEMB     111      SLPC     H7S      HAL2     0.900000E-01   1.00800           0
     21414 MEMB     111      SLPC     C28      CTL2    -0.180000       12.0110           0
     21415 MEMB     111      SLPC     H8R      HAL2     0.900000E-01   1.00800           0
     21416 MEMB     111      SLPC     H8S      HAL2     0.900000E-01   1.00800           0
     21417 MEMB     111      SLPC     C29      CEL1    -0.150000       12.0110           0
     21418 MEMB     111      SLPC     H9R      HEL1     0.150000       1.00800           0
     21419 MEMB     111      SLPC     C210     CEL1    -0.150000       12.0110           0
     21420 MEMB     111      SLPC     H10R     HEL1     0.150000       1.00800           0
     21421 MEMB     111      SLPC     C211     CTL2    -0.180000       12.0110           0
     21422 MEMB     111      SLPC     H11R     HAL2     0.900000E-01   1.00800           0
     21423 MEMB     111      SLPC     H11S     HAL2     0.900000E-01   1.00800           0
     21424 MEMB     111      SLPC     C212     CEL1    -0.150000       12.0110           0
     21425 MEMB     111      SLPC     H12R     HEL1     0.150000       1.00800           0
     21426 MEMB     111      SLPC     C213     CEL1    -0.150000       12.0110           0
     21427 MEMB     111      SLPC     H13R     HEL1     0.150000       1.00800           0
     21428 MEMB     111      SLPC     C214     CTL2    -0.180000       12.0110           0
     21429 MEMB     111      SLPC     H14R     HAL2     0.900000E-01   1.00800           0
     21430 MEMB     111      SLPC     H14S     HAL2     0.900000E-01   1.00800           0
     21431 MEMB     111      SLPC     C215     CTL2    -0.180000       12.0110           0
     21432 MEMB     111      SLPC     H15R     HAL2     0.900000E-01   1.00800           0
     21433 MEMB     111      SLPC     H15S     HAL2     0.900000E-01   1.00800           0
     21434 MEMB     111      SLPC     C216     CTL2    -0.180000       12.0110           0
     21435 MEMB     111      SLPC     H16R     HAL2     0.900000E-01   1.00800           0
     21436 MEMB     111      SLPC     H16S     HAL2     0.900000E-01   1.00800           0
     21437 MEMB     111      SLPC     C217     CTL2    -0.180000       12.0110           0
     21438 MEMB     111      SLPC     H17R     HAL2     0.900000E-01   1.00800           0
     21439 MEMB     111      SLPC     H17S     HAL2     0.900000E-01   1.00800           0
     21440 MEMB     111      SLPC     C218     CTL3    -0.270000       12.0110           0
     21441 MEMB     111      SLPC     H18R     HAL3     0.900000E-01   1.00800           0
     21442 MEMB     111      SLPC     H18S     HAL3     0.900000E-01   1.00800           0
     21443 MEMB     111      SLPC     H18T     HAL3     0.900000E-01   1.00800           0
     21444 MEMB     111      SLPC     C33      CTL2    -0.180000       12.0110           0
     21445 MEMB     111      SLPC     H3X      HAL2     0.900000E-01   1.00800           0
     21446 MEMB     111      SLPC     H3Y      HAL2     0.900000E-01   1.00800           0
     21447 MEMB     111      SLPC     C34      CTL2    -0.180000       12.0110           0
     21448 MEMB     111      SLPC     H4X      HAL2     0.900000E-01   1.00800           0
     21449 MEMB     111      SLPC     H4Y      HAL2     0.900000E-01   1.00800           0
     21450 MEMB     111      SLPC     C35      CTL2    -0.180000       12.0110           0
     21451 MEMB     111      SLPC     H5X      HAL2     0.900000E-01   1.00800           0
     21452 MEMB     111      SLPC     H5Y      HAL2     0.900000E-01   1.00800           0
     21453 MEMB     111      SLPC     C36      CTL2    -0.180000       12.0110           0
     21454 MEMB     111      SLPC     H6X      HAL2     0.900000E-01   1.00800           0
     21455 MEMB     111      SLPC     H6Y      HAL2     0.900000E-01   1.00800           0
     21456 MEMB     111      SLPC     C37      CTL2    -0.180000       12.0110           0
     21457 MEMB     111      SLPC     H7X      HAL2     0.900000E-01   1.00800           0
     21458 MEMB     111      SLPC     H7Y      HAL2     0.900000E-01   1.00800           0
     21459 MEMB     111      SLPC     C38      CTL2    -0.180000       12.0110           0
     21460 MEMB     111      SLPC     H8X      HAL2     0.900000E-01   1.00800           0
     21461 MEMB     111      SLPC     H8Y      HAL2     0.900000E-01   1.00800           0
     21462 MEMB     111      SLPC     C39      CTL2    -0.180000       12.0110           0
     21463 MEMB     111      SLPC     H9X      HAL2     0.900000E-01   1.00800           0
     21464 MEMB     111      SLPC     H9Y      HAL2     0.900000E-01   1.00800           0
     21465 MEMB     111      SLPC     C310     CTL2    -0.180000       12.0110           0
     21466 MEMB     111      SLPC     H10X     HAL2     0.900000E-01   1.00800           0
     21467 MEMB     111      SLPC     H10Y     HAL2     0.900000E-01   1.00800           0
     21468 MEMB     111      SLPC     C311     CTL2    -0.180000       12.0110           0
     21469 MEMB     111      SLPC     H11X     HAL2     0.900000E-01   1.00800           0
     21470 MEMB     111      SLPC     H11Y     HAL2     0.900000E-01   1.00800           0
     21471 MEMB     111      SLPC     C312     CTL2    -0.180000       12.0110           0
     21472 MEMB     111      SLPC     H12X     HAL2     0.900000E-01   1.00800           0
     21473 MEMB     111      SLPC     H12Y     HAL2     0.900000E-01   1.00800           0
     21474 MEMB     111      SLPC     C313     CTL2    -0.180000       12.0110           0
     21475 MEMB     111      SLPC     H13X     HAL2     0.900000E-01   1.00800           0
     21476 MEMB     111      SLPC     H13Y     HAL2     0.900000E-01   1.00800           0
     21477 MEMB     111      SLPC     C314     CTL2    -0.180000       12.0110           0
     21478 MEMB     111      SLPC     H14X     HAL2     0.900000E-01   1.00800           0
     21479 MEMB     111      SLPC     H14Y     HAL2     0.900000E-01   1.00800           0
     21480 MEMB     111      SLPC     C315     CTL2    -0.180000       12.0110           0
     21481 MEMB     111      SLPC     H15X     HAL2     0.900000E-01   1.00800           0
     21482 MEMB     111      SLPC     H15Y     HAL2     0.900000E-01   1.00800           0
     21483 MEMB     111      SLPC     C316     CTL2    -0.180000       12.0110           0
     21484 MEMB     111      SLPC     H16X     HAL2     0.900000E-01   1.00800           0
     21485 MEMB     111      SLPC     H16Y     HAL2     0.900000E-01   1.00800           0
     21486 MEMB     111      SLPC     C317     CTL2    -0.180000       12.0110           0
     21487 MEMB     111      SLPC     H17X     HAL2     0.900000E-01   1.00800           0
     21488 MEMB     111      SLPC     H17Y     HAL2     0.900000E-01   1.00800           0
     21489 MEMB     111      SLPC     C318     CTL3    -0.270000       12.0110           0
     21490 MEMB     111      SLPC     H18X     HAL3     0.900000E-01   1.00800           0
     21491 MEMB     111      SLPC     H18Y     HAL3     0.900000E-01   1.00800           0
     21492 MEMB     111      SLPC     H18Z     HAL3     0.900000E-01   1.00800           0
     21493 MEMB     121      SLPC     N        NTL     -0.600000       14.0070           0
     21494 MEMB     121      SLPC     C13      CTL5    -0.350000       12.0110           0
     21495 MEMB     121      SLPC     H13A     HL       0.250000       1.00800           0
     21496 MEMB     121      SLPC     H13B     HL       0.250000       1.00800           0
     21497 MEMB     121      SLPC     H13C     HL       0.250000       1.00800           0
     21498 MEMB     121      SLPC     C14      CTL5    -0.350000       12.0110           0
     21499 MEMB     121      SLPC     H14A     HL       0.250000       1.00800           0
     21500 MEMB     121      SLPC     H14B     HL       0.250000       1.00800           0
     21501 MEMB     121      SLPC     H14C     HL       0.250000       1.00800           0
     21502 MEMB     121      SLPC     C15      CTL5    -0.350000       12.0110           0
     21503 MEMB     121      SLPC     H15A     HL       0.250000       1.00800           0
     21504 MEMB     121      SLPC     H15B     HL       0.250000       1.00800           0
     21505 MEMB     121      SLPC     H15C     HL       0.250000       1.00800           0
     21506 MEMB     121      SLPC     C12      CTL2    -0.100000       12.0110           0
     21507 MEMB     121      SLPC     H12A     HL       0.250000       1.00800           0
     21508 MEMB     121      SLPC     H12B     HL       0.250000       1.00800           0
     21509 MEMB     121      SLPC     C11      CTL2    -0.800000E-01   12.0110           0
     21510 MEMB     121      SLPC     H11A     HAL2     0.900000E-01   1.00800           0
     21511 MEMB     121      SLPC     H11B     HAL2     0.900000E-01   1.00800           0
     21512 MEMB     121      SLPC     P        PL       1.500000       30.9740           0
     21513 MEMB     121      SLPC     O13      O2L     -0.780000       15.9994           0
     21514 MEMB     121      SLPC     O14      O2L     -0.780000       15.9994           0
     21515 MEMB     121      SLPC     O12      OSLP    -0.570000       15.9994           0
     21516 MEMB     121      SLPC     O11      OSLP    -0.570000       15.9994           0
     21517 MEMB     121      SLPC     C1       CTL2    -0.800000E-01   12.0110           0
     21518 MEMB     121      SLPC     HA       HAL2     0.900000E-01   1.00800           0
     21519 MEMB     121      SLPC     HB       HAL2     0.900000E-01   1.00800           0
     21520 MEMB     121      SLPC     C2       CTL1     0.170000       12.0110           0
     21521 MEMB     121      SLPC     HS       HAL1     0.900000E-01   1.00800           0
     21522 MEMB     121      SLPC     O21      OSL     -0.490000       15.9994           0
     21523 MEMB     121      SLPC     C21      CL       0.900000       12.0110           0
     21524 MEMB     121      SLPC     O22      OBL     -0.630000       15.9994           0
     21525 MEMB     121      SLPC     C22      CTL2    -0.220000       12.0110           0
     21526 MEMB     121      SLPC     H2R      HAL2     0.900000E-01   1.00800           0
     21527 MEMB     121      SLPC     H2S      HAL2     0.900000E-01   1.00800           0
     21528 MEMB     121      SLPC     C3       CTL2     0.800000E-01   12.0110           0
     21529 MEMB     121      SLPC     HX       HAL2     0.900000E-01   1.00800           0
     21530 MEMB     121      SLPC     HY       HAL2     0.900000E-01   1.00800           0
     21531 MEMB     121      SLPC     O31      OSL     -0.490000       15.9994           0
     21532 MEMB     121      SLPC     C31      CL       0.900000       12.0110           0
     21533 MEMB     121      SLPC     O32      OBL     -0.630000       15.9994           0
     21534 MEMB     121      SLPC     C32      CTL2    -0.220000       12.0110           0
     21535 MEMB     121      SLPC     H2X      HAL2     0.900000E-01   1.00800           0
     21536 MEMB     121      SLPC     H2Y      HAL2     0.900000E-01   1.00800           0
     21537 MEMB     121      SLPC     C23      CTL2    -0.180000       12.0110           0
     21538 MEMB     121      SLPC     H3R      HAL2     0.900000E-01   1.00800           0
     21539 MEMB     121      SLPC     H3S      HAL2     0.900000E-01   1.00800           0
     21540 MEMB     121      SLPC     C24      CTL2    -0.180000       12.0110           0
     21541 MEMB     121      SLPC     H4R      HAL2     0.900000E-01   1.00800           0
     21542 MEMB     121      SLPC     H4S      HAL2     0.900000E-01   1.00800           0
     21543 MEMB     121      SLPC     C25      CTL2    -0.180000       12.0110           0
     21544 MEMB     121      SLPC     H5R      HAL2     0.900000E-01   1.00800           0
     21545 MEMB     121      SLPC     H5S      HAL2     0.900000E-01   1.00800           0
     21546 MEMB     121      SLPC     C26      CTL2    -0.180000       12.0110           0
     21547 MEMB     121      SLPC     H6R      HAL2     0.900000E-01   1.00800           0
     21548 MEMB     121      SLPC     H6S      HAL2     0.900000E-01   1.00800           0
     21549 MEMB     121      SLPC     C27      CTL2    -0.180000       12.0110           0
     21550 MEMB     121      SLPC     H7R      HAL2     0.900000E-01   1.00800           0
     21551 MEMB     121      SLPC     H7S      HAL2     0.900000E-01   1.00800           0
     21552 MEMB     121      SLPC     C28      CTL2    -0.180000       12.0110           0
     21553 MEMB     121      SLPC     H8R      HAL2     0.900000E-01   1.00800           0
     21554 MEMB     121      SLPC     H8S      HAL2     0.900000E-01   1.00800           0
     21555 MEMB     121      SLPC     C29      CEL1    -0.150000       12.0110           0
     21556 MEMB     121      SLPC     H9R      HEL1     0.150000       1.00800           0
     21557 MEMB     121      SLPC     C210     CEL1    -0.150000       12.0110           0
     21558 MEMB     121      SLPC     H10R     HEL1     0.150000       1.00800           0
     21559 MEMB     121      SLPC     C211     CTL2    -0.180000       12.0110           0
     21560 MEMB     121      SLPC     H11R     HAL2     0.900000E-01   1.00800           0
     21561 MEMB     121      SLPC     H11S     HAL2     0.900000E-01   1.00800           0
     21562 MEMB     121      SLPC     C212     CEL1    -0.150000       12.0110           0
     21563 MEMB     121      SLPC     H12R     HEL1     0.150000       1.00800           0
     21564 MEMB     121      SLPC     C213     CEL1    -0.150000       12.0110           0
     21565 MEMB     121      SLPC     H13R     HEL1     0.150000       1.00800           0
     21566 MEMB     121      SLPC     C214     CTL2    -0.180000       12.0110           0
     21567 MEMB     121      SLPC     H14R     HAL2     0.900000E-01   1.00800           0
     21568 MEMB     121      SLPC     H14S     HAL2     0.900000E-01   1.00800           0
     21569 MEMB     121      SLPC     C215     CTL2    -0.180000       12.0110           0
     21570 MEMB     121      SLPC     H15R     HAL2     0.900000E-01   1.00800           0
     21571 MEMB     121      SLPC     H15S     HAL2     0.900000E-01   1.00800           0
     21572 MEMB     121      SLPC     C216     CTL2    -0.180000       12.0110           0
     21573 MEMB     121      SLPC     H16R     HAL2     0.900000E-01   1.00800           0
     21574 MEMB     121      SLPC     H16S     HAL2     0.900000E-01   1.00800           0
     21575 MEMB     121      SLPC     C217     CTL2    -0.180000       12.0110           0
     21576 MEMB     121      SLPC     H17R     HAL2     0.900000E-01   1.00800           0
     21577 MEMB     121      SLPC     H17S     HAL2     0.900000E-01   1.00800           0
     21578 MEMB     121      SLPC     C218     CTL3    -0.270000       12.0110           0
     21579 MEMB     121      SLPC     H18R     HAL3     0.900000E-01   1.00800           0
     21580 MEMB     121      SLPC     H18S     HAL3     0.900000E-01   1.00800           0
     21581 MEMB     121      SLPC     H18T     HAL3     0.900000E-01   1.00800           0
     21582 MEMB     121      SLPC     C33      CTL2    -0.180000       12.0110           0
     21583 MEMB     121      SLPC     H3X      HAL2     0.900000E-01   1.00800           0
     21584 MEMB     121      SLPC     H3Y      HAL2     0.900000E-01   1.00800           0
     21585 MEMB     121      SLPC     C34      CTL2    -0.180000       12.0110           0
     21586 MEMB     121      SLPC     H4X      HAL2     0.900000E-01   1.00800           0
     21587 MEMB     121      SLPC     H4Y      HAL2     0.900000E-01   1.00800           0
     21588 MEMB     121      SLPC     C35      CTL2    -0.180000       12.0110           0
     21589 MEMB     121      SLPC     H5X      HAL2     0.900000E-01   1.00800           0
     21590 MEMB     121      SLPC     H5Y      HAL2     0.900000E-01   1.00800           0
     21591 MEMB     121      SLPC     C36      CTL2    -0.180000       12.0110           0
     21592 MEMB     121      SLPC     H6X      HAL2     0.900000E-01   1.00800           0
     21593 MEMB     121      SLPC     H6Y      HAL2     0.900000E-01   1.00800           0
     21594 MEMB     121      SLPC     C37      CTL2    -0.180000       12.0110           0
     21595 MEMB     121      SLPC     H7X      HAL2     0.900000E-01   1.00800           0
     21596 MEMB     121      SLPC     H7Y      HAL2     0.900000E-01   1.00800           0
     21597 MEMB     121      SLPC     C38      CTL2    -0.180000       12.0110           0
     21598 MEMB     121      SLPC     H8X      HAL2     0.900000E-01   1.00800           0
     21599 MEMB     121      SLPC     H8Y      HAL2     0.900000E-01   1.00800           0
     21600 MEMB     121      SLPC     C39      CTL2    -0.180000       12.0110           0
     21601 MEMB     121      SLPC     H9X      HAL2     0.900000E-01   1.00800           0
     21602 MEMB     121      SLPC     H9Y      HAL2     0.900000E-01   1.00800           0
     21603 MEMB     121      SLPC     C310     CTL2    -0.180000       12.0110           0
     21604 MEMB     121      SLPC     H10X     HAL2     0.900000E-01   1.00800           0
     21605 MEMB     121      SLPC     H10Y     HAL2     0.900000E-01   1.00800           0
     21606 MEMB     121      SLPC     C311     CTL2    -0.180000       12.0110           0
     21607 MEMB     121      SLPC     H11X     HAL2     0.900000E-01   1.00800           0
     21608 MEMB     121      SLPC     H11Y     HAL2     0.900000E-01   1.00800           0
     21609 MEMB     121      SLPC     C312     CTL2    -0.180000       12.0110           0
     21610 MEMB     121      SLPC     H12X     HAL2     0.900000E-01   1.00800           0
     21611 MEMB     121      SLPC     H12Y     HAL2     0.900000E-01   1.00800           0
     21612 MEMB     121      SLPC     C313     CTL2    -0.180000       12.0110           0
     21613 MEMB     121      SLPC     H13X     HAL2     0.900000E-01   1.00800           0
     21614 MEMB     121      SLPC     H13Y     HAL2     0.900000E-01   1.00800           0
     21615 MEMB     121      SLPC     C314     CTL2    -0.180000       12.0110           0
     21616 MEMB     121      SLPC     H14X     HAL2     0.900000E-01   1.00800           0
     21617 MEMB     121      SLPC     H14Y     HAL2     0.900000E-01   1.00800           0
     21618 MEMB     121      SLPC     C315     CTL2    -0.180000       12.0110           0
     21619 MEMB     121      SLPC     H15X     HAL2     0.900000E-01   1.00800           0
     21620 MEMB     121      SLPC     H15Y     HAL2     0.900000E-01   1.00800           0
     21621 MEMB     121      SLPC     C316     CTL2    -0.180000       12.0110           0
     21622 MEMB     121      SLPC     H16X     HAL2     0.900000E-01   1.00800           0
     21623 MEMB     121      SLPC     H16Y     HAL2     0.900000E-01   1.00800           0
     21624 MEMB     121      SLPC     C317     CTL2    -0.180000       12.0110           0
     21625 MEMB     121      SLPC     H17X     HAL2     0.900000E-01   1.00800           0
     21626 MEMB     121      SLPC     H17Y     HAL2     0.900000E-01   1.00800           0
     21627 MEMB     121      SLPC     C318     CTL3    -0.270000       12.0110           0
     21628 MEMB     121      SLPC     H18X     HAL3     0.900000E-01   1.00800           0
     21629 MEMB     121      SLPC     H18Y     HAL3     0.900000E-01   1.00800           0
     21630 MEMB     121      SLPC     H18Z     HAL3     0.900000E-01   1.00800           0
     21631 MEMB     124      SLPC     N        NTL     -0.600000       14.0070           0
     21632 MEMB     124      SLPC     C13      CTL5    -0.350000       12.0110           0
     21633 MEMB     124      SLPC     H13A     HL       0.250000       1.00800           0
     21634 MEMB     124      SLPC     H13B     HL       0.250000       1.00800           0
     21635 MEMB     124      SLPC     H13C     HL       0.250000       1.00800           0
     21636 MEMB     124      SLPC     C14      CTL5    -0.350000       12.0110           0
     21637 MEMB     124      SLPC     H14A     HL       0.250000       1.00800           0
     21638 MEMB     124      SLPC     H14B     HL       0.250000       1.00800           0
     21639 MEMB     124      SLPC     H14C     HL       0.250000       1.00800           0
     21640 MEMB     124      SLPC     C15      CTL5    -0.350000       12.0110           0
     21641 MEMB     124      SLPC     H15A     HL       0.250000       1.00800           0
     21642 MEMB     124      SLPC     H15B     HL       0.250000       1.00800           0
     21643 MEMB     124      SLPC     H15C     HL       0.250000       1.00800           0
     21644 MEMB     124      SLPC     C12      CTL2    -0.100000       12.0110           0
     21645 MEMB     124      SLPC     H12A     HL       0.250000       1.00800           0
     21646 MEMB     124      SLPC     H12B     HL       0.250000       1.00800           0
     21647 MEMB     124      SLPC     C11      CTL2    -0.800000E-01   12.0110           0
     21648 MEMB     124      SLPC     H11A     HAL2     0.900000E-01   1.00800           0
     21649 MEMB     124      SLPC     H11B     HAL2     0.900000E-01   1.00800           0
     21650 MEMB     124      SLPC     P        PL       1.500000       30.9740           0
     21651 MEMB     124      SLPC     O13      O2L     -0.780000       15.9994           0
     21652 MEMB     124      SLPC     O14      O2L     -0.780000       15.9994           0
     21653 MEMB     124      SLPC     O12      OSLP    -0.570000       15.9994           0
     21654 MEMB     124      SLPC     O11      OSLP    -0.570000       15.9994           0
     21655 MEMB     124      SLPC     C1       CTL2    -0.800000E-01   12.0110           0
     21656 MEMB     124      SLPC     HA       HAL2     0.900000E-01   1.00800           0
     21657 MEMB     124      SLPC     HB       HAL2     0.900000E-01   1.00800           0
     21658 MEMB     124      SLPC     C2       CTL1     0.170000       12.0110           0
     21659 MEMB     124      SLPC     HS       HAL1     0.900000E-01   1.00800           0
     21660 MEMB     124      SLPC     O21      OSL     -0.490000       15.9994           0
     21661 MEMB     124      SLPC     C21      CL       0.900000       12.0110           0
     21662 MEMB     124      SLPC     O22      OBL     -0.630000       15.9994           0
     21663 MEMB     124      SLPC     C22      CTL2    -0.220000       12.0110           0
     21664 MEMB     124      SLPC     H2R      HAL2     0.900000E-01   1.00800           0
     21665 MEMB     124      SLPC     H2S      HAL2     0.900000E-01   1.00800           0
     21666 MEMB     124      SLPC     C3       CTL2     0.800000E-01   12.0110           0
     21667 MEMB     124      SLPC     HX       HAL2     0.900000E-01   1.00800           0
     21668 MEMB     124      SLPC     HY       HAL2     0.900000E-01   1.00800           0
     21669 MEMB     124      SLPC     O31      OSL     -0.490000       15.9994           0
     21670 MEMB     124      SLPC     C31      CL       0.900000       12.0110           0
     21671 MEMB     124      SLPC     O32      OBL     -0.630000       15.9994           0
     21672 MEMB     124      SLPC     C32      CTL2    -0.220000       12.0110           0
     21673 MEMB     124      SLPC     H2X      HAL2     0.900000E-01   1.00800           0
     21674 MEMB     124      SLPC     H2Y      HAL2     0.900000E-01   1.00800           0
     21675 MEMB     124      SLPC     C23      CTL2    -0.180000       12.0110           0
     21676 MEMB     124      SLPC     H3R      HAL2     0.900000E-01   1.00800           0
     21677 MEMB     124      SLPC     H3S      HAL2     0.900000E-01   1.00800           0
     21678 MEMB     124      SLPC     C24      CTL2    -0.180000       12.0110           0
     21679 MEMB     124      SLPC     H4R      HAL2     0.900000E-01   1.00800           0
     21680 MEMB     124      SLPC     H4S      HAL2     0.900000E-01   1.00800           0
     21681 MEMB     124      SLPC     C25      CTL2    -0.180000       12.0110           0
     21682 MEMB     124      SLPC     H5R      HAL2     0.900000E-01   1.00800           0
     21683 MEMB     124      SLPC     H5S      HAL2     0.900000E-01   1.00800           0
     21684 MEMB     124      SLPC     C26      CTL2    -0.180000       12.0110           0
     21685 MEMB     124      SLPC     H6R      HAL2     0.900000E-01   1.00800           0
     21686 MEMB     124      SLPC     H6S      HAL2     0.900000E-01   1.00800           0
     21687 MEMB     124      SLPC     C27      CTL2    -0.180000       12.0110           0
     21688 MEMB     124      SLPC     H7R      HAL2     0.900000E-01   1.00800           0
     21689 MEMB     124      SLPC     H7S      HAL2     0.900000E-01   1.00800           0
     21690 MEMB     124      SLPC     C28      CTL2    -0.180000       12.0110           0
     21691 MEMB     124      SLPC     H8R      HAL2     0.900000E-01   1.00800           0
     21692 MEMB     124      SLPC     H8S      HAL2     0.900000E-01   1.00800           0
     21693 MEMB     124      SLPC     C29      CEL1    -0.150000       12.0110           0
     21694 MEMB     124      SLPC     H9R      HEL1     0.150000       1.00800           0
     21695 MEMB     124      SLPC     C210     CEL1    -0.150000       12.0110           0
     21696 MEMB     124      SLPC     H10R     HEL1     0.150000       1.00800           0
     21697 MEMB     124      SLPC     C211     CTL2    -0.180000       12.0110           0
     21698 MEMB     124      SLPC     H11R     HAL2     0.900000E-01   1.00800           0
     21699 MEMB     124      SLPC     H11S     HAL2     0.900000E-01   1.00800           0
     21700 MEMB     124      SLPC     C212     CEL1    -0.150000       12.0110           0
     21701 MEMB     124      SLPC     H12R     HEL1     0.150000       1.00800           0
     21702 MEMB     124      SLPC     C213     CEL1    -0.150000       12.0110           0
     21703 MEMB     124      SLPC     H13R     HEL1     0.150000       1.00800           0
     21704 MEMB     124      SLPC     C214     CTL2    -0.180000       12.0110           0
     21705 MEMB     124      SLPC     H14R     HAL2     0.900000E-01   1.00800           0
     21706 MEMB     124      SLPC     H14S     HAL2     0.900000E-01   1.00800           0
     21707 MEMB     124      SLPC     C215     CTL2    -0.180000       12.0110           0
     21708 MEMB     124      SLPC     H15R     HAL2     0.900000E-01   1.00800           0
     21709 MEMB     124      SLPC     H15S     HAL2     0.900000E-01   1.00800           0
     21710 MEMB     124      SLPC     C216     CTL2    -0.180000       12.0110           0
     21711 MEMB     124      SLPC     H16R     HAL2     0.900000E-01   1.00800           0
     21712 MEMB     124      SLPC     H16S     HAL2     0.900000E-01   1.00800           0
     21713 MEMB     124      SLPC     C217     CTL2    -0.180000       12.0110           0
     21714 MEMB     124      SLPC     H17R     HAL2     0.900000E-01   1.00800           0
     21715 MEMB     124      SLPC     H17S     HAL2     0.900000E-01   1.00800           0
     21716 MEMB     124      SLPC     C218     CTL3    -0.270000       12.0110           0
     21717 MEMB     124      SLPC     H18R     HAL3     0.900000E-01   1.00800           0
     21718 MEMB     124      SLPC     H18S     HAL3     0.900000E-01   1.00800           0
     21719 MEMB     124      SLPC     H18T     HAL3     0.900000E-01   1.00800           0
     21720 MEMB     124      SLPC     C33      CTL2    -0.180000       12.0110           0
     21721 MEMB     124      SLPC     H3X      HAL2     0.900000E-01   1.00800           0
     21722 MEMB     124      SLPC     H3Y      HAL2     0.900000E-01   1.00800           0
     21723 MEMB     124      SLPC     C34      CTL2    -0.180000       12.0110           0
     21724 MEMB     124      SLPC     H4X      HAL2     0.900000E-01   1.00800           0
     21725 MEMB     124      SLPC     H4Y      HAL2     0.900000E-01   1.00800           0
     21726 MEMB     124      SLPC     C35      CTL2    -0.180000       12.0110           0
     21727 MEMB     124      SLPC     H5X      HAL2     0.900000E-01   1.00800           0
     21728 MEMB     124      SLPC     H5Y      HAL2     0.900000E-01   1.00800           0
     21729 MEMB     124      SLPC     C36      CTL2    -0.180000       12.0110           0
     21730 MEMB     124      SLPC     H6X      HAL2     0.900000E-01   1.00800           0
     21731 MEMB     124      SLPC     H6Y      HAL2     0.900000E-01   1.00800           0
     21732 MEMB     124      SLPC     C37      CTL2    -0.180000       12.0110           0
     21733 MEMB     124      SLPC     H7X      HAL2     0.900000E-01   1.00800           0
     21734 MEMB     124      SLPC     H7Y      HAL2     0.900000E-01   1.00800           0
     21735 MEMB     124      SLPC     C38      CTL2    -0.180000       12.0110           0
     21736 MEMB     124      SLPC     H8X      HAL2     0.900000E-01   1.00800           0
     21737 MEMB     124      SLPC     H8Y      HAL2     0.900000E-01   1.00800           0
     21738 MEMB     124      SLPC     C39      CTL2    -0.180000       12.0110           0
     21739 MEMB     124      SLPC     H9X      HAL2     0.900000E-01   1.00800           0
     21740 MEMB     124      SLPC     H9Y      HAL2     0.900000E-01   1.00800           0
     21741 MEMB     124      SLPC     C310     CTL2    -0.180000       12.0110           0
     21742 MEMB     124      SLPC     H10X     HAL2     0.900000E-01   1.00800           0
     21743 MEMB     124      SLPC     H10Y     HAL2     0.900000E-01   1.00800           0
     21744 MEMB     124      SLPC     C311     CTL2    -0.180000       12.0110           0
     21745 MEMB     124      SLPC     H11X     HAL2     0.900000E-01   1.00800           0
     21746 MEMB     124      SLPC     H11Y     HAL2     0.900000E-01   1.00800           0
     21747 MEMB     124      SLPC     C312     CTL2    -0.180000       12.0110           0
     21748 MEMB     124      SLPC     H12X     HAL2     0.900000E-01   1.00800           0
     21749 MEMB     124      SLPC     H12Y     HAL2     0.900000E-01   1.00800           0
     21750 MEMB     124      SLPC     C313     CTL2    -0.180000       12.0110           0
     21751 MEMB     124      SLPC     H13X     HAL2     0.900000E-01   1.00800           0
     21752 MEMB     124      SLPC     H13Y     HAL2     0.900000E-01   1.00800           0
     21753 MEMB     124      SLPC     C314     CTL2    -0.180000       12.0110           0
     21754 MEMB     124      SLPC     H14X     HAL2     0.900000E-01   1.00800           0
     21755 MEMB     124      SLPC     H14Y     HAL2     0.900000E-01   1.00800           0
     21756 MEMB     124      SLPC     C315     CTL2    -0.180000       12.0110           0
     21757 MEMB     124      SLPC     H15X     HAL2     0.900000E-01   1.00800           0
     21758 MEMB     124      SLPC     H15Y     HAL2     0.900000E-01   1.00800           0
     21759 MEMB     124      SLPC     C316     CTL2    -0.180000       12.0110           0
     21760 MEMB     124      SLPC     H16X     HAL2     0.900000E-01   1.00800           0
     21761 MEMB     124      SLPC     H16Y     HAL2     0.900000E-01   1.00800           0
     21762 MEMB     124      SLPC     C317     CTL2    -0.180000       12.0110           0
     21763 MEMB     124      SLPC     H17X     HAL2     0.900000E-01   1.00800           0
     21764 MEMB     124      SLPC     H17Y     HAL2     0.900000E-01   1.00800           0
     21765 MEMB     124      SLPC     C318     CTL3    -0.270000       12.0110           0
     21766 MEMB     124      SLPC     H18X     HAL3     0.900000E-01   1.00800           0
     21767 MEMB     124      SLPC     H18Y     HAL3     0.900000E-01   1.00800           0
     21768 MEMB     124      SLPC     H18Z     HAL3     0.900000E-01   1.00800           0
     21769 MEMB     142      SLPC     N        NTL     -0.600000       14.0070           0
     21770 MEMB     142      SLPC     C13      CTL5    -0.350000       12.0110           0
     21771 MEMB     142      SLPC     H13A     HL       0.250000       1.00800           0
     21772 MEMB     142      SLPC     H13B     HL       0.250000       1.00800           0
     21773 MEMB     142      SLPC     H13C     HL       0.250000       1.00800           0
     21774 MEMB     142      SLPC     C14      CTL5    -0.350000       12.0110           0
     21775 MEMB     142      SLPC     H14A     HL       0.250000       1.00800           0
     21776 MEMB     142      SLPC     H14B     HL       0.250000       1.00800           0
     21777 MEMB     142      SLPC     H14C     HL       0.250000       1.00800           0
     21778 MEMB     142      SLPC     C15      CTL5    -0.350000       12.0110           0
     21779 MEMB     142      SLPC     H15A     HL       0.250000       1.00800           0
     21780 MEMB     142      SLPC     H15B     HL       0.250000       1.00800           0
     21781 MEMB     142      SLPC     H15C     HL       0.250000       1.00800           0
     21782 MEMB     142      SLPC     C12      CTL2    -0.100000       12.0110           0
     21783 MEMB     142      SLPC     H12A     HL       0.250000       1.00800           0
     21784 MEMB     142      SLPC     H12B     HL       0.250000       1.00800           0
     21785 MEMB     142      SLPC     C11      CTL2    -0.800000E-01   12.0110           0
     21786 MEMB     142      SLPC     H11A     HAL2     0.900000E-01   1.00800           0
     21787 MEMB     142      SLPC     H11B     HAL2     0.900000E-01   1.00800           0
     21788 MEMB     142      SLPC     P        PL       1.500000       30.9740           0
     21789 MEMB     142      SLPC     O13      O2L     -0.780000       15.9994           0
     21790 MEMB     142      SLPC     O14      O2L     -0.780000       15.9994           0
     21791 MEMB     142      SLPC     O12      OSLP    -0.570000       15.9994           0
     21792 MEMB     142      SLPC     O11      OSLP    -0.570000       15.9994           0
     21793 MEMB     142      SLPC     C1       CTL2    -0.800000E-01   12.0110           0
     21794 MEMB     142      SLPC     HA       HAL2     0.900000E-01   1.00800           0
     21795 MEMB     142      SLPC     HB       HAL2     0.900000E-01   1.00800           0
     21796 MEMB     142      SLPC     C2       CTL1     0.170000       12.0110           0
     21797 MEMB     142      SLPC     HS       HAL1     0.900000E-01   1.00800           0
     21798 MEMB     142      SLPC     O21      OSL     -0.490000       15.9994           0
     21799 MEMB     142      SLPC     C21      CL       0.900000       12.0110           0
     21800 MEMB     142      SLPC     O22      OBL     -0.630000       15.9994           0
     21801 MEMB     142      SLPC     C22      CTL2    -0.220000       12.0110           0
     21802 MEMB     142      SLPC     H2R      HAL2     0.900000E-01   1.00800           0
     21803 MEMB     142      SLPC     H2S      HAL2     0.900000E-01   1.00800           0
     21804 MEMB     142      SLPC     C3       CTL2     0.800000E-01   12.0110           0
     21805 MEMB     142      SLPC     HX       HAL2     0.900000E-01   1.00800           0
     21806 MEMB     142      SLPC     HY       HAL2     0.900000E-01   1.00800           0
     21807 MEMB     142      SLPC     O31      OSL     -0.490000       15.9994           0
     21808 MEMB     142      SLPC     C31      CL       0.900000       12.0110           0
     21809 MEMB     142      SLPC     O32      OBL     -0.630000       15.9994           0
     21810 MEMB     142      SLPC     C32      CTL2    -0.220000       12.0110           0
     21811 MEMB     142      SLPC     H2X      HAL2     0.900000E-01   1.00800           0
     21812 MEMB     142      SLPC     H2Y      HAL2     0.900000E-01   1.00800           0
     21813 MEMB     142      SLPC     C23      CTL2    -0.180000       12.0110           0
     21814 MEMB     142      SLPC     H3R      HAL2     0.900000E-01   1.00800           0
     21815 MEMB     142      SLPC     H3S      HAL2     0.900000E-01   1.00800           0
     21816 MEMB     142      SLPC     C24      CTL2    -0.180000       12.0110           0
     21817 MEMB     142      SLPC     H4R      HAL2     0.900000E-01   1.00800           0
     21818 MEMB     142      SLPC     H4S      HAL2     0.900000E-01   1.00800           0
     21819 MEMB     142      SLPC     C25      CTL2    -0.180000       12.0110           0
     21820 MEMB     142      SLPC     H5R      HAL2     0.900000E-01   1.00800           0
     21821 MEMB     142      SLPC     H5S      HAL2     0.900000E-01   1.00800           0
     21822 MEMB     142      SLPC     C26      CTL2    -0.180000       12.0110           0
     21823 MEMB     142      SLPC     H6R      HAL2     0.900000E-01   1.00800           0
     21824 MEMB     142      SLPC     H6S      HAL2     0.900000E-01   1.00800           0
     21825 MEMB     142      SLPC     C27      CTL2    -0.180000       12.0110           0
     21826 MEMB     142      SLPC     H7R      HAL2     0.900000E-01   1.00800           0
     21827 MEMB     142      SLPC     H7S      HAL2     0.900000E-01   1.00800           0
     21828 MEMB     142      SLPC     C28      CTL2    -0.180000       12.0110           0
     21829 MEMB     142      SLPC     H8R      HAL2     0.900000E-01   1.00800           0
     21830 MEMB     142      SLPC     H8S      HAL2     0.900000E-01   1.00800           0
     21831 MEMB     142      SLPC     C29      CEL1    -0.150000       12.0110           0
     21832 MEMB     142      SLPC     H9R      HEL1     0.150000       1.00800           0
     21833 MEMB     142      SLPC     C210     CEL1    -0.150000       12.0110           0
     21834 MEMB     142      SLPC     H10R     HEL1     0.150000       1.00800           0
     21835 MEMB     142      SLPC     C211     CTL2    -0.180000       12.0110           0
     21836 MEMB     142      SLPC     H11R     HAL2     0.900000E-01   1.00800           0
     21837 MEMB     142      SLPC     H11S     HAL2     0.900000E-01   1.00800           0
     21838 MEMB     142      SLPC     C212     CEL1    -0.150000       12.0110           0
     21839 MEMB     142      SLPC     H12R     HEL1     0.150000       1.00800           0
     21840 MEMB     142      SLPC     C213     CEL1    -0.150000       12.0110           0
     21841 MEMB     142      SLPC     H13R     HEL1     0.150000       1.00800           0
     21842 MEMB     142      SLPC     C214     CTL2    -0.180000       12.0110           0
     21843 MEMB     142      SLPC     H14R     HAL2     0.900000E-01   1.00800           0
     21844 MEMB     142      SLPC     H14S     HAL2     0.900000E-01   1.00800           0
     21845 MEMB     142      SLPC     C215     CTL2    -0.180000       12.0110           0
     21846 MEMB     142      SLPC     H15R     HAL2     0.900000E-01   1.00800           0
     21847 MEMB     142      SLPC     H15S     HAL2     0.900000E-01   1.00800           0
     21848 MEMB     142      SLPC     C216     CTL2    -0.180000       12.0110           0
     21849 MEMB     142      SLPC     H16R     HAL2     0.900000E-01   1.00800           0
     21850 MEMB     142      SLPC     H16S     HAL2     0.900000E-01   1.00800           0
     21851 MEMB     142      SLPC     C217     CTL2    -0.180000       12.0110           0
     21852 MEMB     142      SLPC     H17R     HAL2     0.900000E-01   1.00800           0
     21853 MEMB     142      SLPC     H17S     HAL2     0.900000E-01   1.00800           0
     21854 MEMB     142      SLPC     C218     CTL3    -0.270000       12.0110           0
     21855 MEMB     142      SLPC     H18R     HAL3     0.900000E-01   1.00800           0
     21856 MEMB     142      SLPC     H18S     HAL3     0.900000E-01   1.00800           0
     21857 MEMB     142      SLPC     H18T     HAL3     0.900000E-01   1.00800           0
     21858 MEMB     142      SLPC     C33      CTL2    -0.180000       12.0110           0
     21859 MEMB     142      SLPC     H3X      HAL2     0.900000E-01   1.00800           0
     21860 MEMB     142      SLPC     H3Y      HAL2     0.900000E-01   1.00800           0
     21861 MEMB     142      SLPC     C34      CTL2    -0.180000       12.0110           0
     21862 MEMB     142      SLPC     H4X      HAL2     0.900000E-01   1.00800           0
     21863 MEMB     142      SLPC     H4Y      HAL2     0.900000E-01   1.00800           0
     21864 MEMB     142      SLPC     C35      CTL2    -0.180000       12.0110           0
     21865 MEMB     142      SLPC     H5X      HAL2     0.900000E-01   1.00800           0
     21866 MEMB     142      SLPC     H5Y      HAL2     0.900000E-01   1.00800           0
     21867 MEMB     142      SLPC     C36      CTL2    -0.180000       12.0110           0
     21868 MEMB     142      SLPC     H6X      HAL2     0.900000E-01   1.00800           0
     21869 MEMB     142      SLPC     H6Y      HAL2     0.900000E-01   1.00800           0
     21870 MEMB     142      SLPC     C37      CTL2    -0.180000       12.0110           0
     21871 MEMB     142      SLPC     H7X      HAL2     0.900000E-01   1.00800           0
     21872 MEMB     142      SLPC     H7Y      HAL2     0.900000E-01   1.00800           0
     21873 MEMB     142      SLPC     C38      CTL2    -0.180000       12.0110           0
     21874 MEMB     142      SLPC     H8X      HAL2     0.900000E-01   1.00800           0
     21875 MEMB     142      SLPC     H8Y      HAL2     0.900000E-01   1.00800           0
     21876 MEMB     142      SLPC     C39      CTL2    -0.180000       12.0110           0
     21877 MEMB     142      SLPC     H9X      HAL2     0.900000E-01   1.00800           0
     21878 MEMB     142      SLPC     H9Y      HAL2     0.900000E-01   1.00800           0
     21879 MEMB     142      SLPC     C310     CTL2    -0.180000       12.0110           0
     21880 MEMB     142      SLPC     H10X     HAL2     0.900000E-01   1.00800           0
     21881 MEMB     142      SLPC     H10Y     HAL2     0.900000E-01   1.00800           0
     21882 MEMB     142      SLPC     C311     CTL2    -0.180000       12.0110           0
     21883 MEMB     142      SLPC     H11X     HAL2     0.900000E-01   1.00800           0
     21884 MEMB     142      SLPC     H11Y     HAL2     0.900000E-01   1.00800           0
     21885 MEMB     142      SLPC     C312     CTL2    -0.180000       12.0110           0
     21886 MEMB     142      SLPC     H12X     HAL2     0.900000E-01   1.00800           0
     21887 MEMB     142      SLPC     H12Y     HAL2     0.900000E-01   1.00800           0
     21888 MEMB     142      SLPC     C313     CTL2    -0.180000       12.0110           0
     21889 MEMB     142      SLPC     H13X     HAL2     0.900000E-01   1.00800           0
     21890 MEMB     142      SLPC     H13Y     HAL2     0.900000E-01   1.00800           0
     21891 MEMB     142      SLPC     C314     CTL2    -0.180000       12.0110           0
     21892 MEMB     142      SLPC     H14X     HAL2     0.900000E-01   1.00800           0
     21893 MEMB     142      SLPC     H14Y     HAL2     0.900000E-01   1.00800           0
     21894 MEMB     142      SLPC     C315     CTL2    -0.180000       12.0110           0
     21895 MEMB     142      SLPC     H15X     HAL2     0.900000E-01   1.00800           0
     21896 MEMB     142      SLPC     H15Y     HAL2     0.900000E-01   1.00800           0
     21897 MEMB     142      SLPC     C316     CTL2    -0.180000       12.0110           0
     21898 MEMB     142      SLPC     H16X     HAL2     0.900000E-01   1.00800           0
     21899 MEMB     142      SLPC     H16Y     HAL2     0.900000E-01   1.00800           0
     21900 MEMB     142      SLPC     C317     CTL2    -0.180000       12.0110           0
     21901 MEMB     142      SLPC     H17X     HAL2     0.900000E-01   1.00800           0
     21902 MEMB     142      SLPC     H17Y     HAL2     0.900000E-01   1.00800           0
     21903 MEMB     142      SLPC     C318     CTL3    -0.270000       12.0110           0
     21904 MEMB     142      SLPC     H18X     HAL3     0.900000E-01   1.00800           0
     21905 MEMB     142      SLPC     H18Y     HAL3     0.900000E-01   1.00800           0
     21906 MEMB     142      SLPC     H18Z     HAL3     0.900000E-01   1.00800           0
     21907 MEMB     164      SLPC     N        NTL     -0.600000       14.0070           0
     21908 MEMB     164      SLPC     C13      CTL5    -0.350000       12.0110           0
     21909 MEMB     164      SLPC     H13A     HL       0.250000       1.00800           0
     21910 MEMB     164      SLPC     H13B     HL       0.250000       1.00800           0
     21911 MEMB     164      SLPC     H13C     HL       0.250000       1.00800           0
     21912 MEMB     164      SLPC     C14      CTL5    -0.350000       12.0110           0
     21913 MEMB     164      SLPC     H14A     HL       0.250000       1.00800           0
     21914 MEMB     164      SLPC     H14B     HL       0.250000       1.00800           0
     21915 MEMB     164      SLPC     H14C     HL       0.250000       1.00800           0
     21916 MEMB     164      SLPC     C15      CTL5    -0.350000       12.0110           0
     21917 MEMB     164      SLPC     H15A     HL       0.250000       1.00800           0
     21918 MEMB     164      SLPC     H15B     HL       0.250000       1.00800           0
     21919 MEMB     164      SLPC     H15C     HL       0.250000       1.00800           0
     21920 MEMB     164      SLPC     C12      CTL2    -0.100000       12.0110           0
     21921 MEMB     164      SLPC     H12A     HL       0.250000       1.00800           0
     21922 MEMB     164      SLPC     H12B     HL       0.250000       1.00800           0
     21923 MEMB     164      SLPC     C11      CTL2    -0.800000E-01   12.0110           0
     21924 MEMB     164      SLPC     H11A     HAL2     0.900000E-01   1.00800           0
     21925 MEMB     164      SLPC     H11B     HAL2     0.900000E-01   1.00800           0
     21926 MEMB     164      SLPC     P        PL       1.500000       30.9740           0
     21927 MEMB     164      SLPC     O13      O2L     -0.780000       15.9994           0
     21928 MEMB     164      SLPC     O14      O2L     -0.780000       15.9994           0
     21929 MEMB     164      SLPC     O12      OSLP    -0.570000       15.9994           0
     21930 MEMB     164      SLPC     O11      OSLP    -0.570000       15.9994           0
     21931 MEMB     164      SLPC     C1       CTL2    -0.800000E-01   12.0110           0
     21932 MEMB     164      SLPC     HA       HAL2     0.900000E-01   1.00800           0
     21933 MEMB     164      SLPC     HB       HAL2     0.900000E-01   1.00800           0
     21934 MEMB     164      SLPC     C2       CTL1     0.170000       12.0110           0
     21935 MEMB     164      SLPC     HS       HAL1     0.900000E-01   1.00800           0
     21936 MEMB     164      SLPC     O21      OSL     -0.490000       15.9994           0
     21937 MEMB     164      SLPC     C21      CL       0.900000       12.0110           0
     21938 MEMB     164      SLPC     O22      OBL     -0.630000       15.9994           0
     21939 MEMB     164      SLPC     C22      CTL2    -0.220000       12.0110           0
     21940 MEMB     164      SLPC     H2R      HAL2     0.900000E-01   1.00800           0
     21941 MEMB     164      SLPC     H2S      HAL2     0.900000E-01   1.00800           0
     21942 MEMB     164      SLPC     C3       CTL2     0.800000E-01   12.0110           0
     21943 MEMB     164      SLPC     HX       HAL2     0.900000E-01   1.00800           0
     21944 MEMB     164      SLPC     HY       HAL2     0.900000E-01   1.00800           0
     21945 MEMB     164      SLPC     O31      OSL     -0.490000       15.9994           0
     21946 MEMB     164      SLPC     C31      CL       0.900000       12.0110           0
     21947 MEMB     164      SLPC     O32      OBL     -0.630000       15.9994           0
     21948 MEMB     164      SLPC     C32      CTL2    -0.220000       12.0110           0
     21949 MEMB     164      SLPC     H2X      HAL2     0.900000E-01   1.00800           0
     21950 MEMB     164      SLPC     H2Y      HAL2     0.900000E-01   1.00800           0
     21951 MEMB     164      SLPC     C23      CTL2    -0.180000       12.0110           0
     21952 MEMB     164      SLPC     H3R      HAL2     0.900000E-01   1.00800           0
     21953 MEMB     164      SLPC     H3S      HAL2     0.900000E-01   1.00800           0
     21954 MEMB     164      SLPC     C24      CTL2    -0.180000       12.0110           0
     21955 MEMB     164      SLPC     H4R      HAL2     0.900000E-01   1.00800           0
     21956 MEMB     164      SLPC     H4S      HAL2     0.900000E-01   1.00800           0
     21957 MEMB     164      SLPC     C25      CTL2    -0.180000       12.0110           0
     21958 MEMB     164      SLPC     H5R      HAL2     0.900000E-01   1.00800           0
     21959 MEMB     164      SLPC     H5S      HAL2     0.900000E-01   1.00800           0
     21960 MEMB     164      SLPC     C26      CTL2    -0.180000       12.0110           0
     21961 MEMB     164      SLPC     H6R      HAL2     0.900000E-01   1.00800           0
     21962 MEMB     164      SLPC     H6S      HAL2     0.900000E-01   1.00800           0
     21963 MEMB     164      SLPC     C27      CTL2    -0.180000       12.0110           0
     21964 MEMB     164      SLPC     H7R      HAL2     0.900000E-01   1.00800           0
     21965 MEMB     164      SLPC     H7S      HAL2     0.900000E-01   1.00800           0
     21966 MEMB     164      SLPC     C28      CTL2    -0.180000       12.0110           0
     21967 MEMB     164      SLPC     H8R      HAL2     0.900000E-01   1.00800           0
     21968 MEMB     164      SLPC     H8S      HAL2     0.900000E-01   1.00800           0
     21969 MEMB     164      SLPC     C29      CEL1    -0.150000       12.0110           0
     21970 MEMB     164      SLPC     H9R      HEL1     0.150000       1.00800           0
     21971 MEMB     164      SLPC     C210     CEL1    -0.150000       12.0110           0
     21972 MEMB     164      SLPC     H10R     HEL1     0.150000       1.00800           0
     21973 MEMB     164      SLPC     C211     CTL2    -0.180000       12.0110           0
     21974 MEMB     164      SLPC     H11R     HAL2     0.900000E-01   1.00800           0
     21975 MEMB     164      SLPC     H11S     HAL2     0.900000E-01   1.00800           0
     21976 MEMB     164      SLPC     C212     CEL1    -0.150000       12.0110           0
     21977 MEMB     164      SLPC     H12R     HEL1     0.150000       1.00800           0
     21978 MEMB     164      SLPC     C213     CEL1    -0.150000       12.0110           0
     21979 MEMB     164      SLPC     H13R     HEL1     0.150000       1.00800           0
     21980 MEMB     164      SLPC     C214     CTL2    -0.180000       12.0110           0
     21981 MEMB     164      SLPC     H14R     HAL2     0.900000E-01   1.00800           0
     21982 MEMB     164      SLPC     H14S     HAL2     0.900000E-01   1.00800           0
     21983 MEMB     164      SLPC     C215     CTL2    -0.180000       12.0110           0
     21984 MEMB     164      SLPC     H15R     HAL2     0.900000E-01   1.00800           0
     21985 MEMB     164      SLPC     H15S     HAL2     0.900000E-01   1.00800           0
     21986 MEMB     164      SLPC     C216     CTL2    -0.180000       12.0110           0
     21987 MEMB     164      SLPC     H16R     HAL2     0.900000E-01   1.00800           0
     21988 MEMB     164      SLPC     H16S     HAL2     0.900000E-01   1.00800           0
     21989 MEMB     164      SLPC     C217     CTL2    -0.180000       12.0110           0
     21990 MEMB     164      SLPC     H17R     HAL2     0.900000E-01   1.00800           0
     21991 MEMB     164      SLPC     H17S     HAL2     0.900000E-01   1.00800           0
     21992 MEMB     164      SLPC     C218     CTL3    -0.270000       12.0110           0
     21993 MEMB     164      SLPC     H18R     HAL3     0.900000E-01   1.00800           0
     21994 MEMB     164      SLPC     H18S     HAL3     0.900000E-01   1.00800           0
     21995 MEMB     164      SLPC     H18T     HAL3     0.900000E-01   1.00800           0
     21996 MEMB     164      SLPC     C33      CTL2    -0.180000       12.0110           0
     21997 MEMB     164      SLPC     H3X      HAL2     0.900000E-01   1.00800           0
     21998 MEMB     164      SLPC     H3Y      HAL2     0.900000E-01   1.00800           0
     21999 MEMB     164      SLPC     C34      CTL2    -0.180000       12.0110           0
     22000 MEMB     164      SLPC     H4X      HAL2     0.900000E-01   1.00800           0
     22001 MEMB     164      SLPC     H4Y      HAL2     0.900000E-01   1.00800           0
     22002 MEMB     164      SLPC     C35      CTL2    -0.180000       12.0110           0
     22003 MEMB     164      SLPC     H5X      HAL2     0.900000E-01   1.00800           0
     22004 MEMB     164      SLPC     H5Y      HAL2     0.900000E-01   1.00800           0
     22005 MEMB     164      SLPC     C36      CTL2    -0.180000       12.0110           0
     22006 MEMB     164      SLPC     H6X      HAL2     0.900000E-01   1.00800           0
     22007 MEMB     164      SLPC     H6Y      HAL2     0.900000E-01   1.00800           0
     22008 MEMB     164      SLPC     C37      CTL2    -0.180000       12.0110           0
     22009 MEMB     164      SLPC     H7X      HAL2     0.900000E-01   1.00800           0
     22010 MEMB     164      SLPC     H7Y      HAL2     0.900000E-01   1.00800           0
     22011 MEMB     164      SLPC     C38      CTL2    -0.180000       12.0110           0
     22012 MEMB     164      SLPC     H8X      HAL2     0.900000E-01   1.00800           0
     22013 MEMB     164      SLPC     H8Y      HAL2     0.900000E-01   1.00800           0
     22014 MEMB     164      SLPC     C39      CTL2    -0.180000       12.0110           0
     22015 MEMB     164      SLPC     H9X      HAL2     0.900000E-01   1.00800           0
     22016 MEMB     164      SLPC     H9Y      HAL2     0.900000E-01   1.00800           0
     22017 MEMB     164      SLPC     C310     CTL2    -0.180000       12.0110           0
     22018 MEMB     164      SLPC     H10X     HAL2     0.900000E-01   1.00800           0
     22019 MEMB     164      SLPC     H10Y     HAL2     0.900000E-01   1.00800           0
     22020 MEMB     164      SLPC     C311     CTL2    -0.180000       12.0110           0
     22021 MEMB     164      SLPC     H11X     HAL2     0.900000E-01   1.00800           0
     22022 MEMB     164      SLPC     H11Y     HAL2     0.900000E-01   1.00800           0
     22023 MEMB     164      SLPC     C312     CTL2    -0.180000       12.0110           0
     22024 MEMB     164      SLPC     H12X     HAL2     0.900000E-01   1.00800           0
     22025 MEMB     164      SLPC     H12Y     HAL2     0.900000E-01   1.00800           0
     22026 MEMB     164      SLPC     C313     CTL2    -0.180000       12.0110           0
     22027 MEMB     164      SLPC     H13X     HAL2     0.900000E-01   1.00800           0
     22028 MEMB     164      SLPC     H13Y     HAL2     0.900000E-01   1.00800           0
     22029 MEMB     164      SLPC     C314     CTL2    -0.180000       12.0110           0
     22030 MEMB     164      SLPC     H14X     HAL2     0.900000E-01   1.00800           0
     22031 MEMB     164      SLPC     H14Y     HAL2     0.900000E-01   1.00800           0
     22032 MEMB     164      SLPC     C315     CTL2    -0.180000       12.0110           0
     22033 MEMB     164      SLPC     H15X     HAL2     0.900000E-01   1.00800           0
     22034 MEMB     164      SLPC     H15Y     HAL2     0.900000E-01   1.00800           0
     22035 MEMB     164      SLPC     C316     CTL2    -0.180000       12.0110           0
     22036 MEMB     164      SLPC     H16X     HAL2     0.900000E-01   1.00800           0
     22037 MEMB     164      SLPC     H16Y     HAL2     0.900000E-01   1.00800           0
     22038 MEMB     164      SLPC     C317     CTL2    -0.180000       12.0110           0
     22039 MEMB     164      SLPC     H17X     HAL2     0.900000E-01   1.00800           0
     22040 MEMB     164      SLPC     H17Y     HAL2     0.900000E-01   1.00800           0
     22041 MEMB     164      SLPC     C318     CTL3    -0.270000       12.0110           0
     22042 MEMB     164      SLPC     H18X     HAL3     0.900000E-01   1.00800           0
     22043 MEMB     164      SLPC     H18Y     HAL3     0.900000E-01   1.00800           0
     22044 MEMB     164      SLPC     H18Z     HAL3     0.900000E-01   1.00800           0
     22045 MEMB     185      SLPC     N        NTL     -0.600000       14.0070           0
     22046 MEMB     185      SLPC     C13      CTL5    -0.350000       12.0110           0
     22047 MEMB     185      SLPC     H13A     HL       0.250000       1.00800           0
     22048 MEMB     185      SLPC     H13B     HL       0.250000       1.00800           0
     22049 MEMB     185      SLPC     H13C     HL       0.250000       1.00800           0
     22050 MEMB     185      SLPC     C14      CTL5    -0.350000       12.0110           0
     22051 MEMB     185      SLPC     H14A     HL       0.250000       1.00800           0
     22052 MEMB     185      SLPC     H14B     HL       0.250000       1.00800           0
     22053 MEMB     185      SLPC     H14C     HL       0.250000       1.00800           0
     22054 MEMB     185      SLPC     C15      CTL5    -0.350000       12.0110           0
     22055 MEMB     185      SLPC     H15A     HL       0.250000       1.00800           0
     22056 MEMB     185      SLPC     H15B     HL       0.250000       1.00800           0
     22057 MEMB     185      SLPC     H15C     HL       0.250000       1.00800           0
     22058 MEMB     185      SLPC     C12      CTL2    -0.100000       12.0110           0
     22059 MEMB     185      SLPC     H12A     HL       0.250000       1.00800           0
     22060 MEMB     185      SLPC     H12B     HL       0.250000       1.00800           0
     22061 MEMB     185      SLPC     C11      CTL2    -0.800000E-01   12.0110           0
     22062 MEMB     185      SLPC     H11A     HAL2     0.900000E-01   1.00800           0
     22063 MEMB     185      SLPC     H11B     HAL2     0.900000E-01   1.00800           0
     22064 MEMB     185      SLPC     P        PL       1.500000       30.9740           0
     22065 MEMB     185      SLPC     O13      O2L     -0.780000       15.9994           0
     22066 MEMB     185      SLPC     O14      O2L     -0.780000       15.9994           0
     22067 MEMB     185      SLPC     O12      OSLP    -0.570000       15.9994           0
     22068 MEMB     185      SLPC     O11      OSLP    -0.570000       15.9994           0
     22069 MEMB     185      SLPC     C1       CTL2    -0.800000E-01   12.0110           0
     22070 MEMB     185      SLPC     HA       HAL2     0.900000E-01   1.00800           0
     22071 MEMB     185      SLPC     HB       HAL2     0.900000E-01   1.00800           0
     22072 MEMB     185      SLPC     C2       CTL1     0.170000       12.0110           0
     22073 MEMB     185      SLPC     HS       HAL1     0.900000E-01   1.00800           0
     22074 MEMB     185      SLPC     O21      OSL     -0.490000       15.9994           0
     22075 MEMB     185      SLPC     C21      CL       0.900000       12.0110           0
     22076 MEMB     185      SLPC     O22      OBL     -0.630000       15.9994           0
     22077 MEMB     185      SLPC     C22      CTL2    -0.220000       12.0110           0
     22078 MEMB     185      SLPC     H2R      HAL2     0.900000E-01   1.00800           0
     22079 MEMB     185      SLPC     H2S      HAL2     0.900000E-01   1.00800           0
     22080 MEMB     185      SLPC     C3       CTL2     0.800000E-01   12.0110           0
     22081 MEMB     185      SLPC     HX       HAL2     0.900000E-01   1.00800           0
     22082 MEMB     185      SLPC     HY       HAL2     0.900000E-01   1.00800           0
     22083 MEMB     185      SLPC     O31      OSL     -0.490000       15.9994           0
     22084 MEMB     185      SLPC     C31      CL       0.900000       12.0110           0
     22085 MEMB     185      SLPC     O32      OBL     -0.630000       15.9994           0
     22086 MEMB     185      SLPC     C32      CTL2    -0.220000       12.0110           0
     22087 MEMB     185      SLPC     H2X      HAL2     0.900000E-01   1.00800           0
     22088 MEMB     185      SLPC     H2Y      HAL2     0.900000E-01   1.00800           0
     22089 MEMB     185      SLPC     C23      CTL2    -0.180000       12.0110           0
     22090 MEMB     185      SLPC     H3R      HAL2     0.900000E-01   1.00800           0
     22091 MEMB     185      SLPC     H3S      HAL2     0.900000E-01   1.00800           0
     22092 MEMB     185      SLPC     C24      CTL2    -0.180000       12.0110           0
     22093 MEMB     185      SLPC     H4R      HAL2     0.900000E-01   1.00800           0
     22094 MEMB     185      SLPC     H4S      HAL2     0.900000E-01   1.00800           0
     22095 MEMB     185      SLPC     C25      CTL2    -0.180000       12.0110           0
     22096 MEMB     185      SLPC     H5R      HAL2     0.900000E-01   1.00800           0
     22097 MEMB     185      SLPC     H5S      HAL2     0.900000E-01   1.00800           0
     22098 MEMB     185      SLPC     C26      CTL2    -0.180000       12.0110           0
     22099 MEMB     185      SLPC     H6R      HAL2     0.900000E-01   1.00800           0
     22100 MEMB     185      SLPC     H6S      HAL2     0.900000E-01   1.00800           0
     22101 MEMB     185      SLPC     C27      CTL2    -0.180000       12.0110           0
     22102 MEMB     185      SLPC     H7R      HAL2     0.900000E-01   1.00800           0
     22103 MEMB     185      SLPC     H7S      HAL2     0.900000E-01   1.00800           0
     22104 MEMB     185      SLPC     C28      CTL2    -0.180000       12.0110           0
     22105 MEMB     185      SLPC     H8R      HAL2     0.900000E-01   1.00800           0
     22106 MEMB     185      SLPC     H8S      HAL2     0.900000E-01   1.00800           0
     22107 MEMB     185      SLPC     C29      CEL1    -0.150000       12.0110           0
     22108 MEMB     185      SLPC     H9R      HEL1     0.150000       1.00800           0
     22109 MEMB     185      SLPC     C210     CEL1    -0.150000       12.0110           0
     22110 MEMB     185      SLPC     H10R     HEL1     0.150000       1.00800           0
     22111 MEMB     185      SLPC     C211     CTL2    -0.180000       12.0110           0
     22112 MEMB     185      SLPC     H11R     HAL2     0.900000E-01   1.00800           0
     22113 MEMB     185      SLPC     H11S     HAL2     0.900000E-01   1.00800           0
     22114 MEMB     185      SLPC     C212     CEL1    -0.150000       12.0110           0
     22115 MEMB     185      SLPC     H12R     HEL1     0.150000       1.00800           0
     22116 MEMB     185      SLPC     C213     CEL1    -0.150000       12.0110           0
     22117 MEMB     185      SLPC     H13R     HEL1     0.150000       1.00800           0
     22118 MEMB     185      SLPC     C214     CTL2    -0.180000       12.0110           0
     22119 MEMB     185      SLPC     H14R     HAL2     0.900000E-01   1.00800           0
     22120 MEMB     185      SLPC     H14S     HAL2     0.900000E-01   1.00800           0
     22121 MEMB     185      SLPC     C215     CTL2    -0.180000       12.0110           0
     22122 MEMB     185      SLPC     H15R     HAL2     0.900000E-01   1.00800           0
     22123 MEMB     185      SLPC     H15S     HAL2     0.900000E-01   1.00800           0
     22124 MEMB     185      SLPC     C216     CTL2    -0.180000       12.0110           0
     22125 MEMB     185      SLPC     H16R     HAL2     0.900000E-01   1.00800           0
     22126 MEMB     185      SLPC     H16S     HAL2     0.900000E-01   1.00800           0
     22127 MEMB     185      SLPC     C217     CTL2    -0.180000       12.0110           0
     22128 MEMB     185      SLPC     H17R     HAL2     0.900000E-01   1.00800           0
     22129 MEMB     185      SLPC     H17S     HAL2     0.900000E-01   1.00800           0
     22130 MEMB     185      SLPC     C218     CTL3    -0.270000       12.0110           0
     22131 MEMB     185      SLPC     H18R     HAL3     0.900000E-01   1.00800           0
     22132 MEMB     185      SLPC     H18S     HAL3     0.900000E-01   1.00800           0
     22133 MEMB     185      SLPC     H18T     HAL3     0.900000E-01   1.00800           0
     22134 MEMB     185      SLPC     C33      CTL2    -0.180000       12.0110           0
     22135 MEMB     185      SLPC     H3X      HAL2     0.900000E-01   1.00800           0
     22136 MEMB     185      SLPC     H3Y      HAL2     0.900000E-01   1.00800           0
     22137 MEMB     185      SLPC     C34      CTL2    -0.180000       12.0110           0
     22138 MEMB     185      SLPC     H4X      HAL2     0.900000E-01   1.00800           0
     22139 MEMB     185      SLPC     H4Y      HAL2     0.900000E-01   1.00800           0
     22140 MEMB     185      SLPC     C35      CTL2    -0.180000       12.0110           0
     22141 MEMB     185      SLPC     H5X      HAL2     0.900000E-01   1.00800           0
     22142 MEMB     185      SLPC     H5Y      HAL2     0.900000E-01   1.00800           0
     22143 MEMB     185      SLPC     C36      CTL2    -0.180000       12.0110           0
     22144 MEMB     185      SLPC     H6X      HAL2     0.900000E-01   1.00800           0
     22145 MEMB     185      SLPC     H6Y      HAL2     0.900000E-01   1.00800           0
     22146 MEMB     185      SLPC     C37      CTL2    -0.180000       12.0110           0
     22147 MEMB     185      SLPC     H7X      HAL2     0.900000E-01   1.00800           0
     22148 MEMB     185      SLPC     H7Y      HAL2     0.900000E-01   1.00800           0
     22149 MEMB     185      SLPC     C38      CTL2    -0.180000       12.0110           0
     22150 MEMB     185      SLPC     H8X      HAL2     0.900000E-01   1.00800           0
     22151 MEMB     185      SLPC     H8Y      HAL2     0.900000E-01   1.00800           0
     22152 MEMB     185      SLPC     C39      CTL2    -0.180000       12.0110           0
     22153 MEMB     185      SLPC     H9X      HAL2     0.900000E-01   1.00800           0
     22154 MEMB     185      SLPC     H9Y      HAL2     0.900000E-01   1.00800           0
     22155 MEMB     185      SLPC     C310     CTL2    -0.180000       12.0110           0
     22156 MEMB     185      SLPC     H10X     HAL2     0.900000E-01   1.00800           0
     22157 MEMB     185      SLPC     H10Y     HAL2     0.900000E-01   1.00800           0
     22158 MEMB     185      SLPC     C311     CTL2    -0.180000       12.0110           0
     22159 MEMB     185      SLPC     H11X     HAL2     0.900000E-01   1.00800           0
     22160 MEMB     185      SLPC     H11Y     HAL2     0.900000E-01   1.00800           0
     22161 MEMB     185      SLPC     C312     CTL2    -0.180000       12.0110           0
     22162 MEMB     185      SLPC     H12X     HAL2     0.900000E-01   1.00800           0
     22163 MEMB     185      SLPC     H12Y     HAL2     0.900000E-01   1.00800           0
     22164 MEMB     185      SLPC     C313     CTL2    -0.180000       12.0110           0
     22165 MEMB     185      SLPC     H13X     HAL2     0.900000E-01   1.00800           0
     22166 MEMB     185      SLPC     H13Y     HAL2     0.900000E-01   1.00800           0
     22167 MEMB     185      SLPC     C314     CTL2    -0.180000       12.0110           0
     22168 MEMB     185      SLPC     H14X     HAL2     0.900000E-01   1.00800           0
     22169 MEMB     185      SLPC     H14Y     HAL2     0.900000E-01   1.00800           0
     22170 MEMB     185      SLPC     C315     CTL2    -0.180000       12.0110           0
     22171 MEMB     185      SLPC     H15X     HAL2     0.900000E-01   1.00800           0
     22172 MEMB     185      SLPC     H15Y     HAL2     0.900000E-01   1.00800           0
     22173 MEMB     185      SLPC     C316     CTL2    -0.180000       12.0110           0
     22174 MEMB     185      SLPC     H16X     HAL2     0.900000E-01   1.00800           0
     22175 MEMB     185      SLPC     H16Y     HAL2     0.900000E-01   1.00800           0
     22176 MEMB     185      SLPC     C317     CTL2    -0.180000       12.0110           0
     22177 MEMB     185      SLPC     H17X     HAL2     0.900000E-01   1.00800           0
     22178 MEMB     185      SLPC     H17Y     HAL2     0.900000E-01   1.00800           0
     22179 MEMB     185      SLPC     C318     CTL3    -0.270000       12.0110           0
     22180 MEMB     185      SLPC     H18X     HAL3     0.900000E-01   1.00800           0
     22181 MEMB     185      SLPC     H18Y     HAL3     0.900000E-01   1.00800           0
     22182 MEMB     185      SLPC     H18Z     HAL3     0.900000E-01   1.00800           0
     22183 MEMB     191      SLPC     N        NTL     -0.600000       14.0070           0
     22184 MEMB     191      SLPC     C13      CTL5    -0.350000       12.0110           0
     22185 MEMB     191      SLPC     H13A     HL       0.250000       1.00800           0
     22186 MEMB     191      SLPC     H13B     HL       0.250000       1.00800           0
     22187 MEMB     191      SLPC     H13C     HL       0.250000       1.00800           0
     22188 MEMB     191      SLPC     C14      CTL5    -0.350000       12.0110           0
     22189 MEMB     191      SLPC     H14A     HL       0.250000       1.00800           0
     22190 MEMB     191      SLPC     H14B     HL       0.250000       1.00800           0
     22191 MEMB     191      SLPC     H14C     HL       0.250000       1.00800           0
     22192 MEMB     191      SLPC     C15      CTL5    -0.350000       12.0110           0
     22193 MEMB     191      SLPC     H15A     HL       0.250000       1.00800           0
     22194 MEMB     191      SLPC     H15B     HL       0.250000       1.00800           0
     22195 MEMB     191      SLPC     H15C     HL       0.250000       1.00800           0
     22196 MEMB     191      SLPC     C12      CTL2    -0.100000       12.0110           0
     22197 MEMB     191      SLPC     H12A     HL       0.250000       1.00800           0
     22198 MEMB     191      SLPC     H12B     HL       0.250000       1.00800           0
     22199 MEMB     191      SLPC     C11      CTL2    -0.800000E-01   12.0110           0
     22200 MEMB     191      SLPC     H11A     HAL2     0.900000E-01   1.00800           0
     22201 MEMB     191      SLPC     H11B     HAL2     0.900000E-01   1.00800           0
     22202 MEMB     191      SLPC     P        PL       1.500000       30.9740           0
     22203 MEMB     191      SLPC     O13      O2L     -0.780000       15.9994           0
     22204 MEMB     191      SLPC     O14      O2L     -0.780000       15.9994           0
     22205 MEMB     191      SLPC     O12      OSLP    -0.570000       15.9994           0
     22206 MEMB     191      SLPC     O11      OSLP    -0.570000       15.9994           0
     22207 MEMB     191      SLPC     C1       CTL2    -0.800000E-01   12.0110           0
     22208 MEMB     191      SLPC     HA       HAL2     0.900000E-01   1.00800           0
     22209 MEMB     191      SLPC     HB       HAL2     0.900000E-01   1.00800           0
     22210 MEMB     191      SLPC     C2       CTL1     0.170000       12.0110           0
     22211 MEMB     191      SLPC     HS       HAL1     0.900000E-01   1.00800           0
     22212 MEMB     191      SLPC     O21      OSL     -0.490000       15.9994           0
     22213 MEMB     191      SLPC     C21      CL       0.900000       12.0110           0
     22214 MEMB     191      SLPC     O22      OBL     -0.630000       15.9994           0
     22215 MEMB     191      SLPC     C22      CTL2    -0.220000       12.0110           0
     22216 MEMB     191      SLPC     H2R      HAL2     0.900000E-01   1.00800           0
     22217 MEMB     191      SLPC     H2S      HAL2     0.900000E-01   1.00800           0
     22218 MEMB     191      SLPC     C3       CTL2     0.800000E-01   12.0110           0
     22219 MEMB     191      SLPC     HX       HAL2     0.900000E-01   1.00800           0
     22220 MEMB     191      SLPC     HY       HAL2     0.900000E-01   1.00800           0
     22221 MEMB     191      SLPC     O31      OSL     -0.490000       15.9994           0
     22222 MEMB     191      SLPC     C31      CL       0.900000       12.0110           0
     22223 MEMB     191      SLPC     O32      OBL     -0.630000       15.9994           0
     22224 MEMB     191      SLPC     C32      CTL2    -0.220000       12.0110           0
     22225 MEMB     191      SLPC     H2X      HAL2     0.900000E-01   1.00800           0
     22226 MEMB     191      SLPC     H2Y      HAL2     0.900000E-01   1.00800           0
     22227 MEMB     191      SLPC     C23      CTL2    -0.180000       12.0110           0
     22228 MEMB     191      SLPC     H3R      HAL2     0.900000E-01   1.00800           0
     22229 MEMB     191      SLPC     H3S      HAL2     0.900000E-01   1.00800           0
     22230 MEMB     191      SLPC     C24      CTL2    -0.180000       12.0110           0
     22231 MEMB     191      SLPC     H4R      HAL2     0.900000E-01   1.00800           0
     22232 MEMB     191      SLPC     H4S      HAL2     0.900000E-01   1.00800           0
     22233 MEMB     191      SLPC     C25      CTL2    -0.180000       12.0110           0
     22234 MEMB     191      SLPC     H5R      HAL2     0.900000E-01   1.00800           0
     22235 MEMB     191      SLPC     H5S      HAL2     0.900000E-01   1.00800           0
     22236 MEMB     191      SLPC     C26      CTL2    -0.180000       12.0110           0
     22237 MEMB     191      SLPC     H6R      HAL2     0.900000E-01   1.00800           0
     22238 MEMB     191      SLPC     H6S      HAL2     0.900000E-01   1.00800           0
     22239 MEMB     191      SLPC     C27      CTL2    -0.180000       12.0110           0
     22240 MEMB     191      SLPC     H7R      HAL2     0.900000E-01   1.00800           0
     22241 MEMB     191      SLPC     H7S      HAL2     0.900000E-01   1.00800           0
     22242 MEMB     191      SLPC     C28      CTL2    -0.180000       12.0110           0
     22243 MEMB     191      SLPC     H8R      HAL2     0.900000E-01   1.00800           0
     22244 MEMB     191      SLPC     H8S      HAL2     0.900000E-01   1.00800           0
     22245 MEMB     191      SLPC     C29      CEL1    -0.150000       12.0110           0
     22246 MEMB     191      SLPC     H9R      HEL1     0.150000       1.00800           0
     22247 MEMB     191      SLPC     C210     CEL1    -0.150000       12.0110           0
     22248 MEMB     191      SLPC     H10R     HEL1     0.150000       1.00800           0
     22249 MEMB     191      SLPC     C211     CTL2    -0.180000       12.0110           0
     22250 MEMB     191      SLPC     H11R     HAL2     0.900000E-01   1.00800           0
     22251 MEMB     191      SLPC     H11S     HAL2     0.900000E-01   1.00800           0
     22252 MEMB     191      SLPC     C212     CEL1    -0.150000       12.0110           0
     22253 MEMB     191      SLPC     H12R     HEL1     0.150000       1.00800           0
     22254 MEMB     191      SLPC     C213     CEL1    -0.150000       12.0110           0
     22255 MEMB     191      SLPC     H13R     HEL1     0.150000       1.00800           0
     22256 MEMB     191      SLPC     C214     CTL2    -0.180000       12.0110           0
     22257 MEMB     191      SLPC     H14R     HAL2     0.900000E-01   1.00800           0
     22258 MEMB     191      SLPC     H14S     HAL2     0.900000E-01   1.00800           0
     22259 MEMB     191      SLPC     C215     CTL2    -0.180000       12.0110           0
     22260 MEMB     191      SLPC     H15R     HAL2     0.900000E-01   1.00800           0
     22261 MEMB     191      SLPC     H15S     HAL2     0.900000E-01   1.00800           0
     22262 MEMB     191      SLPC     C216     CTL2    -0.180000       12.0110           0
     22263 MEMB     191      SLPC     H16R     HAL2     0.900000E-01   1.00800           0
     22264 MEMB     191      SLPC     H16S     HAL2     0.900000E-01   1.00800           0
     22265 MEMB     191      SLPC     C217     CTL2    -0.180000       12.0110           0
     22266 MEMB     191      SLPC     H17R     HAL2     0.900000E-01   1.00800           0
     22267 MEMB     191      SLPC     H17S     HAL2     0.900000E-01   1.00800           0
     22268 MEMB     191      SLPC     C218     CTL3    -0.270000       12.0110           0
     22269 MEMB     191      SLPC     H18R     HAL3     0.900000E-01   1.00800           0
     22270 MEMB     191      SLPC     H18S     HAL3     0.900000E-01   1.00800           0
     22271 MEMB     191      SLPC     H18T     HAL3     0.900000E-01   1.00800           0
     22272 MEMB     191      SLPC     C33      CTL2    -0.180000       12.0110           0
     22273 MEMB     191      SLPC     H3X      HAL2     0.900000E-01   1.00800           0
     22274 MEMB     191      SLPC     H3Y      HAL2     0.900000E-01   1.00800           0
     22275 MEMB     191      SLPC     C34      CTL2    -0.180000       12.0110           0
     22276 MEMB     191      SLPC     H4X      HAL2     0.900000E-01   1.00800           0
     22277 MEMB     191      SLPC     H4Y      HAL2     0.900000E-01   1.00800           0
     22278 MEMB     191      SLPC     C35      CTL2    -0.180000       12.0110           0
     22279 MEMB     191      SLPC     H5X      HAL2     0.900000E-01   1.00800           0
     22280 MEMB     191      SLPC     H5Y      HAL2     0.900000E-01   1.00800           0
     22281 MEMB     191      SLPC     C36      CTL2    -0.180000       12.0110           0
     22282 MEMB     191      SLPC     H6X      HAL2     0.900000E-01   1.00800           0
     22283 MEMB     191      SLPC     H6Y      HAL2     0.900000E-01   1.00800           0
     22284 MEMB     191      SLPC     C37      CTL2    -0.180000       12.0110           0
     22285 MEMB     191      SLPC     H7X      HAL2     0.900000E-01   1.00800           0
     22286 MEMB     191      SLPC     H7Y      HAL2     0.900000E-01   1.00800           0
     22287 MEMB     191      SLPC     C38      CTL2    -0.180000       12.0110           0
     22288 MEMB     191      SLPC     H8X      HAL2     0.900000E-01   1.00800           0
     22289 MEMB     191      SLPC     H8Y      HAL2     0.900000E-01   1.00800           0
     22290 MEMB     191      SLPC     C39      CTL2    -0.180000       12.0110           0
     22291 MEMB     191      SLPC     H9X      HAL2     0.900000E-01   1.00800           0
     22292 MEMB     191      SLPC     H9Y      HAL2     0.900000E-01   1.00800           0
     22293 MEMB     191      SLPC     C310     CTL2    -0.180000       12.0110           0
     22294 MEMB     191      SLPC     H10X     HAL2     0.900000E-01   1.00800           0
     22295 MEMB     191      SLPC     H10Y     HAL2     0.900000E-01   1.00800           0
     22296 MEMB     191      SLPC     C311     CTL2    -0.180000       12.0110           0
     22297 MEMB     191      SLPC     H11X     HAL2     0.900000E-01   1.00800           0
     22298 MEMB     191      SLPC     H11Y     HAL2     0.900000E-01   1.00800           0
     22299 MEMB     191      SLPC     C312     CTL2    -0.180000       12.0110           0
     22300 MEMB     191      SLPC     H12X     HAL2     0.900000E-01   1.00800           0
     22301 MEMB     191      SLPC     H12Y     HAL2     0.900000E-01   1.00800           0
     22302 MEMB     191      SLPC     C313     CTL2    -0.180000       12.0110           0
     22303 MEMB     191      SLPC     H13X     HAL2     0.900000E-01   1.00800           0
     22304 MEMB     191      SLPC     H13Y     HAL2     0.900000E-01   1.00800           0
     22305 MEMB     191      SLPC     C314     CTL2    -0.180000       12.0110           0
     22306 MEMB     191      SLPC     H14X     HAL2     0.900000E-01   1.00800           0
     22307 MEMB     191      SLPC     H14Y     HAL2     0.900000E-01   1.00800           0
     22308 MEMB     191      SLPC     C315     CTL2    -0.180000       12.0110           0
     22309 MEMB     191      SLPC     H15X     HAL2     0.900000E-01   1.00800           0
     22310 MEMB     191      SLPC     H15Y     HAL2     0.900000E-01   1.00800           0
     22311 MEMB     191      SLPC     C316     CTL2    -0.180000       12.0110           0
     22312 MEMB     191      SLPC     H16X     HAL2     0.900000E-01   1.00800           0
     22313 MEMB     191      SLPC     H16Y     HAL2     0.900000E-01   1.00800           0
     22314 MEMB     191      SLPC     C317     CTL2    -0.180000       12.0110           0
     22315 MEMB     191      SLPC     H17X     HAL2     0.900000E-01   1.00800           0
     22316 MEMB     191      SLPC     H17Y     HAL2     0.900000E-01   1.00800           0
     22317 MEMB     191      SLPC     C318     CTL3    -0.270000       12.0110           0
     22318 MEMB     191      SLPC     H18X     HAL3     0.900000E-01   1.00800           0
     22319 MEMB     191      SLPC     H18Y     HAL3     0.900000E-01   1.00800           0
     22320 MEMB     191      SLPC     H18Z     HAL3     0.900000E-01   1.00800           0
     22321 IONS     1        SOD      SOD      SOD      1.000000       22.9898           0
     22322 IONS     2        SOD      SOD      SOD      1.000000       22.9898           0
     22323 IONS     3        SOD      SOD      SOD      1.000000       22.9898           0
     22324 IONS     4        SOD      SOD      SOD      1.000000       22.9898           0
     22325 IONS     5        SOD      SOD      SOD      1.000000       22.9898           0
     22326 IONS     6        SOD      SOD      SOD      1.000000       22.9898           0
     22327 IONS     7        SOD      SOD      SOD      1.000000       22.9898           0
     22328 IONS     8        SOD      SOD      SOD      1.000000       22.9898           0
     22329 IONS     9        SOD      SOD      SOD      1.000000       22.9898           0
     22330 IONS     10       SOD      SOD      SOD      1.000000       22.9898           0
     22331 IONS     11       SOD      SOD      SOD      1.000000       22.9898           0
     22332 IONS     12       SOD      SOD      SOD      1.000000       22.9898           0
     22333 IONS     13       SOD      SOD      SOD      1.000000       22.9898           0
     22334 IONS     14       SOD      SOD      SOD      1.000000       22.9898           0
     22335 IONS     15       SOD      SOD      SOD      1.000000       22.9898           0
     22336 IONS     16       SOD      SOD      SOD      1.000000       22.9898           0
     22337 IONS     17       SOD      SOD      SOD      1.000000       22.9898           0
     22338 IONS     18       SOD      SOD      SOD      1.000000       22.9898           0
     22339 IONS     19       SOD      SOD      SOD      1.000000       22.9898           0
     22340 IONS     20       SOD      SOD      SOD      1.000000       22.9898           0
     22341 IONS     21       SOD      SOD      SOD      1.000000       22.9898           0
     22342 IONS     22       SOD      SOD      SOD      1.000000       22.9898           0
     22343 IONS     23       SOD      SOD      SOD      1.000000       22.9898           0
     22344 IONS     24       SOD      SOD      SOD      1.000000       22.9898           0
     22345 IONS     25       SOD      SOD      SOD      1.000000       22.9898           0
     22346 IONS     26       SOD      SOD      SOD      1.000000       22.9898           0
     22347 IONS     27       SOD      SOD      SOD      1.000000       22.9898           0
     22348 IONS     28       SOD      SOD      SOD      1.000000       22.9898           0
     22349 IONS     29       SOD      SOD      SOD      1.000000       22.9898           0
     22350 IONS     30       SOD      SOD      SOD      1.000000       22.9898           0
     22351 IONS     31       SOD      SOD      SOD      1.000000       22.9898           0
     22352 IONS     32       SOD      SOD      SOD      1.000000       22.9898           0
     22353 IONS     33       SOD      SOD      SOD      1.000000       22.9898           0
     22354 IONS     34       SOD      SOD      SOD      1.000000       22.9898           0
     22355 IONS     35       SOD      SOD      SOD      1.000000       22.9898           0
     22356 IONS     36       SOD      SOD      SOD      1.000000       22.9898           0
     22357 IONS     37       SOD      SOD      SOD      1.000000       22.9898           0
     22358 IONS     38       SOD      SOD      SOD      1.000000       22.9898           0
     22359 IONS     39       SOD      SOD      SOD      1.000000       22.9898           0
     22360 IONS     40       SOD      SOD      SOD      1.000000       22.9898           0
     22361 IONS     41       SOD      SOD      SOD      1.000000       22.9898           0
     22362 IONS     42       SOD      SOD      SOD      1.000000       22.9898           0
     22363 IONS     43       SOD      SOD      SOD      1.000000       22.9898           0
     22364 IONS     44       SOD      SOD      SOD      1.000000       22.9898           0
     22365 IONS     45       SOD      SOD      SOD      1.000000       22.9898           0
     22366 IONS     46       SOD      SOD      SOD      1.000000       22.9898           0
     22367 IONS     47       SOD      SOD      SOD      1.000000       22.9898           0
     22368 IONS     48       SOD      SOD      SOD      1.000000       22.9898           0
     22369 IONS     49       SOD      SOD      SOD      1.000000       22.9898           0
     22370 IONS     50       SOD      SOD      SOD      1.000000       22.9898           0
     22371 IONS     51       SOD      SOD      SOD      1.000000       22.9898           0
     22372 IONS     52       SOD      SOD      SOD      1.000000       22.9898           0
     22373 IONS     53       SOD      SOD      SOD      1.000000       22.9898           0
     22374 IONS     54       SOD      SOD      SOD      1.000000       22.9898           0
     22375 IONS     55       SOD      SOD      SOD      1.000000       22.9898           0
     22376 IONS     56       SOD      SOD      SOD      1.000000       22.9898           0
     22377 IONS     57       SOD      SOD      SOD      1.000000       22.9898           0
     22378 IONS     58       SOD      SOD      SOD      1.000000       22.9898           0
     22379 IONS     59       SOD      SOD      SOD      1.000000       22.9898           0
     22380 IONS     60       SOD      SOD      SOD      1.000000       22.9898           0
     22381 IONS     61       SOD      SOD      SOD      1.000000       22.9898           0
     22382 IONS     62       SOD      SOD      SOD      1.000000       22.9898           0
     22383 IONS     63       SOD      SOD      SOD      1.000000       22.9898           0
     22384 IONS     64       SOD      SOD      SOD      1.000000       22.9898           0
     22385 IONS     65       SOD      SOD      SOD      1.000000       22.9898           0
     22386 IONS     66       SOD      SOD      SOD      1.000000       22.9898           0
     22387 IONS     67       SOD      SOD      SOD      1.000000       22.9898           0
     22388 IONS     68       SOD      SOD      SOD      1.000000       22.9898           0
     22389 IONS     69       SOD      SOD      SOD      1.000000       22.9898           0
     22390 IONS     70       SOD      SOD      SOD      1.000000       22.9898           0
     22391 IONS     71       SOD      SOD      SOD      1.000000       22.9898           0
     22392 IONS     72       SOD      SOD      SOD      1.000000       22.9898           0
     22393 IONS     73       SOD      SOD      SOD      1.000000       22.9898           0
     22394 IONS     74       CLA      CLA      CLA     -1.000000       35.4500           0
     22395 IONS     75       CLA      CLA      CLA     -1.000000       35.4500           0
     22396 IONS     76       CLA      CLA      CLA     -1.000000       35.4500           0
     22397 IONS     77       CLA      CLA      CLA     -1.000000       35.4500           0
     22398 IONS     78       CLA      CLA      CLA     -1.000000       35.4500           0
     22399 IONS     79       CLA      CLA      CLA     -1.000000       35.4500           0
     22400 IONS     80       CLA      CLA      CLA     -1.000000       35.4500           0
     22401 IONS     81       CLA      CLA      CLA     -1.000000       35.4500           0
     22402 IONS     82       CLA      CLA      CLA     -1.000000       35.4500           0
     22403 IONS     83       CLA      CLA      CLA     -1.000000       35.4500           0
     22404 IONS     84       CLA      CLA      CLA     -1.000000       35.4500           0
     22405 IONS     85       CLA      CLA      CLA     -1.000000       35.4500           0
     22406 IONS     86       CLA      CLA      CLA     -1.000000       35.4500           0
     22407 IONS     87       CLA      CLA      CLA     -1.000000       35.4500           0
     22408 IONS     88       CLA      CLA      CLA     -1.000000       35.4500           0
     22409 IONS     89       CLA      CLA      CLA     -1.000000       35.4500           0
     22410 IONS     90       CLA      CLA      CLA     -1.000000       35.4500           0
     22411 IONS     91       CLA      CLA      CLA     -1.000000       35.4500           0
     22412 IONS     92       CLA      CLA      CLA     -1.000000       35.4500           0
     22413 IONS     93       CLA      CLA      CLA     -1.000000       35.4500           0
     22414 IONS     94       CLA      CLA      CLA     -1.000000       35.4500           0
     22415 IONS     95       CLA      CLA      CLA     -1.000000       35.4500           0
     22416 IONS     96       CLA      CLA      CLA     -1.000000       35.4500           0
     22417 IONS     97       CLA      CLA      CLA     -1.000000       35.4500           0
     22418 IONS     98       CLA      CLA      CLA     -1.000000       35.4500           0
     22419 IONS     99       CLA      CLA      CLA     -1.000000       35.4500           0
     22420 IONS     100      CLA      CLA      CLA     -1.000000       35.4500           0
     22421 IONS     101      CLA      CLA      CLA     -1.000000       35.4500           0
     22422 IONS     102      CLA      CLA      CLA     -1.000000       35.4500           0
     22423 IONS     103      CLA      CLA      CLA     -1.000000       35.4500           0
     22424 IONS     104      CLA      CLA      CLA     -1.000000       35.4500           0
     22425 IONS     105      CLA      CLA      CLA     -1.000000       35.4500           0
     22426 IONS     106      CLA      CLA      CLA     -1.000000       35.4500           0
     22427 IONS     107      CLA      CLA      CLA     -1.000000       35.4500           0
     22428 IONS     108      CLA      CLA      CLA     -1.000000       35.4500           0
     22429 IONS     109      CLA      CLA      CLA     -1.000000       35.4500           0
     22430 IONS     110      CLA      CLA      CLA     -1.000000       35.4500           0
     22431 IONS     111      CLA      CLA      CLA     -1.000000       35.4500           0
     22432 IONS     112      CLA      CLA      CLA     -1.000000       35.4500           0
     22433 IONS     113      CLA      CLA      CLA     -1.000000       35.4500           0
     22434 IONS     114      CLA      CLA      CLA     -1.000000       35.4500           0
     22435 IONS     115      CLA      CLA      CLA     -1.000000       35.4500           0
     22436 IONS     116      CLA      CLA      CLA     -1.000000       35.4500           0
     22437 IONS     117      CLA      CLA      CLA     -1.000000       35.4500           0
     22438 IONS     118      CLA      CLA      CLA     -1.000000       35.4500           0
     22439 IONS     119      CLA      CLA      CLA     -1.000000       35.4500           0
     22440 IONS     120      CLA      CLA      CLA     -1.000000       35.4500           0
     22441 IONS     121      CLA      CLA      CLA     -1.000000       35.4500           0
     22442 IONS     122      CLA      CLA      CLA     -1.000000       35.4500           0
     22443 IONS     123      CLA      CLA      CLA     -1.000000       35.4500           0
     22444 IONS     124      CLA      CLA      CLA     -1.000000       35.4500           0
     22445 IONS     125      CLA      CLA      CLA     -1.000000       35.4500           0
     22446 IONS     126      CLA      CLA      CLA     -1.000000       35.4500           0
     22447 TIP3     1        TIP3     OH2      OT      -0.834000       15.9994           0
     22448 TIP3     1        TIP3     H1       HT       0.417000       1.00800           0
     22449 TIP3     1        TIP3     H2       HT       0.417000       1.00800           0
     22450 TIP3     2        TIP3     OH2      OT      -0.834000       15.9994           0
     22451 TIP3     2        TIP3     H1       HT       0.417000       1.00800           0
     22452 TIP3     2        TIP3     H2       HT       0.417000       1.00800           0
     22453 TIP3     3        TIP3     OH2      OT      -0.834000       15.9994           0
     22454 TIP3     3        TIP3     H1       HT       0.417000       1.00800           0
     22455 TIP3     3        TIP3     H2       HT       0.417000       1.00800           0
     22456 TIP3     4        TIP3     OH2      OT      -0.834000       15.9994           0
     22457 TIP3     4        TIP3     H1       HT       0.417000       1.00800           0
     22458 TIP3     4        TIP3     H2       HT       0.417000       1.00800           0
     22459 TIP3     5        TIP3     OH2      OT      -0.834000       15.9994           0
     22460 TIP3     5        TIP3     H1       HT       0.417000       1.00800           0
     22461 TIP3     5        TIP3     H2       HT       0.417000       1.00800           0
     22462 TIP3     6        TIP3     OH2      OT      -0.834000       15.9994           0
     22463 TIP3     6        TIP3     H1       HT       0.417000       1.00800           0
     22464 TIP3     6        TIP3     H2       HT       0.417000       1.00800           0
     22465 TIP3     7        TIP3     OH2      OT      -0.834000       15.9994           0
     22466 TIP3     7        TIP3     H1       HT       0.417000       1.00800           0
     22467 TIP3     7        TIP3     H2       HT       0.417000       1.00800           0
     22468 TIP3     8        TIP3     OH2      OT      -0.834000       15.9994           0
     22469 TIP3     8        TIP3     H1       HT       0.417000       1.00800           0
     22470 TIP3     8        TIP3     H2       HT       0.417000       1.00800           0
     22471 TIP3     9        TIP3     OH2      OT      -0.834000       15.9994           0
     22472 TIP3     9        TIP3     H1       HT       0.417000       1.00800           0
     22473 TIP3     9        TIP3     H2       HT       0.417000       1.00800           0
     22474 TIP3     10       TIP3     OH2      OT      -0.834000       15.9994           0
     22475 TIP3     10       TIP3     H1       HT       0.417000       1.00800           0
     22476 TIP3     10       TIP3     H2       HT       0.417000       1.00800           0
     22477 TIP3     11       TIP3     OH2      OT      -0.834000       15.9994           0
     22478 TIP3     11       TIP3     H1       HT       0.417000       1.00800           0
     22479 TIP3     11       TIP3     H2       HT       0.417000       1.00800           0
     22480 TIP3     12       TIP3     OH2      OT      -0.834000       15.9994           0
     22481 TIP3     12       TIP3     H1       HT       0.417000       1.00800           0
     22482 TIP3     12       TIP3     H2       HT       0.417000       1.00800           0
     22483 TIP3     13       TIP3     OH2      OT      -0.834000       15.9994           0
     22484 TIP3     13       TIP3     H1       HT       0.417000       1.00800           0
     22485 TIP3     13       TIP3     H2       HT       0.417000       1.00800           0
     22486 TIP3     14       TIP3     OH2      OT      -0.834000       15.9994           0
     22487 TIP3     14       TIP3     H1       HT       0.417000       1.00800           0
     22488 TIP3     14       TIP3     H2       HT       0.417000       1.00800           0
     22489 TIP3     15       TIP3     OH2      OT      -0.834000       15.9994           0
     22490 TIP3     15       TIP3     H1       HT       0.417000       1.00800           0
     22491 TIP3     15       TIP3     H2       HT       0.417000       1.00800           0
     22492 TIP3     16       TIP3     OH2      OT      -0.834000       15.9994           0
     22493 TIP3     16       TIP3     H1       HT       0.417000       1.00800           0
     22494 TIP3     16       TIP3     H2       HT       0.417000       1.00800           0
     22495 TIP3     17       TIP3     OH2      OT      -0.834000       15.9994           0
     22496 TIP3     17       TIP3     H1       HT       0.417000       1.00800           0
     22497 TIP3     17       TIP3     H2       HT       0.417000       1.00800           0
     22498 TIP3     18       TIP3     OH2      OT      -0.834000       15.9994           0
     22499 TIP3     18       TIP3     H1       HT       0.417000       1.00800           0
     22500 TIP3     18       TIP3     H2       HT       0.417000       1.00800           0
     22501 TIP3     19       TIP3     OH2      OT      -0.834000       15.9994           0
     22502 TIP3     19       TIP3     H1       HT       0.417000       1.00800           0
     22503 TIP3     19       TIP3     H2       HT       0.417000       1.00800           0
     22504 TIP3     20       TIP3     OH2      OT      -0.834000       15.9994           0
     22505 TIP3     20       TIP3     H1       HT       0.417000       1.00800           0
     22506 TIP3     20       TIP3     H2       HT       0.417000       1.00800           0
     22507 TIP3     21       TIP3     OH2      OT      -0.834000       15.9994           0
     22508 TIP3     21       TIP3     H1       HT       0.417000       1.00800           0
     22509 TIP3     21       TIP3     H2       HT       0.417000       1.00800           0
     22510 TIP3     22       TIP3     OH2      OT      -0.834000       15.9994           0
     22511 TIP3     22       TIP3     H1       HT       0.417000       1.00800           0
     22512 TIP3     22       TIP3     H2       HT       0.417000       1.00800           0
     22513 TIP3     23       TIP3     OH2      OT      -0.834000       15.9994           0
     22514 TIP3     23       TIP3     H1       HT       0.417000       1.00800           0
     22515 TIP3     23       TIP3     H2       HT       0.417000       1.00800           0
     22516 TIP3     24       TIP3     OH2      OT      -0.834000       15.9994           0
     22517 TIP3     24       TIP3     H1       HT       0.417000       1.00800           0
     22518 TIP3     24       TIP3     H2       HT       0.417000       1.00800           0
     22519 TIP3     25       TIP3     OH2      OT      -0.834000       15.9994           0
     22520 TIP3     25       TIP3     H1       HT       0.417000       1.00800           0
     22521 TIP3     25       TIP3     H2       HT       0.417000       1.00800           0
     22522 TIP3     26       TIP3     OH2      OT      -0.834000       15.9994           0
     22523 TIP3     26       TIP3     H1       HT       0.417000       1.00800           0
     22524 TIP3     26       TIP3     H2       HT       0.417000       1.00800           0
     22525 TIP3     27       TIP3     OH2      OT      -0.834000       15.9994           0
     22526 TIP3     27       TIP3     H1       HT       0.417000       1.00800           0
     22527 TIP3     27       TIP3     H2       HT       0.417000       1.00800           0
     22528 TIP3     28       TIP3     OH2      OT      -0.834000       15.9994           0
     22529 TIP3     28       TIP3     H1       HT       0.417000       1.00800           0
     22530 TIP3     28       TIP3     H2       HT       0.417000       1.00800           0
     22531 TIP3     29       TIP3     OH2      OT      -0.834000       15.9994           0
     22532 TIP3     29       TIP3     H1       HT       0.417000       1.00800           0
     22533 TIP3     29       TIP3     H2       HT       0.417000       1.00800           0
     22534 TIP3     30       TIP3     OH2      OT      -0.834000       15.9994           0
     22535 TIP3     30       TIP3     H1       HT       0.417000       1.00800           0
     22536 TIP3     30       TIP3     H2       HT       0.417000       1.00800           0
     22537 TIP3     31       TIP3     OH2      OT      -0.834000       15.9994           0
     22538 TIP3     31       TIP3     H1       HT       0.417000       1.00800           0
     22539 TIP3     31       TIP3     H2       HT       0.417000       1.00800           0
     22540 TIP3     32       TIP3     OH2      OT      -0.834000       15.9994           0
     22541 TIP3     32       TIP3     H1       HT       0.417000       1.00800           0
     22542 TIP3     32       TIP3     H2       HT       0.417000       1.00800           0
     22543 TIP3     33       TIP3     OH2      OT      -0.834000       15.9994           0
     22544 TIP3     33       TIP3     H1       HT       0.417000       1.00800           0
     22545 TIP3     33       TIP3     H2       HT       0.417000       1.00800           0
     22546 TIP3     34       TIP3     OH2      OT      -0.834000       15.9994           0
     22547 TIP3     34       TIP3     H1       HT       0.417000       1.00800           0
     22548 TIP3     34       TIP3     H2       HT       0.417000       1.00800           0
     22549 TIP3     35       TIP3     OH2      OT      -0.834000       15.9994           0
     22550 TIP3     35       TIP3     H1       HT       0.417000       1.00800           0
     22551 TIP3     35       TIP3     H2       HT       0.417000       1.00800           0
     22552 TIP3     36       TIP3     OH2      OT      -0.834000       15.9994           0
     22553 TIP3     36       TIP3     H1       HT       0.417000       1.00800           0
     22554 TIP3     36       TIP3     H2       HT       0.417000       1.00800           0
     22555 TIP3     37       TIP3     OH2      OT      -0.834000       15.9994           0
     22556 TIP3     37       TIP3     H1       HT       0.417000       1.00800           0
     22557 TIP3     37       TIP3     H2       HT       0.417000       1.00800           0
     22558 TIP3     38       TIP3     OH2      OT      -0.834000       15.9994           0
     22559 TIP3     38       TIP3     H1       HT       0.417000       1.00800           0
     22560 TIP3     38       TIP3     H2       HT       0.417000       1.00800           0
     22561 TIP3     39       TIP3     OH2      OT      -0.834000       15.9994           0
     22562 TIP3     39       TIP3     H1       HT       0.417000       1.00800           0
     22563 TIP3     39       TIP3     H2       HT       0.417000       1.00800           0
     22564 TIP3     40       TIP3     OH2      OT      -0.834000       15.9994           0
     22565 TIP3     40       TIP3     H1       HT       0.417000       1.00800           0
     22566 TIP3     40       TIP3     H2       HT       0.417000       1.00800           0
     22567 TIP3     41       TIP3     OH2      OT      -0.834000       15.9994           0
     22568 TIP3     41       TIP3     H1       HT       0.417000       1.00800           0
     22569 TIP3     41       TIP3     H2       HT       0.417000       1.00800           0
     22570 TIP3     42       TIP3     OH2      OT      -0.834000       15.9994           0
     22571 TIP3     42       TIP3     H1       HT       0.417000       1.00800           0
     22572 TIP3     42       TIP3     H2       HT       0.417000       1.00800           0
     22573 TIP3     43       TIP3     OH2      OT      -0.834000       15.9994           0
     22574 TIP3     43       TIP3     H1       HT       0.417000       1.00800           0
     22575 TIP3     43       TIP3     H2       HT       0.417000       1.00800           0
     22576 TIP3     44       TIP3     OH2      OT      -0.834000       15.9994           0
     22577 TIP3     44       TIP3     H1       HT       0.417000       1.00800           0
     22578 TIP3     44       TIP3     H2       HT       0.417000       1.00800           0
     22579 TIP3     45       TIP3     OH2      OT      -0.834000       15.9994           0
     22580 TIP3     45       TIP3     H1       HT       0.417000       1.00800           0
     22581 TIP3     45       TIP3     H2       HT       0.417000       1.00800           0
     22582 TIP3     46       TIP3     OH2      OT      -0.834000       15.9994           0
     22583 TIP3     46       TIP3     H1       HT       0.417000       1.00800           0
     22584 TIP3     46       TIP3     H2       HT       0.417000       1.00800           0
     22585 TIP3     47       TIP3     OH2      OT      -0.834000       15.9994           0
     22586 TIP3     47       TIP3     H1       HT       0.417000       1.00800           0
     22587 TIP3     47       TIP3     H2       HT       0.417000       1.00800           0
     22588 TIP3     48       TIP3     OH2      OT      -0.834000       15.9994           0
     22589 TIP3     48       TIP3     H1       HT       0.417000       1.00800           0
     22590 TIP3     48       TIP3     H2       HT       0.417000       1.00800           0
     22591 TIP3     49       TIP3     OH2      OT      -0.834000       15.9994           0
     22592 TIP3     49       TIP3     H1       HT       0.417000       1.00800           0
     22593 TIP3     49       TIP3     H2       HT       0.417000       1.00800           0
     22594 TIP3     50       TIP3     OH2      OT      -0.834000       15.9994           0
     22595 TIP3     50       TIP3     H1       HT       0.417000       1.00800           0
     22596 TIP3     50       TIP3     H2       HT       0.417000       1.00800           0
     22597 TIP3     51       TIP3     OH2      OT      -0.834000       15.9994           0
     22598 TIP3     51       TIP3     H1       HT       0.417000       1.00800           0
     22599 TIP3     51       TIP3     H2       HT       0.417000       1.00800           0
     22600 TIP3     52       TIP3     OH2      OT      -0.834000       15.9994           0
     22601 TIP3     52       TIP3     H1       HT       0.417000       1.00800           0
     22602 TIP3     52       TIP3     H2       HT       0.417000       1.00800           0
     22603 TIP3     53       TIP3     OH2      OT      -0.834000       15.9994           0
     22604 TIP3     53       TIP3     H1       HT       0.417000       1.00800           0
     22605 TIP3     53       TIP3     H2       HT       0.417000       1.00800           0
     22606 TIP3     54       TIP3     OH2      OT      -0.834000       15.9994           0
     22607 TIP3     54       TIP3     H1       HT       0.417000       1.00800           0
     22608 TIP3     54       TIP3     H2       HT       0.417000       1.00800           0
     22609 TIP3     55       TIP3     OH2      OT      -0.834000       15.9994           0
     22610 TIP3     55       TIP3     H1       HT       0.417000       1.00800           0
     22611 TIP3     55       TIP3     H2       HT       0.417000       1.00800           0
     22612 TIP3     56       TIP3     OH2      OT      -0.834000       15.9994           0
     22613 TIP3     56       TIP3     H1       HT       0.417000       1.00800           0
     22614 TIP3     56       TIP3     H2       HT       0.417000       1.00800           0
     22615 TIP3     57       TIP3     OH2      OT      -0.834000       15.9994           0
     22616 TIP3     57       TIP3     H1       HT       0.417000       1.00800           0
     22617 TIP3     57       TIP3     H2       HT       0.417000       1.00800           0
     22618 TIP3     58       TIP3     OH2      OT      -0.834000       15.9994           0
     22619 TIP3     58       TIP3     H1       HT       0.417000       1.00800           0
     22620 TIP3     58       TIP3     H2       HT       0.417000       1.00800           0
     22621 TIP3     59       TIP3     OH2      OT      -0.834000       15.9994           0
     22622 TIP3     59       TIP3     H1       HT       0.417000       1.00800           0
     22623 TIP3     59       TIP3     H2       HT       0.417000       1.00800           0
     22624 TIP3     60       TIP3     OH2      OT      -0.834000       15.9994           0
     22625 TIP3     60       TIP3     H1       HT       0.417000       1.00800           0
     22626 TIP3     60       TIP3     H2       HT       0.417000       1.00800           0
     22627 TIP3     61       TIP3     OH2      OT      -0.834000       15.9994           0
     22628 TIP3     61       TIP3     H1       HT       0.417000       1.00800           0
     22629 TIP3     61       TIP3     H2       HT       0.417000       1.00800           0
     22630 TIP3     62       TIP3     OH2      OT      -0.834000       15.9994           0
     22631 TIP3     62       TIP3     H1       HT       0.417000       1.00800           0
     22632 TIP3     62       TIP3     H2       HT       0.417000       1.00800           0
     22633 TIP3     63       TIP3     OH2      OT      -0.834000       15.9994           0
     22634 TIP3     63       TIP3     H1       HT       0.417000       1.00800           0
     22635 TIP3     63       TIP3     H2       HT       0.417000       1.00800           0
     22636 TIP3     64       TIP3     OH2      OT      -0.834000       15.9994           0
     22637 TIP3     64       TIP3     H1       HT       0.417000       1.00800           0
     22638 TIP3     64       TIP3     H2       HT       0.417000       1.00800           0
     22639 TIP3     65       TIP3     OH2      OT      -0.834000       15.9994           0
     22640 TIP3     65       TIP3     H1       HT       0.417000       1.00800           0
     22641 TIP3     65       TIP3     H2       HT       0.417000       1.00800           0
     22642 TIP3     66       TIP3     OH2      OT      -0.834000       15.9994           0
     22643 TIP3     66       TIP3     H1       HT       0.417000       1.00800           0
     22644 TIP3     66       TIP3     H2       HT       0.417000       1.00800           0
     22645 TIP3     67       TIP3     OH2      OT      -0.834000       15.9994           0
     22646 TIP3     67       TIP3     H1       HT       0.417000       1.00800           0
     22647 TIP3     67       TIP3     H2       HT       0.417000       1.00800           0
     22648 TIP3     68       TIP3     OH2      OT      -0.834000       15.9994           0
     22649 TIP3     68       TIP3     H1       HT       0.417000       1.00800           0
     22650 TIP3     68       TIP3     H2       HT       0.417000       1.00800           0
     22651 TIP3     69       TIP3     OH2      OT      -0.834000       15.9994           0
     22652 TIP3     69       TIP3     H1       HT       0.417000       1.00800           0
     22653 TIP3     69       TIP3     H2       HT       0.417000       1.00800           0
     22654 TIP3     70       TIP3     OH2      OT      -0.834000       15.9994           0
     22655 TIP3     70       TIP3     H1       HT       0.417000       1.00800           0
     22656 TIP3     70       TIP3     H2       HT       0.417000       1.00800           0
     22657 TIP3     71       TIP3     OH2      OT      -0.834000       15.9994           0
     22658 TIP3     71       TIP3     H1       HT       0.417000       1.00800           0
     22659 TIP3     71       TIP3     H2       HT       0.417000       1.00800           0
     22660 TIP3     72       TIP3     OH2      OT      -0.834000       15.9994           0
     22661 TIP3     72       TIP3     H1       HT       0.417000       1.00800           0
     22662 TIP3     72       TIP3     H2       HT       0.417000       1.00800           0
     22663 TIP3     73       TIP3     OH2      OT      -0.834000       15.9994           0
     22664 TIP3     73       TIP3     H1       HT       0.417000       1.00800           0
     22665 TIP3     73       TIP3     H2       HT       0.417000       1.00800           0
     22666 TIP3     74       TIP3     OH2      OT      -0.834000       15.9994           0
     22667 TIP3     74       TIP3     H1       HT       0.417000       1.00800           0
     22668 TIP3     74       TIP3     H2       HT       0.417000       1.00800           0
     22669 TIP3     75       TIP3     OH2      OT      -0.834000       15.9994           0
     22670 TIP3     75       TIP3     H1       HT       0.417000       1.00800           0
     22671 TIP3     75       TIP3     H2       HT       0.417000       1.00800           0
     22672 TIP3     76       TIP3     OH2      OT      -0.834000       15.9994           0
     22673 TIP3     76       TIP3     H1       HT       0.417000       1.00800           0
     22674 TIP3     76       TIP3     H2       HT       0.417000       1.00800           0
     22675 TIP3     77       TIP3     OH2      OT      -0.834000       15.9994           0
     22676 TIP3     77       TIP3     H1       HT       0.417000       1.00800           0
     22677 TIP3     77       TIP3     H2       HT       0.417000       1.00800           0
     22678 TIP3     78       TIP3     OH2      OT      -0.834000       15.9994           0
     22679 TIP3     78       TIP3     H1       HT       0.417000       1.00800           0
     22680 TIP3     78       TIP3     H2       HT       0.417000       1.00800           0
     22681 TIP3     79       TIP3     OH2      OT      -0.834000       15.9994           0
     22682 TIP3     79       TIP3     H1       HT       0.417000       1.00800           0
     22683 TIP3     79       TIP3     H2       HT       0.417000       1.00800           0
     22684 TIP3     80       TIP3     OH2      OT      -0.834000       15.9994           0
     22685 TIP3     80       TIP3     H1       HT       0.417000       1.00800           0
     22686 TIP3     80       TIP3     H2       HT       0.417000       1.00800           0
     22687 TIP3     81       TIP3     OH2      OT      -0.834000       15.9994           0
     22688 TIP3     81       TIP3     H1       HT       0.417000       1.00800           0
     22689 TIP3     81       TIP3     H2       HT       0.417000       1.00800           0
     22690 TIP3     82       TIP3     OH2      OT      -0.834000       15.9994           0
     22691 TIP3     82       TIP3     H1       HT       0.417000       1.00800           0
     22692 TIP3     82       TIP3     H2       HT       0.417000       1.00800           0
     22693 TIP3     83       TIP3     OH2      OT      -0.834000       15.9994           0
     22694 TIP3     83       TIP3     H1       HT       0.417000       1.00800           0
     22695 TIP3     83       TIP3     H2       HT       0.417000       1.00800           0
     22696 TIP3     84       TIP3     OH2      OT      -0.834000       15.9994           0
     22697 TIP3     84       TIP3     H1       HT       0.417000       1.00800           0
     22698 TIP3     84       TIP3     H2       HT       0.417000       1.00800           0
     22699 TIP3     85       TIP3     OH2      OT      -0.834000       15.9994           0
     22700 TIP3     85       TIP3     H1       HT       0.417000       1.00800           0
     22701 TIP3     85       TIP3     H2       HT       0.417000       1.00800           0
     22702 TIP3     86       TIP3     OH2      OT      -0.834000       15.9994           0
     22703 TIP3     86       TIP3     H1       HT       0.417000       1.00800           0
     22704 TIP3     86       TIP3     H2       HT       0.417000       1.00800           0
     22705 TIP3     87       TIP3     OH2      OT      -0.834000       15.9994           0
     22706 TIP3     87       TIP3     H1       HT       0.417000       1.00800           0
     22707 TIP3     87       TIP3     H2       HT       0.417000       1.00800           0
     22708 TIP3     88       TIP3     OH2      OT      -0.834000       15.9994           0
     22709 TIP3     88       TIP3     H1       HT       0.417000       1.00800           0
     22710 TIP3     88       TIP3     H2       HT       0.417000       1.00800           0
     22711 TIP3     89       TIP3     OH2      OT      -0.834000       15.9994           0
     22712 TIP3     89       TIP3     H1       HT       0.417000       1.00800           0
     22713 TIP3     89       TIP3     H2       HT       0.417000       1.00800           0
     22714 TIP3     90       TIP3     OH2      OT      -0.834000       15.9994           0
     22715 TIP3     90       TIP3     H1       HT       0.417000       1.00800           0
     22716 TIP3     90       TIP3     H2       HT       0.417000       1.00800           0
     22717 TIP3     91       TIP3     OH2      OT      -0.834000       15.9994           0
     22718 TIP3     91       TIP3     H1       HT       0.417000       1.00800           0
     22719 TIP3     91       TIP3     H2       HT       0.417000       1.00800           0
     22720 TIP3     92       TIP3     OH2      OT      -0.834000       15.9994           0
     22721 TIP3     92       TIP3     H1       HT       0.417000       1.00800           0
     22722 TIP3     92       TIP3     H2       HT       0.417000       1.00800           0
     22723 TIP3     93       TIP3     OH2      OT      -0.834000       15.9994           0
     22724 TIP3     93       TIP3     H1       HT       0.417000       1.00800           0
     22725 TIP3     93       TIP3     H2       HT       0.417000       1.00800           0
     22726 TIP3     94       TIP3     OH2      OT      -0.834000       15.9994           0
     22727 TIP3     94       TIP3     H1       HT       0.417000       1.00800           0
     22728 TIP3     94       TIP3     H2       HT       0.417000       1.00800           0
     22729 TIP3     95       TIP3     OH2      OT      -0.834000       15.9994           0
     22730 TIP3     95       TIP3     H1       HT       0.417000       1.00800           0
     22731 TIP3     95       TIP3     H2       HT       0.417000       1.00800           0
     22732 TIP3     96       TIP3     OH2      OT      -0.834000       15.9994           0
     22733 TIP3     96       TIP3     H1       HT       0.417000       1.00800           0
     22734 TIP3     96       TIP3     H2       HT       0.417000       1.00800           0
     22735 TIP3     97       TIP3     OH2      OT      -0.834000       15.9994           0
     22736 TIP3     97       TIP3     H1       HT       0.417000       1.00800           0
     22737 TIP3     97       TIP3     H2       HT       0.417000       1.00800           0
     22738 TIP3     98       TIP3     OH2      OT      -0.834000       15.9994           0
     22739 TIP3     98       TIP3     H1       HT       0.417000       1.00800           0
     22740 TIP3     98       TIP3     H2       HT       0.417000       1.00800           0
     22741 TIP3     99       TIP3     OH2      OT      -0.834000       15.9994           0
     22742 TIP3     99       TIP3     H1       HT       0.417000       1.00800           0
     22743 TIP3     99       TIP3     H2       HT       0.417000       1.00800           0
     22744 TIP3     100      TIP3     OH2      OT      -0.834000       15.9994           0
     22745 TIP3     100      TIP3     H1       HT       0.417000       1.00800           0
     22746 TIP3     100      TIP3     H2       HT       0.417000       1.00800           0
     22747 TIP3     101      TIP3     OH2      OT      -0.834000       15.9994           0
     22748 TIP3     101      TIP3     H1       HT       0.417000       1.00800           0
     22749 TIP3     101      TIP3     H2       HT       0.417000       1.00800           0
     22750 TIP3     102      TIP3     OH2      OT      -0.834000       15.9994           0
     22751 TIP3     102      TIP3     H1       HT       0.417000       1.00800           0
     22752 TIP3     102      TIP3     H2       HT       0.417000       1.00800           0
     22753 TIP3     103      TIP3     OH2      OT      -0.834000       15.9994           0
     22754 TIP3     103      TIP3     H1       HT       0.417000       1.00800           0
     22755 TIP3     103      TIP3     H2       HT       0.417000       1.00800           0
     22756 TIP3     104      TIP3     OH2      OT      -0.834000       15.9994           0
     22757 TIP3     104      TIP3     H1       HT       0.417000       1.00800           0
     22758 TIP3     104      TIP3     H2       HT       0.417000       1.00800           0
     22759 TIP3     105      TIP3     OH2      OT      -0.834000       15.9994           0
     22760 TIP3     105      TIP3     H1       HT       0.417000       1.00800           0
     22761 TIP3     105      TIP3     H2       HT       0.417000       1.00800           0
     22762 TIP3     106      TIP3     OH2      OT      -0.834000       15.9994           0
     22763 TIP3     106      TIP3     H1       HT       0.417000       1.00800           0
     22764 TIP3     106      TIP3     H2       HT       0.417000       1.00800           0
     22765 TIP3     107      TIP3     OH2      OT      -0.834000       15.9994           0
     22766 TIP3     107      TIP3     H1       HT       0.417000       1.00800           0
     22767 TIP3     107      TIP3     H2       HT       0.417000       1.00800           0
     22768 TIP3     108      TIP3     OH2      OT      -0.834000       15.9994           0
     22769 TIP3     108      TIP3     H1       HT       0.417000       1.00800           0
     22770 TIP3     108      TIP3     H2       HT       0.417000       1.00800           0
     22771 TIP3     109      TIP3     OH2      OT      -0.834000       15.9994           0
     22772 TIP3     109      TIP3     H1       HT       0.417000       1.00800           0
     22773 TIP3     109      TIP3     H2       HT       0.417000       1.00800           0
     22774 TIP3     110      TIP3     OH2      OT      -0.834000       15.9994           0
     22775 TIP3     110      TIP3     H1       HT       0.417000       1.00800           0
     22776 TIP3     110      TIP3     H2       HT       0.417000       1.00800           0
     22777 TIP3     111      TIP3     OH2      OT      -0.834000       15.9994           0
     22778 TIP3     111      TIP3     H1       HT       0.417000       1.00800           0
     22779 TIP3     111      TIP3     H2       HT       0.417000       1.00800           0
     22780 TIP3     112      TIP3     OH2      OT      -0.834000       15.9994           0
     22781 TIP3     112      TIP3     H1       HT       0.417000       1.00800           0
     22782 TIP3     112      TIP3     H2       HT       0.417000       1.00800           0
     22783 TIP3     113      TIP3     OH2      OT      -0.834000       15.9994           0
     22784 TIP3     113      TIP3     H1       HT       0.417000       1.00800           0
     22785 TIP3     113      TIP3     H2       HT       0.417000       1.00800           0
     22786 TIP3     114      TIP3     OH2      OT      -0.834000       15.9994           0
     22787 TIP3     114      TIP3     H1       HT       0.417000       1.00800           0
     22788 TIP3     114      TIP3     H2       HT       0.417000       1.00800           0
     22789 TIP3     115      TIP3     OH2      OT      -0.834000       15.9994           0
     22790 TIP3     115      TIP3     H1       HT       0.417000       1.00800           0
     22791 TIP3     115      TIP3     H2       HT       0.417000       1.00800           0
     22792 TIP3     116      TIP3     OH2      OT      -0.834000       15.9994           0
     22793 TIP3     116      TIP3     H1       HT       0.417000       1.00800           0
     22794 TIP3     116      TIP3     H2       HT       0.417000       1.00800           0
     22795 TIP3     117      TIP3     OH2      OT      -0.834000       15.9994           0
     22796 TIP3     117      TIP3     H1       HT       0.417000       1.00800           0
     22797 TIP3     117      TIP3     H2       HT       0.417000       1.00800           0
     22798 TIP3     118      TIP3     OH2      OT      -0.834000       15.9994           0
     22799 TIP3     118      TIP3     H1       HT       0.417000       1.00800           0
     22800 TIP3     118      TIP3     H2       HT       0.417000       1.00800           0
     22801 TIP3     119      TIP3     OH2      OT      -0.834000       15.9994           0
     22802 TIP3     119      TIP3     H1       HT       0.417000       1.00800           0
     22803 TIP3     119      TIP3     H2       HT       0.417000       1.00800           0
     22804 TIP3     120      TIP3     OH2      OT      -0.834000       15.9994           0
     22805 TIP3     120      TIP3     H1       HT       0.417000       1.00800           0
     22806 TIP3     120      TIP3     H2       HT       0.417000       1.00800           0
     22807 TIP3     121      TIP3     OH2      OT      -0.834000       15.9994           0
     22808 TIP3     121      TIP3     H1       HT       0.417000       1.00800           0
     22809 TIP3     121      TIP3     H2       HT       0.417000       1.00800           0
     22810 TIP3     122      TIP3     OH2      OT      -0.834000       15.9994           0
     22811 TIP3     122      TIP3     H1       HT       0.417000       1.00800           0
     22812 TIP3     122      TIP3     H2       HT       0.417000       1.00800           0
     22813 TIP3     123      TIP3     OH2      OT      -0.834000       15.9994           0
     22814 TIP3     123      TIP3     H1       HT       0.417000       1.00800           0
     22815 TIP3     123      TIP3     H2       HT       0.417000       1.00800           0
     22816 TIP3     124      TIP3     OH2      OT      -0.834000       15.9994           0
     22817 TIP3     124      TIP3     H1       HT       0.417000       1.00800           0
     22818 TIP3     124      TIP3     H2       HT       0.417000       1.00800           0
     22819 TIP3     125      TIP3     OH2      OT      -0.834000       15.9994           0
     22820 TIP3     125      TIP3     H1       HT       0.417000       1.00800           0
     22821 TIP3     125      TIP3     H2       HT       0.417000       1.00800           0
     22822 TIP3     126      TIP3     OH2      OT      -0.834000       15.9994           0
     22823 TIP3     126      TIP3     H1       HT       0.417000       1.00800           0
     22824 TIP3     126      TIP3     H2       HT       0.417000       1.00800           0
     22825 TIP3     127      TIP3     OH2      OT      -0.834000       15.9994           0
     22826 TIP3     127      TIP3     H1       HT       0.417000       1.00800           0
     22827 TIP3     127      TIP3     H2       HT       0.417000       1.00800           0
     22828 TIP3     128      TIP3     OH2      OT      -0.834000       15.9994           0
     22829 TIP3     128      TIP3     H1       HT       0.417000       1.00800           0
     22830 TIP3     128      TIP3     H2       HT       0.417000       1.00800           0
     22831 TIP3     129      TIP3     OH2      OT      -0.834000       15.9994           0
     22832 TIP3     129      TIP3     H1       HT       0.417000       1.00800           0
     22833 TIP3     129      TIP3     H2       HT       0.417000       1.00800           0
     22834 TIP3     130      TIP3     OH2      OT      -0.834000       15.9994           0
     22835 TIP3     130      TIP3     H1       HT       0.417000       1.00800           0
     22836 TIP3     130      TIP3     H2       HT       0.417000       1.00800           0
     22837 TIP3     131      TIP3     OH2      OT      -0.834000       15.9994           0
     22838 TIP3     131      TIP3     H1       HT       0.417000       1.00800           0
     22839 TIP3     131      TIP3     H2       HT       0.417000       1.00800           0
     22840 TIP3     132      TIP3     OH2      OT      -0.834000       15.9994           0
     22841 TIP3     132      TIP3     H1       HT       0.417000       1.00800           0
     22842 TIP3     132      TIP3     H2       HT       0.417000       1.00800           0
     22843 TIP3     133      TIP3     OH2      OT      -0.834000       15.9994           0
     22844 TIP3     133      TIP3     H1       HT       0.417000       1.00800           0
     22845 TIP3     133      TIP3     H2       HT       0.417000       1.00800           0
     22846 TIP3     134      TIP3     OH2      OT      -0.834000       15.9994           0
     22847 TIP3     134      TIP3     H1       HT       0.417000       1.00800           0
     22848 TIP3     134      TIP3     H2       HT       0.417000       1.00800           0
     22849 TIP3     135      TIP3     OH2      OT      -0.834000       15.9994           0
     22850 TIP3     135      TIP3     H1       HT       0.417000       1.00800           0
     22851 TIP3     135      TIP3     H2       HT       0.417000       1.00800           0
     22852 TIP3     136      TIP3     OH2      OT      -0.834000       15.9994           0
     22853 TIP3     136      TIP3     H1       HT       0.417000       1.00800           0
     22854 TIP3     136      TIP3     H2       HT       0.417000       1.00800           0
     22855 TIP3     137      TIP3     OH2      OT      -0.834000       15.9994           0
     22856 TIP3     137      TIP3     H1       HT       0.417000       1.00800           0
     22857 TIP3     137      TIP3     H2       HT       0.417000       1.00800           0
     22858 TIP3     138      TIP3     OH2      OT      -0.834000       15.9994           0
     22859 TIP3     138      TIP3     H1       HT       0.417000       1.00800           0
     22860 TIP3     138      TIP3     H2       HT       0.417000       1.00800           0
     22861 TIP3     139      TIP3     OH2      OT      -0.834000       15.9994           0
     22862 TIP3     139      TIP3     H1       HT       0.417000       1.00800           0
     22863 TIP3     139      TIP3     H2       HT       0.417000       1.00800           0
     22864 TIP3     140      TIP3     OH2      OT      -0.834000       15.9994           0
     22865 TIP3     140      TIP3     H1       HT       0.417000       1.00800           0
     22866 TIP3     140      TIP3     H2       HT       0.417000       1.00800           0
     22867 TIP3     141      TIP3     OH2      OT      -0.834000       15.9994           0
     22868 TIP3     141      TIP3     H1       HT       0.417000       1.00800           0
     22869 TIP3     141      TIP3     H2       HT       0.417000       1.00800           0
     22870 TIP3     142      TIP3     OH2      OT      -0.834000       15.9994           0
     22871 TIP3     142      TIP3     H1       HT       0.417000       1.00800           0
     22872 TIP3     142      TIP3     H2       HT       0.417000       1.00800           0
     22873 TIP3     143      TIP3     OH2      OT      -0.834000       15.9994           0
     22874 TIP3     143      TIP3     H1       HT       0.417000       1.00800           0
     22875 TIP3     143      TIP3     H2       HT       0.417000       1.00800           0
     22876 TIP3     144      TIP3     OH2      OT      -0.834000       15.9994           0
     22877 TIP3     144      TIP3     H1       HT       0.417000       1.00800           0
     22878 TIP3     144      TIP3     H2       HT       0.417000       1.00800           0
     22879 TIP3     145      TIP3     OH2      OT      -0.834000       15.9994           0
     22880 TIP3     145      TIP3     H1       HT       0.417000       1.00800           0
     22881 TIP3     145      TIP3     H2       HT       0.417000       1.00800           0
     22882 TIP3     146      TIP3     OH2      OT      -0.834000       15.9994           0
     22883 TIP3     146      TIP3     H1       HT       0.417000       1.00800           0
     22884 TIP3     146      TIP3     H2       HT       0.417000       1.00800           0
     22885 TIP3     147      TIP3     OH2      OT      -0.834000       15.9994           0
     22886 TIP3     147      TIP3     H1       HT       0.417000       1.00800           0
     22887 TIP3     147      TIP3     H2       HT       0.417000       1.00800           0
     22888 TIP3     148      TIP3     OH2      OT      -0.834000       15.9994           0
     22889 TIP3     148      TIP3     H1       HT       0.417000       1.00800           0
     22890 TIP3     148      TIP3     H2       HT       0.417000       1.00800           0
     22891 TIP3     149      TIP3     OH2      OT      -0.834000       15.9994           0
     22892 TIP3     149      TIP3     H1       HT       0.417000       1.00800           0
     22893 TIP3     149      TIP3     H2       HT       0.417000       1.00800           0
     22894 TIP3     150      TIP3     OH2      OT      -0.834000       15.9994           0
     22895 TIP3     150      TIP3     H1       HT       0.417000       1.00800           0
     22896 TIP3     150      TIP3     H2       HT       0.417000       1.00800           0
     22897 TIP3     151      TIP3     OH2      OT      -0.834000       15.9994           0
     22898 TIP3     151      TIP3     H1       HT       0.417000       1.00800           0
     22899 TIP3     151      TIP3     H2       HT       0.417000       1.00800           0
     22900 TIP3     152      TIP3     OH2      OT      -0.834000       15.9994           0
     22901 TIP3     152      TIP3     H1       HT       0.417000       1.00800           0
     22902 TIP3     152      TIP3     H2       HT       0.417000       1.00800           0
     22903 TIP3     153      TIP3     OH2      OT      -0.834000       15.9994           0
     22904 TIP3     153      TIP3     H1       HT       0.417000       1.00800           0
     22905 TIP3     153      TIP3     H2       HT       0.417000       1.00800           0
     22906 TIP3     154      TIP3     OH2      OT      -0.834000       15.9994           0
     22907 TIP3     154      TIP3     H1       HT       0.417000       1.00800           0
     22908 TIP3     154      TIP3     H2       HT       0.417000       1.00800           0
     22909 TIP3     155      TIP3     OH2      OT      -0.834000       15.9994           0
     22910 TIP3     155      TIP3     H1       HT       0.417000       1.00800           0
     22911 TIP3     155      TIP3     H2       HT       0.417000       1.00800           0
     22912 TIP3     156      TIP3     OH2      OT      -0.834000       15.9994           0
     22913 TIP3     156      TIP3     H1       HT       0.417000       1.00800           0
     22914 TIP3     156      TIP3     H2       HT       0.417000       1.00800           0
     22915 TIP3     157      TIP3     OH2      OT      -0.834000       15.9994           0
     22916 TIP3     157      TIP3     H1       HT       0.417000       1.00800           0
     22917 TIP3     157      TIP3     H2       HT       0.417000       1.00800           0
     22918 TIP3     158      TIP3     OH2      OT      -0.834000       15.9994           0
     22919 TIP3     158      TIP3     H1       HT       0.417000       1.00800           0
     22920 TIP3     158      TIP3     H2       HT       0.417000       1.00800           0
     22921 TIP3     159      TIP3     OH2      OT      -0.834000       15.9994           0
     22922 TIP3     159      TIP3     H1       HT       0.417000       1.00800           0
     22923 TIP3     159      TIP3     H2       HT       0.417000       1.00800           0
     22924 TIP3     160      TIP3     OH2      OT      -0.834000       15.9994           0
     22925 TIP3     160      TIP3     H1       HT       0.417000       1.00800           0
     22926 TIP3     160      TIP3     H2       HT       0.417000       1.00800           0
     22927 TIP3     161      TIP3     OH2      OT      -0.834000       15.9994           0
     22928 TIP3     161      TIP3     H1       HT       0.417000       1.00800           0
     22929 TIP3     161      TIP3     H2       HT       0.417000       1.00800           0
     22930 TIP3     162      TIP3     OH2      OT      -0.834000       15.9994           0
     22931 TIP3     162      TIP3     H1       HT       0.417000       1.00800           0
     22932 TIP3     162      TIP3     H2       HT       0.417000       1.00800           0
     22933 TIP3     163      TIP3     OH2      OT      -0.834000       15.9994           0
     22934 TIP3     163      TIP3     H1       HT       0.417000       1.00800           0
     22935 TIP3     163      TIP3     H2       HT       0.417000       1.00800           0
     22936 TIP3     164      TIP3     OH2      OT      -0.834000       15.9994           0
     22937 TIP3     164      TIP3     H1       HT       0.417000       1.00800           0
     22938 TIP3     164      TIP3     H2       HT       0.417000       1.00800           0
     22939 TIP3     165      TIP3     OH2      OT      -0.834000       15.9994           0
     22940 TIP3     165      TIP3     H1       HT       0.417000       1.00800           0
     22941 TIP3     165      TIP3     H2       HT       0.417000       1.00800           0
     22942 TIP3     166      TIP3     OH2      OT      -0.834000       15.9994           0
     22943 TIP3     166      TIP3     H1       HT       0.417000       1.00800           0
     22944 TIP3     166      TIP3     H2       HT       0.417000       1.00800           0
     22945 TIP3     167      TIP3     OH2      OT      -0.834000       15.9994           0
     22946 TIP3     167      TIP3     H1       HT       0.417000       1.00800           0
     22947 TIP3     167      TIP3     H2       HT       0.417000       1.00800           0
     22948 TIP3     168      TIP3     OH2      OT      -0.834000       15.9994           0
     22949 TIP3     168      TIP3     H1       HT       0.417000       1.00800           0
     22950 TIP3     168      TIP3     H2       HT       0.417000       1.00800           0
     22951 TIP3     169      TIP3     OH2      OT      -0.834000       15.9994           0
     22952 TIP3     169      TIP3     H1       HT       0.417000       1.00800           0
     22953 TIP3     169      TIP3     H2       HT       0.417000       1.00800           0
     22954 TIP3     170      TIP3     OH2      OT      -0.834000       15.9994           0
     22955 TIP3     170      TIP3     H1       HT       0.417000       1.00800           0
     22956 TIP3     170      TIP3     H2       HT       0.417000       1.00800           0
     22957 TIP3     171      TIP3     OH2      OT      -0.834000       15.9994           0
     22958 TIP3     171      TIP3     H1       HT       0.417000       1.00800           0
     22959 TIP3     171      TIP3     H2       HT       0.417000       1.00800           0
     22960 TIP3     172      TIP3     OH2      OT      -0.834000       15.9994           0
     22961 TIP3     172      TIP3     H1       HT       0.417000       1.00800           0
     22962 TIP3     172      TIP3     H2       HT       0.417000       1.00800           0
     22963 TIP3     173      TIP3     OH2      OT      -0.834000       15.9994           0
     22964 TIP3     173      TIP3     H1       HT       0.417000       1.00800           0
     22965 TIP3     173      TIP3     H2       HT       0.417000       1.00800           0
     22966 TIP3     174      TIP3     OH2      OT      -0.834000       15.9994           0
     22967 TIP3     174      TIP3     H1       HT       0.417000       1.00800           0
     22968 TIP3     174      TIP3     H2       HT       0.417000       1.00800           0
     22969 TIP3     175      TIP3     OH2      OT      -0.834000       15.9994           0
     22970 TIP3     175      TIP3     H1       HT       0.417000       1.00800           0
     22971 TIP3     175      TIP3     H2       HT       0.417000       1.00800           0
     22972 TIP3     176      TIP3     OH2      OT      -0.834000       15.9994           0
     22973 TIP3     176      TIP3     H1       HT       0.417000       1.00800           0
     22974 TIP3     176      TIP3     H2       HT       0.417000       1.00800           0
     22975 TIP3     177      TIP3     OH2      OT      -0.834000       15.9994           0
     22976 TIP3     177      TIP3     H1       HT       0.417000       1.00800           0
     22977 TIP3     177      TIP3     H2       HT       0.417000       1.00800           0
     22978 TIP3     178      TIP3     OH2      OT      -0.834000       15.9994           0
     22979 TIP3     178      TIP3     H1       HT       0.417000       1.00800           0
     22980 TIP3     178      TIP3     H2       HT       0.417000       1.00800           0
     22981 TIP3     179      TIP3     OH2      OT      -0.834000       15.9994           0
     22982 TIP3     179      TIP3     H1       HT       0.417000       1.00800           0
     22983 TIP3     179      TIP3     H2       HT       0.417000       1.00800           0
     22984 TIP3     180      TIP3     OH2      OT      -0.834000       15.9994           0
     22985 TIP3     180      TIP3     H1       HT       0.417000       1.00800           0
     22986 TIP3     180      TIP3     H2       HT       0.417000       1.00800           0
     22987 TIP3     181      TIP3     OH2      OT      -0.834000       15.9994           0
     22988 TIP3     181      TIP3     H1       HT       0.417000       1.00800           0
     22989 TIP3     181      TIP3     H2       HT       0.417000       1.00800           0
     22990 TIP3     182      TIP3     OH2      OT      -0.834000       15.9994           0
     22991 TIP3     182      TIP3     H1       HT       0.417000       1.00800           0
     22992 TIP3     182      TIP3     H2       HT       0.417000       1.00800           0
     22993 TIP3     183      TIP3     OH2      OT      -0.834000       15.9994           0
     22994 TIP3     183      TIP3     H1       HT       0.417000       1.00800           0
     22995 TIP3     183      TIP3     H2       HT       0.417000       1.00800           0
     22996 TIP3     184      TIP3     OH2      OT      -0.834000       15.9994           0
     22997 TIP3     184      TIP3     H1       HT       0.417000       1.00800           0
     22998 TIP3     184      TIP3     H2       HT       0.417000       1.00800           0
     22999 TIP3     185      TIP3     OH2      OT      -0.834000       15.9994           0
     23000 TIP3     185      TIP3     H1       HT       0.417000       1.00800           0
     23001 TIP3     185      TIP3     H2       HT       0.417000       1.00800           0
     23002 TIP3     186      TIP3     OH2      OT      -0.834000       15.9994           0
     23003 TIP3     186      TIP3     H1       HT       0.417000       1.00800           0
     23004 TIP3     186      TIP3     H2       HT       0.417000       1.00800           0
     23005 TIP3     187      TIP3     OH2      OT      -0.834000       15.9994           0
     23006 TIP3     187      TIP3     H1       HT       0.417000       1.00800           0
     23007 TIP3     187      TIP3     H2       HT       0.417000       1.00800           0
     23008 TIP3     188      TIP3     OH2      OT      -0.834000       15.9994           0
     23009 TIP3     188      TIP3     H1       HT       0.417000       1.00800           0
     23010 TIP3     188      TIP3     H2       HT       0.417000       1.00800           0
     23011 TIP3     189      TIP3     OH2      OT      -0.834000       15.9994           0
     23012 TIP3     189      TIP3     H1       HT       0.417000       1.00800           0
     23013 TIP3     189      TIP3     H2       HT       0.417000       1.00800           0
     23014 TIP3     190      TIP3     OH2      OT      -0.834000       15.9994           0
     23015 TIP3     190      TIP3     H1       HT       0.417000       1.00800           0
     23016 TIP3     190      TIP3     H2       HT       0.417000       1.00800           0
     23017 TIP3     191      TIP3     OH2      OT      -0.834000       15.9994           0
     23018 TIP3     191      TIP3     H1       HT       0.417000       1.00800           0
     23019 TIP3     191      TIP3     H2       HT       0.417000       1.00800           0
     23020 TIP3     192      TIP3     OH2      OT      -0.834000       15.9994           0
     23021 TIP3     192      TIP3     H1       HT       0.417000       1.00800           0
     23022 TIP3     192      TIP3     H2       HT       0.417000       1.00800           0
     23023 TIP3     193      TIP3     OH2      OT      -0.834000       15.9994           0
     23024 TIP3     193      TIP3     H1       HT       0.417000       1.00800           0
     23025 TIP3     193      TIP3     H2       HT       0.417000       1.00800           0
     23026 TIP3     194      TIP3     OH2      OT      -0.834000       15.9994           0
     23027 TIP3     194      TIP3     H1       HT       0.417000       1.00800           0
     23028 TIP3     194      TIP3     H2       HT       0.417000       1.00800           0
     23029 TIP3     195      TIP3     OH2      OT      -0.834000       15.9994           0
     23030 TIP3     195      TIP3     H1       HT       0.417000       1.00800           0
     23031 TIP3     195      TIP3     H2       HT       0.417000       1.00800           0
     23032 TIP3     196      TIP3     OH2      OT      -0.834000       15.9994           0
     23033 TIP3     196      TIP3     H1       HT       0.417000       1.00800           0
     23034 TIP3     196      TIP3     H2       HT       0.417000       1.00800           0
     23035 TIP3     197      TIP3     OH2      OT      -0.834000       15.9994           0
     23036 TIP3     197      TIP3     H1       HT       0.417000       1.00800           0
     23037 TIP3     197      TIP3     H2       HT       0.417000       1.00800           0
     23038 TIP3     198      TIP3     OH2      OT      -0.834000       15.9994           0
     23039 TIP3     198      TIP3     H1       HT       0.417000       1.00800           0
     23040 TIP3     198      TIP3     H2       HT       0.417000       1.00800           0
     23041 TIP3     199      TIP3     OH2      OT      -0.834000       15.9994           0
     23042 TIP3     199      TIP3     H1       HT       0.417000       1.00800           0
     23043 TIP3     199      TIP3     H2       HT       0.417000       1.00800           0
     23044 TIP3     200      TIP3     OH2      OT      -0.834000       15.9994           0
     23045 TIP3     200      TIP3     H1       HT       0.417000       1.00800           0
     23046 TIP3     200      TIP3     H2       HT       0.417000       1.00800           0
     23047 TIP3     201      TIP3     OH2      OT      -0.834000       15.9994           0
     23048 TIP3     201      TIP3     H1       HT       0.417000       1.00800           0
     23049 TIP3     201      TIP3     H2       HT       0.417000       1.00800           0
     23050 TIP3     202      TIP3     OH2      OT      -0.834000       15.9994           0
     23051 TIP3     202      TIP3     H1       HT       0.417000       1.00800           0
     23052 TIP3     202      TIP3     H2       HT       0.417000       1.00800           0
     23053 TIP3     203      TIP3     OH2      OT      -0.834000       15.9994           0
     23054 TIP3     203      TIP3     H1       HT       0.417000       1.00800           0
     23055 TIP3     203      TIP3     H2       HT       0.417000       1.00800           0
     23056 TIP3     204      TIP3     OH2      OT      -0.834000       15.9994           0
     23057 TIP3     204      TIP3     H1       HT       0.417000       1.00800           0
     23058 TIP3     204      TIP3     H2       HT       0.417000       1.00800           0
     23059 TIP3     205      TIP3     OH2      OT      -0.834000       15.9994           0
     23060 TIP3     205      TIP3     H1       HT       0.417000       1.00800           0
     23061 TIP3     205      TIP3     H2       HT       0.417000       1.00800           0
     23062 TIP3     206      TIP3     OH2      OT      -0.834000       15.9994           0
     23063 TIP3     206      TIP3     H1       HT       0.417000       1.00800           0
     23064 TIP3     206      TIP3     H2       HT       0.417000       1.00800           0
     23065 TIP3     207      TIP3     OH2      OT      -0.834000       15.9994           0
     23066 TIP3     207      TIP3     H1       HT       0.417000       1.00800           0
     23067 TIP3     207      TIP3     H2       HT       0.417000       1.00800           0
     23068 TIP3     208      TIP3     OH2      OT      -0.834000       15.9994           0
     23069 TIP3     208      TIP3     H1       HT       0.417000       1.00800           0
     23070 TIP3     208      TIP3     H2       HT       0.417000       1.00800           0
     23071 TIP3     209      TIP3     OH2      OT      -0.834000       15.9994           0
     23072 TIP3     209      TIP3     H1       HT       0.417000       1.00800           0
     23073 TIP3     209      TIP3     H2       HT       0.417000       1.00800           0
     23074 TIP3     210      TIP3     OH2      OT      -0.834000       15.9994           0
     23075 TIP3     210      TIP3     H1       HT       0.417000       1.00800           0
     23076 TIP3     210      TIP3     H2       HT       0.417000       1.00800           0
     23077 TIP3     211      TIP3     OH2      OT      -0.834000       15.9994           0
     23078 TIP3     211      TIP3     H1       HT       0.417000       1.00800           0
     23079 TIP3     211      TIP3     H2       HT       0.417000       1.00800           0
     23080 TIP3     212      TIP3     OH2      OT      -0.834000       15.9994           0
     23081 TIP3     212      TIP3     H1       HT       0.417000       1.00800           0
     23082 TIP3     212      TIP3     H2       HT       0.417000       1.00800           0
     23083 TIP3     213      TIP3     OH2      OT      -0.834000       15.9994           0
     23084 TIP3     213      TIP3     H1       HT       0.417000       1.00800           0
     23085 TIP3     213      TIP3     H2       HT       0.417000       1.00800           0
     23086 TIP3     214      TIP3     OH2      OT      -0.834000       15.9994           0
     23087 TIP3     214      TIP3     H1       HT       0.417000       1.00800           0
     23088 TIP3     214      TIP3     H2       HT       0.417000       1.00800           0
     23089 TIP3     215      TIP3     OH2      OT      -0.834000       15.9994           0
     23090 TIP3     215      TIP3     H1       HT       0.417000       1.00800           0
     23091 TIP3     215      TIP3     H2       HT       0.417000       1.00800           0
     23092 TIP3     216      TIP3     OH2      OT      -0.834000       15.9994           0
     23093 TIP3     216      TIP3     H1       HT       0.417000       1.00800           0
     23094 TIP3     216      TIP3     H2       HT       0.417000       1.00800           0
     23095 TIP3     217      TIP3     OH2      OT      -0.834000       15.9994           0
     23096 TIP3     217      TIP3     H1       HT       0.417000       1.00800           0
     23097 TIP3     217      TIP3     H2       HT       0.417000       1.00800           0
     23098 TIP3     218      TIP3     OH2      OT      -0.834000       15.9994           0
     23099 TIP3     218      TIP3     H1       HT       0.417000       1.00800           0
     23100 TIP3     218      TIP3     H2       HT       0.417000       1.00800           0
     23101 TIP3     219      TIP3     OH2      OT      -0.834000       15.9994           0
     23102 TIP3     219      TIP3     H1       HT       0.417000       1.00800           0
     23103 TIP3     219      TIP3     H2       HT       0.417000       1.00800           0
     23104 TIP3     220      TIP3     OH2      OT      -0.834000       15.9994           0
     23105 TIP3     220      TIP3     H1       HT       0.417000       1.00800           0
     23106 TIP3     220      TIP3     H2       HT       0.417000       1.00800           0
     23107 TIP3     221      TIP3     OH2      OT      -0.834000       15.9994           0
     23108 TIP3     221      TIP3     H1       HT       0.417000       1.00800           0
     23109 TIP3     221      TIP3     H2       HT       0.417000       1.00800           0
     23110 TIP3     222      TIP3     OH2      OT      -0.834000       15.9994           0
     23111 TIP3     222      TIP3     H1       HT       0.417000       1.00800           0
     23112 TIP3     222      TIP3     H2       HT       0.417000       1.00800           0
     23113 TIP3     223      TIP3     OH2      OT      -0.834000       15.9994           0
     23114 TIP3     223      TIP3     H1       HT       0.417000       1.00800           0
     23115 TIP3     223      TIP3     H2       HT       0.417000       1.00800           0
     23116 TIP3     224      TIP3     OH2      OT      -0.834000       15.9994           0
     23117 TIP3     224      TIP3     H1       HT       0.417000       1.00800           0
     23118 TIP3     224      TIP3     H2       HT       0.417000       1.00800           0
     23119 TIP3     225      TIP3     OH2      OT      -0.834000       15.9994           0
     23120 TIP3     225      TIP3     H1       HT       0.417000       1.00800           0
     23121 TIP3     225      TIP3     H2       HT       0.417000       1.00800           0
     23122 TIP3     226      TIP3     OH2      OT      -0.834000       15.9994           0
     23123 TIP3     226      TIP3     H1       HT       0.417000       1.00800           0
     23124 TIP3     226      TIP3     H2       HT       0.417000       1.00800           0
     23125 TIP3     227      TIP3     OH2      OT      -0.834000       15.9994           0
     23126 TIP3     227      TIP3     H1       HT       0.417000       1.00800           0
     23127 TIP3     227      TIP3     H2       HT       0.417000       1.00800           0
     23128 TIP3     228      TIP3     OH2      OT      -0.834000       15.9994           0
     23129 TIP3     228      TIP3     H1       HT       0.417000       1.00800           0
     23130 TIP3     228      TIP3     H2       HT       0.417000       1.00800           0
     23131 TIP3     229      TIP3     OH2      OT      -0.834000       15.9994           0
     23132 TIP3     229      TIP3     H1       HT       0.417000       1.00800           0
     23133 TIP3     229      TIP3     H2       HT       0.417000       1.00800           0
     23134 TIP3     230      TIP3     OH2      OT      -0.834000       15.9994           0
     23135 TIP3     230      TIP3     H1       HT       0.417000       1.00800           0
     23136 TIP3     230      TIP3     H2       HT       0.417000       1.00800           0
     23137 TIP3     231      TIP3     OH2      OT      -0.834000       15.9994           0
     23138 TIP3     231      TIP3     H1       HT       0.417000       1.00800           0
     23139 TIP3     231      TIP3     H2       HT       0.417000       1.00800           0
     23140 TIP3     232      TIP3     OH2      OT      -0.834000       15.9994           0
     23141 TIP3     232      TIP3     H1       HT       0.417000       1.00800           0
     23142 TIP3     232      TIP3     H2       HT       0.417000       1.00800           0
     23143 TIP3     233      TIP3     OH2      OT      -0.834000       15.9994           0
     23144 TIP3     233      TIP3     H1       HT       0.417000       1.00800           0
     23145 TIP3     233      TIP3     H2       HT       0.417000       1.00800           0
     23146 TIP3     234      TIP3     OH2      OT      -0.834000       15.9994           0
     23147 TIP3     234      TIP3     H1       HT       0.417000       1.00800           0
     23148 TIP3     234      TIP3     H2       HT       0.417000       1.00800           0
     23149 TIP3     235      TIP3     OH2      OT      -0.834000       15.9994           0
     23150 TIP3     235      TIP3     H1       HT       0.417000       1.00800           0
     23151 TIP3     235      TIP3     H2       HT       0.417000       1.00800           0
     23152 TIP3     236      TIP3     OH2      OT      -0.834000       15.9994           0
     23153 TIP3     236      TIP3     H1       HT       0.417000       1.00800           0
     23154 TIP3     236      TIP3     H2       HT       0.417000       1.00800           0
     23155 TIP3     237      TIP3     OH2      OT      -0.834000       15.9994           0
     23156 TIP3     237      TIP3     H1       HT       0.417000       1.00800           0
     23157 TIP3     237      TIP3     H2       HT       0.417000       1.00800           0
     23158 TIP3     238      TIP3     OH2      OT      -0.834000       15.9994           0
     23159 TIP3     238      TIP3     H1       HT       0.417000       1.00800           0
     23160 TIP3     238      TIP3     H2       HT       0.417000       1.00800           0
     23161 TIP3     239      TIP3     OH2      OT      -0.834000       15.9994           0
     23162 TIP3     239      TIP3     H1       HT       0.417000       1.00800           0
     23163 TIP3     239      TIP3     H2       HT       0.417000       1.00800           0
     23164 TIP3     240      TIP3     OH2      OT      -0.834000       15.9994           0
     23165 TIP3     240      TIP3     H1       HT       0.417000       1.00800           0
     23166 TIP3     240      TIP3     H2       HT       0.417000       1.00800           0
     23167 TIP3     241      TIP3     OH2      OT      -0.834000       15.9994           0
     23168 TIP3     241      TIP3     H1       HT       0.417000       1.00800           0
     23169 TIP3     241      TIP3     H2       HT       0.417000       1.00800           0
     23170 TIP3     242      TIP3     OH2      OT      -0.834000       15.9994           0
     23171 TIP3     242      TIP3     H1       HT       0.417000       1.00800           0
     23172 TIP3     242      TIP3     H2       HT       0.417000       1.00800           0
     23173 TIP3     243      TIP3     OH2      OT      -0.834000       15.9994           0
     23174 TIP3     243      TIP3     H1       HT       0.417000       1.00800           0
     23175 TIP3     243      TIP3     H2       HT       0.417000       1.00800           0
     23176 TIP3     244      TIP3     OH2      OT      -0.834000       15.9994           0
     23177 TIP3     244      TIP3     H1       HT       0.417000       1.00800           0
     23178 TIP3     244      TIP3     H2       HT       0.417000       1.00800           0
     23179 TIP3     245      TIP3     OH2      OT      -0.834000       15.9994           0
     23180 TIP3     245      TIP3     H1       HT       0.417000       1.00800           0
     23181 TIP3     245      TIP3     H2       HT       0.417000       1.00800           0
     23182 TIP3     246      TIP3     OH2      OT      -0.834000       15.9994           0
     23183 TIP3     246      TIP3     H1       HT       0.417000       1.00800           0
     23184 TIP3     246      TIP3     H2       HT       0.417000       1.00800           0
     23185 TIP3     247      TIP3     OH2      OT      -0.834000       15.9994           0
     23186 TIP3     247      TIP3     H1       HT       0.417000       1.00800           0
     23187 TIP3     247      TIP3     H2       HT       0.417000       1.00800           0
     23188 TIP3     248      TIP3     OH2      OT      -0.834000       15.9994           0
     23189 TIP3     248      TIP3     H1       HT       0.417000       1.00800           0
     23190 TIP3     248      TIP3     H2       HT       0.417000       1.00800           0
     23191 TIP3     249      TIP3     OH2      OT      -0.834000       15.9994           0
     23192 TIP3     249      TIP3     H1       HT       0.417000       1.00800           0
     23193 TIP3     249      TIP3     H2       HT       0.417000       1.00800           0
     23194 TIP3     250      TIP3     OH2      OT      -0.834000       15.9994           0
     23195 TIP3     250      TIP3     H1       HT       0.417000       1.00800           0
     23196 TIP3     250      TIP3     H2       HT       0.417000       1.00800           0
     23197 TIP3     251      TIP3     OH2      OT      -0.834000       15.9994           0
     23198 TIP3     251      TIP3     H1       HT       0.417000       1.00800           0
     23199 TIP3     251      TIP3     H2       HT       0.417000       1.00800           0
     23200 TIP3     252      TIP3     OH2      OT      -0.834000       15.9994           0
     23201 TIP3     252      TIP3     H1       HT       0.417000       1.00800           0
     23202 TIP3     252      TIP3     H2       HT       0.417000       1.00800           0
     23203 TIP3     253      TIP3     OH2      OT      -0.834000       15.9994           0
     23204 TIP3     253      TIP3     H1       HT       0.417000       1.00800           0
     23205 TIP3     253      TIP3     H2       HT       0.417000       1.00800           0
     23206 TIP3     254      TIP3     OH2      OT      -0.834000       15.9994           0
     23207 TIP3     254      TIP3     H1       HT       0.417000       1.00800           0
     23208 TIP3     254      TIP3     H2       HT       0.417000       1.00800           0
     23209 TIP3     255      TIP3     OH2      OT      -0.834000       15.9994           0
     23210 TIP3     255      TIP3     H1       HT       0.417000       1.00800           0
     23211 TIP3     255      TIP3     H2       HT       0.417000       1.00800           0
     23212 TIP3     256      TIP3     OH2      OT      -0.834000       15.9994           0
     23213 TIP3     256      TIP3     H1       HT       0.417000       1.00800           0
     23214 TIP3     256      TIP3     H2       HT       0.417000       1.00800           0
     23215 TIP3     257      TIP3     OH2      OT      -0.834000       15.9994           0
     23216 TIP3     257      TIP3     H1       HT       0.417000       1.00800           0
     23217 TIP3     257      TIP3     H2       HT       0.417000       1.00800           0
     23218 TIP3     258      TIP3     OH2      OT      -0.834000       15.9994           0
     23219 TIP3     258      TIP3     H1       HT       0.417000       1.00800           0
     23220 TIP3     258      TIP3     H2       HT       0.417000       1.00800           0
     23221 TIP3     259      TIP3     OH2      OT      -0.834000       15.9994           0
     23222 TIP3     259      TIP3     H1       HT       0.417000       1.00800           0
     23223 TIP3     259      TIP3     H2       HT       0.417000       1.00800           0
     23224 TIP3     260      TIP3     OH2      OT      -0.834000       15.9994           0
     23225 TIP3     260      TIP3     H1       HT       0.417000       1.00800           0
     23226 TIP3     260      TIP3     H2       HT       0.417000       1.00800           0
     23227 TIP3     261      TIP3     OH2      OT      -0.834000       15.9994           0
     23228 TIP3     261      TIP3     H1       HT       0.417000       1.00800           0
     23229 TIP3     261      TIP3     H2       HT       0.417000       1.00800           0
     23230 TIP3     262      TIP3     OH2      OT      -0.834000       15.9994           0
     23231 TIP3     262      TIP3     H1       HT       0.417000       1.00800           0
     23232 TIP3     262      TIP3     H2       HT       0.417000       1.00800           0
     23233 TIP3     263      TIP3     OH2      OT      -0.834000       15.9994           0
     23234 TIP3     263      TIP3     H1       HT       0.417000       1.00800           0
     23235 TIP3     263      TIP3     H2       HT       0.417000       1.00800           0
     23236 TIP3     264      TIP3     OH2      OT      -0.834000       15.9994           0
     23237 TIP3     264      TIP3     H1       HT       0.417000       1.00800           0
     23238 TIP3     264      TIP3     H2       HT       0.417000       1.00800           0
     23239 TIP3     265      TIP3     OH2      OT      -0.834000       15.9994           0
     23240 TIP3     265      TIP3     H1       HT       0.417000       1.00800           0
     23241 TIP3     265      TIP3     H2       HT       0.417000       1.00800           0
     23242 TIP3     266      TIP3     OH2      OT      -0.834000       15.9994           0
     23243 TIP3     266      TIP3     H1       HT       0.417000       1.00800           0
     23244 TIP3     266      TIP3     H2       HT       0.417000       1.00800           0
     23245 TIP3     267      TIP3     OH2      OT      -0.834000       15.9994           0
     23246 TIP3     267      TIP3     H1       HT       0.417000       1.00800           0
     23247 TIP3     267      TIP3     H2       HT       0.417000       1.00800           0
     23248 TIP3     268      TIP3     OH2      OT      -0.834000       15.9994           0
     23249 TIP3     268      TIP3     H1       HT       0.417000       1.00800           0
     23250 TIP3     268      TIP3     H2       HT       0.417000       1.00800           0
     23251 TIP3     269      TIP3     OH2      OT      -0.834000       15.9994           0
     23252 TIP3     269      TIP3     H1       HT       0.417000       1.00800           0
     23253 TIP3     269      TIP3     H2       HT       0.417000       1.00800           0
     23254 TIP3     270      TIP3     OH2      OT      -0.834000       15.9994           0
     23255 TIP3     270      TIP3     H1       HT       0.417000       1.00800           0
     23256 TIP3     270      TIP3     H2       HT       0.417000       1.00800           0
     23257 TIP3     271      TIP3     OH2      OT      -0.834000       15.9994           0
     23258 TIP3     271      TIP3     H1       HT       0.417000       1.00800           0
     23259 TIP3     271      TIP3     H2       HT       0.417000       1.00800           0
     23260 TIP3     272      TIP3     OH2      OT      -0.834000       15.9994           0
     23261 TIP3     272      TIP3     H1       HT       0.417000       1.00800           0
     23262 TIP3     272      TIP3     H2       HT       0.417000       1.00800           0
     23263 TIP3     273      TIP3     OH2      OT      -0.834000       15.9994           0
     23264 TIP3     273      TIP3     H1       HT       0.417000       1.00800           0
     23265 TIP3     273      TIP3     H2       HT       0.417000       1.00800           0
     23266 TIP3     274      TIP3     OH2      OT      -0.834000       15.9994           0
     23267 TIP3     274      TIP3     H1       HT       0.417000       1.00800           0
     23268 TIP3     274      TIP3     H2       HT       0.417000       1.00800           0
     23269 TIP3     275      TIP3     OH2      OT      -0.834000       15.9994           0
     23270 TIP3     275      TIP3     H1       HT       0.417000       1.00800           0
     23271 TIP3     275      TIP3     H2       HT       0.417000       1.00800           0
     23272 TIP3     276      TIP3     OH2      OT      -0.834000       15.9994           0
     23273 TIP3     276      TIP3     H1       HT       0.417000       1.00800           0
     23274 TIP3     276      TIP3     H2       HT       0.417000       1.00800           0
     23275 TIP3     277      TIP3     OH2      OT      -0.834000       15.9994           0
     23276 TIP3     277      TIP3     H1       HT       0.417000       1.00800           0
     23277 TIP3     277      TIP3     H2       HT       0.417000       1.00800           0
     23278 TIP3     278      TIP3     OH2      OT      -0.834000       15.9994           0
     23279 TIP3     278      TIP3     H1       HT       0.417000       1.00800           0
     23280 TIP3     278      TIP3     H2       HT       0.417000       1.00800           0
     23281 TIP3     279      TIP3     OH2      OT      -0.834000       15.9994           0
     23282 TIP3     279      TIP3     H1       HT       0.417000       1.00800           0
     23283 TIP3     279      TIP3     H2       HT       0.417000       1.00800           0
     23284 TIP3     280      TIP3     OH2      OT      -0.834000       15.9994           0
     23285 TIP3     280      TIP3     H1       HT       0.417000       1.00800           0
     23286 TIP3     280      TIP3     H2       HT       0.417000       1.00800           0
     23287 TIP3     281      TIP3     OH2      OT      -0.834000       15.9994           0
     23288 TIP3     281      TIP3     H1       HT       0.417000       1.00800           0
     23289 TIP3     281      TIP3     H2       HT       0.417000       1.00800           0
     23290 TIP3     282      TIP3     OH2      OT      -0.834000       15.9994           0
     23291 TIP3     282      TIP3     H1       HT       0.417000       1.00800           0
     23292 TIP3     282      TIP3     H2       HT       0.417000       1.00800           0
     23293 TIP3     283      TIP3     OH2      OT      -0.834000       15.9994           0
     23294 TIP3     283      TIP3     H1       HT       0.417000       1.00800           0
     23295 TIP3     283      TIP3     H2       HT       0.417000       1.00800           0
     23296 TIP3     284      TIP3     OH2      OT      -0.834000       15.9994           0
     23297 TIP3     284      TIP3     H1       HT       0.417000       1.00800           0
     23298 TIP3     284      TIP3     H2       HT       0.417000       1.00800           0
     23299 TIP3     285      TIP3     OH2      OT      -0.834000       15.9994           0
     23300 TIP3     285      TIP3     H1       HT       0.417000       1.00800           0
     23301 TIP3     285      TIP3     H2       HT       0.417000       1.00800           0
     23302 TIP3     286      TIP3     OH2      OT      -0.834000       15.9994           0
     23303 TIP3     286      TIP3     H1       HT       0.417000       1.00800           0
     23304 TIP3     286      TIP3     H2       HT       0.417000       1.00800           0
     23305 TIP3     287      TIP3     OH2      OT      -0.834000       15.9994           0
     23306 TIP3     287      TIP3     H1       HT       0.417000       1.00800           0
     23307 TIP3     287      TIP3     H2       HT       0.417000       1.00800           0
     23308 TIP3     288      TIP3     OH2      OT      -0.834000       15.9994           0
     23309 TIP3     288      TIP3     H1       HT       0.417000       1.00800           0
     23310 TIP3     288      TIP3     H2       HT       0.417000       1.00800           0
     23311 TIP3     289      TIP3     OH2      OT      -0.834000       15.9994           0
     23312 TIP3     289      TIP3     H1       HT       0.417000       1.00800           0
     23313 TIP3     289      TIP3     H2       HT       0.417000       1.00800           0
     23314 TIP3     290      TIP3     OH2      OT      -0.834000       15.9994           0
     23315 TIP3     290      TIP3     H1       HT       0.417000       1.00800           0
     23316 TIP3     290      TIP3     H2       HT       0.417000       1.00800           0
     23317 TIP3     291      TIP3     OH2      OT      -0.834000       15.9994           0
     23318 TIP3     291      TIP3     H1       HT       0.417000       1.00800           0
     23319 TIP3     291      TIP3     H2       HT       0.417000       1.00800           0
     23320 TIP3     292      TIP3     OH2      OT      -0.834000       15.9994           0
     23321 TIP3     292      TIP3     H1       HT       0.417000       1.00800           0
     23322 TIP3     292      TIP3     H2       HT       0.417000       1.00800           0
     23323 TIP3     293      TIP3     OH2      OT      -0.834000       15.9994           0
     23324 TIP3     293      TIP3     H1       HT       0.417000       1.00800           0
     23325 TIP3     293      TIP3     H2       HT       0.417000       1.00800           0
     23326 TIP3     294      TIP3     OH2      OT      -0.834000       15.9994           0
     23327 TIP3     294      TIP3     H1       HT       0.417000       1.00800           0
     23328 TIP3     294      TIP3     H2       HT       0.417000       1.00800           0
     23329 TIP3     295      TIP3     OH2      OT      -0.834000       15.9994           0
     23330 TIP3     295      TIP3     H1       HT       0.417000       1.00800           0
     23331 TIP3     295      TIP3     H2       HT       0.417000       1.00800           0
     23332 TIP3     296      TIP3     OH2      OT      -0.834000       15.9994           0
     23333 TIP3     296      TIP3     H1       HT       0.417000       1.00800           0
     23334 TIP3     296      TIP3     H2       HT       0.417000       1.00800           0
     23335 TIP3     297      TIP3     OH2      OT      -0.834000       15.9994           0
     23336 TIP3     297      TIP3     H1       HT       0.417000       1.00800           0
     23337 TIP3     297      TIP3     H2       HT       0.417000       1.00800           0
     23338 TIP3     298      TIP3     OH2      OT      -0.834000       15.9994           0
     23339 TIP3     298      TIP3     H1       HT       0.417000       1.00800           0
     23340 TIP3     298      TIP3     H2       HT       0.417000       1.00800           0
     23341 TIP3     299      TIP3     OH2      OT      -0.834000       15.9994           0
     23342 TIP3     299      TIP3     H1       HT       0.417000       1.00800           0
     23343 TIP3     299      TIP3     H2       HT       0.417000       1.00800           0
     23344 TIP3     300      TIP3     OH2      OT      -0.834000       15.9994           0
     23345 TIP3     300      TIP3     H1       HT       0.417000       1.00800           0
     23346 TIP3     300      TIP3     H2       HT       0.417000       1.00800           0
     23347 TIP3     301      TIP3     OH2      OT      -0.834000       15.9994           0
     23348 TIP3     301      TIP3     H1       HT       0.417000       1.00800           0
     23349 TIP3     301      TIP3     H2       HT       0.417000       1.00800           0
     23350 TIP3     302      TIP3     OH2      OT      -0.834000       15.9994           0
     23351 TIP3     302      TIP3     H1       HT       0.417000       1.00800           0
     23352 TIP3     302      TIP3     H2       HT       0.417000       1.00800           0
     23353 TIP3     303      TIP3     OH2      OT      -0.834000       15.9994           0
     23354 TIP3     303      TIP3     H1       HT       0.417000       1.00800           0
     23355 TIP3     303      TIP3     H2       HT       0.417000       1.00800           0
     23356 TIP3     304      TIP3     OH2      OT      -0.834000       15.9994           0
     23357 TIP3     304      TIP3     H1       HT       0.417000       1.00800           0
     23358 TIP3     304      TIP3     H2       HT       0.417000       1.00800           0
     23359 TIP3     305      TIP3     OH2      OT      -0.834000       15.9994           0
     23360 TIP3     305      TIP3     H1       HT       0.417000       1.00800           0
     23361 TIP3     305      TIP3     H2       HT       0.417000       1.00800           0
     23362 TIP3     306      TIP3     OH2      OT      -0.834000       15.9994           0
     23363 TIP3     306      TIP3     H1       HT       0.417000       1.00800           0
     23364 TIP3     306      TIP3     H2       HT       0.417000       1.00800           0
     23365 TIP3     307      TIP3     OH2      OT      -0.834000       15.9994           0
     23366 TIP3     307      TIP3     H1       HT       0.417000       1.00800           0
     23367 TIP3     307      TIP3     H2       HT       0.417000       1.00800           0
     23368 TIP3     308      TIP3     OH2      OT      -0.834000       15.9994           0
     23369 TIP3     308      TIP3     H1       HT       0.417000       1.00800           0
     23370 TIP3     308      TIP3     H2       HT       0.417000       1.00800           0
     23371 TIP3     309      TIP3     OH2      OT      -0.834000       15.9994           0
     23372 TIP3     309      TIP3     H1       HT       0.417000       1.00800           0
     23373 TIP3     309      TIP3     H2       HT       0.417000       1.00800           0
     23374 TIP3     310      TIP3     OH2      OT      -0.834000       15.9994           0
     23375 TIP3     310      TIP3     H1       HT       0.417000       1.00800           0
     23376 TIP3     310      TIP3     H2       HT       0.417000       1.00800           0
     23377 TIP3     311      TIP3     OH2      OT      -0.834000       15.9994           0
     23378 TIP3     311      TIP3     H1       HT       0.417000       1.00800           0
     23379 TIP3     311      TIP3     H2       HT       0.417000       1.00800           0
     23380 TIP3     312      TIP3     OH2      OT      -0.834000       15.9994           0
     23381 TIP3     312      TIP3     H1       HT       0.417000       1.00800           0
     23382 TIP3     312      TIP3     H2       HT       0.417000       1.00800           0
     23383 TIP3     313      TIP3     OH2      OT      -0.834000       15.9994           0
     23384 TIP3     313      TIP3     H1       HT       0.417000       1.00800           0
     23385 TIP3     313      TIP3     H2       HT       0.417000       1.00800           0
     23386 TIP3     314      TIP3     OH2      OT      -0.834000       15.9994           0
     23387 TIP3     314      TIP3     H1       HT       0.417000       1.00800           0
     23388 TIP3     314      TIP3     H2       HT       0.417000       1.00800           0
     23389 TIP3     315      TIP3     OH2      OT      -0.834000       15.9994           0
     23390 TIP3     315      TIP3     H1       HT       0.417000       1.00800           0
     23391 TIP3     315      TIP3     H2       HT       0.417000       1.00800           0
     23392 TIP3     316      TIP3     OH2      OT      -0.834000       15.9994           0
     23393 TIP3     316      TIP3     H1       HT       0.417000       1.00800           0
     23394 TIP3     316      TIP3     H2       HT       0.417000       1.00800           0
     23395 TIP3     317      TIP3     OH2      OT      -0.834000       15.9994           0
     23396 TIP3     317      TIP3     H1       HT       0.417000       1.00800           0
     23397 TIP3     317      TIP3     H2       HT       0.417000       1.00800           0
     23398 TIP3     318      TIP3     OH2      OT      -0.834000       15.9994           0
     23399 TIP3     318      TIP3     H1       HT       0.417000       1.00800           0
     23400 TIP3     318      TIP3     H2       HT       0.417000       1.00800           0
     23401 TIP3     319      TIP3     OH2      OT      -0.834000       15.9994           0
     23402 TIP3     319      TIP3     H1       HT       0.417000       1.00800           0
     23403 TIP3     319      TIP3     H2       HT       0.417000       1.00800           0
     23404 TIP3     320      TIP3     OH2      OT      -0.834000       15.9994           0
     23405 TIP3     320      TIP3     H1       HT       0.417000       1.00800           0
     23406 TIP3     320      TIP3     H2       HT       0.417000       1.00800           0
     23407 TIP3     321      TIP3     OH2      OT      -0.834000       15.9994           0
     23408 TIP3     321      TIP3     H1       HT       0.417000       1.00800           0
     23409 TIP3     321      TIP3     H2       HT       0.417000       1.00800           0
     23410 TIP3     322      TIP3     OH2      OT      -0.834000       15.9994           0
     23411 TIP3     322      TIP3     H1       HT       0.417000       1.00800           0
     23412 TIP3     322      TIP3     H2       HT       0.417000       1.00800           0
     23413 TIP3     323      TIP3     OH2      OT      -0.834000       15.9994           0
     23414 TIP3     323      TIP3     H1       HT       0.417000       1.00800           0
     23415 TIP3     323      TIP3     H2       HT       0.417000       1.00800           0
     23416 TIP3     324      TIP3     OH2      OT      -0.834000       15.9994           0
     23417 TIP3     324      TIP3     H1       HT       0.417000       1.00800           0
     23418 TIP3     324      TIP3     H2       HT       0.417000       1.00800           0
     23419 TIP3     325      TIP3     OH2      OT      -0.834000       15.9994           0
     23420 TIP3     325      TIP3     H1       HT       0.417000       1.00800           0
     23421 TIP3     325      TIP3     H2       HT       0.417000       1.00800           0
     23422 TIP3     326      TIP3     OH2      OT      -0.834000       15.9994           0
     23423 TIP3     326      TIP3     H1       HT       0.417000       1.00800           0
     23424 TIP3     326      TIP3     H2       HT       0.417000       1.00800           0
     23425 TIP3     327      TIP3     OH2      OT      -0.834000       15.9994           0
     23426 TIP3     327      TIP3     H1       HT       0.417000       1.00800           0
     23427 TIP3     327      TIP3     H2       HT       0.417000       1.00800           0
     23428 TIP3     328      TIP3     OH2      OT      -0.834000       15.9994           0
     23429 TIP3     328      TIP3     H1       HT       0.417000       1.00800           0
     23430 TIP3     328      TIP3     H2       HT       0.417000       1.00800           0
     23431 TIP3     329      TIP3     OH2      OT      -0.834000       15.9994           0
     23432 TIP3     329      TIP3     H1       HT       0.417000       1.00800           0
     23433 TIP3     329      TIP3     H2       HT       0.417000       1.00800           0
     23434 TIP3     330      TIP3     OH2      OT      -0.834000       15.9994           0
     23435 TIP3     330      TIP3     H1       HT       0.417000       1.00800           0
     23436 TIP3     330      TIP3     H2       HT       0.417000       1.00800           0
     23437 TIP3     331      TIP3     OH2      OT      -0.834000       15.9994           0
     23438 TIP3     331      TIP3     H1       HT       0.417000       1.00800           0
     23439 TIP3     331      TIP3     H2       HT       0.417000       1.00800           0
     23440 TIP3     332      TIP3     OH2      OT      -0.834000       15.9994           0
     23441 TIP3     332      TIP3     H1       HT       0.417000       1.00800           0
     23442 TIP3     332      TIP3     H2       HT       0.417000       1.00800           0
     23443 TIP3     333      TIP3     OH2      OT      -0.834000       15.9994           0
     23444 TIP3     333      TIP3     H1       HT       0.417000       1.00800           0
     23445 TIP3     333      TIP3     H2       HT       0.417000       1.00800           0
     23446 TIP3     334      TIP3     OH2      OT      -0.834000       15.9994           0
     23447 TIP3     334      TIP3     H1       HT       0.417000       1.00800           0
     23448 TIP3     334      TIP3     H2       HT       0.417000       1.00800           0
     23449 TIP3     335      TIP3     OH2      OT      -0.834000       15.9994           0
     23450 TIP3     335      TIP3     H1       HT       0.417000       1.00800           0
     23451 TIP3     335      TIP3     H2       HT       0.417000       1.00800           0
     23452 TIP3     336      TIP3     OH2      OT      -0.834000       15.9994           0
     23453 TIP3     336      TIP3     H1       HT       0.417000       1.00800           0
     23454 TIP3     336      TIP3     H2       HT       0.417000       1.00800           0
     23455 TIP3     337      TIP3     OH2      OT      -0.834000       15.9994           0
     23456 TIP3     337      TIP3     H1       HT       0.417000       1.00800           0
     23457 TIP3     337      TIP3     H2       HT       0.417000       1.00800           0
     23458 TIP3     338      TIP3     OH2      OT      -0.834000       15.9994           0
     23459 TIP3     338      TIP3     H1       HT       0.417000       1.00800           0
     23460 TIP3     338      TIP3     H2       HT       0.417000       1.00800           0
     23461 TIP3     339      TIP3     OH2      OT      -0.834000       15.9994           0
     23462 TIP3     339      TIP3     H1       HT       0.417000       1.00800           0
     23463 TIP3     339      TIP3     H2       HT       0.417000       1.00800           0
     23464 TIP3     340      TIP3     OH2      OT      -0.834000       15.9994           0
     23465 TIP3     340      TIP3     H1       HT       0.417000       1.00800           0
     23466 TIP3     340      TIP3     H2       HT       0.417000       1.00800           0
     23467 TIP3     341      TIP3     OH2      OT      -0.834000       15.9994           0
     23468 TIP3     341      TIP3     H1       HT       0.417000       1.00800           0
     23469 TIP3     341      TIP3     H2       HT       0.417000       1.00800           0
     23470 TIP3     342      TIP3     OH2      OT      -0.834000       15.9994           0
     23471 TIP3     342      TIP3     H1       HT       0.417000       1.00800           0
     23472 TIP3     342      TIP3     H2       HT       0.417000       1.00800           0
     23473 TIP3     343      TIP3     OH2      OT      -0.834000       15.9994           0
     23474 TIP3     343      TIP3     H1       HT       0.417000       1.00800           0
     23475 TIP3     343      TIP3     H2       HT       0.417000       1.00800           0
     23476 TIP3     344      TIP3     OH2      OT      -0.834000       15.9994           0
     23477 TIP3     344      TIP3     H1       HT       0.417000       1.00800           0
     23478 TIP3     344      TIP3     H2       HT       0.417000       1.00800           0
     23479 TIP3     345      TIP3     OH2      OT      -0.834000       15.9994           0
     23480 TIP3     345      TIP3     H1       HT       0.417000       1.00800           0
     23481 TIP3     345      TIP3     H2       HT       0.417000       1.00800           0
     23482 TIP3     346      TIP3     OH2      OT      -0.834000       15.9994           0
     23483 TIP3     346      TIP3     H1       HT       0.417000       1.00800           0
     23484 TIP3     346      TIP3     H2       HT       0.417000       1.00800           0
     23485 TIP3     347      TIP3     OH2      OT      -0.834000       15.9994           0
     23486 TIP3     347      TIP3     H1       HT       0.417000       1.00800           0
     23487 TIP3     347      TIP3     H2       HT       0.417000       1.00800           0
     23488 TIP3     348      TIP3     OH2      OT      -0.834000       15.9994           0
     23489 TIP3     348      TIP3     H1       HT       0.417000       1.00800           0
     23490 TIP3     348      TIP3     H2       HT       0.417000       1.00800           0
     23491 TIP3     349      TIP3     OH2      OT      -0.834000       15.9994           0
     23492 TIP3     349      TIP3     H1       HT       0.417000       1.00800           0
     23493 TIP3     349      TIP3     H2       HT       0.417000       1.00800           0
     23494 TIP3     350      TIP3     OH2      OT      -0.834000       15.9994           0
     23495 TIP3     350      TIP3     H1       HT       0.417000       1.00800           0
     23496 TIP3     350      TIP3     H2       HT       0.417000       1.00800           0
     23497 TIP3     351      TIP3     OH2      OT      -0.834000       15.9994           0
     23498 TIP3     351      TIP3     H1       HT       0.417000       1.00800           0
     23499 TIP3     351      TIP3     H2       HT       0.417000       1.00800           0
     23500 TIP3     352      TIP3     OH2      OT      -0.834000       15.9994           0
     23501 TIP3     352      TIP3     H1       HT       0.417000       1.00800           0
     23502 TIP3     352      TIP3     H2       HT       0.417000       1.00800           0
     23503 TIP3     353      TIP3     OH2      OT      -0.834000       15.9994           0
     23504 TIP3     353      TIP3     H1       HT       0.417000       1.00800           0
     23505 TIP3     353      TIP3     H2       HT       0.417000       1.00800           0
     23506 TIP3     354      TIP3     OH2      OT      -0.834000       15.9994           0
     23507 TIP3     354      TIP3     H1       HT       0.417000       1.00800           0
     23508 TIP3     354      TIP3     H2       HT       0.417000       1.00800           0
     23509 TIP3     355      TIP3     OH2      OT      -0.834000       15.9994           0
     23510 TIP3     355      TIP3     H1       HT       0.417000       1.00800           0
     23511 TIP3     355      TIP3     H2       HT       0.417000       1.00800           0
     23512 TIP3     356      TIP3     OH2      OT      -0.834000       15.9994           0
     23513 TIP3     356      TIP3     H1       HT       0.417000       1.00800           0
     23514 TIP3     356      TIP3     H2       HT       0.417000       1.00800           0
     23515 TIP3     357      TIP3     OH2      OT      -0.834000       15.9994           0
     23516 TIP3     357      TIP3     H1       HT       0.417000       1.00800           0
     23517 TIP3     357      TIP3     H2       HT       0.417000       1.00800           0
     23518 TIP3     358      TIP3     OH2      OT      -0.834000       15.9994           0
     23519 TIP3     358      TIP3     H1       HT       0.417000       1.00800           0
     23520 TIP3     358      TIP3     H2       HT       0.417000       1.00800           0
     23521 TIP3     359      TIP3     OH2      OT      -0.834000       15.9994           0
     23522 TIP3     359      TIP3     H1       HT       0.417000       1.00800           0
     23523 TIP3     359      TIP3     H2       HT       0.417000       1.00800           0
     23524 TIP3     360      TIP3     OH2      OT      -0.834000       15.9994           0
     23525 TIP3     360      TIP3     H1       HT       0.417000       1.00800           0
     23526 TIP3     360      TIP3     H2       HT       0.417000       1.00800           0
     23527 TIP3     361      TIP3     OH2      OT      -0.834000       15.9994           0
     23528 TIP3     361      TIP3     H1       HT       0.417000       1.00800           0
     23529 TIP3     361      TIP3     H2       HT       0.417000       1.00800           0
     23530 TIP3     362      TIP3     OH2      OT      -0.834000       15.9994           0
     23531 TIP3     362      TIP3     H1       HT       0.417000       1.00800           0
     23532 TIP3     362      TIP3     H2       HT       0.417000       1.00800           0
     23533 TIP3     363      TIP3     OH2      OT      -0.834000       15.9994           0
     23534 TIP3     363      TIP3     H1       HT       0.417000       1.00800           0
     23535 TIP3     363      TIP3     H2       HT       0.417000       1.00800           0
     23536 TIP3     364      TIP3     OH2      OT      -0.834000       15.9994           0
     23537 TIP3     364      TIP3     H1       HT       0.417000       1.00800           0
     23538 TIP3     364      TIP3     H2       HT       0.417000       1.00800           0
     23539 TIP3     365      TIP3     OH2      OT      -0.834000       15.9994           0
     23540 TIP3     365      TIP3     H1       HT       0.417000       1.00800           0
     23541 TIP3     365      TIP3     H2       HT       0.417000       1.00800           0
     23542 TIP3     366      TIP3     OH2      OT      -0.834000       15.9994           0
     23543 TIP3     366      TIP3     H1       HT       0.417000       1.00800           0
     23544 TIP3     366      TIP3     H2       HT       0.417000       1.00800           0
     23545 TIP3     367      TIP3     OH2      OT      -0.834000       15.9994           0
     23546 TIP3     367      TIP3     H1       HT       0.417000       1.00800           0
     23547 TIP3     367      TIP3     H2       HT       0.417000       1.00800           0
     23548 TIP3     368      TIP3     OH2      OT      -0.834000       15.9994           0
     23549 TIP3     368      TIP3     H1       HT       0.417000       1.00800           0
     23550 TIP3     368      TIP3     H2       HT       0.417000       1.00800           0
     23551 TIP3     369      TIP3     OH2      OT      -0.834000       15.9994           0
     23552 TIP3     369      TIP3     H1       HT       0.417000       1.00800           0
     23553 TIP3     369      TIP3     H2       HT       0.417000       1.00800           0
     23554 TIP3     370      TIP3     OH2      OT      -0.834000       15.9994           0
     23555 TIP3     370      TIP3     H1       HT       0.417000       1.00800           0
     23556 TIP3     370      TIP3     H2       HT       0.417000       1.00800           0
     23557 TIP3     371      TIP3     OH2      OT      -0.834000       15.9994           0
     23558 TIP3     371      TIP3     H1       HT       0.417000       1.00800           0
     23559 TIP3     371      TIP3     H2       HT       0.417000       1.00800           0
     23560 TIP3     372      TIP3     OH2      OT      -0.834000       15.9994           0
     23561 TIP3     372      TIP3     H1       HT       0.417000       1.00800           0
     23562 TIP3     372      TIP3     H2       HT       0.417000       1.00800           0
     23563 TIP3     373      TIP3     OH2      OT      -0.834000       15.9994           0
     23564 TIP3     373      TIP3     H1       HT       0.417000       1.00800           0
     23565 TIP3     373      TIP3     H2       HT       0.417000       1.00800           0
     23566 TIP3     374      TIP3     OH2      OT      -0.834000       15.9994           0
     23567 TIP3     374      TIP3     H1       HT       0.417000       1.00800           0
     23568 TIP3     374      TIP3     H2       HT       0.417000       1.00800           0
     23569 TIP3     375      TIP3     OH2      OT      -0.834000       15.9994           0
     23570 TIP3     375      TIP3     H1       HT       0.417000       1.00800           0
     23571 TIP3     375      TIP3     H2       HT       0.417000       1.00800           0
     23572 TIP3     376      TIP3     OH2      OT      -0.834000       15.9994           0
     23573 TIP3     376      TIP3     H1       HT       0.417000       1.00800           0
     23574 TIP3     376      TIP3     H2       HT       0.417000       1.00800           0
     23575 TIP3     377      TIP3     OH2      OT      -0.834000       15.9994           0
     23576 TIP3     377      TIP3     H1       HT       0.417000       1.00800           0
     23577 TIP3     377      TIP3     H2       HT       0.417000       1.00800           0
     23578 TIP3     378      TIP3     OH2      OT      -0.834000       15.9994           0
     23579 TIP3     378      TIP3     H1       HT       0.417000       1.00800           0
     23580 TIP3     378      TIP3     H2       HT       0.417000       1.00800           0
     23581 TIP3     379      TIP3     OH2      OT      -0.834000       15.9994           0
     23582 TIP3     379      TIP3     H1       HT       0.417000       1.00800           0
     23583 TIP3     379      TIP3     H2       HT       0.417000       1.00800           0
     23584 TIP3     380      TIP3     OH2      OT      -0.834000       15.9994           0
     23585 TIP3     380      TIP3     H1       HT       0.417000       1.00800           0
     23586 TIP3     380      TIP3     H2       HT       0.417000       1.00800           0
     23587 TIP3     381      TIP3     OH2      OT      -0.834000       15.9994           0
     23588 TIP3     381      TIP3     H1       HT       0.417000       1.00800           0
     23589 TIP3     381      TIP3     H2       HT       0.417000       1.00800           0
     23590 TIP3     382      TIP3     OH2      OT      -0.834000       15.9994           0
     23591 TIP3     382      TIP3     H1       HT       0.417000       1.00800           0
     23592 TIP3     382      TIP3     H2       HT       0.417000       1.00800           0
     23593 TIP3     383      TIP3     OH2      OT      -0.834000       15.9994           0
     23594 TIP3     383      TIP3     H1       HT       0.417000       1.00800           0
     23595 TIP3     383      TIP3     H2       HT       0.417000       1.00800           0
     23596 TIP3     384      TIP3     OH2      OT      -0.834000       15.9994           0
     23597 TIP3     384      TIP3     H1       HT       0.417000       1.00800           0
     23598 TIP3     384      TIP3     H2       HT       0.417000       1.00800           0
     23599 TIP3     385      TIP3     OH2      OT      -0.834000       15.9994           0
     23600 TIP3     385      TIP3     H1       HT       0.417000       1.00800           0
     23601 TIP3     385      TIP3     H2       HT       0.417000       1.00800           0
     23602 TIP3     386      TIP3     OH2      OT      -0.834000       15.9994           0
     23603 TIP3     386      TIP3     H1       HT       0.417000       1.00800           0
     23604 TIP3     386      TIP3     H2       HT       0.417000       1.00800           0
     23605 TIP3     387      TIP3     OH2      OT      -0.834000       15.9994           0
     23606 TIP3     387      TIP3     H1       HT       0.417000       1.00800           0
     23607 TIP3     387      TIP3     H2       HT       0.417000       1.00800           0
     23608 TIP3     388      TIP3     OH2      OT      -0.834000       15.9994           0
     23609 TIP3     388      TIP3     H1       HT       0.417000       1.00800           0
     23610 TIP3     388      TIP3     H2       HT       0.417000       1.00800           0
     23611 TIP3     389      TIP3     OH2      OT      -0.834000       15.9994           0
     23612 TIP3     389      TIP3     H1       HT       0.417000       1.00800           0
     23613 TIP3     389      TIP3     H2       HT       0.417000       1.00800           0
     23614 TIP3     390      TIP3     OH2      OT      -0.834000       15.9994           0
     23615 TIP3     390      TIP3     H1       HT       0.417000       1.00800           0
     23616 TIP3     390      TIP3     H2       HT       0.417000       1.00800           0
     23617 TIP3     391      TIP3     OH2      OT      -0.834000       15.9994           0
     23618 TIP3     391      TIP3     H1       HT       0.417000       1.00800           0
     23619 TIP3     391      TIP3     H2       HT       0.417000       1.00800           0
     23620 TIP3     392      TIP3     OH2      OT      -0.834000       15.9994           0
     23621 TIP3     392      TIP3     H1       HT       0.417000       1.00800           0
     23622 TIP3     392      TIP3     H2       HT       0.417000       1.00800           0
     23623 TIP3     393      TIP3     OH2      OT      -0.834000       15.9994           0
     23624 TIP3     393      TIP3     H1       HT       0.417000       1.00800           0
     23625 TIP3     393      TIP3     H2       HT       0.417000       1.00800           0
     23626 TIP3     394      TIP3     OH2      OT      -0.834000       15.9994           0
     23627 TIP3     394      TIP3     H1       HT       0.417000       1.00800           0
     23628 TIP3     394      TIP3     H2       HT       0.417000       1.00800           0
     23629 TIP3     395      TIP3     OH2      OT      -0.834000       15.9994           0
     23630 TIP3     395      TIP3     H1       HT       0.417000       1.00800           0
     23631 TIP3     395      TIP3     H2       HT       0.417000       1.00800           0
     23632 TIP3     396      TIP3     OH2      OT      -0.834000       15.9994           0
     23633 TIP3     396      TIP3     H1       HT       0.417000       1.00800           0
     23634 TIP3     396      TIP3     H2       HT       0.417000       1.00800           0
     23635 TIP3     397      TIP3     OH2      OT      -0.834000       15.9994           0
     23636 TIP3     397      TIP3     H1       HT       0.417000       1.00800           0
     23637 TIP3     397      TIP3     H2       HT       0.417000       1.00800           0
     23638 TIP3     398      TIP3     OH2      OT      -0.834000       15.9994           0
     23639 TIP3     398      TIP3     H1       HT       0.417000       1.00800           0
     23640 TIP3     398      TIP3     H2       HT       0.417000       1.00800           0
     23641 TIP3     399      TIP3     OH2      OT      -0.834000       15.9994           0
     23642 TIP3     399      TIP3     H1       HT       0.417000       1.00800           0
     23643 TIP3     399      TIP3     H2       HT       0.417000       1.00800           0
     23644 TIP3     400      TIP3     OH2      OT      -0.834000       15.9994           0
     23645 TIP3     400      TIP3     H1       HT       0.417000       1.00800           0
     23646 TIP3     400      TIP3     H2       HT       0.417000       1.00800           0
     23647 TIP3     401      TIP3     OH2      OT      -0.834000       15.9994           0
     23648 TIP3     401      TIP3     H1       HT       0.417000       1.00800           0
     23649 TIP3     401      TIP3     H2       HT       0.417000       1.00800           0
     23650 TIP3     402      TIP3     OH2      OT      -0.834000       15.9994           0
     23651 TIP3     402      TIP3     H1       HT       0.417000       1.00800           0
     23652 TIP3     402      TIP3     H2       HT       0.417000       1.00800           0
     23653 TIP3     403      TIP3     OH2      OT      -0.834000       15.9994           0
     23654 TIP3     403      TIP3     H1       HT       0.417000       1.00800           0
     23655 TIP3     403      TIP3     H2       HT       0.417000       1.00800           0
     23656 TIP3     404      TIP3     OH2      OT      -0.834000       15.9994           0
     23657 TIP3     404      TIP3     H1       HT       0.417000       1.00800           0
     23658 TIP3     404      TIP3     H2       HT       0.417000       1.00800           0
     23659 TIP3     405      TIP3     OH2      OT      -0.834000       15.9994           0
     23660 TIP3     405      TIP3     H1       HT       0.417000       1.00800           0
     23661 TIP3     405      TIP3     H2       HT       0.417000       1.00800           0
     23662 TIP3     406      TIP3     OH2      OT      -0.834000       15.9994           0
     23663 TIP3     406      TIP3     H1       HT       0.417000       1.00800           0
     23664 TIP3     406      TIP3     H2       HT       0.417000       1.00800           0
     23665 TIP3     407      TIP3     OH2      OT      -0.834000       15.9994           0
     23666 TIP3     407      TIP3     H1       HT       0.417000       1.00800           0
     23667 TIP3     407      TIP3     H2       HT       0.417000       1.00800           0
     23668 TIP3     408      TIP3     OH2      OT      -0.834000       15.9994           0
     23669 TIP3     408      TIP3     H1       HT       0.417000       1.00800           0
     23670 TIP3     408      TIP3     H2       HT       0.417000       1.00800           0
     23671 TIP3     409      TIP3     OH2      OT      -0.834000       15.9994           0
     23672 TIP3     409      TIP3     H1       HT       0.417000       1.00800           0
     23673 TIP3     409      TIP3     H2       HT       0.417000       1.00800           0
     23674 TIP3     410      TIP3     OH2      OT      -0.834000       15.9994           0
     23675 TIP3     410      TIP3     H1       HT       0.417000       1.00800           0
     23676 TIP3     410      TIP3     H2       HT       0.417000       1.00800           0
     23677 TIP3     411      TIP3     OH2      OT      -0.834000       15.9994           0
     23678 TIP3     411      TIP3     H1       HT       0.417000       1.00800           0
     23679 TIP3     411      TIP3     H2       HT       0.417000       1.00800           0
     23680 TIP3     412      TIP3     OH2      OT      -0.834000       15.9994           0
     23681 TIP3     412      TIP3     H1       HT       0.417000       1.00800           0
     23682 TIP3     412      TIP3     H2       HT       0.417000       1.00800           0
     23683 TIP3     413      TIP3     OH2      OT      -0.834000       15.9994           0
     23684 TIP3     413      TIP3     H1       HT       0.417000       1.00800           0
     23685 TIP3     413      TIP3     H2       HT       0.417000       1.00800           0
     23686 TIP3     414      TIP3     OH2      OT      -0.834000       15.9994           0
     23687 TIP3     414      TIP3     H1       HT       0.417000       1.00800           0
     23688 TIP3     414      TIP3     H2       HT       0.417000       1.00800           0
     23689 TIP3     415      TIP3     OH2      OT      -0.834000       15.9994           0
     23690 TIP3     415      TIP3     H1       HT       0.417000       1.00800           0
     23691 TIP3     415      TIP3     H2       HT       0.417000       1.00800           0
     23692 TIP3     416      TIP3     OH2      OT      -0.834000       15.9994           0
     23693 TIP3     416      TIP3     H1       HT       0.417000       1.00800           0
     23694 TIP3     416      TIP3     H2       HT       0.417000       1.00800           0
     23695 TIP3     417      TIP3     OH2      OT      -0.834000       15.9994           0
     23696 TIP3     417      TIP3     H1       HT       0.417000       1.00800           0
     23697 TIP3     417      TIP3     H2       HT       0.417000       1.00800           0
     23698 TIP3     418      TIP3     OH2      OT      -0.834000       15.9994           0
     23699 TIP3     418      TIP3     H1       HT       0.417000       1.00800           0
     23700 TIP3     418      TIP3     H2       HT       0.417000       1.00800           0
     23701 TIP3     419      TIP3     OH2      OT      -0.834000       15.9994           0
     23702 TIP3     419      TIP3     H1       HT       0.417000       1.00800           0
     23703 TIP3     419      TIP3     H2       HT       0.417000       1.00800           0
     23704 TIP3     420      TIP3     OH2      OT      -0.834000       15.9994           0
     23705 TIP3     420      TIP3     H1       HT       0.417000       1.00800           0
     23706 TIP3     420      TIP3     H2       HT       0.417000       1.00800           0
     23707 TIP3     421      TIP3     OH2      OT      -0.834000       15.9994           0
     23708 TIP3     421      TIP3     H1       HT       0.417000       1.00800           0
     23709 TIP3     421      TIP3     H2       HT       0.417000       1.00800           0
     23710 TIP3     422      TIP3     OH2      OT      -0.834000       15.9994           0
     23711 TIP3     422      TIP3     H1       HT       0.417000       1.00800           0
     23712 TIP3     422      TIP3     H2       HT       0.417000       1.00800           0
     23713 TIP3     423      TIP3     OH2      OT      -0.834000       15.9994           0
     23714 TIP3     423      TIP3     H1       HT       0.417000       1.00800           0
     23715 TIP3     423      TIP3     H2       HT       0.417000       1.00800           0
     23716 TIP3     424      TIP3     OH2      OT      -0.834000       15.9994           0
     23717 TIP3     424      TIP3     H1       HT       0.417000       1.00800           0
     23718 TIP3     424      TIP3     H2       HT       0.417000       1.00800           0
     23719 TIP3     425      TIP3     OH2      OT      -0.834000       15.9994           0
     23720 TIP3     425      TIP3     H1       HT       0.417000       1.00800           0
     23721 TIP3     425      TIP3     H2       HT       0.417000       1.00800           0
     23722 TIP3     426      TIP3     OH2      OT      -0.834000       15.9994           0
     23723 TIP3     426      TIP3     H1       HT       0.417000       1.00800           0
     23724 TIP3     426      TIP3     H2       HT       0.417000       1.00800           0
     23725 TIP3     427      TIP3     OH2      OT      -0.834000       15.9994           0
     23726 TIP3     427      TIP3     H1       HT       0.417000       1.00800           0
     23727 TIP3     427      TIP3     H2       HT       0.417000       1.00800           0
     23728 TIP3     428      TIP3     OH2      OT      -0.834000       15.9994           0
     23729 TIP3     428      TIP3     H1       HT       0.417000       1.00800           0
     23730 TIP3     428      TIP3     H2       HT       0.417000       1.00800           0
     23731 TIP3     429      TIP3     OH2      OT      -0.834000       15.9994           0
     23732 TIP3     429      TIP3     H1       HT       0.417000       1.00800           0
     23733 TIP3     429      TIP3     H2       HT       0.417000       1.00800           0
     23734 TIP3     430      TIP3     OH2      OT      -0.834000       15.9994           0
     23735 TIP3     430      TIP3     H1       HT       0.417000       1.00800           0
     23736 TIP3     430      TIP3     H2       HT       0.417000       1.00800           0
     23737 TIP3     431      TIP3     OH2      OT      -0.834000       15.9994           0
     23738 TIP3     431      TIP3     H1       HT       0.417000       1.00800           0
     23739 TIP3     431      TIP3     H2       HT       0.417000       1.00800           0
     23740 TIP3     432      TIP3     OH2      OT      -0.834000       15.9994           0
     23741 TIP3     432      TIP3     H1       HT       0.417000       1.00800           0
     23742 TIP3     432      TIP3     H2       HT       0.417000       1.00800           0
     23743 TIP3     433      TIP3     OH2      OT      -0.834000       15.9994           0
     23744 TIP3     433      TIP3     H1       HT       0.417000       1.00800           0
     23745 TIP3     433      TIP3     H2       HT       0.417000       1.00800           0
     23746 TIP3     434      TIP3     OH2      OT      -0.834000       15.9994           0
     23747 TIP3     434      TIP3     H1       HT       0.417000       1.00800           0
     23748 TIP3     434      TIP3     H2       HT       0.417000       1.00800           0
     23749 TIP3     435      TIP3     OH2      OT      -0.834000       15.9994           0
     23750 TIP3     435      TIP3     H1       HT       0.417000       1.00800           0
     23751 TIP3     435      TIP3     H2       HT       0.417000       1.00800           0
     23752 TIP3     436      TIP3     OH2      OT      -0.834000       15.9994           0
     23753 TIP3     436      TIP3     H1       HT       0.417000       1.00800           0
     23754 TIP3     436      TIP3     H2       HT       0.417000       1.00800           0
     23755 TIP3     437      TIP3     OH2      OT      -0.834000       15.9994           0
     23756 TIP3     437      TIP3     H1       HT       0.417000       1.00800           0
     23757 TIP3     437      TIP3     H2       HT       0.417000       1.00800           0
     23758 TIP3     438      TIP3     OH2      OT      -0.834000       15.9994           0
     23759 TIP3     438      TIP3     H1       HT       0.417000       1.00800           0
     23760 TIP3     438      TIP3     H2       HT       0.417000       1.00800           0
     23761 TIP3     439      TIP3     OH2      OT      -0.834000       15.9994           0
     23762 TIP3     439      TIP3     H1       HT       0.417000       1.00800           0
     23763 TIP3     439      TIP3     H2       HT       0.417000       1.00800           0
     23764 TIP3     440      TIP3     OH2      OT      -0.834000       15.9994           0
     23765 TIP3     440      TIP3     H1       HT       0.417000       1.00800           0
     23766 TIP3     440      TIP3     H2       HT       0.417000       1.00800           0
     23767 TIP3     441      TIP3     OH2      OT      -0.834000       15.9994           0
     23768 TIP3     441      TIP3     H1       HT       0.417000       1.00800           0
     23769 TIP3     441      TIP3     H2       HT       0.417000       1.00800           0
     23770 TIP3     442      TIP3     OH2      OT      -0.834000       15.9994           0
     23771 TIP3     442      TIP3     H1       HT       0.417000       1.00800           0
     23772 TIP3     442      TIP3     H2       HT       0.417000       1.00800           0
     23773 TIP3     443      TIP3     OH2      OT      -0.834000       15.9994           0
     23774 TIP3     443      TIP3     H1       HT       0.417000       1.00800           0
     23775 TIP3     443      TIP3     H2       HT       0.417000       1.00800           0
     23776 TIP3     444      TIP3     OH2      OT      -0.834000       15.9994           0
     23777 TIP3     444      TIP3     H1       HT       0.417000       1.00800           0
     23778 TIP3     444      TIP3     H2       HT       0.417000       1.00800           0
     23779 TIP3     445      TIP3     OH2      OT      -0.834000       15.9994           0
     23780 TIP3     445      TIP3     H1       HT       0.417000       1.00800           0
     23781 TIP3     445      TIP3     H2       HT       0.417000       1.00800           0
     23782 TIP3     446      TIP3     OH2      OT      -0.834000       15.9994           0
     23783 TIP3     446      TIP3     H1       HT       0.417000       1.00800           0
     23784 TIP3     446      TIP3     H2       HT       0.417000       1.00800           0
     23785 TIP3     447      TIP3     OH2      OT      -0.834000       15.9994           0
     23786 TIP3     447      TIP3     H1       HT       0.417000       1.00800           0
     23787 TIP3     447      TIP3     H2       HT       0.417000       1.00800           0
     23788 TIP3     448      TIP3     OH2      OT      -0.834000       15.9994           0
     23789 TIP3     448      TIP3     H1       HT       0.417000       1.00800           0
     23790 TIP3     448      TIP3     H2       HT       0.417000       1.00800           0
     23791 TIP3     449      TIP3     OH2      OT      -0.834000       15.9994           0
     23792 TIP3     449      TIP3     H1       HT       0.417000       1.00800           0
     23793 TIP3     449      TIP3     H2       HT       0.417000       1.00800           0
     23794 TIP3     450      TIP3     OH2      OT      -0.834000       15.9994           0
     23795 TIP3     450      TIP3     H1       HT       0.417000       1.00800           0
     23796 TIP3     450      TIP3     H2       HT       0.417000       1.00800           0
     23797 TIP3     451      TIP3     OH2      OT      -0.834000       15.9994           0
     23798 TIP3     451      TIP3     H1       HT       0.417000       1.00800           0
     23799 TIP3     451      TIP3     H2       HT       0.417000       1.00800           0
     23800 TIP3     452      TIP3     OH2      OT      -0.834000       15.9994           0
     23801 TIP3     452      TIP3     H1       HT       0.417000       1.00800           0
     23802 TIP3     452      TIP3     H2       HT       0.417000       1.00800           0
     23803 TIP3     453      TIP3     OH2      OT      -0.834000       15.9994           0
     23804 TIP3     453      TIP3     H1       HT       0.417000       1.00800           0
     23805 TIP3     453      TIP3     H2       HT       0.417000       1.00800           0
     23806 TIP3     454      TIP3     OH2      OT      -0.834000       15.9994           0
     23807 TIP3     454      TIP3     H1       HT       0.417000       1.00800           0
     23808 TIP3     454      TIP3     H2       HT       0.417000       1.00800           0
     23809 TIP3     455      TIP3     OH2      OT      -0.834000       15.9994           0
     23810 TIP3     455      TIP3     H1       HT       0.417000       1.00800           0
     23811 TIP3     455      TIP3     H2       HT       0.417000       1.00800           0
     23812 TIP3     456      TIP3     OH2      OT      -0.834000       15.9994           0
     23813 TIP3     456      TIP3     H1       HT       0.417000       1.00800           0
     23814 TIP3     456      TIP3     H2       HT       0.417000       1.00800           0
     23815 TIP3     457      TIP3     OH2      OT      -0.834000       15.9994           0
     23816 TIP3     457      TIP3     H1       HT       0.417000       1.00800           0
     23817 TIP3     457      TIP3     H2       HT       0.417000       1.00800           0
     23818 TIP3     458      TIP3     OH2      OT      -0.834000       15.9994           0
     23819 TIP3     458      TIP3     H1       HT       0.417000       1.00800           0
     23820 TIP3     458      TIP3     H2       HT       0.417000       1.00800           0
     23821 TIP3     459      TIP3     OH2      OT      -0.834000       15.9994           0
     23822 TIP3     459      TIP3     H1       HT       0.417000       1.00800           0
     23823 TIP3     459      TIP3     H2       HT       0.417000       1.00800           0
     23824 TIP3     460      TIP3     OH2      OT      -0.834000       15.9994           0
     23825 TIP3     460      TIP3     H1       HT       0.417000       1.00800           0
     23826 TIP3     460      TIP3     H2       HT       0.417000       1.00800           0
     23827 TIP3     461      TIP3     OH2      OT      -0.834000       15.9994           0
     23828 TIP3     461      TIP3     H1       HT       0.417000       1.00800           0
     23829 TIP3     461      TIP3     H2       HT       0.417000       1.00800           0
     23830 TIP3     462      TIP3     OH2      OT      -0.834000       15.9994           0
     23831 TIP3     462      TIP3     H1       HT       0.417000       1.00800           0
     23832 TIP3     462      TIP3     H2       HT       0.417000       1.00800           0
     23833 TIP3     463      TIP3     OH2      OT      -0.834000       15.9994           0
     23834 TIP3     463      TIP3     H1       HT       0.417000       1.00800           0
     23835 TIP3     463      TIP3     H2       HT       0.417000       1.00800           0
     23836 TIP3     464      TIP3     OH2      OT      -0.834000       15.9994           0
     23837 TIP3     464      TIP3     H1       HT       0.417000       1.00800           0
     23838 TIP3     464      TIP3     H2       HT       0.417000       1.00800           0
     23839 TIP3     465      TIP3     OH2      OT      -0.834000       15.9994           0
     23840 TIP3     465      TIP3     H1       HT       0.417000       1.00800           0
     23841 TIP3     465      TIP3     H2       HT       0.417000       1.00800           0
     23842 TIP3     466      TIP3     OH2      OT      -0.834000       15.9994           0
     23843 TIP3     466      TIP3     H1       HT       0.417000       1.00800           0
     23844 TIP3     466      TIP3     H2       HT       0.417000       1.00800           0
     23845 TIP3     467      TIP3     OH2      OT      -0.834000       15.9994           0
     23846 TIP3     467      TIP3     H1       HT       0.417000       1.00800           0
     23847 TIP3     467      TIP3     H2       HT       0.417000       1.00800           0
     23848 TIP3     468      TIP3     OH2      OT      -0.834000       15.9994           0
     23849 TIP3     468      TIP3     H1       HT       0.417000       1.00800           0
     23850 TIP3     468      TIP3     H2       HT       0.417000       1.00800           0
     23851 TIP3     469      TIP3     OH2      OT      -0.834000       15.9994           0
     23852 TIP3     469      TIP3     H1       HT       0.417000       1.00800           0
     23853 TIP3     469      TIP3     H2       HT       0.417000       1.00800           0
     23854 TIP3     470      TIP3     OH2      OT      -0.834000       15.9994           0
     23855 TIP3     470      TIP3     H1       HT       0.417000       1.00800           0
     23856 TIP3     470      TIP3     H2       HT       0.417000       1.00800           0
     23857 TIP3     471      TIP3     OH2      OT      -0.834000       15.9994           0
     23858 TIP3     471      TIP3     H1       HT       0.417000       1.00800           0
     23859 TIP3     471      TIP3     H2       HT       0.417000       1.00800           0
     23860 TIP3     472      TIP3     OH2      OT      -0.834000       15.9994           0
     23861 TIP3     472      TIP3     H1       HT       0.417000       1.00800           0
     23862 TIP3     472      TIP3     H2       HT       0.417000       1.00800           0
     23863 TIP3     473      TIP3     OH2      OT      -0.834000       15.9994           0
     23864 TIP3     473      TIP3     H1       HT       0.417000       1.00800           0
     23865 TIP3     473      TIP3     H2       HT       0.417000       1.00800           0
     23866 TIP3     474      TIP3     OH2      OT      -0.834000       15.9994           0
     23867 TIP3     474      TIP3     H1       HT       0.417000       1.00800           0
     23868 TIP3     474      TIP3     H2       HT       0.417000       1.00800           0
     23869 TIP3     475      TIP3     OH2      OT      -0.834000       15.9994           0
     23870 TIP3     475      TIP3     H1       HT       0.417000       1.00800           0
     23871 TIP3     475      TIP3     H2       HT       0.417000       1.00800           0
     23872 TIP3     476      TIP3     OH2      OT      -0.834000       15.9994           0
     23873 TIP3     476      TIP3     H1       HT       0.417000       1.00800           0
     23874 TIP3     476      TIP3     H2       HT       0.417000       1.00800           0
     23875 TIP3     477      TIP3     OH2      OT      -0.834000       15.9994           0
     23876 TIP3     477      TIP3     H1       HT       0.417000       1.00800           0
     23877 TIP3     477      TIP3     H2       HT       0.417000       1.00800           0
     23878 TIP3     478      TIP3     OH2      OT      -0.834000       15.9994           0
     23879 TIP3     478      TIP3     H1       HT       0.417000       1.00800           0
     23880 TIP3     478      TIP3     H2       HT       0.417000       1.00800           0
     23881 TIP3     479      TIP3     OH2      OT      -0.834000       15.9994           0
     23882 TIP3     479      TIP3     H1       HT       0.417000       1.00800           0
     23883 TIP3     479      TIP3     H2       HT       0.417000       1.00800           0
     23884 TIP3     480      TIP3     OH2      OT      -0.834000       15.9994           0
     23885 TIP3     480      TIP3     H1       HT       0.417000       1.00800           0
     23886 TIP3     480      TIP3     H2       HT       0.417000       1.00800           0
     23887 TIP3     481      TIP3     OH2      OT      -0.834000       15.9994           0
     23888 TIP3     481      TIP3     H1       HT       0.417000       1.00800           0
     23889 TIP3     481      TIP3     H2       HT       0.417000       1.00800           0
     23890 TIP3     482      TIP3     OH2      OT      -0.834000       15.9994           0
     23891 TIP3     482      TIP3     H1       HT       0.417000       1.00800           0
     23892 TIP3     482      TIP3     H2       HT       0.417000       1.00800           0
     23893 TIP3     483      TIP3     OH2      OT      -0.834000       15.9994           0
     23894 TIP3     483      TIP3     H1       HT       0.417000       1.00800           0
     23895 TIP3     483      TIP3     H2       HT       0.417000       1.00800           0
     23896 TIP3     484      TIP3     OH2      OT      -0.834000       15.9994           0
     23897 TIP3     484      TIP3     H1       HT       0.417000       1.00800           0
     23898 TIP3     484      TIP3     H2       HT       0.417000       1.00800           0
     23899 TIP3     485      TIP3     OH2      OT      -0.834000       15.9994           0
     23900 TIP3     485      TIP3     H1       HT       0.417000       1.00800           0
     23901 TIP3     485      TIP3     H2       HT       0.417000       1.00800           0
     23902 TIP3     486      TIP3     OH2      OT      -0.834000       15.9994           0
     23903 TIP3     486      TIP3     H1       HT       0.417000       1.00800           0
     23904 TIP3     486      TIP3     H2       HT       0.417000       1.00800           0
     23905 TIP3     487      TIP3     OH2      OT      -0.834000       15.9994           0
     23906 TIP3     487      TIP3     H1       HT       0.417000       1.00800           0
     23907 TIP3     487      TIP3     H2       HT       0.417000       1.00800           0
     23908 TIP3     488      TIP3     OH2      OT      -0.834000       15.9994           0
     23909 TIP3     488      TIP3     H1       HT       0.417000       1.00800           0
     23910 TIP3     488      TIP3     H2       HT       0.417000       1.00800           0
     23911 TIP3     489      TIP3     OH2      OT      -0.834000       15.9994           0
     23912 TIP3     489      TIP3     H1       HT       0.417000       1.00800           0
     23913 TIP3     489      TIP3     H2       HT       0.417000       1.00800           0
     23914 TIP3     490      TIP3     OH2      OT      -0.834000       15.9994           0
     23915 TIP3     490      TIP3     H1       HT       0.417000       1.00800           0
     23916 TIP3     490      TIP3     H2       HT       0.417000       1.00800           0
     23917 TIP3     491      TIP3     OH2      OT      -0.834000       15.9994           0
     23918 TIP3     491      TIP3     H1       HT       0.417000       1.00800           0
     23919 TIP3     491      TIP3     H2       HT       0.417000       1.00800           0
     23920 TIP3     492      TIP3     OH2      OT      -0.834000       15.9994           0
     23921 TIP3     492      TIP3     H1       HT       0.417000       1.00800           0
     23922 TIP3     492      TIP3     H2       HT       0.417000       1.00800           0
     23923 TIP3     493      TIP3     OH2      OT      -0.834000       15.9994           0
     23924 TIP3     493      TIP3     H1       HT       0.417000       1.00800           0
     23925 TIP3     493      TIP3     H2       HT       0.417000       1.00800           0
     23926 TIP3     494      TIP3     OH2      OT      -0.834000       15.9994           0
     23927 TIP3     494      TIP3     H1       HT       0.417000       1.00800           0
     23928 TIP3     494      TIP3     H2       HT       0.417000       1.00800           0
     23929 TIP3     495      TIP3     OH2      OT      -0.834000       15.9994           0
     23930 TIP3     495      TIP3     H1       HT       0.417000       1.00800           0
     23931 TIP3     495      TIP3     H2       HT       0.417000       1.00800           0
     23932 TIP3     496      TIP3     OH2      OT      -0.834000       15.9994           0
     23933 TIP3     496      TIP3     H1       HT       0.417000       1.00800           0
     23934 TIP3     496      TIP3     H2       HT       0.417000       1.00800           0
     23935 TIP3     497      TIP3     OH2      OT      -0.834000       15.9994           0
     23936 TIP3     497      TIP3     H1       HT       0.417000       1.00800           0
     23937 TIP3     497      TIP3     H2       HT       0.417000       1.00800           0
     23938 TIP3     498      TIP3     OH2      OT      -0.834000       15.9994           0
     23939 TIP3     498      TIP3     H1       HT       0.417000       1.00800           0
     23940 TIP3     498      TIP3     H2       HT       0.417000       1.00800           0
     23941 TIP3     499      TIP3     OH2      OT      -0.834000       15.9994           0
     23942 TIP3     499      TIP3     H1       HT       0.417000       1.00800           0
     23943 TIP3     499      TIP3     H2       HT       0.417000       1.00800           0
     23944 TIP3     500      TIP3     OH2      OT      -0.834000       15.9994           0
     23945 TIP3     500      TIP3     H1       HT       0.417000       1.00800           0
     23946 TIP3     500      TIP3     H2       HT       0.417000       1.00800           0
     23947 TIP3     501      TIP3     OH2      OT      -0.834000       15.9994           0
     23948 TIP3     501      TIP3     H1       HT       0.417000       1.00800           0
     23949 TIP3     501      TIP3     H2       HT       0.417000       1.00800           0
     23950 TIP3     502      TIP3     OH2      OT      -0.834000       15.9994           0
     23951 TIP3     502      TIP3     H1       HT       0.417000       1.00800           0
     23952 TIP3     502      TIP3     H2       HT       0.417000       1.00800           0
     23953 TIP3     503      TIP3     OH2      OT      -0.834000       15.9994           0
     23954 TIP3     503      TIP3     H1       HT       0.417000       1.00800           0
     23955 TIP3     503      TIP3     H2       HT       0.417000       1.00800           0
     23956 TIP3     504      TIP3     OH2      OT      -0.834000       15.9994           0
     23957 TIP3     504      TIP3     H1       HT       0.417000       1.00800           0
     23958 TIP3     504      TIP3     H2       HT       0.417000       1.00800           0
     23959 TIP3     505      TIP3     OH2      OT      -0.834000       15.9994           0
     23960 TIP3     505      TIP3     H1       HT       0.417000       1.00800           0
     23961 TIP3     505      TIP3     H2       HT       0.417000       1.00800           0
     23962 TIP3     506      TIP3     OH2      OT      -0.834000       15.9994           0
     23963 TIP3     506      TIP3     H1       HT       0.417000       1.00800           0
     23964 TIP3     506      TIP3     H2       HT       0.417000       1.00800           0
     23965 TIP3     507      TIP3     OH2      OT      -0.834000       15.9994           0
     23966 TIP3     507      TIP3     H1       HT       0.417000       1.00800           0
     23967 TIP3     507      TIP3     H2       HT       0.417000       1.00800           0
     23968 TIP3     508      TIP3     OH2      OT      -0.834000       15.9994           0
     23969 TIP3     508      TIP3     H1       HT       0.417000       1.00800           0
     23970 TIP3     508      TIP3     H2       HT       0.417000       1.00800           0
     23971 TIP3     509      TIP3     OH2      OT      -0.834000       15.9994           0
     23972 TIP3     509      TIP3     H1       HT       0.417000       1.00800           0
     23973 TIP3     509      TIP3     H2       HT       0.417000       1.00800           0
     23974 TIP3     510      TIP3     OH2      OT      -0.834000       15.9994           0
     23975 TIP3     510      TIP3     H1       HT       0.417000       1.00800           0
     23976 TIP3     510      TIP3     H2       HT       0.417000       1.00800           0
     23977 TIP3     511      TIP3     OH2      OT      -0.834000       15.9994           0
     23978 TIP3     511      TIP3     H1       HT       0.417000       1.00800           0
     23979 TIP3     511      TIP3     H2       HT       0.417000       1.00800           0
     23980 TIP3     512      TIP3     OH2      OT      -0.834000       15.9994           0
     23981 TIP3     512      TIP3     H1       HT       0.417000       1.00800           0
     23982 TIP3     512      TIP3     H2       HT       0.417000       1.00800           0
     23983 TIP3     513      TIP3     OH2      OT      -0.834000       15.9994           0
     23984 TIP3     513      TIP3     H1       HT       0.417000       1.00800           0
     23985 TIP3     513      TIP3     H2       HT       0.417000       1.00800           0
     23986 TIP3     514      TIP3     OH2      OT      -0.834000       15.9994           0
     23987 TIP3     514      TIP3     H1       HT       0.417000       1.00800           0
     23988 TIP3     514      TIP3     H2       HT       0.417000       1.00800           0
     23989 TIP3     515      TIP3     OH2      OT      -0.834000       15.9994           0
     23990 TIP3     515      TIP3     H1       HT       0.417000       1.00800           0
     23991 TIP3     515      TIP3     H2       HT       0.417000       1.00800           0
     23992 TIP3     516      TIP3     OH2      OT      -0.834000       15.9994           0
     23993 TIP3     516      TIP3     H1       HT       0.417000       1.00800           0
     23994 TIP3     516      TIP3     H2       HT       0.417000       1.00800           0
     23995 TIP3     517      TIP3     OH2      OT      -0.834000       15.9994           0
     23996 TIP3     517      TIP3     H1       HT       0.417000       1.00800           0
     23997 TIP3     517      TIP3     H2       HT       0.417000       1.00800           0
     23998 TIP3     518      TIP3     OH2      OT      -0.834000       15.9994           0
     23999 TIP3     518      TIP3     H1       HT       0.417000       1.00800           0
     24000 TIP3     518      TIP3     H2       HT       0.417000       1.00800           0
     24001 TIP3     519      TIP3     OH2      OT      -0.834000       15.9994           0
     24002 TIP3     519      TIP3     H1       HT       0.417000       1.00800           0
     24003 TIP3     519      TIP3     H2       HT       0.417000       1.00800           0
     24004 TIP3     520      TIP3     OH2      OT      -0.834000       15.9994           0
     24005 TIP3     520      TIP3     H1       HT       0.417000       1.00800           0
     24006 TIP3     520      TIP3     H2       HT       0.417000       1.00800           0
     24007 TIP3     521      TIP3     OH2      OT      -0.834000       15.9994           0
     24008 TIP3     521      TIP3     H1       HT       0.417000       1.00800           0
     24009 TIP3     521      TIP3     H2       HT       0.417000       1.00800           0
     24010 TIP3     522      TIP3     OH2      OT      -0.834000       15.9994           0
     24011 TIP3     522      TIP3     H1       HT       0.417000       1.00800           0
     24012 TIP3     522      TIP3     H2       HT       0.417000       1.00800           0
     24013 TIP3     523      TIP3     OH2      OT      -0.834000       15.9994           0
     24014 TIP3     523      TIP3     H1       HT       0.417000       1.00800           0
     24015 TIP3     523      TIP3     H2       HT       0.417000       1.00800           0
     24016 TIP3     524      TIP3     OH2      OT      -0.834000       15.9994           0
     24017 TIP3     524      TIP3     H1       HT       0.417000       1.00800           0
     24018 TIP3     524      TIP3     H2       HT       0.417000       1.00800           0
     24019 TIP3     525      TIP3     OH2      OT      -0.834000       15.9994           0
     24020 TIP3     525      TIP3     H1       HT       0.417000       1.00800           0
     24021 TIP3     525      TIP3     H2       HT       0.417000       1.00800           0
     24022 TIP3     526      TIP3     OH2      OT      -0.834000       15.9994           0
     24023 TIP3     526      TIP3     H1       HT       0.417000       1.00800           0
     24024 TIP3     526      TIP3     H2       HT       0.417000       1.00800           0
     24025 TIP3     527      TIP3     OH2      OT      -0.834000       15.9994           0
     24026 TIP3     527      TIP3     H1       HT       0.417000       1.00800           0
     24027 TIP3     527      TIP3     H2       HT       0.417000       1.00800           0
     24028 TIP3     528      TIP3     OH2      OT      -0.834000       15.9994           0
     24029 TIP3     528      TIP3     H1       HT       0.417000       1.00800           0
     24030 TIP3     528      TIP3     H2       HT       0.417000       1.00800           0
     24031 TIP3     529      TIP3     OH2      OT      -0.834000       15.9994           0
     24032 TIP3     529      TIP3     H1       HT       0.417000       1.00800           0
     24033 TIP3     529      TIP3     H2       HT       0.417000       1.00800           0
     24034 TIP3     530      TIP3     OH2      OT      -0.834000       15.9994           0
     24035 TIP3     530      TIP3     H1       HT       0.417000       1.00800           0
     24036 TIP3     530      TIP3     H2       HT       0.417000       1.00800           0
     24037 TIP3     531      TIP3     OH2      OT      -0.834000       15.9994           0
     24038 TIP3     531      TIP3     H1       HT       0.417000       1.00800           0
     24039 TIP3     531      TIP3     H2       HT       0.417000       1.00800           0
     24040 TIP3     532      TIP3     OH2      OT      -0.834000       15.9994           0
     24041 TIP3     532      TIP3     H1       HT       0.417000       1.00800           0
     24042 TIP3     532      TIP3     H2       HT       0.417000       1.00800           0
     24043 TIP3     533      TIP3     OH2      OT      -0.834000       15.9994           0
     24044 TIP3     533      TIP3     H1       HT       0.417000       1.00800           0
     24045 TIP3     533      TIP3     H2       HT       0.417000       1.00800           0
     24046 TIP3     534      TIP3     OH2      OT      -0.834000       15.9994           0
     24047 TIP3     534      TIP3     H1       HT       0.417000       1.00800           0
     24048 TIP3     534      TIP3     H2       HT       0.417000       1.00800           0
     24049 TIP3     535      TIP3     OH2      OT      -0.834000       15.9994           0
     24050 TIP3     535      TIP3     H1       HT       0.417000       1.00800           0
     24051 TIP3     535      TIP3     H2       HT       0.417000       1.00800           0
     24052 TIP3     536      TIP3     OH2      OT      -0.834000       15.9994           0
     24053 TIP3     536      TIP3     H1       HT       0.417000       1.00800           0
     24054 TIP3     536      TIP3     H2       HT       0.417000       1.00800           0
     24055 TIP3     537      TIP3     OH2      OT      -0.834000       15.9994           0
     24056 TIP3     537      TIP3     H1       HT       0.417000       1.00800           0
     24057 TIP3     537      TIP3     H2       HT       0.417000       1.00800           0
     24058 TIP3     538      TIP3     OH2      OT      -0.834000       15.9994           0
     24059 TIP3     538      TIP3     H1       HT       0.417000       1.00800           0
     24060 TIP3     538      TIP3     H2       HT       0.417000       1.00800           0
     24061 TIP3     539      TIP3     OH2      OT      -0.834000       15.9994           0
     24062 TIP3     539      TIP3     H1       HT       0.417000       1.00800           0
     24063 TIP3     539      TIP3     H2       HT       0.417000       1.00800           0
     24064 TIP3     540      TIP3     OH2      OT      -0.834000       15.9994           0
     24065 TIP3     540      TIP3     H1       HT       0.417000       1.00800           0
     24066 TIP3     540      TIP3     H2       HT       0.417000       1.00800           0
     24067 TIP3     541      TIP3     OH2      OT      -0.834000       15.9994           0
     24068 TIP3     541      TIP3     H1       HT       0.417000       1.00800           0
     24069 TIP3     541      TIP3     H2       HT       0.417000       1.00800           0
     24070 TIP3     542      TIP3     OH2      OT      -0.834000       15.9994           0
     24071 TIP3     542      TIP3     H1       HT       0.417000       1.00800           0
     24072 TIP3     542      TIP3     H2       HT       0.417000       1.00800           0
     24073 TIP3     543      TIP3     OH2      OT      -0.834000       15.9994           0
     24074 TIP3     543      TIP3     H1       HT       0.417000       1.00800           0
     24075 TIP3     543      TIP3     H2       HT       0.417000       1.00800           0
     24076 TIP3     544      TIP3     OH2      OT      -0.834000       15.9994           0
     24077 TIP3     544      TIP3     H1       HT       0.417000       1.00800           0
     24078 TIP3     544      TIP3     H2       HT       0.417000       1.00800           0
     24079 TIP3     545      TIP3     OH2      OT      -0.834000       15.9994           0
     24080 TIP3     545      TIP3     H1       HT       0.417000       1.00800           0
     24081 TIP3     545      TIP3     H2       HT       0.417000       1.00800           0
     24082 TIP3     546      TIP3     OH2      OT      -0.834000       15.9994           0
     24083 TIP3     546      TIP3     H1       HT       0.417000       1.00800           0
     24084 TIP3     546      TIP3     H2       HT       0.417000       1.00800           0
     24085 TIP3     547      TIP3     OH2      OT      -0.834000       15.9994           0
     24086 TIP3     547      TIP3     H1       HT       0.417000       1.00800           0
     24087 TIP3     547      TIP3     H2       HT       0.417000       1.00800           0
     24088 TIP3     548      TIP3     OH2      OT      -0.834000       15.9994           0
     24089 TIP3     548      TIP3     H1       HT       0.417000       1.00800           0
     24090 TIP3     548      TIP3     H2       HT       0.417000       1.00800           0
     24091 TIP3     549      TIP3     OH2      OT      -0.834000       15.9994           0
     24092 TIP3     549      TIP3     H1       HT       0.417000       1.00800           0
     24093 TIP3     549      TIP3     H2       HT       0.417000       1.00800           0
     24094 TIP3     550      TIP3     OH2      OT      -0.834000       15.9994           0
     24095 TIP3     550      TIP3     H1       HT       0.417000       1.00800           0
     24096 TIP3     550      TIP3     H2       HT       0.417000       1.00800           0
     24097 TIP3     551      TIP3     OH2      OT      -0.834000       15.9994           0
     24098 TIP3     551      TIP3     H1       HT       0.417000       1.00800           0
     24099 TIP3     551      TIP3     H2       HT       0.417000       1.00800           0
     24100 TIP3     552      TIP3     OH2      OT      -0.834000       15.9994           0
     24101 TIP3     552      TIP3     H1       HT       0.417000       1.00800           0
     24102 TIP3     552      TIP3     H2       HT       0.417000       1.00800           0
     24103 TIP3     553      TIP3     OH2      OT      -0.834000       15.9994           0
     24104 TIP3     553      TIP3     H1       HT       0.417000       1.00800           0
     24105 TIP3     553      TIP3     H2       HT       0.417000       1.00800           0
     24106 TIP3     554      TIP3     OH2      OT      -0.834000       15.9994           0
     24107 TIP3     554      TIP3     H1       HT       0.417000       1.00800           0
     24108 TIP3     554      TIP3     H2       HT       0.417000       1.00800           0
     24109 TIP3     555      TIP3     OH2      OT      -0.834000       15.9994           0
     24110 TIP3     555      TIP3     H1       HT       0.417000       1.00800           0
     24111 TIP3     555      TIP3     H2       HT       0.417000       1.00800           0
     24112 TIP3     556      TIP3     OH2      OT      -0.834000       15.9994           0
     24113 TIP3     556      TIP3     H1       HT       0.417000       1.00800           0
     24114 TIP3     556      TIP3     H2       HT       0.417000       1.00800           0
     24115 TIP3     557      TIP3     OH2      OT      -0.834000       15.9994           0
     24116 TIP3     557      TIP3     H1       HT       0.417000       1.00800           0
     24117 TIP3     557      TIP3     H2       HT       0.417000       1.00800           0
     24118 TIP3     558      TIP3     OH2      OT      -0.834000       15.9994           0
     24119 TIP3     558      TIP3     H1       HT       0.417000       1.00800           0
     24120 TIP3     558      TIP3     H2       HT       0.417000       1.00800           0
     24121 TIP3     559      TIP3     OH2      OT      -0.834000       15.9994           0
     24122 TIP3     559      TIP3     H1       HT       0.417000       1.00800           0
     24123 TIP3     559      TIP3     H2       HT       0.417000       1.00800           0
     24124 TIP3     560      TIP3     OH2      OT      -0.834000       15.9994           0
     24125 TIP3     560      TIP3     H1       HT       0.417000       1.00800           0
     24126 TIP3     560      TIP3     H2       HT       0.417000       1.00800           0
     24127 TIP3     561      TIP3     OH2      OT      -0.834000       15.9994           0
     24128 TIP3     561      TIP3     H1       HT       0.417000       1.00800           0
     24129 TIP3     561      TIP3     H2       HT       0.417000       1.00800           0
     24130 TIP3     562      TIP3     OH2      OT      -0.834000       15.9994           0
     24131 TIP3     562      TIP3     H1       HT       0.417000       1.00800           0
     24132 TIP3     562      TIP3     H2       HT       0.417000       1.00800           0
     24133 TIP3     563      TIP3     OH2      OT      -0.834000       15.9994           0
     24134 TIP3     563      TIP3     H1       HT       0.417000       1.00800           0
     24135 TIP3     563      TIP3     H2       HT       0.417000       1.00800           0
     24136 TIP3     564      TIP3     OH2      OT      -0.834000       15.9994           0
     24137 TIP3     564      TIP3     H1       HT       0.417000       1.00800           0
     24138 TIP3     564      TIP3     H2       HT       0.417000       1.00800           0
     24139 TIP3     565      TIP3     OH2      OT      -0.834000       15.9994           0
     24140 TIP3     565      TIP3     H1       HT       0.417000       1.00800           0
     24141 TIP3     565      TIP3     H2       HT       0.417000       1.00800           0
     24142 TIP3     566      TIP3     OH2      OT      -0.834000       15.9994           0
     24143 TIP3     566      TIP3     H1       HT       0.417000       1.00800           0
     24144 TIP3     566      TIP3     H2       HT       0.417000       1.00800           0
     24145 TIP3     567      TIP3     OH2      OT      -0.834000       15.9994           0
     24146 TIP3     567      TIP3     H1       HT       0.417000       1.00800           0
     24147 TIP3     567      TIP3     H2       HT       0.417000       1.00800           0
     24148 TIP3     568      TIP3     OH2      OT      -0.834000       15.9994           0
     24149 TIP3     568      TIP3     H1       HT       0.417000       1.00800           0
     24150 TIP3     568      TIP3     H2       HT       0.417000       1.00800           0
     24151 TIP3     569      TIP3     OH2      OT      -0.834000       15.9994           0
     24152 TIP3     569      TIP3     H1       HT       0.417000       1.00800           0
     24153 TIP3     569      TIP3     H2       HT       0.417000       1.00800           0
     24154 TIP3     570      TIP3     OH2      OT      -0.834000       15.9994           0
     24155 TIP3     570      TIP3     H1       HT       0.417000       1.00800           0
     24156 TIP3     570      TIP3     H2       HT       0.417000       1.00800           0
     24157 TIP3     571      TIP3     OH2      OT      -0.834000       15.9994           0
     24158 TIP3     571      TIP3     H1       HT       0.417000       1.00800           0
     24159 TIP3     571      TIP3     H2       HT       0.417000       1.00800           0
     24160 TIP3     572      TIP3     OH2      OT      -0.834000       15.9994           0
     24161 TIP3     572      TIP3     H1       HT       0.417000       1.00800           0
     24162 TIP3     572      TIP3     H2       HT       0.417000       1.00800           0
     24163 TIP3     573      TIP3     OH2      OT      -0.834000       15.9994           0
     24164 TIP3     573      TIP3     H1       HT       0.417000       1.00800           0
     24165 TIP3     573      TIP3     H2       HT       0.417000       1.00800           0
     24166 TIP3     574      TIP3     OH2      OT      -0.834000       15.9994           0
     24167 TIP3     574      TIP3     H1       HT       0.417000       1.00800           0
     24168 TIP3     574      TIP3     H2       HT       0.417000       1.00800           0
     24169 TIP3     575      TIP3     OH2      OT      -0.834000       15.9994           0
     24170 TIP3     575      TIP3     H1       HT       0.417000       1.00800           0
     24171 TIP3     575      TIP3     H2       HT       0.417000       1.00800           0
     24172 TIP3     576      TIP3     OH2      OT      -0.834000       15.9994           0
     24173 TIP3     576      TIP3     H1       HT       0.417000       1.00800           0
     24174 TIP3     576      TIP3     H2       HT       0.417000       1.00800           0
     24175 TIP3     577      TIP3     OH2      OT      -0.834000       15.9994           0
     24176 TIP3     577      TIP3     H1       HT       0.417000       1.00800           0
     24177 TIP3     577      TIP3     H2       HT       0.417000       1.00800           0
     24178 TIP3     578      TIP3     OH2      OT      -0.834000       15.9994           0
     24179 TIP3     578      TIP3     H1       HT       0.417000       1.00800           0
     24180 TIP3     578      TIP3     H2       HT       0.417000       1.00800           0
     24181 TIP3     579      TIP3     OH2      OT      -0.834000       15.9994           0
     24182 TIP3     579      TIP3     H1       HT       0.417000       1.00800           0
     24183 TIP3     579      TIP3     H2       HT       0.417000       1.00800           0
     24184 TIP3     580      TIP3     OH2      OT      -0.834000       15.9994           0
     24185 TIP3     580      TIP3     H1       HT       0.417000       1.00800           0
     24186 TIP3     580      TIP3     H2       HT       0.417000       1.00800           0
     24187 TIP3     581      TIP3     OH2      OT      -0.834000       15.9994           0
     24188 TIP3     581      TIP3     H1       HT       0.417000       1.00800           0
     24189 TIP3     581      TIP3     H2       HT       0.417000       1.00800           0
     24190 TIP3     582      TIP3     OH2      OT      -0.834000       15.9994           0
     24191 TIP3     582      TIP3     H1       HT       0.417000       1.00800           0
     24192 TIP3     582      TIP3     H2       HT       0.417000       1.00800           0
     24193 TIP3     583      TIP3     OH2      OT      -0.834000       15.9994           0
     24194 TIP3     583      TIP3     H1       HT       0.417000       1.00800           0
     24195 TIP3     583      TIP3     H2       HT       0.417000       1.00800           0
     24196 TIP3     584      TIP3     OH2      OT      -0.834000       15.9994           0
     24197 TIP3     584      TIP3     H1       HT       0.417000       1.00800           0
     24198 TIP3     584      TIP3     H2       HT       0.417000       1.00800           0
     24199 TIP3     585      TIP3     OH2      OT      -0.834000       15.9994           0
     24200 TIP3     585      TIP3     H1       HT       0.417000       1.00800           0
     24201 TIP3     585      TIP3     H2       HT       0.417000       1.00800           0
     24202 TIP3     586      TIP3     OH2      OT      -0.834000       15.9994           0
     24203 TIP3     586      TIP3     H1       HT       0.417000       1.00800           0
     24204 TIP3     586      TIP3     H2       HT       0.417000       1.00800           0
     24205 TIP3     587      TIP3     OH2      OT      -0.834000       15.9994           0
     24206 TIP3     587      TIP3     H1       HT       0.417000       1.00800           0
     24207 TIP3     587      TIP3     H2       HT       0.417000       1.00800           0
     24208 TIP3     588      TIP3     OH2      OT      -0.834000       15.9994           0
     24209 TIP3     588      TIP3     H1       HT       0.417000       1.00800           0
     24210 TIP3     588      TIP3     H2       HT       0.417000       1.00800           0
     24211 TIP3     589      TIP3     OH2      OT      -0.834000       15.9994           0
     24212 TIP3     589      TIP3     H1       HT       0.417000       1.00800           0
     24213 TIP3     589      TIP3     H2       HT       0.417000       1.00800           0
     24214 TIP3     590      TIP3     OH2      OT      -0.834000       15.9994           0
     24215 TIP3     590      TIP3     H1       HT       0.417000       1.00800           0
     24216 TIP3     590      TIP3     H2       HT       0.417000       1.00800           0
     24217 TIP3     591      TIP3     OH2      OT      -0.834000       15.9994           0
     24218 TIP3     591      TIP3     H1       HT       0.417000       1.00800           0
     24219 TIP3     591      TIP3     H2       HT       0.417000       1.00800           0
     24220 TIP3     592      TIP3     OH2      OT      -0.834000       15.9994           0
     24221 TIP3     592      TIP3     H1       HT       0.417000       1.00800           0
     24222 TIP3     592      TIP3     H2       HT       0.417000       1.00800           0
     24223 TIP3     593      TIP3     OH2      OT      -0.834000       15.9994           0
     24224 TIP3     593      TIP3     H1       HT       0.417000       1.00800           0
     24225 TIP3     593      TIP3     H2       HT       0.417000       1.00800           0
     24226 TIP3     594      TIP3     OH2      OT      -0.834000       15.9994           0
     24227 TIP3     594      TIP3     H1       HT       0.417000       1.00800           0
     24228 TIP3     594      TIP3     H2       HT       0.417000       1.00800           0
     24229 TIP3     595      TIP3     OH2      OT      -0.834000       15.9994           0
     24230 TIP3     595      TIP3     H1       HT       0.417000       1.00800           0
     24231 TIP3     595      TIP3     H2       HT       0.417000       1.00800           0
     24232 TIP3     596      TIP3     OH2      OT      -0.834000       15.9994           0
     24233 TIP3     596      TIP3     H1       HT       0.417000       1.00800           0
     24234 TIP3     596      TIP3     H2       HT       0.417000       1.00800           0
     24235 TIP3     597      TIP3     OH2      OT      -0.834000       15.9994           0
     24236 TIP3     597      TIP3     H1       HT       0.417000       1.00800           0
     24237 TIP3     597      TIP3     H2       HT       0.417000       1.00800           0
     24238 TIP3     598      TIP3     OH2      OT      -0.834000       15.9994           0
     24239 TIP3     598      TIP3     H1       HT       0.417000       1.00800           0
     24240 TIP3     598      TIP3     H2       HT       0.417000       1.00800           0
     24241 TIP3     599      TIP3     OH2      OT      -0.834000       15.9994           0
     24242 TIP3     599      TIP3     H1       HT       0.417000       1.00800           0
     24243 TIP3     599      TIP3     H2       HT       0.417000       1.00800           0
     24244 TIP3     600      TIP3     OH2      OT      -0.834000       15.9994           0
     24245 TIP3     600      TIP3     H1       HT       0.417000       1.00800           0
     24246 TIP3     600      TIP3     H2       HT       0.417000       1.00800           0
     24247 TIP3     601      TIP3     OH2      OT      -0.834000       15.9994           0
     24248 TIP3     601      TIP3     H1       HT       0.417000       1.00800           0
     24249 TIP3     601      TIP3     H2       HT       0.417000       1.00800           0
     24250 TIP3     602      TIP3     OH2      OT      -0.834000       15.9994           0
     24251 TIP3     602      TIP3     H1       HT       0.417000       1.00800           0
     24252 TIP3     602      TIP3     H2       HT       0.417000       1.00800           0
     24253 TIP3     603      TIP3     OH2      OT      -0.834000       15.9994           0
     24254 TIP3     603      TIP3     H1       HT       0.417000       1.00800           0
     24255 TIP3     603      TIP3     H2       HT       0.417000       1.00800           0
     24256 TIP3     604      TIP3     OH2      OT      -0.834000       15.9994           0
     24257 TIP3     604      TIP3     H1       HT       0.417000       1.00800           0
     24258 TIP3     604      TIP3     H2       HT       0.417000       1.00800           0
     24259 TIP3     605      TIP3     OH2      OT      -0.834000       15.9994           0
     24260 TIP3     605      TIP3     H1       HT       0.417000       1.00800           0
     24261 TIP3     605      TIP3     H2       HT       0.417000       1.00800           0
     24262 TIP3     606      TIP3     OH2      OT      -0.834000       15.9994           0
     24263 TIP3     606      TIP3     H1       HT       0.417000       1.00800           0
     24264 TIP3     606      TIP3     H2       HT       0.417000       1.00800           0
     24265 TIP3     607      TIP3     OH2      OT      -0.834000       15.9994           0
     24266 TIP3     607      TIP3     H1       HT       0.417000       1.00800           0
     24267 TIP3     607      TIP3     H2       HT       0.417000       1.00800           0
     24268 TIP3     608      TIP3     OH2      OT      -0.834000       15.9994           0
     24269 TIP3     608      TIP3     H1       HT       0.417000       1.00800           0
     24270 TIP3     608      TIP3     H2       HT       0.417000       1.00800           0
     24271 TIP3     609      TIP3     OH2      OT      -0.834000       15.9994           0
     24272 TIP3     609      TIP3     H1       HT       0.417000       1.00800           0
     24273 TIP3     609      TIP3     H2       HT       0.417000       1.00800           0
     24274 TIP3     610      TIP3     OH2      OT      -0.834000       15.9994           0
     24275 TIP3     610      TIP3     H1       HT       0.417000       1.00800           0
     24276 TIP3     610      TIP3     H2       HT       0.417000       1.00800           0
     24277 TIP3     611      TIP3     OH2      OT      -0.834000       15.9994           0
     24278 TIP3     611      TIP3     H1       HT       0.417000       1.00800           0
     24279 TIP3     611      TIP3     H2       HT       0.417000       1.00800           0
     24280 TIP3     612      TIP3     OH2      OT      -0.834000       15.9994           0
     24281 TIP3     612      TIP3     H1       HT       0.417000       1.00800           0
     24282 TIP3     612      TIP3     H2       HT       0.417000       1.00800           0
     24283 TIP3     613      TIP3     OH2      OT      -0.834000       15.9994           0
     24284 TIP3     613      TIP3     H1       HT       0.417000       1.00800           0
     24285 TIP3     613      TIP3     H2       HT       0.417000       1.00800           0
     24286 TIP3     614      TIP3     OH2      OT      -0.834000       15.9994           0
     24287 TIP3     614      TIP3     H1       HT       0.417000       1.00800           0
     24288 TIP3     614      TIP3     H2       HT       0.417000       1.00800           0
     24289 TIP3     615      TIP3     OH2      OT      -0.834000       15.9994           0
     24290 TIP3     615      TIP3     H1       HT       0.417000       1.00800           0
     24291 TIP3     615      TIP3     H2       HT       0.417000       1.00800           0
     24292 TIP3     616      TIP3     OH2      OT      -0.834000       15.9994           0
     24293 TIP3     616      TIP3     H1       HT       0.417000       1.00800           0
     24294 TIP3     616      TIP3     H2       HT       0.417000       1.00800           0
     24295 TIP3     617      TIP3     OH2      OT      -0.834000       15.9994           0
     24296 TIP3     617      TIP3     H1       HT       0.417000       1.00800           0
     24297 TIP3     617      TIP3     H2       HT       0.417000       1.00800           0
     24298 TIP3     618      TIP3     OH2      OT      -0.834000       15.9994           0
     24299 TIP3     618      TIP3     H1       HT       0.417000       1.00800           0
     24300 TIP3     618      TIP3     H2       HT       0.417000       1.00800           0
     24301 TIP3     619      TIP3     OH2      OT      -0.834000       15.9994           0
     24302 TIP3     619      TIP3     H1       HT       0.417000       1.00800           0
     24303 TIP3     619      TIP3     H2       HT       0.417000       1.00800           0
     24304 TIP3     620      TIP3     OH2      OT      -0.834000       15.9994           0
     24305 TIP3     620      TIP3     H1       HT       0.417000       1.00800           0
     24306 TIP3     620      TIP3     H2       HT       0.417000       1.00800           0
     24307 TIP3     621      TIP3     OH2      OT      -0.834000       15.9994           0
     24308 TIP3     621      TIP3     H1       HT       0.417000       1.00800           0
     24309 TIP3     621      TIP3     H2       HT       0.417000       1.00800           0
     24310 TIP3     622      TIP3     OH2      OT      -0.834000       15.9994           0
     24311 TIP3     622      TIP3     H1       HT       0.417000       1.00800           0
     24312 TIP3     622      TIP3     H2       HT       0.417000       1.00800           0
     24313 TIP3     623      TIP3     OH2      OT      -0.834000       15.9994           0
     24314 TIP3     623      TIP3     H1       HT       0.417000       1.00800           0
     24315 TIP3     623      TIP3     H2       HT       0.417000       1.00800           0
     24316 TIP3     624      TIP3     OH2      OT      -0.834000       15.9994           0
     24317 TIP3     624      TIP3     H1       HT       0.417000       1.00800           0
     24318 TIP3     624      TIP3     H2       HT       0.417000       1.00800           0
     24319 TIP3     625      TIP3     OH2      OT      -0.834000       15.9994           0
     24320 TIP3     625      TIP3     H1       HT       0.417000       1.00800           0
     24321 TIP3     625      TIP3     H2       HT       0.417000       1.00800           0
     24322 TIP3     626      TIP3     OH2      OT      -0.834000       15.9994           0
     24323 TIP3     626      TIP3     H1       HT       0.417000       1.00800           0
     24324 TIP3     626      TIP3     H2       HT       0.417000       1.00800           0
     24325 TIP3     627      TIP3     OH2      OT      -0.834000       15.9994           0
     24326 TIP3     627      TIP3     H1       HT       0.417000       1.00800           0
     24327 TIP3     627      TIP3     H2       HT       0.417000       1.00800           0
     24328 TIP3     628      TIP3     OH2      OT      -0.834000       15.9994           0
     24329 TIP3     628      TIP3     H1       HT       0.417000       1.00800           0
     24330 TIP3     628      TIP3     H2       HT       0.417000       1.00800           0
     24331 TIP3     629      TIP3     OH2      OT      -0.834000       15.9994           0
     24332 TIP3     629      TIP3     H1       HT       0.417000       1.00800           0
     24333 TIP3     629      TIP3     H2       HT       0.417000       1.00800           0
     24334 TIP3     630      TIP3     OH2      OT      -0.834000       15.9994           0
     24335 TIP3     630      TIP3     H1       HT       0.417000       1.00800           0
     24336 TIP3     630      TIP3     H2       HT       0.417000       1.00800           0
     24337 TIP3     631      TIP3     OH2      OT      -0.834000       15.9994           0
     24338 TIP3     631      TIP3     H1       HT       0.417000       1.00800           0
     24339 TIP3     631      TIP3     H2       HT       0.417000       1.00800           0
     24340 TIP3     632      TIP3     OH2      OT      -0.834000       15.9994           0
     24341 TIP3     632      TIP3     H1       HT       0.417000       1.00800           0
     24342 TIP3     632      TIP3     H2       HT       0.417000       1.00800           0
     24343 TIP3     633      TIP3     OH2      OT      -0.834000       15.9994           0
     24344 TIP3     633      TIP3     H1       HT       0.417000       1.00800           0
     24345 TIP3     633      TIP3     H2       HT       0.417000       1.00800           0
     24346 TIP3     634      TIP3     OH2      OT      -0.834000       15.9994           0
     24347 TIP3     634      TIP3     H1       HT       0.417000       1.00800           0
     24348 TIP3     634      TIP3     H2       HT       0.417000       1.00800           0
     24349 TIP3     635      TIP3     OH2      OT      -0.834000       15.9994           0
     24350 TIP3     635      TIP3     H1       HT       0.417000       1.00800           0
     24351 TIP3     635      TIP3     H2       HT       0.417000       1.00800           0
     24352 TIP3     636      TIP3     OH2      OT      -0.834000       15.9994           0
     24353 TIP3     636      TIP3     H1       HT       0.417000       1.00800           0
     24354 TIP3     636      TIP3     H2       HT       0.417000       1.00800           0
     24355 TIP3     637      TIP3     OH2      OT      -0.834000       15.9994           0
     24356 TIP3     637      TIP3     H1       HT       0.417000       1.00800           0
     24357 TIP3     637      TIP3     H2       HT       0.417000       1.00800           0
     24358 TIP3     638      TIP3     OH2      OT      -0.834000       15.9994           0
     24359 TIP3     638      TIP3     H1       HT       0.417000       1.00800           0
     24360 TIP3     638      TIP3     H2       HT       0.417000       1.00800           0
     24361 TIP3     639      TIP3     OH2      OT      -0.834000       15.9994           0
     24362 TIP3     639      TIP3     H1       HT       0.417000       1.00800           0
     24363 TIP3     639      TIP3     H2       HT       0.417000       1.00800           0
     24364 TIP3     640      TIP3     OH2      OT      -0.834000       15.9994           0
     24365 TIP3     640      TIP3     H1       HT       0.417000       1.00800           0
     24366 TIP3     640      TIP3     H2       HT       0.417000       1.00800           0
     24367 TIP3     641      TIP3     OH2      OT      -0.834000       15.9994           0
     24368 TIP3     641      TIP3     H1       HT       0.417000       1.00800           0
     24369 TIP3     641      TIP3     H2       HT       0.417000       1.00800           0
     24370 TIP3     642      TIP3     OH2      OT      -0.834000       15.9994           0
     24371 TIP3     642      TIP3     H1       HT       0.417000       1.00800           0
     24372 TIP3     642      TIP3     H2       HT       0.417000       1.00800           0
     24373 TIP3     643      TIP3     OH2      OT      -0.834000       15.9994           0
     24374 TIP3     643      TIP3     H1       HT       0.417000       1.00800           0
     24375 TIP3     643      TIP3     H2       HT       0.417000       1.00800           0
     24376 TIP3     644      TIP3     OH2      OT      -0.834000       15.9994           0
     24377 TIP3     644      TIP3     H1       HT       0.417000       1.00800           0
     24378 TIP3     644      TIP3     H2       HT       0.417000       1.00800           0
     24379 TIP3     645      TIP3     OH2      OT      -0.834000       15.9994           0
     24380 TIP3     645      TIP3     H1       HT       0.417000       1.00800           0
     24381 TIP3     645      TIP3     H2       HT       0.417000       1.00800           0
     24382 TIP3     646      TIP3     OH2      OT      -0.834000       15.9994           0
     24383 TIP3     646      TIP3     H1       HT       0.417000       1.00800           0
     24384 TIP3     646      TIP3     H2       HT       0.417000       1.00800           0
     24385 TIP3     647      TIP3     OH2      OT      -0.834000       15.9994           0
     24386 TIP3     647      TIP3     H1       HT       0.417000       1.00800           0
     24387 TIP3     647      TIP3     H2       HT       0.417000       1.00800           0
     24388 TIP3     648      TIP3     OH2      OT      -0.834000       15.9994           0
     24389 TIP3     648      TIP3     H1       HT       0.417000       1.00800           0
     24390 TIP3     648      TIP3     H2       HT       0.417000       1.00800           0
     24391 TIP3     649      TIP3     OH2      OT      -0.834000       15.9994           0
     24392 TIP3     649      TIP3     H1       HT       0.417000       1.00800           0
     24393 TIP3     649      TIP3     H2       HT       0.417000       1.00800           0
     24394 TIP3     650      TIP3     OH2      OT      -0.834000       15.9994           0
     24395 TIP3     650      TIP3     H1       HT       0.417000       1.00800           0
     24396 TIP3     650      TIP3     H2       HT       0.417000       1.00800           0
     24397 TIP3     651      TIP3     OH2      OT      -0.834000       15.9994           0
     24398 TIP3     651      TIP3     H1       HT       0.417000       1.00800           0
     24399 TIP3     651      TIP3     H2       HT       0.417000       1.00800           0
     24400 TIP3     652      TIP3     OH2      OT      -0.834000       15.9994           0
     24401 TIP3     652      TIP3     H1       HT       0.417000       1.00800           0
     24402 TIP3     652      TIP3     H2       HT       0.417000       1.00800           0
     24403 TIP3     653      TIP3     OH2      OT      -0.834000       15.9994           0
     24404 TIP3     653      TIP3     H1       HT       0.417000       1.00800           0
     24405 TIP3     653      TIP3     H2       HT       0.417000       1.00800           0
     24406 TIP3     654      TIP3     OH2      OT      -0.834000       15.9994           0
     24407 TIP3     654      TIP3     H1       HT       0.417000       1.00800           0
     24408 TIP3     654      TIP3     H2       HT       0.417000       1.00800           0
     24409 TIP3     655      TIP3     OH2      OT      -0.834000       15.9994           0
     24410 TIP3     655      TIP3     H1       HT       0.417000       1.00800           0
     24411 TIP3     655      TIP3     H2       HT       0.417000       1.00800           0
     24412 TIP3     656      TIP3     OH2      OT      -0.834000       15.9994           0
     24413 TIP3     656      TIP3     H1       HT       0.417000       1.00800           0
     24414 TIP3     656      TIP3     H2       HT       0.417000       1.00800           0
     24415 TIP3     657      TIP3     OH2      OT      -0.834000       15.9994           0
     24416 TIP3     657      TIP3     H1       HT       0.417000       1.00800           0
     24417 TIP3     657      TIP3     H2       HT       0.417000       1.00800           0
     24418 TIP3     658      TIP3     OH2      OT      -0.834000       15.9994           0
     24419 TIP3     658      TIP3     H1       HT       0.417000       1.00800           0
     24420 TIP3     658      TIP3     H2       HT       0.417000       1.00800           0
     24421 TIP3     659      TIP3     OH2      OT      -0.834000       15.9994           0
     24422 TIP3     659      TIP3     H1       HT       0.417000       1.00800           0
     24423 TIP3     659      TIP3     H2       HT       0.417000       1.00800           0
     24424 TIP3     660      TIP3     OH2      OT      -0.834000       15.9994           0
     24425 TIP3     660      TIP3     H1       HT       0.417000       1.00800           0
     24426 TIP3     660      TIP3     H2       HT       0.417000       1.00800           0
     24427 TIP3     661      TIP3     OH2      OT      -0.834000       15.9994           0
     24428 TIP3     661      TIP3     H1       HT       0.417000       1.00800           0
     24429 TIP3     661      TIP3     H2       HT       0.417000       1.00800           0
     24430 TIP3     662      TIP3     OH2      OT      -0.834000       15.9994           0
     24431 TIP3     662      TIP3     H1       HT       0.417000       1.00800           0
     24432 TIP3     662      TIP3     H2       HT       0.417000       1.00800           0
     24433 TIP3     663      TIP3     OH2      OT      -0.834000       15.9994           0
     24434 TIP3     663      TIP3     H1       HT       0.417000       1.00800           0
     24435 TIP3     663      TIP3     H2       HT       0.417000       1.00800           0
     24436 TIP3     664      TIP3     OH2      OT      -0.834000       15.9994           0
     24437 TIP3     664      TIP3     H1       HT       0.417000       1.00800           0
     24438 TIP3     664      TIP3     H2       HT       0.417000       1.00800           0
     24439 TIP3     665      TIP3     OH2      OT      -0.834000       15.9994           0
     24440 TIP3     665      TIP3     H1       HT       0.417000       1.00800           0
     24441 TIP3     665      TIP3     H2       HT       0.417000       1.00800           0
     24442 TIP3     666      TIP3     OH2      OT      -0.834000       15.9994           0
     24443 TIP3     666      TIP3     H1       HT       0.417000       1.00800           0
     24444 TIP3     666      TIP3     H2       HT       0.417000       1.00800           0
     24445 TIP3     667      TIP3     OH2      OT      -0.834000       15.9994           0
     24446 TIP3     667      TIP3     H1       HT       0.417000       1.00800           0
     24447 TIP3     667      TIP3     H2       HT       0.417000       1.00800           0
     24448 TIP3     668      TIP3     OH2      OT      -0.834000       15.9994           0
     24449 TIP3     668      TIP3     H1       HT       0.417000       1.00800           0
     24450 TIP3     668      TIP3     H2       HT       0.417000       1.00800           0
     24451 TIP3     669      TIP3     OH2      OT      -0.834000       15.9994           0
     24452 TIP3     669      TIP3     H1       HT       0.417000       1.00800           0
     24453 TIP3     669      TIP3     H2       HT       0.417000       1.00800           0
     24454 TIP3     670      TIP3     OH2      OT      -0.834000       15.9994           0
     24455 TIP3     670      TIP3     H1       HT       0.417000       1.00800           0
     24456 TIP3     670      TIP3     H2       HT       0.417000       1.00800           0
     24457 TIP3     671      TIP3     OH2      OT      -0.834000       15.9994           0
     24458 TIP3     671      TIP3     H1       HT       0.417000       1.00800           0
     24459 TIP3     671      TIP3     H2       HT       0.417000       1.00800           0
     24460 TIP3     672      TIP3     OH2      OT      -0.834000       15.9994           0
     24461 TIP3     672      TIP3     H1       HT       0.417000       1.00800           0
     24462 TIP3     672      TIP3     H2       HT       0.417000       1.00800           0
     24463 TIP3     673      TIP3     OH2      OT      -0.834000       15.9994           0
     24464 TIP3     673      TIP3     H1       HT       0.417000       1.00800           0
     24465 TIP3     673      TIP3     H2       HT       0.417000       1.00800           0
     24466 TIP3     674      TIP3     OH2      OT      -0.834000       15.9994           0
     24467 TIP3     674      TIP3     H1       HT       0.417000       1.00800           0
     24468 TIP3     674      TIP3     H2       HT       0.417000       1.00800           0
     24469 TIP3     675      TIP3     OH2      OT      -0.834000       15.9994           0
     24470 TIP3     675      TIP3     H1       HT       0.417000       1.00800           0
     24471 TIP3     675      TIP3     H2       HT       0.417000       1.00800           0
     24472 TIP3     676      TIP3     OH2      OT      -0.834000       15.9994           0
     24473 TIP3     676      TIP3     H1       HT       0.417000       1.00800           0
     24474 TIP3     676      TIP3     H2       HT       0.417000       1.00800           0
     24475 TIP3     677      TIP3     OH2      OT      -0.834000       15.9994           0
     24476 TIP3     677      TIP3     H1       HT       0.417000       1.00800           0
     24477 TIP3     677      TIP3     H2       HT       0.417000       1.00800           0
     24478 TIP3     678      TIP3     OH2      OT      -0.834000       15.9994           0
     24479 TIP3     678      TIP3     H1       HT       0.417000       1.00800           0
     24480 TIP3     678      TIP3     H2       HT       0.417000       1.00800           0
     24481 TIP3     679      TIP3     OH2      OT      -0.834000       15.9994           0
     24482 TIP3     679      TIP3     H1       HT       0.417000       1.00800           0
     24483 TIP3     679      TIP3     H2       HT       0.417000       1.00800           0
     24484 TIP3     680      TIP3     OH2      OT      -0.834000       15.9994           0
     24485 TIP3     680      TIP3     H1       HT       0.417000       1.00800           0
     24486 TIP3     680      TIP3     H2       HT       0.417000       1.00800           0
     24487 TIP3     681      TIP3     OH2      OT      -0.834000       15.9994           0
     24488 TIP3     681      TIP3     H1       HT       0.417000       1.00800           0
     24489 TIP3     681      TIP3     H2       HT       0.417000       1.00800           0
     24490 TIP3     682      TIP3     OH2      OT      -0.834000       15.9994           0
     24491 TIP3     682      TIP3     H1       HT       0.417000       1.00800           0
     24492 TIP3     682      TIP3     H2       HT       0.417000       1.00800           0
     24493 TIP3     683      TIP3     OH2      OT      -0.834000       15.9994           0
     24494 TIP3     683      TIP3     H1       HT       0.417000       1.00800           0
     24495 TIP3     683      TIP3     H2       HT       0.417000       1.00800           0
     24496 TIP3     684      TIP3     OH2      OT      -0.834000       15.9994           0
     24497 TIP3     684      TIP3     H1       HT       0.417000       1.00800           0
     24498 TIP3     684      TIP3     H2       HT       0.417000       1.00800           0
     24499 TIP3     685      TIP3     OH2      OT      -0.834000       15.9994           0
     24500 TIP3     685      TIP3     H1       HT       0.417000       1.00800           0
     24501 TIP3     685      TIP3     H2       HT       0.417000       1.00800           0
     24502 TIP3     686      TIP3     OH2      OT      -0.834000       15.9994           0
     24503 TIP3     686      TIP3     H1       HT       0.417000       1.00800           0
     24504 TIP3     686      TIP3     H2       HT       0.417000       1.00800           0
     24505 TIP3     687      TIP3     OH2      OT      -0.834000       15.9994           0
     24506 TIP3     687      TIP3     H1       HT       0.417000       1.00800           0
     24507 TIP3     687      TIP3     H2       HT       0.417000       1.00800           0
     24508 TIP3     688      TIP3     OH2      OT      -0.834000       15.9994           0
     24509 TIP3     688      TIP3     H1       HT       0.417000       1.00800           0
     24510 TIP3     688      TIP3     H2       HT       0.417000       1.00800           0
     24511 TIP3     689      TIP3     OH2      OT      -0.834000       15.9994           0
     24512 TIP3     689      TIP3     H1       HT       0.417000       1.00800           0
     24513 TIP3     689      TIP3     H2       HT       0.417000       1.00800           0
     24514 TIP3     690      TIP3     OH2      OT      -0.834000       15.9994           0
     24515 TIP3     690      TIP3     H1       HT       0.417000       1.00800           0
     24516 TIP3     690      TIP3     H2       HT       0.417000       1.00800           0
     24517 TIP3     691      TIP3     OH2      OT      -0.834000       15.9994           0
     24518 TIP3     691      TIP3     H1       HT       0.417000       1.00800           0
     24519 TIP3     691      TIP3     H2       HT       0.417000       1.00800           0
     24520 TIP3     692      TIP3     OH2      OT      -0.834000       15.9994           0
     24521 TIP3     692      TIP3     H1       HT       0.417000       1.00800           0
     24522 TIP3     692      TIP3     H2       HT       0.417000       1.00800           0
     24523 TIP3     693      TIP3     OH2      OT      -0.834000       15.9994           0
     24524 TIP3     693      TIP3     H1       HT       0.417000       1.00800           0
     24525 TIP3     693      TIP3     H2       HT       0.417000       1.00800           0
     24526 TIP3     694      TIP3     OH2      OT      -0.834000       15.9994           0
     24527 TIP3     694      TIP3     H1       HT       0.417000       1.00800           0
     24528 TIP3     694      TIP3     H2       HT       0.417000       1.00800           0
     24529 TIP3     695      TIP3     OH2      OT      -0.834000       15.9994           0
     24530 TIP3     695      TIP3     H1       HT       0.417000       1.00800           0
     24531 TIP3     695      TIP3     H2       HT       0.417000       1.00800           0
     24532 TIP3     696      TIP3     OH2      OT      -0.834000       15.9994           0
     24533 TIP3     696      TIP3     H1       HT       0.417000       1.00800           0
     24534 TIP3     696      TIP3     H2       HT       0.417000       1.00800           0
     24535 TIP3     697      TIP3     OH2      OT      -0.834000       15.9994           0
     24536 TIP3     697      TIP3     H1       HT       0.417000       1.00800           0
     24537 TIP3     697      TIP3     H2       HT       0.417000       1.00800           0
     24538 TIP3     698      TIP3     OH2      OT      -0.834000       15.9994           0
     24539 TIP3     698      TIP3     H1       HT       0.417000       1.00800           0
     24540 TIP3     698      TIP3     H2       HT       0.417000       1.00800           0
     24541 TIP3     699      TIP3     OH2      OT      -0.834000       15.9994           0
     24542 TIP3     699      TIP3     H1       HT       0.417000       1.00800           0
     24543 TIP3     699      TIP3     H2       HT       0.417000       1.00800           0
     24544 TIP3     700      TIP3     OH2      OT      -0.834000       15.9994           0
     24545 TIP3     700      TIP3     H1       HT       0.417000       1.00800           0
     24546 TIP3     700      TIP3     H2       HT       0.417000       1.00800           0
     24547 TIP3     701      TIP3     OH2      OT      -0.834000       15.9994           0
     24548 TIP3     701      TIP3     H1       HT       0.417000       1.00800           0
     24549 TIP3     701      TIP3     H2       HT       0.417000       1.00800           0
     24550 TIP3     702      TIP3     OH2      OT      -0.834000       15.9994           0
     24551 TIP3     702      TIP3     H1       HT       0.417000       1.00800           0
     24552 TIP3     702      TIP3     H2       HT       0.417000       1.00800           0
     24553 TIP3     703      TIP3     OH2      OT      -0.834000       15.9994           0
     24554 TIP3     703      TIP3     H1       HT       0.417000       1.00800           0
     24555 TIP3     703      TIP3     H2       HT       0.417000       1.00800           0
     24556 TIP3     704      TIP3     OH2      OT      -0.834000       15.9994           0
     24557 TIP3     704      TIP3     H1       HT       0.417000       1.00800           0
     24558 TIP3     704      TIP3     H2       HT       0.417000       1.00800           0
     24559 TIP3     705      TIP3     OH2      OT      -0.834000       15.9994           0
     24560 TIP3     705      TIP3     H1       HT       0.417000       1.00800           0
     24561 TIP3     705      TIP3     H2       HT       0.417000       1.00800           0
     24562 TIP3     706      TIP3     OH2      OT      -0.834000       15.9994           0
     24563 TIP3     706      TIP3     H1       HT       0.417000       1.00800           0
     24564 TIP3     706      TIP3     H2       HT       0.417000       1.00800           0
     24565 TIP3     707      TIP3     OH2      OT      -0.834000       15.9994           0
     24566 TIP3     707      TIP3     H1       HT       0.417000       1.00800           0
     24567 TIP3     707      TIP3     H2       HT       0.417000       1.00800           0
     24568 TIP3     708      TIP3     OH2      OT      -0.834000       15.9994           0
     24569 TIP3     708      TIP3     H1       HT       0.417000       1.00800           0
     24570 TIP3     708      TIP3     H2       HT       0.417000       1.00800           0
     24571 TIP3     709      TIP3     OH2      OT      -0.834000       15.9994           0
     24572 TIP3     709      TIP3     H1       HT       0.417000       1.00800           0
     24573 TIP3     709      TIP3     H2       HT       0.417000       1.00800           0
     24574 TIP3     710      TIP3     OH2      OT      -0.834000       15.9994           0
     24575 TIP3     710      TIP3     H1       HT       0.417000       1.00800           0
     24576 TIP3     710      TIP3     H2       HT       0.417000       1.00800           0
     24577 TIP3     711      TIP3     OH2      OT      -0.834000       15.9994           0
     24578 TIP3     711      TIP3     H1       HT       0.417000       1.00800           0
     24579 TIP3     711      TIP3     H2       HT       0.417000       1.00800           0
     24580 TIP3     712      TIP3     OH2      OT      -0.834000       15.9994           0
     24581 TIP3     712      TIP3     H1       HT       0.417000       1.00800           0
     24582 TIP3     712      TIP3     H2       HT       0.417000       1.00800           0
     24583 TIP3     713      TIP3     OH2      OT      -0.834000       15.9994           0
     24584 TIP3     713      TIP3     H1       HT       0.417000       1.00800           0
     24585 TIP3     713      TIP3     H2       HT       0.417000       1.00800           0
     24586 TIP3     714      TIP3     OH2      OT      -0.834000       15.9994           0
     24587 TIP3     714      TIP3     H1       HT       0.417000       1.00800           0
     24588 TIP3     714      TIP3     H2       HT       0.417000       1.00800           0
     24589 TIP3     715      TIP3     OH2      OT      -0.834000       15.9994           0
     24590 TIP3     715      TIP3     H1       HT       0.417000       1.00800           0
     24591 TIP3     715      TIP3     H2       HT       0.417000       1.00800           0
     24592 TIP3     716      TIP3     OH2      OT      -0.834000       15.9994           0
     24593 TIP3     716      TIP3     H1       HT       0.417000       1.00800           0
     24594 TIP3     716      TIP3     H2       HT       0.417000       1.00800           0
     24595 TIP3     717      TIP3     OH2      OT      -0.834000       15.9994           0
     24596 TIP3     717      TIP3     H1       HT       0.417000       1.00800           0
     24597 TIP3     717      TIP3     H2       HT       0.417000       1.00800           0
     24598 TIP3     718      TIP3     OH2      OT      -0.834000       15.9994           0
     24599 TIP3     718      TIP3     H1       HT       0.417000       1.00800           0
     24600 TIP3     718      TIP3     H2       HT       0.417000       1.00800           0
     24601 TIP3     719      TIP3     OH2      OT      -0.834000       15.9994           0
     24602 TIP3     719      TIP3     H1       HT       0.417000       1.00800           0
     24603 TIP3     719      TIP3     H2       HT       0.417000       1.00800           0
     24604 TIP3     720      TIP3     OH2      OT      -0.834000       15.9994           0
     24605 TIP3     720      TIP3     H1       HT       0.417000       1.00800           0
     24606 TIP3     720      TIP3     H2       HT       0.417000       1.00800           0
     24607 TIP3     721      TIP3     OH2      OT      -0.834000       15.9994           0
     24608 TIP3     721      TIP3     H1       HT       0.417000       1.00800           0
     24609 TIP3     721      TIP3     H2       HT       0.417000       1.00800           0
     24610 TIP3     722      TIP3     OH2      OT      -0.834000       15.9994           0
     24611 TIP3     722      TIP3     H1       HT       0.417000       1.00800           0
     24612 TIP3     722      TIP3     H2       HT       0.417000       1.00800           0
     24613 TIP3     723      TIP3     OH2      OT      -0.834000       15.9994           0
     24614 TIP3     723      TIP3     H1       HT       0.417000       1.00800           0
     24615 TIP3     723      TIP3     H2       HT       0.417000       1.00800           0
     24616 TIP3     724      TIP3     OH2      OT      -0.834000       15.9994           0
     24617 TIP3     724      TIP3     H1       HT       0.417000       1.00800           0
     24618 TIP3     724      TIP3     H2       HT       0.417000       1.00800           0
     24619 TIP3     725      TIP3     OH2      OT      -0.834000       15.9994           0
     24620 TIP3     725      TIP3     H1       HT       0.417000       1.00800           0
     24621 TIP3     725      TIP3     H2       HT       0.417000       1.00800           0
     24622 TIP3     726      TIP3     OH2      OT      -0.834000       15.9994           0
     24623 TIP3     726      TIP3     H1       HT       0.417000       1.00800           0
     24624 TIP3     726      TIP3     H2       HT       0.417000       1.00800           0
     24625 TIP3     727      TIP3     OH2      OT      -0.834000       15.9994           0
     24626 TIP3     727      TIP3     H1       HT       0.417000       1.00800           0
     24627 TIP3     727      TIP3     H2       HT       0.417000       1.00800           0
     24628 TIP3     728      TIP3     OH2      OT      -0.834000       15.9994           0
     24629 TIP3     728      TIP3     H1       HT       0.417000       1.00800           0
     24630 TIP3     728      TIP3     H2       HT       0.417000       1.00800           0
     24631 TIP3     729      TIP3     OH2      OT      -0.834000       15.9994           0
     24632 TIP3     729      TIP3     H1       HT       0.417000       1.00800           0
     24633 TIP3     729      TIP3     H2       HT       0.417000       1.00800           0
     24634 TIP3     730      TIP3     OH2      OT      -0.834000       15.9994           0
     24635 TIP3     730      TIP3     H1       HT       0.417000       1.00800           0
     24636 TIP3     730      TIP3     H2       HT       0.417000       1.00800           0
     24637 TIP3     731      TIP3     OH2      OT      -0.834000       15.9994           0
     24638 TIP3     731      TIP3     H1       HT       0.417000       1.00800           0
     24639 TIP3     731      TIP3     H2       HT       0.417000       1.00800           0
     24640 TIP3     732      TIP3     OH2      OT      -0.834000       15.9994           0
     24641 TIP3     732      TIP3     H1       HT       0.417000       1.00800           0
     24642 TIP3     732      TIP3     H2       HT       0.417000       1.00800           0
     24643 TIP3     733      TIP3     OH2      OT      -0.834000       15.9994           0
     24644 TIP3     733      TIP3     H1       HT       0.417000       1.00800           0
     24645 TIP3     733      TIP3     H2       HT       0.417000       1.00800           0
     24646 TIP3     734      TIP3     OH2      OT      -0.834000       15.9994           0
     24647 TIP3     734      TIP3     H1       HT       0.417000       1.00800           0
     24648 TIP3     734      TIP3     H2       HT       0.417000       1.00800           0
     24649 TIP3     735      TIP3     OH2      OT      -0.834000       15.9994           0
     24650 TIP3     735      TIP3     H1       HT       0.417000       1.00800           0
     24651 TIP3     735      TIP3     H2       HT       0.417000       1.00800           0
     24652 TIP3     736      TIP3     OH2      OT      -0.834000       15.9994           0
     24653 TIP3     736      TIP3     H1       HT       0.417000       1.00800           0
     24654 TIP3     736      TIP3     H2       HT       0.417000       1.00800           0
     24655 TIP3     737      TIP3     OH2      OT      -0.834000       15.9994           0
     24656 TIP3     737      TIP3     H1       HT       0.417000       1.00800           0
     24657 TIP3     737      TIP3     H2       HT       0.417000       1.00800           0
     24658 TIP3     738      TIP3     OH2      OT      -0.834000       15.9994           0
     24659 TIP3     738      TIP3     H1       HT       0.417000       1.00800           0
     24660 TIP3     738      TIP3     H2       HT       0.417000       1.00800           0
     24661 TIP3     739      TIP3     OH2      OT      -0.834000       15.9994           0
     24662 TIP3     739      TIP3     H1       HT       0.417000       1.00800           0
     24663 TIP3     739      TIP3     H2       HT       0.417000       1.00800           0
     24664 TIP3     740      TIP3     OH2      OT      -0.834000       15.9994           0
     24665 TIP3     740      TIP3     H1       HT       0.417000       1.00800           0
     24666 TIP3     740      TIP3     H2       HT       0.417000       1.00800           0
     24667 TIP3     741      TIP3     OH2      OT      -0.834000       15.9994           0
     24668 TIP3     741      TIP3     H1       HT       0.417000       1.00800           0
     24669 TIP3     741      TIP3     H2       HT       0.417000       1.00800           0
     24670 TIP3     742      TIP3     OH2      OT      -0.834000       15.9994           0
     24671 TIP3     742      TIP3     H1       HT       0.417000       1.00800           0
     24672 TIP3     742      TIP3     H2       HT       0.417000       1.00800           0
     24673 TIP3     743      TIP3     OH2      OT      -0.834000       15.9994           0
     24674 TIP3     743      TIP3     H1       HT       0.417000       1.00800           0
     24675 TIP3     743      TIP3     H2       HT       0.417000       1.00800           0
     24676 TIP3     744      TIP3     OH2      OT      -0.834000       15.9994           0
     24677 TIP3     744      TIP3     H1       HT       0.417000       1.00800           0
     24678 TIP3     744      TIP3     H2       HT       0.417000       1.00800           0
     24679 TIP3     745      TIP3     OH2      OT      -0.834000       15.9994           0
     24680 TIP3     745      TIP3     H1       HT       0.417000       1.00800           0
     24681 TIP3     745      TIP3     H2       HT       0.417000       1.00800           0
     24682 TIP3     746      TIP3     OH2      OT      -0.834000       15.9994           0
     24683 TIP3     746      TIP3     H1       HT       0.417000       1.00800           0
     24684 TIP3     746      TIP3     H2       HT       0.417000       1.00800           0
     24685 TIP3     747      TIP3     OH2      OT      -0.834000       15.9994           0
     24686 TIP3     747      TIP3     H1       HT       0.417000       1.00800           0
     24687 TIP3     747      TIP3     H2       HT       0.417000       1.00800           0
     24688 TIP3     748      TIP3     OH2      OT      -0.834000       15.9994           0
     24689 TIP3     748      TIP3     H1       HT       0.417000       1.00800           0
     24690 TIP3     748      TIP3     H2       HT       0.417000       1.00800           0
     24691 TIP3     749      TIP3     OH2      OT      -0.834000       15.9994           0
     24692 TIP3     749      TIP3     H1       HT       0.417000       1.00800           0
     24693 TIP3     749      TIP3     H2       HT       0.417000       1.00800           0
     24694 TIP3     750      TIP3     OH2      OT      -0.834000       15.9994           0
     24695 TIP3     750      TIP3     H1       HT       0.417000       1.00800           0
     24696 TIP3     750      TIP3     H2       HT       0.417000       1.00800           0
     24697 TIP3     751      TIP3     OH2      OT      -0.834000       15.9994           0
     24698 TIP3     751      TIP3     H1       HT       0.417000       1.00800           0
     24699 TIP3     751      TIP3     H2       HT       0.417000       1.00800           0
     24700 TIP3     752      TIP3     OH2      OT      -0.834000       15.9994           0
     24701 TIP3     752      TIP3     H1       HT       0.417000       1.00800           0
     24702 TIP3     752      TIP3     H2       HT       0.417000       1.00800           0
     24703 TIP3     753      TIP3     OH2      OT      -0.834000       15.9994           0
     24704 TIP3     753      TIP3     H1       HT       0.417000       1.00800           0
     24705 TIP3     753      TIP3     H2       HT       0.417000       1.00800           0
     24706 TIP3     754      TIP3     OH2      OT      -0.834000       15.9994           0
     24707 TIP3     754      TIP3     H1       HT       0.417000       1.00800           0
     24708 TIP3     754      TIP3     H2       HT       0.417000       1.00800           0
     24709 TIP3     755      TIP3     OH2      OT      -0.834000       15.9994           0
     24710 TIP3     755      TIP3     H1       HT       0.417000       1.00800           0
     24711 TIP3     755      TIP3     H2       HT       0.417000       1.00800           0
     24712 TIP3     756      TIP3     OH2      OT      -0.834000       15.9994           0
     24713 TIP3     756      TIP3     H1       HT       0.417000       1.00800           0
     24714 TIP3     756      TIP3     H2       HT       0.417000       1.00800           0
     24715 TIP3     757      TIP3     OH2      OT      -0.834000       15.9994           0
     24716 TIP3     757      TIP3     H1       HT       0.417000       1.00800           0
     24717 TIP3     757      TIP3     H2       HT       0.417000       1.00800           0
     24718 TIP3     758      TIP3     OH2      OT      -0.834000       15.9994           0
     24719 TIP3     758      TIP3     H1       HT       0.417000       1.00800           0
     24720 TIP3     758      TIP3     H2       HT       0.417000       1.00800           0
     24721 TIP3     759      TIP3     OH2      OT      -0.834000       15.9994           0
     24722 TIP3     759      TIP3     H1       HT       0.417000       1.00800           0
     24723 TIP3     759      TIP3     H2       HT       0.417000       1.00800           0
     24724 TIP3     760      TIP3     OH2      OT      -0.834000       15.9994           0
     24725 TIP3     760      TIP3     H1       HT       0.417000       1.00800           0
     24726 TIP3     760      TIP3     H2       HT       0.417000       1.00800           0
     24727 TIP3     761      TIP3     OH2      OT      -0.834000       15.9994           0
     24728 TIP3     761      TIP3     H1       HT       0.417000       1.00800           0
     24729 TIP3     761      TIP3     H2       HT       0.417000       1.00800           0
     24730 TIP3     762      TIP3     OH2      OT      -0.834000       15.9994           0
     24731 TIP3     762      TIP3     H1       HT       0.417000       1.00800           0
     24732 TIP3     762      TIP3     H2       HT       0.417000       1.00800           0
     24733 TIP3     763      TIP3     OH2      OT      -0.834000       15.9994           0
     24734 TIP3     763      TIP3     H1       HT       0.417000       1.00800           0
     24735 TIP3     763      TIP3     H2       HT       0.417000       1.00800           0
     24736 TIP3     764      TIP3     OH2      OT      -0.834000       15.9994           0
     24737 TIP3     764      TIP3     H1       HT       0.417000       1.00800           0
     24738 TIP3     764      TIP3     H2       HT       0.417000       1.00800           0
     24739 TIP3     765      TIP3     OH2      OT      -0.834000       15.9994           0
     24740 TIP3     765      TIP3     H1       HT       0.417000       1.00800           0
     24741 TIP3     765      TIP3     H2       HT       0.417000       1.00800           0
     24742 TIP3     766      TIP3     OH2      OT      -0.834000       15.9994           0
     24743 TIP3     766      TIP3     H1       HT       0.417000       1.00800           0
     24744 TIP3     766      TIP3     H2       HT       0.417000       1.00800           0
     24745 TIP3     767      TIP3     OH2      OT      -0.834000       15.9994           0
     24746 TIP3     767      TIP3     H1       HT       0.417000       1.00800           0
     24747 TIP3     767      TIP3     H2       HT       0.417000       1.00800           0
     24748 TIP3     768      TIP3     OH2      OT      -0.834000       15.9994           0
     24749 TIP3     768      TIP3     H1       HT       0.417000       1.00800           0
     24750 TIP3     768      TIP3     H2       HT       0.417000       1.00800           0
     24751 TIP3     769      TIP3     OH2      OT      -0.834000       15.9994           0
     24752 TIP3     769      TIP3     H1       HT       0.417000       1.00800           0
     24753 TIP3     769      TIP3     H2       HT       0.417000       1.00800           0
     24754 TIP3     770      TIP3     OH2      OT      -0.834000       15.9994           0
     24755 TIP3     770      TIP3     H1       HT       0.417000       1.00800           0
     24756 TIP3     770      TIP3     H2       HT       0.417000       1.00800           0
     24757 TIP3     771      TIP3     OH2      OT      -0.834000       15.9994           0
     24758 TIP3     771      TIP3     H1       HT       0.417000       1.00800           0
     24759 TIP3     771      TIP3     H2       HT       0.417000       1.00800           0
     24760 TIP3     772      TIP3     OH2      OT      -0.834000       15.9994           0
     24761 TIP3     772      TIP3     H1       HT       0.417000       1.00800           0
     24762 TIP3     772      TIP3     H2       HT       0.417000       1.00800           0
     24763 TIP3     773      TIP3     OH2      OT      -0.834000       15.9994           0
     24764 TIP3     773      TIP3     H1       HT       0.417000       1.00800           0
     24765 TIP3     773      TIP3     H2       HT       0.417000       1.00800           0
     24766 TIP3     774      TIP3     OH2      OT      -0.834000       15.9994           0
     24767 TIP3     774      TIP3     H1       HT       0.417000       1.00800           0
     24768 TIP3     774      TIP3     H2       HT       0.417000       1.00800           0
     24769 TIP3     775      TIP3     OH2      OT      -0.834000       15.9994           0
     24770 TIP3     775      TIP3     H1       HT       0.417000       1.00800           0
     24771 TIP3     775      TIP3     H2       HT       0.417000       1.00800           0
     24772 TIP3     776      TIP3     OH2      OT      -0.834000       15.9994           0
     24773 TIP3     776      TIP3     H1       HT       0.417000       1.00800           0
     24774 TIP3     776      TIP3     H2       HT       0.417000       1.00800           0
     24775 TIP3     777      TIP3     OH2      OT      -0.834000       15.9994           0
     24776 TIP3     777      TIP3     H1       HT       0.417000       1.00800           0
     24777 TIP3     777      TIP3     H2       HT       0.417000       1.00800           0
     24778 TIP3     778      TIP3     OH2      OT      -0.834000       15.9994           0
     24779 TIP3     778      TIP3     H1       HT       0.417000       1.00800           0
     24780 TIP3     778      TIP3     H2       HT       0.417000       1.00800           0
     24781 TIP3     779      TIP3     OH2      OT      -0.834000       15.9994           0
     24782 TIP3     779      TIP3     H1       HT       0.417000       1.00800           0
     24783 TIP3     779      TIP3     H2       HT       0.417000       1.00800           0
     24784 TIP3     780      TIP3     OH2      OT      -0.834000       15.9994           0
     24785 TIP3     780      TIP3     H1       HT       0.417000       1.00800           0
     24786 TIP3     780      TIP3     H2       HT       0.417000       1.00800           0
     24787 TIP3     781      TIP3     OH2      OT      -0.834000       15.9994           0
     24788 TIP3     781      TIP3     H1       HT       0.417000       1.00800           0
     24789 TIP3     781      TIP3     H2       HT       0.417000       1.00800           0
     24790 TIP3     782      TIP3     OH2      OT      -0.834000       15.9994           0
     24791 TIP3     782      TIP3     H1       HT       0.417000       1.00800           0
     24792 TIP3     782      TIP3     H2       HT       0.417000       1.00800           0
     24793 TIP3     783      TIP3     OH2      OT      -0.834000       15.9994           0
     24794 TIP3     783      TIP3     H1       HT       0.417000       1.00800           0
     24795 TIP3     783      TIP3     H2       HT       0.417000       1.00800           0
     24796 TIP3     784      TIP3     OH2      OT      -0.834000       15.9994           0
     24797 TIP3     784      TIP3     H1       HT       0.417000       1.00800           0
     24798 TIP3     784      TIP3     H2       HT       0.417000       1.00800           0
     24799 TIP3     785      TIP3     OH2      OT      -0.834000       15.9994           0
     24800 TIP3     785      TIP3     H1       HT       0.417000       1.00800           0
     24801 TIP3     785      TIP3     H2       HT       0.417000       1.00800           0
     24802 TIP3     786      TIP3     OH2      OT      -0.834000       15.9994           0
     24803 TIP3     786      TIP3     H1       HT       0.417000       1.00800           0
     24804 TIP3     786      TIP3     H2       HT       0.417000       1.00800           0
     24805 TIP3     787      TIP3     OH2      OT      -0.834000       15.9994           0
     24806 TIP3     787      TIP3     H1       HT       0.417000       1.00800           0
     24807 TIP3     787      TIP3     H2       HT       0.417000       1.00800           0
     24808 TIP3     788      TIP3     OH2      OT      -0.834000       15.9994           0
     24809 TIP3     788      TIP3     H1       HT       0.417000       1.00800           0
     24810 TIP3     788      TIP3     H2       HT       0.417000       1.00800           0
     24811 TIP3     789      TIP3     OH2      OT      -0.834000       15.9994           0
     24812 TIP3     789      TIP3     H1       HT       0.417000       1.00800           0
     24813 TIP3     789      TIP3     H2       HT       0.417000       1.00800           0
     24814 TIP3     790      TIP3     OH2      OT      -0.834000       15.9994           0
     24815 TIP3     790      TIP3     H1       HT       0.417000       1.00800           0
     24816 TIP3     790      TIP3     H2       HT       0.417000       1.00800           0
     24817 TIP3     791      TIP3     OH2      OT      -0.834000       15.9994           0
     24818 TIP3     791      TIP3     H1       HT       0.417000       1.00800           0
     24819 TIP3     791      TIP3     H2       HT       0.417000       1.00800           0
     24820 TIP3     792      TIP3     OH2      OT      -0.834000       15.9994           0
     24821 TIP3     792      TIP3     H1       HT       0.417000       1.00800           0
     24822 TIP3     792      TIP3     H2       HT       0.417000       1.00800           0
     24823 TIP3     793      TIP3     OH2      OT      -0.834000       15.9994           0
     24824 TIP3     793      TIP3     H1       HT       0.417000       1.00800           0
     24825 TIP3     793      TIP3     H2       HT       0.417000       1.00800           0
     24826 TIP3     794      TIP3     OH2      OT      -0.834000       15.9994           0
     24827 TIP3     794      TIP3     H1       HT       0.417000       1.00800           0
     24828 TIP3     794      TIP3     H2       HT       0.417000       1.00800           0
     24829 TIP3     795      TIP3     OH2      OT      -0.834000       15.9994           0
     24830 TIP3     795      TIP3     H1       HT       0.417000       1.00800           0
     24831 TIP3     795      TIP3     H2       HT       0.417000       1.00800           0
     24832 TIP3     796      TIP3     OH2      OT      -0.834000       15.9994           0
     24833 TIP3     796      TIP3     H1       HT       0.417000       1.00800           0
     24834 TIP3     796      TIP3     H2       HT       0.417000       1.00800           0
     24835 TIP3     797      TIP3     OH2      OT      -0.834000       15.9994           0
     24836 TIP3     797      TIP3     H1       HT       0.417000       1.00800           0
     24837 TIP3     797      TIP3     H2       HT       0.417000       1.00800           0
     24838 TIP3     798      TIP3     OH2      OT      -0.834000       15.9994           0
     24839 TIP3     798      TIP3     H1       HT       0.417000       1.00800           0
     24840 TIP3     798      TIP3     H2       HT       0.417000       1.00800           0
     24841 TIP3     799      TIP3     OH2      OT      -0.834000       15.9994           0
     24842 TIP3     799      TIP3     H1       HT       0.417000       1.00800           0
     24843 TIP3     799      TIP3     H2       HT       0.417000       1.00800           0
     24844 TIP3     800      TIP3     OH2      OT      -0.834000       15.9994           0
     24845 TIP3     800      TIP3     H1       HT       0.417000       1.00800           0
     24846 TIP3     800      TIP3     H2       HT       0.417000       1.00800           0
     24847 TIP3     801      TIP3     OH2      OT      -0.834000       15.9994           0
     24848 TIP3     801      TIP3     H1       HT       0.417000       1.00800           0
     24849 TIP3     801      TIP3     H2       HT       0.417000       1.00800           0
     24850 TIP3     802      TIP3     OH2      OT      -0.834000       15.9994           0
     24851 TIP3     802      TIP3     H1       HT       0.417000       1.00800           0
     24852 TIP3     802      TIP3     H2       HT       0.417000       1.00800           0
     24853 TIP3     803      TIP3     OH2      OT      -0.834000       15.9994           0
     24854 TIP3     803      TIP3     H1       HT       0.417000       1.00800           0
     24855 TIP3     803      TIP3     H2       HT       0.417000       1.00800           0
     24856 TIP3     804      TIP3     OH2      OT      -0.834000       15.9994           0
     24857 TIP3     804      TIP3     H1       HT       0.417000       1.00800           0
     24858 TIP3     804      TIP3     H2       HT       0.417000       1.00800           0
     24859 TIP3     805      TIP3     OH2      OT      -0.834000       15.9994           0
     24860 TIP3     805      TIP3     H1       HT       0.417000       1.00800           0
     24861 TIP3     805      TIP3     H2       HT       0.417000       1.00800           0
     24862 TIP3     806      TIP3     OH2      OT      -0.834000       15.9994           0
     24863 TIP3     806      TIP3     H1       HT       0.417000       1.00800           0
     24864 TIP3     806      TIP3     H2       HT       0.417000       1.00800           0
     24865 TIP3     807      TIP3     OH2      OT      -0.834000       15.9994           0
     24866 TIP3     807      TIP3     H1       HT       0.417000       1.00800           0
     24867 TIP3     807      TIP3     H2       HT       0.417000       1.00800           0
     24868 TIP3     808      TIP3     OH2      OT      -0.834000       15.9994           0
     24869 TIP3     808      TIP3     H1       HT       0.417000       1.00800           0
     24870 TIP3     808      TIP3     H2       HT       0.417000       1.00800           0
     24871 TIP3     809      TIP3     OH2      OT      -0.834000       15.9994           0
     24872 TIP3     809      TIP3     H1       HT       0.417000       1.00800           0
     24873 TIP3     809      TIP3     H2       HT       0.417000       1.00800           0
     24874 TIP3     810      TIP3     OH2      OT      -0.834000       15.9994           0
     24875 TIP3     810      TIP3     H1       HT       0.417000       1.00800           0
     24876 TIP3     810      TIP3     H2       HT       0.417000       1.00800           0
     24877 TIP3     811      TIP3     OH2      OT      -0.834000       15.9994           0
     24878 TIP3     811      TIP3     H1       HT       0.417000       1.00800           0
     24879 TIP3     811      TIP3     H2       HT       0.417000       1.00800           0
     24880 TIP3     812      TIP3     OH2      OT      -0.834000       15.9994           0
     24881 TIP3     812      TIP3     H1       HT       0.417000       1.00800           0
     24882 TIP3     812      TIP3     H2       HT       0.417000       1.00800           0
     24883 TIP3     813      TIP3     OH2      OT      -0.834000       15.9994           0
     24884 TIP3     813      TIP3     H1       HT       0.417000       1.00800           0
     24885 TIP3     813      TIP3     H2       HT       0.417000       1.00800           0
     24886 TIP3     814      TIP3     OH2      OT      -0.834000       15.9994           0
     24887 TIP3     814      TIP3     H1       HT       0.417000       1.00800           0
     24888 TIP3     814      TIP3     H2       HT       0.417000       1.00800           0
     24889 TIP3     815      TIP3     OH2      OT      -0.834000       15.9994           0
     24890 TIP3     815      TIP3     H1       HT       0.417000       1.00800           0
     24891 TIP3     815      TIP3     H2       HT       0.417000       1.00800           0
     24892 TIP3     816      TIP3     OH2      OT      -0.834000       15.9994           0
     24893 TIP3     816      TIP3     H1       HT       0.417000       1.00800           0
     24894 TIP3     816      TIP3     H2       HT       0.417000       1.00800           0
     24895 TIP3     817      TIP3     OH2      OT      -0.834000       15.9994           0
     24896 TIP3     817      TIP3     H1       HT       0.417000       1.00800           0
     24897 TIP3     817      TIP3     H2       HT       0.417000       1.00800           0
     24898 TIP3     818      TIP3     OH2      OT      -0.834000       15.9994           0
     24899 TIP3     818      TIP3     H1       HT       0.417000       1.00800           0
     24900 TIP3     818      TIP3     H2       HT       0.417000       1.00800           0
     24901 TIP3     819      TIP3     OH2      OT      -0.834000       15.9994           0
     24902 TIP3     819      TIP3     H1       HT       0.417000       1.00800           0
     24903 TIP3     819      TIP3     H2       HT       0.417000       1.00800           0
     24904 TIP3     820      TIP3     OH2      OT      -0.834000       15.9994           0
     24905 TIP3     820      TIP3     H1       HT       0.417000       1.00800           0
     24906 TIP3     820      TIP3     H2       HT       0.417000       1.00800           0
     24907 TIP3     821      TIP3     OH2      OT      -0.834000       15.9994           0
     24908 TIP3     821      TIP3     H1       HT       0.417000       1.00800           0
     24909 TIP3     821      TIP3     H2       HT       0.417000       1.00800           0
     24910 TIP3     822      TIP3     OH2      OT      -0.834000       15.9994           0
     24911 TIP3     822      TIP3     H1       HT       0.417000       1.00800           0
     24912 TIP3     822      TIP3     H2       HT       0.417000       1.00800           0
     24913 TIP3     823      TIP3     OH2      OT      -0.834000       15.9994           0
     24914 TIP3     823      TIP3     H1       HT       0.417000       1.00800           0
     24915 TIP3     823      TIP3     H2       HT       0.417000       1.00800           0
     24916 TIP3     824      TIP3     OH2      OT      -0.834000       15.9994           0
     24917 TIP3     824      TIP3     H1       HT       0.417000       1.00800           0
     24918 TIP3     824      TIP3     H2       HT       0.417000       1.00800           0
     24919 TIP3     825      TIP3     OH2      OT      -0.834000       15.9994           0
     24920 TIP3     825      TIP3     H1       HT       0.417000       1.00800           0
     24921 TIP3     825      TIP3     H2       HT       0.417000       1.00800           0
     24922 TIP3     826      TIP3     OH2      OT      -0.834000       15.9994           0
     24923 TIP3     826      TIP3     H1       HT       0.417000       1.00800           0
     24924 TIP3     826      TIP3     H2       HT       0.417000       1.00800           0
     24925 TIP3     827      TIP3     OH2      OT      -0.834000       15.9994           0
     24926 TIP3     827      TIP3     H1       HT       0.417000       1.00800           0
     24927 TIP3     827      TIP3     H2       HT       0.417000       1.00800           0
     24928 TIP3     828      TIP3     OH2      OT      -0.834000       15.9994           0
     24929 TIP3     828      TIP3     H1       HT       0.417000       1.00800           0
     24930 TIP3     828      TIP3     H2       HT       0.417000       1.00800           0
     24931 TIP3     829      TIP3     OH2      OT      -0.834000       15.9994           0
     24932 TIP3     829      TIP3     H1       HT       0.417000       1.00800           0
     24933 TIP3     829      TIP3     H2       HT       0.417000       1.00800           0
     24934 TIP3     830      TIP3     OH2      OT      -0.834000       15.9994           0
     24935 TIP3     830      TIP3     H1       HT       0.417000       1.00800           0
     24936 TIP3     830      TIP3     H2       HT       0.417000       1.00800           0
     24937 TIP3     831      TIP3     OH2      OT      -0.834000       15.9994           0
     24938 TIP3     831      TIP3     H1       HT       0.417000       1.00800           0
     24939 TIP3     831      TIP3     H2       HT       0.417000       1.00800           0
     24940 TIP3     832      TIP3     OH2      OT      -0.834000       15.9994           0
     24941 TIP3     832      TIP3     H1       HT       0.417000       1.00800           0
     24942 TIP3     832      TIP3     H2       HT       0.417000       1.00800           0
     24943 TIP3     833      TIP3     OH2      OT      -0.834000       15.9994           0
     24944 TIP3     833      TIP3     H1       HT       0.417000       1.00800           0
     24945 TIP3     833      TIP3     H2       HT       0.417000       1.00800           0
     24946 TIP3     834      TIP3     OH2      OT      -0.834000       15.9994           0
     24947 TIP3     834      TIP3     H1       HT       0.417000       1.00800           0
     24948 TIP3     834      TIP3     H2       HT       0.417000       1.00800           0
     24949 TIP3     835      TIP3     OH2      OT      -0.834000       15.9994           0
     24950 TIP3     835      TIP3     H1       HT       0.417000       1.00800           0
     24951 TIP3     835      TIP3     H2       HT       0.417000       1.00800           0
     24952 TIP3     836      TIP3     OH2      OT      -0.834000       15.9994           0
     24953 TIP3     836      TIP3     H1       HT       0.417000       1.00800           0
     24954 TIP3     836      TIP3     H2       HT       0.417000       1.00800           0
     24955 TIP3     837      TIP3     OH2      OT      -0.834000       15.9994           0
     24956 TIP3     837      TIP3     H1       HT       0.417000       1.00800           0
     24957 TIP3     837      TIP3     H2       HT       0.417000       1.00800           0
     24958 TIP3     838      TIP3     OH2      OT      -0.834000       15.9994           0
     24959 TIP3     838      TIP3     H1       HT       0.417000       1.00800           0
     24960 TIP3     838      TIP3     H2       HT       0.417000       1.00800           0
     24961 TIP3     839      TIP3     OH2      OT      -0.834000       15.9994           0
     24962 TIP3     839      TIP3     H1       HT       0.417000       1.00800           0
     24963 TIP3     839      TIP3     H2       HT       0.417000       1.00800           0
     24964 TIP3     840      TIP3     OH2      OT      -0.834000       15.9994           0
     24965 TIP3     840      TIP3     H1       HT       0.417000       1.00800           0
     24966 TIP3     840      TIP3     H2       HT       0.417000       1.00800           0
     24967 TIP3     841      TIP3     OH2      OT      -0.834000       15.9994           0
     24968 TIP3     841      TIP3     H1       HT       0.417000       1.00800           0
     24969 TIP3     841      TIP3     H2       HT       0.417000       1.00800           0
     24970 TIP3     842      TIP3     OH2      OT      -0.834000       15.9994           0
     24971 TIP3     842      TIP3     H1       HT       0.417000       1.00800           0
     24972 TIP3     842      TIP3     H2       HT       0.417000       1.00800           0
     24973 TIP3     843      TIP3     OH2      OT      -0.834000       15.9994           0
     24974 TIP3     843      TIP3     H1       HT       0.417000       1.00800           0
     24975 TIP3     843      TIP3     H2       HT       0.417000       1.00800           0
     24976 TIP3     844      TIP3     OH2      OT      -0.834000       15.9994           0
     24977 TIP3     844      TIP3     H1       HT       0.417000       1.00800           0
     24978 TIP3     844      TIP3     H2       HT       0.417000       1.00800           0
     24979 TIP3     845      TIP3     OH2      OT      -0.834000       15.9994           0
     24980 TIP3     845      TIP3     H1       HT       0.417000       1.00800           0
     24981 TIP3     845      TIP3     H2       HT       0.417000       1.00800           0
     24982 TIP3     846      TIP3     OH2      OT      -0.834000       15.9994           0
     24983 TIP3     846      TIP3     H1       HT       0.417000       1.00800           0
     24984 TIP3     846      TIP3     H2       HT       0.417000       1.00800           0
     24985 TIP3     847      TIP3     OH2      OT      -0.834000       15.9994           0
     24986 TIP3     847      TIP3     H1       HT       0.417000       1.00800           0
     24987 TIP3     847      TIP3     H2       HT       0.417000       1.00800           0
     24988 TIP3     848      TIP3     OH2      OT      -0.834000       15.9994           0
     24989 TIP3     848      TIP3     H1       HT       0.417000       1.00800           0
     24990 TIP3     848      TIP3     H2       HT       0.417000       1.00800           0
     24991 TIP3     849      TIP3     OH2      OT      -0.834000       15.9994           0
     24992 TIP3     849      TIP3     H1       HT       0.417000       1.00800           0
     24993 TIP3     849      TIP3     H2       HT       0.417000       1.00800           0
     24994 TIP3     850      TIP3     OH2      OT      -0.834000       15.9994           0
     24995 TIP3     850      TIP3     H1       HT       0.417000       1.00800           0
     24996 TIP3     850      TIP3     H2       HT       0.417000       1.00800           0
     24997 TIP3     851      TIP3     OH2      OT      -0.834000       15.9994           0
     24998 TIP3     851      TIP3     H1       HT       0.417000       1.00800           0
     24999 TIP3     851      TIP3     H2       HT       0.417000       1.00800           0
     25000 TIP3     852      TIP3     OH2      OT      -0.834000       15.9994           0
     25001 TIP3     852      TIP3     H1       HT       0.417000       1.00800           0
     25002 TIP3     852      TIP3     H2       HT       0.417000       1.00800           0
     25003 TIP3     853      TIP3     OH2      OT      -0.834000       15.9994           0
     25004 TIP3     853      TIP3     H1       HT       0.417000       1.00800           0
     25005 TIP3     853      TIP3     H2       HT       0.417000       1.00800           0
     25006 TIP3     854      TIP3     OH2      OT      -0.834000       15.9994           0
     25007 TIP3     854      TIP3     H1       HT       0.417000       1.00800           0
     25008 TIP3     854      TIP3     H2       HT       0.417000       1.00800           0
     25009 TIP3     855      TIP3     OH2      OT      -0.834000       15.9994           0
     25010 TIP3     855      TIP3     H1       HT       0.417000       1.00800           0
     25011 TIP3     855      TIP3     H2       HT       0.417000       1.00800           0
     25012 TIP3     856      TIP3     OH2      OT      -0.834000       15.9994           0
     25013 TIP3     856      TIP3     H1       HT       0.417000       1.00800           0
     25014 TIP3     856      TIP3     H2       HT       0.417000       1.00800           0
     25015 TIP3     857      TIP3     OH2      OT      -0.834000       15.9994           0
     25016 TIP3     857      TIP3     H1       HT       0.417000       1.00800           0
     25017 TIP3     857      TIP3     H2       HT       0.417000       1.00800           0
     25018 TIP3     858      TIP3     OH2      OT      -0.834000       15.9994           0
     25019 TIP3     858      TIP3     H1       HT       0.417000       1.00800           0
     25020 TIP3     858      TIP3     H2       HT       0.417000       1.00800           0
     25021 TIP3     859      TIP3     OH2      OT      -0.834000       15.9994           0
     25022 TIP3     859      TIP3     H1       HT       0.417000       1.00800           0
     25023 TIP3     859      TIP3     H2       HT       0.417000       1.00800           0
     25024 TIP3     860      TIP3     OH2      OT      -0.834000       15.9994           0
     25025 TIP3     860      TIP3     H1       HT       0.417000       1.00800           0
     25026 TIP3     860      TIP3     H2       HT       0.417000       1.00800           0
     25027 TIP3     861      TIP3     OH2      OT      -0.834000       15.9994           0
     25028 TIP3     861      TIP3     H1       HT       0.417000       1.00800           0
     25029 TIP3     861      TIP3     H2       HT       0.417000       1.00800           0
     25030 TIP3     862      TIP3     OH2      OT      -0.834000       15.9994           0
     25031 TIP3     862      TIP3     H1       HT       0.417000       1.00800           0
     25032 TIP3     862      TIP3     H2       HT       0.417000       1.00800           0
     25033 TIP3     863      TIP3     OH2      OT      -0.834000       15.9994           0
     25034 TIP3     863      TIP3     H1       HT       0.417000       1.00800           0
     25035 TIP3     863      TIP3     H2       HT       0.417000       1.00800           0
     25036 TIP3     864      TIP3     OH2      OT      -0.834000       15.9994           0
     25037 TIP3     864      TIP3     H1       HT       0.417000       1.00800           0
     25038 TIP3     864      TIP3     H2       HT       0.417000       1.00800           0
     25039 TIP3     865      TIP3     OH2      OT      -0.834000       15.9994           0
     25040 TIP3     865      TIP3     H1       HT       0.417000       1.00800           0
     25041 TIP3     865      TIP3     H2       HT       0.417000       1.00800           0
     25042 TIP3     866      TIP3     OH2      OT      -0.834000       15.9994           0
     25043 TIP3     866      TIP3     H1       HT       0.417000       1.00800           0
     25044 TIP3     866      TIP3     H2       HT       0.417000       1.00800           0
     25045 TIP3     867      TIP3     OH2      OT      -0.834000       15.9994           0
     25046 TIP3     867      TIP3     H1       HT       0.417000       1.00800           0
     25047 TIP3     867      TIP3     H2       HT       0.417000       1.00800           0
     25048 TIP3     868      TIP3     OH2      OT      -0.834000       15.9994           0
     25049 TIP3     868      TIP3     H1       HT       0.417000       1.00800           0
     25050 TIP3     868      TIP3     H2       HT       0.417000       1.00800           0
     25051 TIP3     869      TIP3     OH2      OT      -0.834000       15.9994           0
     25052 TIP3     869      TIP3     H1       HT       0.417000       1.00800           0
     25053 TIP3     869      TIP3     H2       HT       0.417000       1.00800           0
     25054 TIP3     870      TIP3     OH2      OT      -0.834000       15.9994           0
     25055 TIP3     870      TIP3     H1       HT       0.417000       1.00800           0
     25056 TIP3     870      TIP3     H2       HT       0.417000       1.00800           0
     25057 TIP3     871      TIP3     OH2      OT      -0.834000       15.9994           0
     25058 TIP3     871      TIP3     H1       HT       0.417000       1.00800           0
     25059 TIP3     871      TIP3     H2       HT       0.417000       1.00800           0
     25060 TIP3     872      TIP3     OH2      OT      -0.834000       15.9994           0
     25061 TIP3     872      TIP3     H1       HT       0.417000       1.00800           0
     25062 TIP3     872      TIP3     H2       HT       0.417000       1.00800           0
     25063 TIP3     873      TIP3     OH2      OT      -0.834000       15.9994           0
     25064 TIP3     873      TIP3     H1       HT       0.417000       1.00800           0
     25065 TIP3     873      TIP3     H2       HT       0.417000       1.00800           0
     25066 TIP3     874      TIP3     OH2      OT      -0.834000       15.9994           0
     25067 TIP3     874      TIP3     H1       HT       0.417000       1.00800           0
     25068 TIP3     874      TIP3     H2       HT       0.417000       1.00800           0
     25069 TIP3     875      TIP3     OH2      OT      -0.834000       15.9994           0
     25070 TIP3     875      TIP3     H1       HT       0.417000       1.00800           0
     25071 TIP3     875      TIP3     H2       HT       0.417000       1.00800           0
     25072 TIP3     876      TIP3     OH2      OT      -0.834000       15.9994           0
     25073 TIP3     876      TIP3     H1       HT       0.417000       1.00800           0
     25074 TIP3     876      TIP3     H2       HT       0.417000       1.00800           0
     25075 TIP3     877      TIP3     OH2      OT      -0.834000       15.9994           0
     25076 TIP3     877      TIP3     H1       HT       0.417000       1.00800           0
     25077 TIP3     877      TIP3     H2       HT       0.417000       1.00800           0
     25078 TIP3     878      TIP3     OH2      OT      -0.834000       15.9994           0
     25079 TIP3     878      TIP3     H1       HT       0.417000       1.00800           0
     25080 TIP3     878      TIP3     H2       HT       0.417000       1.00800           0
     25081 TIP3     879      TIP3     OH2      OT      -0.834000       15.9994           0
     25082 TIP3     879      TIP3     H1       HT       0.417000       1.00800           0
     25083 TIP3     879      TIP3     H2       HT       0.417000       1.00800           0
     25084 TIP3     880      TIP3     OH2      OT      -0.834000       15.9994           0
     25085 TIP3     880      TIP3     H1       HT       0.417000       1.00800           0
     25086 TIP3     880      TIP3     H2       HT       0.417000       1.00800           0
     25087 TIP3     881      TIP3     OH2      OT      -0.834000       15.9994           0
     25088 TIP3     881      TIP3     H1       HT       0.417000       1.00800           0
     25089 TIP3     881      TIP3     H2       HT       0.417000       1.00800           0
     25090 TIP3     882      TIP3     OH2      OT      -0.834000       15.9994           0
     25091 TIP3     882      TIP3     H1       HT       0.417000       1.00800           0
     25092 TIP3     882      TIP3     H2       HT       0.417000       1.00800           0
     25093 TIP3     883      TIP3     OH2      OT      -0.834000       15.9994           0
     25094 TIP3     883      TIP3     H1       HT       0.417000       1.00800           0
     25095 TIP3     883      TIP3     H2       HT       0.417000       1.00800           0
     25096 TIP3     884      TIP3     OH2      OT      -0.834000       15.9994           0
     25097 TIP3     884      TIP3     H1       HT       0.417000       1.00800           0
     25098 TIP3     884      TIP3     H2       HT       0.417000       1.00800           0
     25099 TIP3     885      TIP3     OH2      OT      -0.834000       15.9994           0
     25100 TIP3     885      TIP3     H1       HT       0.417000       1.00800           0
     25101 TIP3     885      TIP3     H2       HT       0.417000       1.00800           0
     25102 TIP3     886      TIP3     OH2      OT      -0.834000       15.9994           0
     25103 TIP3     886      TIP3     H1       HT       0.417000       1.00800           0
     25104 TIP3     886      TIP3     H2       HT       0.417000       1.00800           0
     25105 TIP3     887      TIP3     OH2      OT      -0.834000       15.9994           0
     25106 TIP3     887      TIP3     H1       HT       0.417000       1.00800           0
     25107 TIP3     887      TIP3     H2       HT       0.417000       1.00800           0
     25108 TIP3     888      TIP3     OH2      OT      -0.834000       15.9994           0
     25109 TIP3     888      TIP3     H1       HT       0.417000       1.00800           0
     25110 TIP3     888      TIP3     H2       HT       0.417000       1.00800           0
     25111 TIP3     889      TIP3     OH2      OT      -0.834000       15.9994           0
     25112 TIP3     889      TIP3     H1       HT       0.417000       1.00800           0
     25113 TIP3     889      TIP3     H2       HT       0.417000       1.00800           0
     25114 TIP3     890      TIP3     OH2      OT      -0.834000       15.9994           0
     25115 TIP3     890      TIP3     H1       HT       0.417000       1.00800           0
     25116 TIP3     890      TIP3     H2       HT       0.417000       1.00800           0
     25117 TIP3     891      TIP3     OH2      OT      -0.834000       15.9994           0
     25118 TIP3     891      TIP3     H1       HT       0.417000       1.00800           0
     25119 TIP3     891      TIP3     H2       HT       0.417000       1.00800           0
     25120 TIP3     892      TIP3     OH2      OT      -0.834000       15.9994           0
     25121 TIP3     892      TIP3     H1       HT       0.417000       1.00800           0
     25122 TIP3     892      TIP3     H2       HT       0.417000       1.00800           0
     25123 TIP3     893      TIP3     OH2      OT      -0.834000       15.9994           0
     25124 TIP3     893      TIP3     H1       HT       0.417000       1.00800           0
     25125 TIP3     893      TIP3     H2       HT       0.417000       1.00800           0
     25126 TIP3     894      TIP3     OH2      OT      -0.834000       15.9994           0
     25127 TIP3     894      TIP3     H1       HT       0.417000       1.00800           0
     25128 TIP3     894      TIP3     H2       HT       0.417000       1.00800           0
     25129 TIP3     895      TIP3     OH2      OT      -0.834000       15.9994           0
     25130 TIP3     895      TIP3     H1       HT       0.417000       1.00800           0
     25131 TIP3     895      TIP3     H2       HT       0.417000       1.00800           0
     25132 TIP3     896      TIP3     OH2      OT      -0.834000       15.9994           0
     25133 TIP3     896      TIP3     H1       HT       0.417000       1.00800           0
     25134 TIP3     896      TIP3     H2       HT       0.417000       1.00800           0
     25135 TIP3     897      TIP3     OH2      OT      -0.834000       15.9994           0
     25136 TIP3     897      TIP3     H1       HT       0.417000       1.00800           0
     25137 TIP3     897      TIP3     H2       HT       0.417000       1.00800           0
     25138 TIP3     898      TIP3     OH2      OT      -0.834000       15.9994           0
     25139 TIP3     898      TIP3     H1       HT       0.417000       1.00800           0
     25140 TIP3     898      TIP3     H2       HT       0.417000       1.00800           0
     25141 TIP3     899      TIP3     OH2      OT      -0.834000       15.9994           0
     25142 TIP3     899      TIP3     H1       HT       0.417000       1.00800           0
     25143 TIP3     899      TIP3     H2       HT       0.417000       1.00800           0
     25144 TIP3     900      TIP3     OH2      OT      -0.834000       15.9994           0
     25145 TIP3     900      TIP3     H1       HT       0.417000       1.00800           0
     25146 TIP3     900      TIP3     H2       HT       0.417000       1.00800           0
     25147 TIP3     901      TIP3     OH2      OT      -0.834000       15.9994           0
     25148 TIP3     901      TIP3     H1       HT       0.417000       1.00800           0
     25149 TIP3     901      TIP3     H2       HT       0.417000       1.00800           0
     25150 TIP3     902      TIP3     OH2      OT      -0.834000       15.9994           0
     25151 TIP3     902      TIP3     H1       HT       0.417000       1.00800           0
     25152 TIP3     902      TIP3     H2       HT       0.417000       1.00800           0
     25153 TIP3     903      TIP3     OH2      OT      -0.834000       15.9994           0
     25154 TIP3     903      TIP3     H1       HT       0.417000       1.00800           0
     25155 TIP3     903      TIP3     H2       HT       0.417000       1.00800           0
     25156 TIP3     904      TIP3     OH2      OT      -0.834000       15.9994           0
     25157 TIP3     904      TIP3     H1       HT       0.417000       1.00800           0
     25158 TIP3     904      TIP3     H2       HT       0.417000       1.00800           0
     25159 TIP3     905      TIP3     OH2      OT      -0.834000       15.9994           0
     25160 TIP3     905      TIP3     H1       HT       0.417000       1.00800           0
     25161 TIP3     905      TIP3     H2       HT       0.417000       1.00800           0
     25162 TIP3     906      TIP3     OH2      OT      -0.834000       15.9994           0
     25163 TIP3     906      TIP3     H1       HT       0.417000       1.00800           0
     25164 TIP3     906      TIP3     H2       HT       0.417000       1.00800           0
     25165 TIP3     907      TIP3     OH2      OT      -0.834000       15.9994           0
     25166 TIP3     907      TIP3     H1       HT       0.417000       1.00800           0
     25167 TIP3     907      TIP3     H2       HT       0.417000       1.00800           0
     25168 TIP3     908      TIP3     OH2      OT      -0.834000       15.9994           0
     25169 TIP3     908      TIP3     H1       HT       0.417000       1.00800           0
     25170 TIP3     908      TIP3     H2       HT       0.417000       1.00800           0
     25171 TIP3     909      TIP3     OH2      OT      -0.834000       15.9994           0
     25172 TIP3     909      TIP3     H1       HT       0.417000       1.00800           0
     25173 TIP3     909      TIP3     H2       HT       0.417000       1.00800           0
     25174 TIP3     910      TIP3     OH2      OT      -0.834000       15.9994           0
     25175 TIP3     910      TIP3     H1       HT       0.417000       1.00800           0
     25176 TIP3     910      TIP3     H2       HT       0.417000       1.00800           0
     25177 TIP3     911      TIP3     OH2      OT      -0.834000       15.9994           0
     25178 TIP3     911      TIP3     H1       HT       0.417000       1.00800           0
     25179 TIP3     911      TIP3     H2       HT       0.417000       1.00800           0
     25180 TIP3     912      TIP3     OH2      OT      -0.834000       15.9994           0
     25181 TIP3     912      TIP3     H1       HT       0.417000       1.00800           0
     25182 TIP3     912      TIP3     H2       HT       0.417000       1.00800           0
     25183 TIP3     913      TIP3     OH2      OT      -0.834000       15.9994           0
     25184 TIP3     913      TIP3     H1       HT       0.417000       1.00800           0
     25185 TIP3     913      TIP3     H2       HT       0.417000       1.00800           0
     25186 TIP3     914      TIP3     OH2      OT      -0.834000       15.9994           0
     25187 TIP3     914      TIP3     H1       HT       0.417000       1.00800           0
     25188 TIP3     914      TIP3     H2       HT       0.417000       1.00800           0
     25189 TIP3     915      TIP3     OH2      OT      -0.834000       15.9994           0
     25190 TIP3     915      TIP3     H1       HT       0.417000       1.00800           0
     25191 TIP3     915      TIP3     H2       HT       0.417000       1.00800           0
     25192 TIP3     916      TIP3     OH2      OT      -0.834000       15.9994           0
     25193 TIP3     916      TIP3     H1       HT       0.417000       1.00800           0
     25194 TIP3     916      TIP3     H2       HT       0.417000       1.00800           0
     25195 TIP3     917      TIP3     OH2      OT      -0.834000       15.9994           0
     25196 TIP3     917      TIP3     H1       HT       0.417000       1.00800           0
     25197 TIP3     917      TIP3     H2       HT       0.417000       1.00800           0
     25198 TIP3     918      TIP3     OH2      OT      -0.834000       15.9994           0
     25199 TIP3     918      TIP3     H1       HT       0.417000       1.00800           0
     25200 TIP3     918      TIP3     H2       HT       0.417000       1.00800           0
     25201 TIP3     919      TIP3     OH2      OT      -0.834000       15.9994           0
     25202 TIP3     919      TIP3     H1       HT       0.417000       1.00800           0
     25203 TIP3     919      TIP3     H2       HT       0.417000       1.00800           0
     25204 TIP3     920      TIP3     OH2      OT      -0.834000       15.9994           0
     25205 TIP3     920      TIP3     H1       HT       0.417000       1.00800           0
     25206 TIP3     920      TIP3     H2       HT       0.417000       1.00800           0
     25207 TIP3     921      TIP3     OH2      OT      -0.834000       15.9994           0
     25208 TIP3     921      TIP3     H1       HT       0.417000       1.00800           0
     25209 TIP3     921      TIP3     H2       HT       0.417000       1.00800           0
     25210 TIP3     922      TIP3     OH2      OT      -0.834000       15.9994           0
     25211 TIP3     922      TIP3     H1       HT       0.417000       1.00800           0
     25212 TIP3     922      TIP3     H2       HT       0.417000       1.00800           0
     25213 TIP3     923      TIP3     OH2      OT      -0.834000       15.9994           0
     25214 TIP3     923      TIP3     H1       HT       0.417000       1.00800           0
     25215 TIP3     923      TIP3     H2       HT       0.417000       1.00800           0
     25216 TIP3     924      TIP3     OH2      OT      -0.834000       15.9994           0
     25217 TIP3     924      TIP3     H1       HT       0.417000       1.00800           0
     25218 TIP3     924      TIP3     H2       HT       0.417000       1.00800           0
     25219 TIP3     925      TIP3     OH2      OT      -0.834000       15.9994           0
     25220 TIP3     925      TIP3     H1       HT       0.417000       1.00800           0
     25221 TIP3     925      TIP3     H2       HT       0.417000       1.00800           0
     25222 TIP3     926      TIP3     OH2      OT      -0.834000       15.9994           0
     25223 TIP3     926      TIP3     H1       HT       0.417000       1.00800           0
     25224 TIP3     926      TIP3     H2       HT       0.417000       1.00800           0
     25225 TIP3     927      TIP3     OH2      OT      -0.834000       15.9994           0
     25226 TIP3     927      TIP3     H1       HT       0.417000       1.00800           0
     25227 TIP3     927      TIP3     H2       HT       0.417000       1.00800           0
     25228 TIP3     928      TIP3     OH2      OT      -0.834000       15.9994           0
     25229 TIP3     928      TIP3     H1       HT       0.417000       1.00800           0
     25230 TIP3     928      TIP3     H2       HT       0.417000       1.00800           0
     25231 TIP3     929      TIP3     OH2      OT      -0.834000       15.9994           0
     25232 TIP3     929      TIP3     H1       HT       0.417000       1.00800           0
     25233 TIP3     929      TIP3     H2       HT       0.417000       1.00800           0
     25234 TIP3     930      TIP3     OH2      OT      -0.834000       15.9994           0
     25235 TIP3     930      TIP3     H1       HT       0.417000       1.00800           0
     25236 TIP3     930      TIP3     H2       HT       0.417000       1.00800           0
     25237 TIP3     931      TIP3     OH2      OT      -0.834000       15.9994           0
     25238 TIP3     931      TIP3     H1       HT       0.417000       1.00800           0
     25239 TIP3     931      TIP3     H2       HT       0.417000       1.00800           0
     25240 TIP3     932      TIP3     OH2      OT      -0.834000       15.9994           0
     25241 TIP3     932      TIP3     H1       HT       0.417000       1.00800           0
     25242 TIP3     932      TIP3     H2       HT       0.417000       1.00800           0
     25243 TIP3     933      TIP3     OH2      OT      -0.834000       15.9994           0
     25244 TIP3     933      TIP3     H1       HT       0.417000       1.00800           0
     25245 TIP3     933      TIP3     H2       HT       0.417000       1.00800           0
     25246 TIP3     934      TIP3     OH2      OT      -0.834000       15.9994           0
     25247 TIP3     934      TIP3     H1       HT       0.417000       1.00800           0
     25248 TIP3     934      TIP3     H2       HT       0.417000       1.00800           0
     25249 TIP3     935      TIP3     OH2      OT      -0.834000       15.9994           0
     25250 TIP3     935      TIP3     H1       HT       0.417000       1.00800           0
     25251 TIP3     935      TIP3     H2       HT       0.417000       1.00800           0
     25252 TIP3     936      TIP3     OH2      OT      -0.834000       15.9994           0
     25253 TIP3     936      TIP3     H1       HT       0.417000       1.00800           0
     25254 TIP3     936      TIP3     H2       HT       0.417000       1.00800           0
     25255 TIP3     937      TIP3     OH2      OT      -0.834000       15.9994           0
     25256 TIP3     937      TIP3     H1       HT       0.417000       1.00800           0
     25257 TIP3     937      TIP3     H2       HT       0.417000       1.00800           0
     25258 TIP3     938      TIP3     OH2      OT      -0.834000       15.9994           0
     25259 TIP3     938      TIP3     H1       HT       0.417000       1.00800           0
     25260 TIP3     938      TIP3     H2       HT       0.417000       1.00800           0
     25261 TIP3     939      TIP3     OH2      OT      -0.834000       15.9994           0
     25262 TIP3     939      TIP3     H1       HT       0.417000       1.00800           0
     25263 TIP3     939      TIP3     H2       HT       0.417000       1.00800           0
     25264 TIP3     940      TIP3     OH2      OT      -0.834000       15.9994           0
     25265 TIP3     940      TIP3     H1       HT       0.417000       1.00800           0
     25266 TIP3     940      TIP3     H2       HT       0.417000       1.00800           0
     25267 TIP3     941      TIP3     OH2      OT      -0.834000       15.9994           0
     25268 TIP3     941      TIP3     H1       HT       0.417000       1.00800           0
     25269 TIP3     941      TIP3     H2       HT       0.417000       1.00800           0
     25270 TIP3     942      TIP3     OH2      OT      -0.834000       15.9994           0
     25271 TIP3     942      TIP3     H1       HT       0.417000       1.00800           0
     25272 TIP3     942      TIP3     H2       HT       0.417000       1.00800           0
     25273 TIP3     943      TIP3     OH2      OT      -0.834000       15.9994           0
     25274 TIP3     943      TIP3     H1       HT       0.417000       1.00800           0
     25275 TIP3     943      TIP3     H2       HT       0.417000       1.00800           0
     25276 TIP3     944      TIP3     OH2      OT      -0.834000       15.9994           0
     25277 TIP3     944      TIP3     H1       HT       0.417000       1.00800           0
     25278 TIP3     944      TIP3     H2       HT       0.417000       1.00800           0
     25279 TIP3     945      TIP3     OH2      OT      -0.834000       15.9994           0
     25280 TIP3     945      TIP3     H1       HT       0.417000       1.00800           0
     25281 TIP3     945      TIP3     H2       HT       0.417000       1.00800           0
     25282 TIP3     946      TIP3     OH2      OT      -0.834000       15.9994           0
     25283 TIP3     946      TIP3     H1       HT       0.417000       1.00800           0
     25284 TIP3     946      TIP3     H2       HT       0.417000       1.00800           0
     25285 TIP3     947      TIP3     OH2      OT      -0.834000       15.9994           0
     25286 TIP3     947      TIP3     H1       HT       0.417000       1.00800           0
     25287 TIP3     947      TIP3     H2       HT       0.417000       1.00800           0
     25288 TIP3     948      TIP3     OH2      OT      -0.834000       15.9994           0
     25289 TIP3     948      TIP3     H1       HT       0.417000       1.00800           0
     25290 TIP3     948      TIP3     H2       HT       0.417000       1.00800           0
     25291 TIP3     949      TIP3     OH2      OT      -0.834000       15.9994           0
     25292 TIP3     949      TIP3     H1       HT       0.417000       1.00800           0
     25293 TIP3     949      TIP3     H2       HT       0.417000       1.00800           0
     25294 TIP3     950      TIP3     OH2      OT      -0.834000       15.9994           0
     25295 TIP3     950      TIP3     H1       HT       0.417000       1.00800           0
     25296 TIP3     950      TIP3     H2       HT       0.417000       1.00800           0
     25297 TIP3     951      TIP3     OH2      OT      -0.834000       15.9994           0
     25298 TIP3     951      TIP3     H1       HT       0.417000       1.00800           0
     25299 TIP3     951      TIP3     H2       HT       0.417000       1.00800           0
     25300 TIP3     952      TIP3     OH2      OT      -0.834000       15.9994           0
     25301 TIP3     952      TIP3     H1       HT       0.417000       1.00800           0
     25302 TIP3     952      TIP3     H2       HT       0.417000       1.00800           0
     25303 TIP3     953      TIP3     OH2      OT      -0.834000       15.9994           0
     25304 TIP3     953      TIP3     H1       HT       0.417000       1.00800           0
     25305 TIP3     953      TIP3     H2       HT       0.417000       1.00800           0
     25306 TIP3     954      TIP3     OH2      OT      -0.834000       15.9994           0
     25307 TIP3     954      TIP3     H1       HT       0.417000       1.00800           0
     25308 TIP3     954      TIP3     H2       HT       0.417000       1.00800           0
     25309 TIP3     955      TIP3     OH2      OT      -0.834000       15.9994           0
     25310 TIP3     955      TIP3     H1       HT       0.417000       1.00800           0
     25311 TIP3     955      TIP3     H2       HT       0.417000       1.00800           0
     25312 TIP3     956      TIP3     OH2      OT      -0.834000       15.9994           0
     25313 TIP3     956      TIP3     H1       HT       0.417000       1.00800           0
     25314 TIP3     956      TIP3     H2       HT       0.417000       1.00800           0
     25315 TIP3     957      TIP3     OH2      OT      -0.834000       15.9994           0
     25316 TIP3     957      TIP3     H1       HT       0.417000       1.00800           0
     25317 TIP3     957      TIP3     H2       HT       0.417000       1.00800           0
     25318 TIP3     958      TIP3     OH2      OT      -0.834000       15.9994           0
     25319 TIP3     958      TIP3     H1       HT       0.417000       1.00800           0
     25320 TIP3     958      TIP3     H2       HT       0.417000       1.00800           0
     25321 TIP3     959      TIP3     OH2      OT      -0.834000       15.9994           0
     25322 TIP3     959      TIP3     H1       HT       0.417000       1.00800           0
     25323 TIP3     959      TIP3     H2       HT       0.417000       1.00800           0
     25324 TIP3     960      TIP3     OH2      OT      -0.834000       15.9994           0
     25325 TIP3     960      TIP3     H1       HT       0.417000       1.00800           0
     25326 TIP3     960      TIP3     H2       HT       0.417000       1.00800           0
     25327 TIP3     961      TIP3     OH2      OT      -0.834000       15.9994           0
     25328 TIP3     961      TIP3     H1       HT       0.417000       1.00800           0
     25329 TIP3     961      TIP3     H2       HT       0.417000       1.00800           0
     25330 TIP3     962      TIP3     OH2      OT      -0.834000       15.9994           0
     25331 TIP3     962      TIP3     H1       HT       0.417000       1.00800           0
     25332 TIP3     962      TIP3     H2       HT       0.417000       1.00800           0
     25333 TIP3     963      TIP3     OH2      OT      -0.834000       15.9994           0
     25334 TIP3     963      TIP3     H1       HT       0.417000       1.00800           0
     25335 TIP3     963      TIP3     H2       HT       0.417000       1.00800           0
     25336 TIP3     964      TIP3     OH2      OT      -0.834000       15.9994           0
     25337 TIP3     964      TIP3     H1       HT       0.417000       1.00800           0
     25338 TIP3     964      TIP3     H2       HT       0.417000       1.00800           0
     25339 TIP3     965      TIP3     OH2      OT      -0.834000       15.9994           0
     25340 TIP3     965      TIP3     H1       HT       0.417000       1.00800           0
     25341 TIP3     965      TIP3     H2       HT       0.417000       1.00800           0
     25342 TIP3     966      TIP3     OH2      OT      -0.834000       15.9994           0
     25343 TIP3     966      TIP3     H1       HT       0.417000       1.00800           0
     25344 TIP3     966      TIP3     H2       HT       0.417000       1.00800           0
     25345 TIP3     967      TIP3     OH2      OT      -0.834000       15.9994           0
     25346 TIP3     967      TIP3     H1       HT       0.417000       1.00800           0
     25347 TIP3     967      TIP3     H2       HT       0.417000       1.00800           0
     25348 TIP3     968      TIP3     OH2      OT      -0.834000       15.9994           0
     25349 TIP3     968      TIP3     H1       HT       0.417000       1.00800           0
     25350 TIP3     968      TIP3     H2       HT       0.417000       1.00800           0
     25351 TIP3     969      TIP3     OH2      OT      -0.834000       15.9994           0
     25352 TIP3     969      TIP3     H1       HT       0.417000       1.00800           0
     25353 TIP3     969      TIP3     H2       HT       0.417000       1.00800           0
     25354 TIP3     970      TIP3     OH2      OT      -0.834000       15.9994           0
     25355 TIP3     970      TIP3     H1       HT       0.417000       1.00800           0
     25356 TIP3     970      TIP3     H2       HT       0.417000       1.00800           0
     25357 TIP3     971      TIP3     OH2      OT      -0.834000       15.9994           0
     25358 TIP3     971      TIP3     H1       HT       0.417000       1.00800           0
     25359 TIP3     971      TIP3     H2       HT       0.417000       1.00800           0
     25360 TIP3     972      TIP3     OH2      OT      -0.834000       15.9994           0
     25361 TIP3     972      TIP3     H1       HT       0.417000       1.00800           0
     25362 TIP3     972      TIP3     H2       HT       0.417000       1.00800           0
     25363 TIP3     973      TIP3     OH2      OT      -0.834000       15.9994           0
     25364 TIP3     973      TIP3     H1       HT       0.417000       1.00800           0
     25365 TIP3     973      TIP3     H2       HT       0.417000       1.00800           0
     25366 TIP3     974      TIP3     OH2      OT      -0.834000       15.9994           0
     25367 TIP3     974      TIP3     H1       HT       0.417000       1.00800           0
     25368 TIP3     974      TIP3     H2       HT       0.417000       1.00800           0
     25369 TIP3     975      TIP3     OH2      OT      -0.834000       15.9994           0
     25370 TIP3     975      TIP3     H1       HT       0.417000       1.00800           0
     25371 TIP3     975      TIP3     H2       HT       0.417000       1.00800           0
     25372 TIP3     976      TIP3     OH2      OT      -0.834000       15.9994           0
     25373 TIP3     976      TIP3     H1       HT       0.417000       1.00800           0
     25374 TIP3     976      TIP3     H2       HT       0.417000       1.00800           0
     25375 TIP3     977      TIP3     OH2      OT      -0.834000       15.9994           0
     25376 TIP3     977      TIP3     H1       HT       0.417000       1.00800           0
     25377 TIP3     977      TIP3     H2       HT       0.417000       1.00800           0
     25378 TIP3     978      TIP3     OH2      OT      -0.834000       15.9994           0
     25379 TIP3     978      TIP3     H1       HT       0.417000       1.00800           0
     25380 TIP3     978      TIP3     H2       HT       0.417000       1.00800           0
     25381 TIP3     979      TIP3     OH2      OT      -0.834000       15.9994           0
     25382 TIP3     979      TIP3     H1       HT       0.417000       1.00800           0
     25383 TIP3     979      TIP3     H2       HT       0.417000       1.00800           0
     25384 TIP3     980      TIP3     OH2      OT      -0.834000       15.9994           0
     25385 TIP3     980      TIP3     H1       HT       0.417000       1.00800           0
     25386 TIP3     980      TIP3     H2       HT       0.417000       1.00800           0
     25387 TIP3     981      TIP3     OH2      OT      -0.834000       15.9994           0
     25388 TIP3     981      TIP3     H1       HT       0.417000       1.00800           0
     25389 TIP3     981      TIP3     H2       HT       0.417000       1.00800           0
     25390 TIP3     982      TIP3     OH2      OT      -0.834000       15.9994           0
     25391 TIP3     982      TIP3     H1       HT       0.417000       1.00800           0
     25392 TIP3     982      TIP3     H2       HT       0.417000       1.00800           0
     25393 TIP3     983      TIP3     OH2      OT      -0.834000       15.9994           0
     25394 TIP3     983      TIP3     H1       HT       0.417000       1.00800           0
     25395 TIP3     983      TIP3     H2       HT       0.417000       1.00800           0
     25396 TIP3     984      TIP3     OH2      OT      -0.834000       15.9994           0
     25397 TIP3     984      TIP3     H1       HT       0.417000       1.00800           0
     25398 TIP3     984      TIP3     H2       HT       0.417000       1.00800           0
     25399 TIP3     985      TIP3     OH2      OT      -0.834000       15.9994           0
     25400 TIP3     985      TIP3     H1       HT       0.417000       1.00800           0
     25401 TIP3     985      TIP3     H2       HT       0.417000       1.00800           0
     25402 TIP3     986      TIP3     OH2      OT      -0.834000       15.9994           0
     25403 TIP3     986      TIP3     H1       HT       0.417000       1.00800           0
     25404 TIP3     986      TIP3     H2       HT       0.417000       1.00800           0
     25405 TIP3     987      TIP3     OH2      OT      -0.834000       15.9994           0
     25406 TIP3     987      TIP3     H1       HT       0.417000       1.00800           0
     25407 TIP3     987      TIP3     H2       HT       0.417000       1.00800           0
     25408 TIP3     988      TIP3     OH2      OT      -0.834000       15.9994           0
     25409 TIP3     988      TIP3     H1       HT       0.417000       1.00800           0
     25410 TIP3     988      TIP3     H2       HT       0.417000       1.00800           0
     25411 TIP3     989      TIP3     OH2      OT      -0.834000       15.9994           0
     25412 TIP3     989      TIP3     H1       HT       0.417000       1.00800           0
     25413 TIP3     989      TIP3     H2       HT       0.417000       1.00800           0
     25414 TIP3     990      TIP3     OH2      OT      -0.834000       15.9994           0
     25415 TIP3     990      TIP3     H1       HT       0.417000       1.00800           0
     25416 TIP3     990      TIP3     H2       HT       0.417000       1.00800           0
     25417 TIP3     991      TIP3     OH2      OT      -0.834000       15.9994           0
     25418 TIP3     991      TIP3     H1       HT       0.417000       1.00800           0
     25419 TIP3     991      TIP3     H2       HT       0.417000       1.00800           0
     25420 TIP3     992      TIP3     OH2      OT      -0.834000       15.9994           0
     25421 TIP3     992      TIP3     H1       HT       0.417000       1.00800           0
     25422 TIP3     992      TIP3     H2       HT       0.417000       1.00800           0
     25423 TIP3     993      TIP3     OH2      OT      -0.834000       15.9994           0
     25424 TIP3     993      TIP3     H1       HT       0.417000       1.00800           0
     25425 TIP3     993      TIP3     H2       HT       0.417000       1.00800           0
     25426 TIP3     994      TIP3     OH2      OT      -0.834000       15.9994           0
     25427 TIP3     994      TIP3     H1       HT       0.417000       1.00800           0
     25428 TIP3     994      TIP3     H2       HT       0.417000       1.00800           0
     25429 TIP3     995      TIP3     OH2      OT      -0.834000       15.9994           0
     25430 TIP3     995      TIP3     H1       HT       0.417000       1.00800           0
     25431 TIP3     995      TIP3     H2       HT       0.417000       1.00800           0
     25432 TIP3     996      TIP3     OH2      OT      -0.834000       15.9994           0
     25433 TIP3     996      TIP3     H1       HT       0.417000       1.00800           0
     25434 TIP3     996      TIP3     H2       HT       0.417000       1.00800           0
     25435 TIP3     997      TIP3     OH2      OT      -0.834000       15.9994           0
     25436 TIP3     997      TIP3     H1       HT       0.417000       1.00800           0
     25437 TIP3     997      TIP3     H2       HT       0.417000       1.00800           0
     25438 TIP3     998      TIP3     OH2      OT      -0.834000       15.9994           0
     25439 TIP3     998      TIP3     H1       HT       0.417000       1.00800           0
     25440 TIP3     998      TIP3     H2       HT       0.417000       1.00800           0
     25441 TIP3     999      TIP3     OH2      OT      -0.834000       15.9994           0
     25442 TIP3     999      TIP3     H1       HT       0.417000       1.00800           0
     25443 TIP3     999      TIP3     H2       HT       0.417000       1.00800           0
     25444 TIP3     1000     TIP3     OH2      OT      -0.834000       15.9994           0
     25445 TIP3     1000     TIP3     H1       HT       0.417000       1.00800           0
     25446 TIP3     1000     TIP3     H2       HT       0.417000       1.00800           0
     25447 TIP3     1001     TIP3     OH2      OT      -0.834000       15.9994           0
     25448 TIP3     1001     TIP3     H1       HT       0.417000       1.00800           0
     25449 TIP3     1001     TIP3     H2       HT       0.417000       1.00800           0
     25450 TIP3     1002     TIP3     OH2      OT      -0.834000       15.9994           0
     25451 TIP3     1002     TIP3     H1       HT       0.417000       1.00800           0
     25452 TIP3     1002     TIP3     H2       HT       0.417000       1.00800           0
     25453 TIP3     1003     TIP3     OH2      OT      -0.834000       15.9994           0
     25454 TIP3     1003     TIP3     H1       HT       0.417000       1.00800           0
     25455 TIP3     1003     TIP3     H2       HT       0.417000       1.00800           0
     25456 TIP3     1004     TIP3     OH2      OT      -0.834000       15.9994           0
     25457 TIP3     1004     TIP3     H1       HT       0.417000       1.00800           0
     25458 TIP3     1004     TIP3     H2       HT       0.417000       1.00800           0
     25459 TIP3     1005     TIP3     OH2      OT      -0.834000       15.9994           0
     25460 TIP3     1005     TIP3     H1       HT       0.417000       1.00800           0
     25461 TIP3     1005     TIP3     H2       HT       0.417000       1.00800           0
     25462 TIP3     1006     TIP3     OH2      OT      -0.834000       15.9994           0
     25463 TIP3     1006     TIP3     H1       HT       0.417000       1.00800           0
     25464 TIP3     1006     TIP3     H2       HT       0.417000       1.00800           0
     25465 TIP3     1007     TIP3     OH2      OT      -0.834000       15.9994           0
     25466 TIP3     1007     TIP3     H1       HT       0.417000       1.00800           0
     25467 TIP3     1007     TIP3     H2       HT       0.417000       1.00800           0
     25468 TIP3     1008     TIP3     OH2      OT      -0.834000       15.9994           0
     25469 TIP3     1008     TIP3     H1       HT       0.417000       1.00800           0
     25470 TIP3     1008     TIP3     H2       HT       0.417000       1.00800           0
     25471 TIP3     1009     TIP3     OH2      OT      -0.834000       15.9994           0
     25472 TIP3     1009     TIP3     H1       HT       0.417000       1.00800           0
     25473 TIP3     1009     TIP3     H2       HT       0.417000       1.00800           0
     25474 TIP3     1010     TIP3     OH2      OT      -0.834000       15.9994           0
     25475 TIP3     1010     TIP3     H1       HT       0.417000       1.00800           0
     25476 TIP3     1010     TIP3     H2       HT       0.417000       1.00800           0
     25477 TIP3     1011     TIP3     OH2      OT      -0.834000       15.9994           0
     25478 TIP3     1011     TIP3     H1       HT       0.417000       1.00800           0
     25479 TIP3     1011     TIP3     H2       HT       0.417000       1.00800           0
     25480 TIP3     1012     TIP3     OH2      OT      -0.834000       15.9994           0
     25481 TIP3     1012     TIP3     H1       HT       0.417000       1.00800           0
     25482 TIP3     1012     TIP3     H2       HT       0.417000       1.00800           0
     25483 TIP3     1013     TIP3     OH2      OT      -0.834000       15.9994           0
     25484 TIP3     1013     TIP3     H1       HT       0.417000       1.00800           0
     25485 TIP3     1013     TIP3     H2       HT       0.417000       1.00800           0
     25486 TIP3     1014     TIP3     OH2      OT      -0.834000       15.9994           0
     25487 TIP3     1014     TIP3     H1       HT       0.417000       1.00800           0
     25488 TIP3     1014     TIP3     H2       HT       0.417000       1.00800           0
     25489 TIP3     1015     TIP3     OH2      OT      -0.834000       15.9994           0
     25490 TIP3     1015     TIP3     H1       HT       0.417000       1.00800           0
     25491 TIP3     1015     TIP3     H2       HT       0.417000       1.00800           0
     25492 TIP3     1016     TIP3     OH2      OT      -0.834000       15.9994           0
     25493 TIP3     1016     TIP3     H1       HT       0.417000       1.00800           0
     25494 TIP3     1016     TIP3     H2       HT       0.417000       1.00800           0
     25495 TIP3     1017     TIP3     OH2      OT      -0.834000       15.9994           0
     25496 TIP3     1017     TIP3     H1       HT       0.417000       1.00800           0
     25497 TIP3     1017     TIP3     H2       HT       0.417000       1.00800           0
     25498 TIP3     1018     TIP3     OH2      OT      -0.834000       15.9994           0
     25499 TIP3     1018     TIP3     H1       HT       0.417000       1.00800           0
     25500 TIP3     1018     TIP3     H2       HT       0.417000       1.00800           0
     25501 TIP3     1019     TIP3     OH2      OT      -0.834000       15.9994           0
     25502 TIP3     1019     TIP3     H1       HT       0.417000       1.00800           0
     25503 TIP3     1019     TIP3     H2       HT       0.417000       1.00800           0
     25504 TIP3     1020     TIP3     OH2      OT      -0.834000       15.9994           0
     25505 TIP3     1020     TIP3     H1       HT       0.417000       1.00800           0
     25506 TIP3     1020     TIP3     H2       HT       0.417000       1.00800           0
     25507 TIP3     1021     TIP3     OH2      OT      -0.834000       15.9994           0
     25508 TIP3     1021     TIP3     H1       HT       0.417000       1.00800           0
     25509 TIP3     1021     TIP3     H2       HT       0.417000       1.00800           0
     25510 TIP3     1022     TIP3     OH2      OT      -0.834000       15.9994           0
     25511 TIP3     1022     TIP3     H1       HT       0.417000       1.00800           0
     25512 TIP3     1022     TIP3     H2       HT       0.417000       1.00800           0
     25513 TIP3     1023     TIP3     OH2      OT      -0.834000       15.9994           0
     25514 TIP3     1023     TIP3     H1       HT       0.417000       1.00800           0
     25515 TIP3     1023     TIP3     H2       HT       0.417000       1.00800           0
     25516 TIP3     1024     TIP3     OH2      OT      -0.834000       15.9994           0
     25517 TIP3     1024     TIP3     H1       HT       0.417000       1.00800           0
     25518 TIP3     1024     TIP3     H2       HT       0.417000       1.00800           0
     25519 TIP3     1025     TIP3     OH2      OT      -0.834000       15.9994           0
     25520 TIP3     1025     TIP3     H1       HT       0.417000       1.00800           0
     25521 TIP3     1025     TIP3     H2       HT       0.417000       1.00800           0
     25522 TIP3     1026     TIP3     OH2      OT      -0.834000       15.9994           0
     25523 TIP3     1026     TIP3     H1       HT       0.417000       1.00800           0
     25524 TIP3     1026     TIP3     H2       HT       0.417000       1.00800           0
     25525 TIP3     1027     TIP3     OH2      OT      -0.834000       15.9994           0
     25526 TIP3     1027     TIP3     H1       HT       0.417000       1.00800           0
     25527 TIP3     1027     TIP3     H2       HT       0.417000       1.00800           0
     25528 TIP3     1028     TIP3     OH2      OT      -0.834000       15.9994           0
     25529 TIP3     1028     TIP3     H1       HT       0.417000       1.00800           0
     25530 TIP3     1028     TIP3     H2       HT       0.417000       1.00800           0
     25531 TIP3     1029     TIP3     OH2      OT      -0.834000       15.9994           0
     25532 TIP3     1029     TIP3     H1       HT       0.417000       1.00800           0
     25533 TIP3     1029     TIP3     H2       HT       0.417000       1.00800           0
     25534 TIP3     1030     TIP3     OH2      OT      -0.834000       15.9994           0
     25535 TIP3     1030     TIP3     H1       HT       0.417000       1.00800           0
     25536 TIP3     1030     TIP3     H2       HT       0.417000       1.00800           0
     25537 TIP3     1031     TIP3     OH2      OT      -0.834000       15.9994           0
     25538 TIP3     1031     TIP3     H1       HT       0.417000       1.00800           0
     25539 TIP3     1031     TIP3     H2       HT       0.417000       1.00800           0
     25540 TIP3     1032     TIP3     OH2      OT      -0.834000       15.9994           0
     25541 TIP3     1032     TIP3     H1       HT       0.417000       1.00800           0
     25542 TIP3     1032     TIP3     H2       HT       0.417000       1.00800           0
     25543 TIP3     1033     TIP3     OH2      OT      -0.834000       15.9994           0
     25544 TIP3     1033     TIP3     H1       HT       0.417000       1.00800           0
     25545 TIP3     1033     TIP3     H2       HT       0.417000       1.00800           0
     25546 TIP3     1034     TIP3     OH2      OT      -0.834000       15.9994           0
     25547 TIP3     1034     TIP3     H1       HT       0.417000       1.00800           0
     25548 TIP3     1034     TIP3     H2       HT       0.417000       1.00800           0
     25549 TIP3     1035     TIP3     OH2      OT      -0.834000       15.9994           0
     25550 TIP3     1035     TIP3     H1       HT       0.417000       1.00800           0
     25551 TIP3     1035     TIP3     H2       HT       0.417000       1.00800           0
     25552 TIP3     1036     TIP3     OH2      OT      -0.834000       15.9994           0
     25553 TIP3     1036     TIP3     H1       HT       0.417000       1.00800           0
     25554 TIP3     1036     TIP3     H2       HT       0.417000       1.00800           0
     25555 TIP3     1037     TIP3     OH2      OT      -0.834000       15.9994           0
     25556 TIP3     1037     TIP3     H1       HT       0.417000       1.00800           0
     25557 TIP3     1037     TIP3     H2       HT       0.417000       1.00800           0
     25558 TIP3     1038     TIP3     OH2      OT      -0.834000       15.9994           0
     25559 TIP3     1038     TIP3     H1       HT       0.417000       1.00800           0
     25560 TIP3     1038     TIP3     H2       HT       0.417000       1.00800           0
     25561 TIP3     1039     TIP3     OH2      OT      -0.834000       15.9994           0
     25562 TIP3     1039     TIP3     H1       HT       0.417000       1.00800           0
     25563 TIP3     1039     TIP3     H2       HT       0.417000       1.00800           0
     25564 TIP3     1040     TIP3     OH2      OT      -0.834000       15.9994           0
     25565 TIP3     1040     TIP3     H1       HT       0.417000       1.00800           0
     25566 TIP3     1040     TIP3     H2       HT       0.417000       1.00800           0
     25567 TIP3     1041     TIP3     OH2      OT      -0.834000       15.9994           0
     25568 TIP3     1041     TIP3     H1       HT       0.417000       1.00800           0
     25569 TIP3     1041     TIP3     H2       HT       0.417000       1.00800           0
     25570 TIP3     1042     TIP3     OH2      OT      -0.834000       15.9994           0
     25571 TIP3     1042     TIP3     H1       HT       0.417000       1.00800           0
     25572 TIP3     1042     TIP3     H2       HT       0.417000       1.00800           0
     25573 TIP3     1043     TIP3     OH2      OT      -0.834000       15.9994           0
     25574 TIP3     1043     TIP3     H1       HT       0.417000       1.00800           0
     25575 TIP3     1043     TIP3     H2       HT       0.417000       1.00800           0
     25576 TIP3     1044     TIP3     OH2      OT      -0.834000       15.9994           0
     25577 TIP3     1044     TIP3     H1       HT       0.417000       1.00800           0
     25578 TIP3     1044     TIP3     H2       HT       0.417000       1.00800           0
     25579 TIP3     1045     TIP3     OH2      OT      -0.834000       15.9994           0
     25580 TIP3     1045     TIP3     H1       HT       0.417000       1.00800           0
     25581 TIP3     1045     TIP3     H2       HT       0.417000       1.00800           0
     25582 TIP3     1046     TIP3     OH2      OT      -0.834000       15.9994           0
     25583 TIP3     1046     TIP3     H1       HT       0.417000       1.00800           0
     25584 TIP3     1046     TIP3     H2       HT       0.417000       1.00800           0
     25585 TIP3     1047     TIP3     OH2      OT      -0.834000       15.9994           0
     25586 TIP3     1047     TIP3     H1       HT       0.417000       1.00800           0
     25587 TIP3     1047     TIP3     H2       HT       0.417000       1.00800           0
     25588 TIP3     1048     TIP3     OH2      OT      -0.834000       15.9994           0
     25589 TIP3     1048     TIP3     H1       HT       0.417000       1.00800           0
     25590 TIP3     1048     TIP3     H2       HT       0.417000       1.00800           0
     25591 TIP3     1049     TIP3     OH2      OT      -0.834000       15.9994           0
     25592 TIP3     1049     TIP3     H1       HT       0.417000       1.00800           0
     25593 TIP3     1049     TIP3     H2       HT       0.417000       1.00800           0
     25594 TIP3     1050     TIP3     OH2      OT      -0.834000       15.9994           0
     25595 TIP3     1050     TIP3     H1       HT       0.417000       1.00800           0
     25596 TIP3     1050     TIP3     H2       HT       0.417000       1.00800           0
     25597 TIP3     1051     TIP3     OH2      OT      -0.834000       15.9994           0
     25598 TIP3     1051     TIP3     H1       HT       0.417000       1.00800           0
     25599 TIP3     1051     TIP3     H2       HT       0.417000       1.00800           0
     25600 TIP3     1052     TIP3     OH2      OT      -0.834000       15.9994           0
     25601 TIP3     1052     TIP3     H1       HT       0.417000       1.00800           0
     25602 TIP3     1052     TIP3     H2       HT       0.417000       1.00800           0
     25603 TIP3     1053     TIP3     OH2      OT      -0.834000       15.9994           0
     25604 TIP3     1053     TIP3     H1       HT       0.417000       1.00800           0
     25605 TIP3     1053     TIP3     H2       HT       0.417000       1.00800           0
     25606 TIP3     1054     TIP3     OH2      OT      -0.834000       15.9994           0
     25607 TIP3     1054     TIP3     H1       HT       0.417000       1.00800           0
     25608 TIP3     1054     TIP3     H2       HT       0.417000       1.00800           0
     25609 TIP3     1055     TIP3     OH2      OT      -0.834000       15.9994           0
     25610 TIP3     1055     TIP3     H1       HT       0.417000       1.00800           0
     25611 TIP3     1055     TIP3     H2       HT       0.417000       1.00800           0
     25612 TIP3     1056     TIP3     OH2      OT      -0.834000       15.9994           0
     25613 TIP3     1056     TIP3     H1       HT       0.417000       1.00800           0
     25614 TIP3     1056     TIP3     H2       HT       0.417000       1.00800           0
     25615 TIP3     1057     TIP3     OH2      OT      -0.834000       15.9994           0
     25616 TIP3     1057     TIP3     H1       HT       0.417000       1.00800           0
     25617 TIP3     1057     TIP3     H2       HT       0.417000       1.00800           0
     25618 TIP3     1058     TIP3     OH2      OT      -0.834000       15.9994           0
     25619 TIP3     1058     TIP3     H1       HT       0.417000       1.00800           0
     25620 TIP3     1058     TIP3     H2       HT       0.417000       1.00800           0
     25621 TIP3     1059     TIP3     OH2      OT      -0.834000       15.9994           0
     25622 TIP3     1059     TIP3     H1       HT       0.417000       1.00800           0
     25623 TIP3     1059     TIP3     H2       HT       0.417000       1.00800           0
     25624 TIP3     1060     TIP3     OH2      OT      -0.834000       15.9994           0
     25625 TIP3     1060     TIP3     H1       HT       0.417000       1.00800           0
     25626 TIP3     1060     TIP3     H2       HT       0.417000       1.00800           0
     25627 TIP3     1061     TIP3     OH2      OT      -0.834000       15.9994           0
     25628 TIP3     1061     TIP3     H1       HT       0.417000       1.00800           0
     25629 TIP3     1061     TIP3     H2       HT       0.417000       1.00800           0
     25630 TIP3     1062     TIP3     OH2      OT      -0.834000       15.9994           0
     25631 TIP3     1062     TIP3     H1       HT       0.417000       1.00800           0
     25632 TIP3     1062     TIP3     H2       HT       0.417000       1.00800           0
     25633 TIP3     1063     TIP3     OH2      OT      -0.834000       15.9994           0
     25634 TIP3     1063     TIP3     H1       HT       0.417000       1.00800           0
     25635 TIP3     1063     TIP3     H2       HT       0.417000       1.00800           0
     25636 TIP3     1064     TIP3     OH2      OT      -0.834000       15.9994           0
     25637 TIP3     1064     TIP3     H1       HT       0.417000       1.00800           0
     25638 TIP3     1064     TIP3     H2       HT       0.417000       1.00800           0
     25639 TIP3     1065     TIP3     OH2      OT      -0.834000       15.9994           0
     25640 TIP3     1065     TIP3     H1       HT       0.417000       1.00800           0
     25641 TIP3     1065     TIP3     H2       HT       0.417000       1.00800           0
     25642 TIP3     1066     TIP3     OH2      OT      -0.834000       15.9994           0
     25643 TIP3     1066     TIP3     H1       HT       0.417000       1.00800           0
     25644 TIP3     1066     TIP3     H2       HT       0.417000       1.00800           0
     25645 TIP3     1067     TIP3     OH2      OT      -0.834000       15.9994           0
     25646 TIP3     1067     TIP3     H1       HT       0.417000       1.00800           0
     25647 TIP3     1067     TIP3     H2       HT       0.417000       1.00800           0
     25648 TIP3     1068     TIP3     OH2      OT      -0.834000       15.9994           0
     25649 TIP3     1068     TIP3     H1       HT       0.417000       1.00800           0
     25650 TIP3     1068     TIP3     H2       HT       0.417000       1.00800           0
     25651 TIP3     1069     TIP3     OH2      OT      -0.834000       15.9994           0
     25652 TIP3     1069     TIP3     H1       HT       0.417000       1.00800           0
     25653 TIP3     1069     TIP3     H2       HT       0.417000       1.00800           0
     25654 TIP3     1070     TIP3     OH2      OT      -0.834000       15.9994           0
     25655 TIP3     1070     TIP3     H1       HT       0.417000       1.00800           0
     25656 TIP3     1070     TIP3     H2       HT       0.417000       1.00800           0
     25657 TIP3     1071     TIP3     OH2      OT      -0.834000       15.9994           0
     25658 TIP3     1071     TIP3     H1       HT       0.417000       1.00800           0
     25659 TIP3     1071     TIP3     H2       HT       0.417000       1.00800           0
     25660 TIP3     1072     TIP3     OH2      OT      -0.834000       15.9994           0
     25661 TIP3     1072     TIP3     H1       HT       0.417000       1.00800           0
     25662 TIP3     1072     TIP3     H2       HT       0.417000       1.00800           0
     25663 TIP3     1073     TIP3     OH2      OT      -0.834000       15.9994           0
     25664 TIP3     1073     TIP3     H1       HT       0.417000       1.00800           0
     25665 TIP3     1073     TIP3     H2       HT       0.417000       1.00800           0
     25666 TIP3     1074     TIP3     OH2      OT      -0.834000       15.9994           0
     25667 TIP3     1074     TIP3     H1       HT       0.417000       1.00800           0
     25668 TIP3     1074     TIP3     H2       HT       0.417000       1.00800           0
     25669 TIP3     1075     TIP3     OH2      OT      -0.834000       15.9994           0
     25670 TIP3     1075     TIP3     H1       HT       0.417000       1.00800           0
     25671 TIP3     1075     TIP3     H2       HT       0.417000       1.00800           0
     25672 TIP3     1076     TIP3     OH2      OT      -0.834000       15.9994           0
     25673 TIP3     1076     TIP3     H1       HT       0.417000       1.00800           0
     25674 TIP3     1076     TIP3     H2       HT       0.417000       1.00800           0
     25675 TIP3     1077     TIP3     OH2      OT      -0.834000       15.9994           0
     25676 TIP3     1077     TIP3     H1       HT       0.417000       1.00800           0
     25677 TIP3     1077     TIP3     H2       HT       0.417000       1.00800           0
     25678 TIP3     1078     TIP3     OH2      OT      -0.834000       15.9994           0
     25679 TIP3     1078     TIP3     H1       HT       0.417000       1.00800           0
     25680 TIP3     1078     TIP3     H2       HT       0.417000       1.00800           0
     25681 TIP3     1079     TIP3     OH2      OT      -0.834000       15.9994           0
     25682 TIP3     1079     TIP3     H1       HT       0.417000       1.00800           0
     25683 TIP3     1079     TIP3     H2       HT       0.417000       1.00800           0
     25684 TIP3     1080     TIP3     OH2      OT      -0.834000       15.9994           0
     25685 TIP3     1080     TIP3     H1       HT       0.417000       1.00800           0
     25686 TIP3     1080     TIP3     H2       HT       0.417000       1.00800           0
     25687 TIP3     1081     TIP3     OH2      OT      -0.834000       15.9994           0
     25688 TIP3     1081     TIP3     H1       HT       0.417000       1.00800           0
     25689 TIP3     1081     TIP3     H2       HT       0.417000       1.00800           0
     25690 TIP3     1082     TIP3     OH2      OT      -0.834000       15.9994           0
     25691 TIP3     1082     TIP3     H1       HT       0.417000       1.00800           0
     25692 TIP3     1082     TIP3     H2       HT       0.417000       1.00800           0
     25693 TIP3     1083     TIP3     OH2      OT      -0.834000       15.9994           0
     25694 TIP3     1083     TIP3     H1       HT       0.417000       1.00800           0
     25695 TIP3     1083     TIP3     H2       HT       0.417000       1.00800           0
     25696 TIP3     1084     TIP3     OH2      OT      -0.834000       15.9994           0
     25697 TIP3     1084     TIP3     H1       HT       0.417000       1.00800           0
     25698 TIP3     1084     TIP3     H2       HT       0.417000       1.00800           0
     25699 TIP3     1085     TIP3     OH2      OT      -0.834000       15.9994           0
     25700 TIP3     1085     TIP3     H1       HT       0.417000       1.00800           0
     25701 TIP3     1085     TIP3     H2       HT       0.417000       1.00800           0
     25702 TIP3     1086     TIP3     OH2      OT      -0.834000       15.9994           0
     25703 TIP3     1086     TIP3     H1       HT       0.417000       1.00800           0
     25704 TIP3     1086     TIP3     H2       HT       0.417000       1.00800           0
     25705 TIP3     1087     TIP3     OH2      OT      -0.834000       15.9994           0
     25706 TIP3     1087     TIP3     H1       HT       0.417000       1.00800           0
     25707 TIP3     1087     TIP3     H2       HT       0.417000       1.00800           0
     25708 TIP3     1088     TIP3     OH2      OT      -0.834000       15.9994           0
     25709 TIP3     1088     TIP3     H1       HT       0.417000       1.00800           0
     25710 TIP3     1088     TIP3     H2       HT       0.417000       1.00800           0
     25711 TIP3     1089     TIP3     OH2      OT      -0.834000       15.9994           0
     25712 TIP3     1089     TIP3     H1       HT       0.417000       1.00800           0
     25713 TIP3     1089     TIP3     H2       HT       0.417000       1.00800           0
     25714 TIP3     1090     TIP3     OH2      OT      -0.834000       15.9994           0
     25715 TIP3     1090     TIP3     H1       HT       0.417000       1.00800           0
     25716 TIP3     1090     TIP3     H2       HT       0.417000       1.00800           0
     25717 TIP3     1091     TIP3     OH2      OT      -0.834000       15.9994           0
     25718 TIP3     1091     TIP3     H1       HT       0.417000       1.00800           0
     25719 TIP3     1091     TIP3     H2       HT       0.417000       1.00800           0
     25720 TIP3     1092     TIP3     OH2      OT      -0.834000       15.9994           0
     25721 TIP3     1092     TIP3     H1       HT       0.417000       1.00800           0
     25722 TIP3     1092     TIP3     H2       HT       0.417000       1.00800           0
     25723 TIP3     1093     TIP3     OH2      OT      -0.834000       15.9994           0
     25724 TIP3     1093     TIP3     H1       HT       0.417000       1.00800           0
     25725 TIP3     1093     TIP3     H2       HT       0.417000       1.00800           0
     25726 TIP3     1094     TIP3     OH2      OT      -0.834000       15.9994           0
     25727 TIP3     1094     TIP3     H1       HT       0.417000       1.00800           0
     25728 TIP3     1094     TIP3     H2       HT       0.417000       1.00800           0
     25729 TIP3     1095     TIP3     OH2      OT      -0.834000       15.9994           0
     25730 TIP3     1095     TIP3     H1       HT       0.417000       1.00800           0
     25731 TIP3     1095     TIP3     H2       HT       0.417000       1.00800           0
     25732 TIP3     1096     TIP3     OH2      OT      -0.834000       15.9994           0
     25733 TIP3     1096     TIP3     H1       HT       0.417000       1.00800           0
     25734 TIP3     1096     TIP3     H2       HT       0.417000       1.00800           0
     25735 TIP3     1097     TIP3     OH2      OT      -0.834000       15.9994           0
     25736 TIP3     1097     TIP3     H1       HT       0.417000       1.00800           0
     25737 TIP3     1097     TIP3     H2       HT       0.417000       1.00800           0
     25738 TIP3     1098     TIP3     OH2      OT      -0.834000       15.9994           0
     25739 TIP3     1098     TIP3     H1       HT       0.417000       1.00800           0
     25740 TIP3     1098     TIP3     H2       HT       0.417000       1.00800           0
     25741 TIP3     1099     TIP3     OH2      OT      -0.834000       15.9994           0
     25742 TIP3     1099     TIP3     H1       HT       0.417000       1.00800           0
     25743 TIP3     1099     TIP3     H2       HT       0.417000       1.00800           0
     25744 TIP3     1100     TIP3     OH2      OT      -0.834000       15.9994           0
     25745 TIP3     1100     TIP3     H1       HT       0.417000       1.00800           0
     25746 TIP3     1100     TIP3     H2       HT       0.417000       1.00800           0
     25747 TIP3     1101     TIP3     OH2      OT      -0.834000       15.9994           0
     25748 TIP3     1101     TIP3     H1       HT       0.417000       1.00800           0
     25749 TIP3     1101     TIP3     H2       HT       0.417000       1.00800           0
     25750 TIP3     1102     TIP3     OH2      OT      -0.834000       15.9994           0
     25751 TIP3     1102     TIP3     H1       HT       0.417000       1.00800           0
     25752 TIP3     1102     TIP3     H2       HT       0.417000       1.00800           0
     25753 TIP3     1103     TIP3     OH2      OT      -0.834000       15.9994           0
     25754 TIP3     1103     TIP3     H1       HT       0.417000       1.00800           0
     25755 TIP3     1103     TIP3     H2       HT       0.417000       1.00800           0
     25756 TIP3     1104     TIP3     OH2      OT      -0.834000       15.9994           0
     25757 TIP3     1104     TIP3     H1       HT       0.417000       1.00800           0
     25758 TIP3     1104     TIP3     H2       HT       0.417000       1.00800           0
     25759 TIP3     1105     TIP3     OH2      OT      -0.834000       15.9994           0
     25760 TIP3     1105     TIP3     H1       HT       0.417000       1.00800           0
     25761 TIP3     1105     TIP3     H2       HT       0.417000       1.00800           0
     25762 TIP3     1106     TIP3     OH2      OT      -0.834000       15.9994           0
     25763 TIP3     1106     TIP3     H1       HT       0.417000       1.00800           0
     25764 TIP3     1106     TIP3     H2       HT       0.417000       1.00800           0
     25765 TIP3     1107     TIP3     OH2      OT      -0.834000       15.9994           0
     25766 TIP3     1107     TIP3     H1       HT       0.417000       1.00800           0
     25767 TIP3     1107     TIP3     H2       HT       0.417000       1.00800           0
     25768 TIP3     1108     TIP3     OH2      OT      -0.834000       15.9994           0
     25769 TIP3     1108     TIP3     H1       HT       0.417000       1.00800           0
     25770 TIP3     1108     TIP3     H2       HT       0.417000       1.00800           0
     25771 TIP3     1109     TIP3     OH2      OT      -0.834000       15.9994           0
     25772 TIP3     1109     TIP3     H1       HT       0.417000       1.00800           0
     25773 TIP3     1109     TIP3     H2       HT       0.417000       1.00800           0
     25774 TIP3     1110     TIP3     OH2      OT      -0.834000       15.9994           0
     25775 TIP3     1110     TIP3     H1       HT       0.417000       1.00800           0
     25776 TIP3     1110     TIP3     H2       HT       0.417000       1.00800           0
     25777 TIP3     1111     TIP3     OH2      OT      -0.834000       15.9994           0
     25778 TIP3     1111     TIP3     H1       HT       0.417000       1.00800           0
     25779 TIP3     1111     TIP3     H2       HT       0.417000       1.00800           0
     25780 TIP3     1112     TIP3     OH2      OT      -0.834000       15.9994           0
     25781 TIP3     1112     TIP3     H1       HT       0.417000       1.00800           0
     25782 TIP3     1112     TIP3     H2       HT       0.417000       1.00800           0
     25783 TIP3     1113     TIP3     OH2      OT      -0.834000       15.9994           0
     25784 TIP3     1113     TIP3     H1       HT       0.417000       1.00800           0
     25785 TIP3     1113     TIP3     H2       HT       0.417000       1.00800           0
     25786 TIP3     1114     TIP3     OH2      OT      -0.834000       15.9994           0
     25787 TIP3     1114     TIP3     H1       HT       0.417000       1.00800           0
     25788 TIP3     1114     TIP3     H2       HT       0.417000       1.00800           0
     25789 TIP3     1115     TIP3     OH2      OT      -0.834000       15.9994           0
     25790 TIP3     1115     TIP3     H1       HT       0.417000       1.00800           0
     25791 TIP3     1115     TIP3     H2       HT       0.417000       1.00800           0
     25792 TIP3     1116     TIP3     OH2      OT      -0.834000       15.9994           0
     25793 TIP3     1116     TIP3     H1       HT       0.417000       1.00800           0
     25794 TIP3     1116     TIP3     H2       HT       0.417000       1.00800           0
     25795 TIP3     1117     TIP3     OH2      OT      -0.834000       15.9994           0
     25796 TIP3     1117     TIP3     H1       HT       0.417000       1.00800           0
     25797 TIP3     1117     TIP3     H2       HT       0.417000       1.00800           0
     25798 TIP3     1118     TIP3     OH2      OT      -0.834000       15.9994           0
     25799 TIP3     1118     TIP3     H1       HT       0.417000       1.00800           0
     25800 TIP3     1118     TIP3     H2       HT       0.417000       1.00800           0
     25801 TIP3     1119     TIP3     OH2      OT      -0.834000       15.9994           0
     25802 TIP3     1119     TIP3     H1       HT       0.417000       1.00800           0
     25803 TIP3     1119     TIP3     H2       HT       0.417000       1.00800           0
     25804 TIP3     1120     TIP3     OH2      OT      -0.834000       15.9994           0
     25805 TIP3     1120     TIP3     H1       HT       0.417000       1.00800           0
     25806 TIP3     1120     TIP3     H2       HT       0.417000       1.00800           0
     25807 TIP3     1121     TIP3     OH2      OT      -0.834000       15.9994           0
     25808 TIP3     1121     TIP3     H1       HT       0.417000       1.00800           0
     25809 TIP3     1121     TIP3     H2       HT       0.417000       1.00800           0
     25810 TIP3     1122     TIP3     OH2      OT      -0.834000       15.9994           0
     25811 TIP3     1122     TIP3     H1       HT       0.417000       1.00800           0
     25812 TIP3     1122     TIP3     H2       HT       0.417000       1.00800           0
     25813 TIP3     1123     TIP3     OH2      OT      -0.834000       15.9994           0
     25814 TIP3     1123     TIP3     H1       HT       0.417000       1.00800           0
     25815 TIP3     1123     TIP3     H2       HT       0.417000       1.00800           0
     25816 TIP3     1124     TIP3     OH2      OT      -0.834000       15.9994           0
     25817 TIP3     1124     TIP3     H1       HT       0.417000       1.00800           0
     25818 TIP3     1124     TIP3     H2       HT       0.417000       1.00800           0
     25819 TIP3     1125     TIP3     OH2      OT      -0.834000       15.9994           0
     25820 TIP3     1125     TIP3     H1       HT       0.417000       1.00800           0
     25821 TIP3     1125     TIP3     H2       HT       0.417000       1.00800           0
     25822 TIP3     1126     TIP3     OH2      OT      -0.834000       15.9994           0
     25823 TIP3     1126     TIP3     H1       HT       0.417000       1.00800           0
     25824 TIP3     1126     TIP3     H2       HT       0.417000       1.00800           0
     25825 TIP3     1127     TIP3     OH2      OT      -0.834000       15.9994           0
     25826 TIP3     1127     TIP3     H1       HT       0.417000       1.00800           0
     25827 TIP3     1127     TIP3     H2       HT       0.417000       1.00800           0
     25828 TIP3     1128     TIP3     OH2      OT      -0.834000       15.9994           0
     25829 TIP3     1128     TIP3     H1       HT       0.417000       1.00800           0
     25830 TIP3     1128     TIP3     H2       HT       0.417000       1.00800           0
     25831 TIP3     1129     TIP3     OH2      OT      -0.834000       15.9994           0
     25832 TIP3     1129     TIP3     H1       HT       0.417000       1.00800           0
     25833 TIP3     1129     TIP3     H2       HT       0.417000       1.00800           0
     25834 TIP3     1130     TIP3     OH2      OT      -0.834000       15.9994           0
     25835 TIP3     1130     TIP3     H1       HT       0.417000       1.00800           0
     25836 TIP3     1130     TIP3     H2       HT       0.417000       1.00800           0
     25837 TIP3     1131     TIP3     OH2      OT      -0.834000       15.9994           0
     25838 TIP3     1131     TIP3     H1       HT       0.417000       1.00800           0
     25839 TIP3     1131     TIP3     H2       HT       0.417000       1.00800           0
     25840 TIP3     1132     TIP3     OH2      OT      -0.834000       15.9994           0
     25841 TIP3     1132     TIP3     H1       HT       0.417000       1.00800           0
     25842 TIP3     1132     TIP3     H2       HT       0.417000       1.00800           0
     25843 TIP3     1133     TIP3     OH2      OT      -0.834000       15.9994           0
     25844 TIP3     1133     TIP3     H1       HT       0.417000       1.00800           0
     25845 TIP3     1133     TIP3     H2       HT       0.417000       1.00800           0
     25846 TIP3     1134     TIP3     OH2      OT      -0.834000       15.9994           0
     25847 TIP3     1134     TIP3     H1       HT       0.417000       1.00800           0
     25848 TIP3     1134     TIP3     H2       HT       0.417000       1.00800           0
     25849 TIP3     1135     TIP3     OH2      OT      -0.834000       15.9994           0
     25850 TIP3     1135     TIP3     H1       HT       0.417000       1.00800           0
     25851 TIP3     1135     TIP3     H2       HT       0.417000       1.00800           0
     25852 TIP3     1136     TIP3     OH2      OT      -0.834000       15.9994           0
     25853 TIP3     1136     TIP3     H1       HT       0.417000       1.00800           0
     25854 TIP3     1136     TIP3     H2       HT       0.417000       1.00800           0
     25855 TIP3     1137     TIP3     OH2      OT      -0.834000       15.9994           0
     25856 TIP3     1137     TIP3     H1       HT       0.417000       1.00800           0
     25857 TIP3     1137     TIP3     H2       HT       0.417000       1.00800           0
     25858 TIP3     1138     TIP3     OH2      OT      -0.834000       15.9994           0
     25859 TIP3     1138     TIP3     H1       HT       0.417000       1.00800           0
     25860 TIP3     1138     TIP3     H2       HT       0.417000       1.00800           0
     25861 TIP3     1139     TIP3     OH2      OT      -0.834000       15.9994           0
     25862 TIP3     1139     TIP3     H1       HT       0.417000       1.00800           0
     25863 TIP3     1139     TIP3     H2       HT       0.417000       1.00800           0
     25864 TIP3     1140     TIP3     OH2      OT      -0.834000       15.9994           0
     25865 TIP3     1140     TIP3     H1       HT       0.417000       1.00800           0
     25866 TIP3     1140     TIP3     H2       HT       0.417000       1.00800           0
     25867 TIP3     1141     TIP3     OH2      OT      -0.834000       15.9994           0
     25868 TIP3     1141     TIP3     H1       HT       0.417000       1.00800           0
     25869 TIP3     1141     TIP3     H2       HT       0.417000       1.00800           0
     25870 TIP3     1142     TIP3     OH2      OT      -0.834000       15.9994           0
     25871 TIP3     1142     TIP3     H1       HT       0.417000       1.00800           0
     25872 TIP3     1142     TIP3     H2       HT       0.417000       1.00800           0
     25873 TIP3     1143     TIP3     OH2      OT      -0.834000       15.9994           0
     25874 TIP3     1143     TIP3     H1       HT       0.417000       1.00800           0
     25875 TIP3     1143     TIP3     H2       HT       0.417000       1.00800           0
     25876 TIP3     1144     TIP3     OH2      OT      -0.834000       15.9994           0
     25877 TIP3     1144     TIP3     H1       HT       0.417000       1.00800           0
     25878 TIP3     1144     TIP3     H2       HT       0.417000       1.00800           0
     25879 TIP3     1145     TIP3     OH2      OT      -0.834000       15.9994           0
     25880 TIP3     1145     TIP3     H1       HT       0.417000       1.00800           0
     25881 TIP3     1145     TIP3     H2       HT       0.417000       1.00800           0
     25882 TIP3     1146     TIP3     OH2      OT      -0.834000       15.9994           0
     25883 TIP3     1146     TIP3     H1       HT       0.417000       1.00800           0
     25884 TIP3     1146     TIP3     H2       HT       0.417000       1.00800           0
     25885 TIP3     1147     TIP3     OH2      OT      -0.834000       15.9994           0
     25886 TIP3     1147     TIP3     H1       HT       0.417000       1.00800           0
     25887 TIP3     1147     TIP3     H2       HT       0.417000       1.00800           0
     25888 TIP3     1148     TIP3     OH2      OT      -0.834000       15.9994           0
     25889 TIP3     1148     TIP3     H1       HT       0.417000       1.00800           0
     25890 TIP3     1148     TIP3     H2       HT       0.417000       1.00800           0
     25891 TIP3     1149     TIP3     OH2      OT      -0.834000       15.9994           0
     25892 TIP3     1149     TIP3     H1       HT       0.417000       1.00800           0
     25893 TIP3     1149     TIP3     H2       HT       0.417000       1.00800           0
     25894 TIP3     1150     TIP3     OH2      OT      -0.834000       15.9994           0
     25895 TIP3     1150     TIP3     H1       HT       0.417000       1.00800           0
     25896 TIP3     1150     TIP3     H2       HT       0.417000       1.00800           0
     25897 TIP3     1151     TIP3     OH2      OT      -0.834000       15.9994           0
     25898 TIP3     1151     TIP3     H1       HT       0.417000       1.00800           0
     25899 TIP3     1151     TIP3     H2       HT       0.417000       1.00800           0
     25900 TIP3     1152     TIP3     OH2      OT      -0.834000       15.9994           0
     25901 TIP3     1152     TIP3     H1       HT       0.417000       1.00800           0
     25902 TIP3     1152     TIP3     H2       HT       0.417000       1.00800           0
     25903 TIP3     1153     TIP3     OH2      OT      -0.834000       15.9994           0
     25904 TIP3     1153     TIP3     H1       HT       0.417000       1.00800           0
     25905 TIP3     1153     TIP3     H2       HT       0.417000       1.00800           0
     25906 TIP3     1154     TIP3     OH2      OT      -0.834000       15.9994           0
     25907 TIP3     1154     TIP3     H1       HT       0.417000       1.00800           0
     25908 TIP3     1154     TIP3     H2       HT       0.417000       1.00800           0
     25909 TIP3     1155     TIP3     OH2      OT      -0.834000       15.9994           0
     25910 TIP3     1155     TIP3     H1       HT       0.417000       1.00800           0
     25911 TIP3     1155     TIP3     H2       HT       0.417000       1.00800           0
     25912 TIP3     1156     TIP3     OH2      OT      -0.834000       15.9994           0
     25913 TIP3     1156     TIP3     H1       HT       0.417000       1.00800           0
     25914 TIP3     1156     TIP3     H2       HT       0.417000       1.00800           0
     25915 TIP3     1157     TIP3     OH2      OT      -0.834000       15.9994           0
     25916 TIP3     1157     TIP3     H1       HT       0.417000       1.00800           0
     25917 TIP3     1157     TIP3     H2       HT       0.417000       1.00800           0
     25918 TIP3     1158     TIP3     OH2      OT      -0.834000       15.9994           0
     25919 TIP3     1158     TIP3     H1       HT       0.417000       1.00800           0
     25920 TIP3     1158     TIP3     H2       HT       0.417000       1.00800           0
     25921 TIP3     1159     TIP3     OH2      OT      -0.834000       15.9994           0
     25922 TIP3     1159     TIP3     H1       HT       0.417000       1.00800           0
     25923 TIP3     1159     TIP3     H2       HT       0.417000       1.00800           0
     25924 TIP3     1160     TIP3     OH2      OT      -0.834000       15.9994           0
     25925 TIP3     1160     TIP3     H1       HT       0.417000       1.00800           0
     25926 TIP3     1160     TIP3     H2       HT       0.417000       1.00800           0
     25927 TIP3     1161     TIP3     OH2      OT      -0.834000       15.9994           0
     25928 TIP3     1161     TIP3     H1       HT       0.417000       1.00800           0
     25929 TIP3     1161     TIP3     H2       HT       0.417000       1.00800           0
     25930 TIP3     1162     TIP3     OH2      OT      -0.834000       15.9994           0
     25931 TIP3     1162     TIP3     H1       HT       0.417000       1.00800           0
     25932 TIP3     1162     TIP3     H2       HT       0.417000       1.00800           0
     25933 TIP3     1163     TIP3     OH2      OT      -0.834000       15.9994           0
     25934 TIP3     1163     TIP3     H1       HT       0.417000       1.00800           0
     25935 TIP3     1163     TIP3     H2       HT       0.417000       1.00800           0
     25936 TIP3     1164     TIP3     OH2      OT      -0.834000       15.9994           0
     25937 TIP3     1164     TIP3     H1       HT       0.417000       1.00800           0
     25938 TIP3     1164     TIP3     H2       HT       0.417000       1.00800           0
     25939 TIP3     1165     TIP3     OH2      OT      -0.834000       15.9994           0
     25940 TIP3     1165     TIP3     H1       HT       0.417000       1.00800           0
     25941 TIP3     1165     TIP3     H2       HT       0.417000       1.00800           0
     25942 TIP3     1166     TIP3     OH2      OT      -0.834000       15.9994           0
     25943 TIP3     1166     TIP3     H1       HT       0.417000       1.00800           0
     25944 TIP3     1166     TIP3     H2       HT       0.417000       1.00800           0
     25945 TIP3     1167     TIP3     OH2      OT      -0.834000       15.9994           0
     25946 TIP3     1167     TIP3     H1       HT       0.417000       1.00800           0
     25947 TIP3     1167     TIP3     H2       HT       0.417000       1.00800           0
     25948 TIP3     1168     TIP3     OH2      OT      -0.834000       15.9994           0
     25949 TIP3     1168     TIP3     H1       HT       0.417000       1.00800           0
     25950 TIP3     1168     TIP3     H2       HT       0.417000       1.00800           0
     25951 TIP3     1169     TIP3     OH2      OT      -0.834000       15.9994           0
     25952 TIP3     1169     TIP3     H1       HT       0.417000       1.00800           0
     25953 TIP3     1169     TIP3     H2       HT       0.417000       1.00800           0
     25954 TIP3     1170     TIP3     OH2      OT      -0.834000       15.9994           0
     25955 TIP3     1170     TIP3     H1       HT       0.417000       1.00800           0
     25956 TIP3     1170     TIP3     H2       HT       0.417000       1.00800           0
     25957 TIP3     1171     TIP3     OH2      OT      -0.834000       15.9994           0
     25958 TIP3     1171     TIP3     H1       HT       0.417000       1.00800           0
     25959 TIP3     1171     TIP3     H2       HT       0.417000       1.00800           0
     25960 TIP3     1172     TIP3     OH2      OT      -0.834000       15.9994           0
     25961 TIP3     1172     TIP3     H1       HT       0.417000       1.00800           0
     25962 TIP3     1172     TIP3     H2       HT       0.417000       1.00800           0
     25963 TIP3     1173     TIP3     OH2      OT      -0.834000       15.9994           0
     25964 TIP3     1173     TIP3     H1       HT       0.417000       1.00800           0
     25965 TIP3     1173     TIP3     H2       HT       0.417000       1.00800           0
     25966 TIP3     1174     TIP3     OH2      OT      -0.834000       15.9994           0
     25967 TIP3     1174     TIP3     H1       HT       0.417000       1.00800           0
     25968 TIP3     1174     TIP3     H2       HT       0.417000       1.00800           0
     25969 TIP3     1175     TIP3     OH2      OT      -0.834000       15.9994           0
     25970 TIP3     1175     TIP3     H1       HT       0.417000       1.00800           0
     25971 TIP3     1175     TIP3     H2       HT       0.417000       1.00800           0
     25972 TIP3     1176     TIP3     OH2      OT      -0.834000       15.9994           0
     25973 TIP3     1176     TIP3     H1       HT       0.417000       1.00800           0
     25974 TIP3     1176     TIP3     H2       HT       0.417000       1.00800           0
     25975 TIP3     1177     TIP3     OH2      OT      -0.834000       15.9994           0
     25976 TIP3     1177     TIP3     H1       HT       0.417000       1.00800           0
     25977 TIP3     1177     TIP3     H2       HT       0.417000       1.00800           0
     25978 TIP3     1178     TIP3     OH2      OT      -0.834000       15.9994           0
     25979 TIP3     1178     TIP3     H1       HT       0.417000       1.00800           0
     25980 TIP3     1178     TIP3     H2       HT       0.417000       1.00800           0
     25981 TIP3     1179     TIP3     OH2      OT      -0.834000       15.9994           0
     25982 TIP3     1179     TIP3     H1       HT       0.417000       1.00800           0
     25983 TIP3     1179     TIP3     H2       HT       0.417000       1.00800           0
     25984 TIP3     1180     TIP3     OH2      OT      -0.834000       15.9994           0
     25985 TIP3     1180     TIP3     H1       HT       0.417000       1.00800           0
     25986 TIP3     1180     TIP3     H2       HT       0.417000       1.00800           0
     25987 TIP3     1181     TIP3     OH2      OT      -0.834000       15.9994           0
     25988 TIP3     1181     TIP3     H1       HT       0.417000       1.00800           0
     25989 TIP3     1181     TIP3     H2       HT       0.417000       1.00800           0
     25990 TIP3     1182     TIP3     OH2      OT      -0.834000       15.9994           0
     25991 TIP3     1182     TIP3     H1       HT       0.417000       1.00800           0
     25992 TIP3     1182     TIP3     H2       HT       0.417000       1.00800           0
     25993 TIP3     1183     TIP3     OH2      OT      -0.834000       15.9994           0
     25994 TIP3     1183     TIP3     H1       HT       0.417000       1.00800           0
     25995 TIP3     1183     TIP3     H2       HT       0.417000       1.00800           0
     25996 TIP3     1184     TIP3     OH2      OT      -0.834000       15.9994           0
     25997 TIP3     1184     TIP3     H1       HT       0.417000       1.00800           0
     25998 TIP3     1184     TIP3     H2       HT       0.417000       1.00800           0
     25999 TIP3     1185     TIP3     OH2      OT      -0.834000       15.9994           0
     26000 TIP3     1185     TIP3     H1       HT       0.417000       1.00800           0
     26001 TIP3     1185     TIP3     H2       HT       0.417000       1.00800           0
     26002 TIP3     1186     TIP3     OH2      OT      -0.834000       15.9994           0
     26003 TIP3     1186     TIP3     H1       HT       0.417000       1.00800           0
     26004 TIP3     1186     TIP3     H2       HT       0.417000       1.00800           0
     26005 TIP3     1187     TIP3     OH2      OT      -0.834000       15.9994           0
     26006 TIP3     1187     TIP3     H1       HT       0.417000       1.00800           0
     26007 TIP3     1187     TIP3     H2       HT       0.417000       1.00800           0
     26008 TIP3     1188     TIP3     OH2      OT      -0.834000       15.9994           0
     26009 TIP3     1188     TIP3     H1       HT       0.417000       1.00800           0
     26010 TIP3     1188     TIP3     H2       HT       0.417000       1.00800           0
     26011 TIP3     1189     TIP3     OH2      OT      -0.834000       15.9994           0
     26012 TIP3     1189     TIP3     H1       HT       0.417000       1.00800           0
     26013 TIP3     1189     TIP3     H2       HT       0.417000       1.00800           0
     26014 TIP3     1190     TIP3     OH2      OT      -0.834000       15.9994           0
     26015 TIP3     1190     TIP3     H1       HT       0.417000       1.00800           0
     26016 TIP3     1190     TIP3     H2       HT       0.417000       1.00800           0
     26017 TIP3     1191     TIP3     OH2      OT      -0.834000       15.9994           0
     26018 TIP3     1191     TIP3     H1       HT       0.417000       1.00800           0
     26019 TIP3     1191     TIP3     H2       HT       0.417000       1.00800           0
     26020 TIP3     1192     TIP3     OH2      OT      -0.834000       15.9994           0
     26021 TIP3     1192     TIP3     H1       HT       0.417000       1.00800           0
     26022 TIP3     1192     TIP3     H2       HT       0.417000       1.00800           0
     26023 TIP3     1193     TIP3     OH2      OT      -0.834000       15.9994           0
     26024 TIP3     1193     TIP3     H1       HT       0.417000       1.00800           0
     26025 TIP3     1193     TIP3     H2       HT       0.417000       1.00800           0
     26026 TIP3     1194     TIP3     OH2      OT      -0.834000       15.9994           0
     26027 TIP3     1194     TIP3     H1       HT       0.417000       1.00800           0
     26028 TIP3     1194     TIP3     H2       HT       0.417000       1.00800           0
     26029 TIP3     1195     TIP3     OH2      OT      -0.834000       15.9994           0
     26030 TIP3     1195     TIP3     H1       HT       0.417000       1.00800           0
     26031 TIP3     1195     TIP3     H2       HT       0.417000       1.00800           0
     26032 TIP3     1196     TIP3     OH2      OT      -0.834000       15.9994           0
     26033 TIP3     1196     TIP3     H1       HT       0.417000       1.00800           0
     26034 TIP3     1196     TIP3     H2       HT       0.417000       1.00800           0
     26035 TIP3     1197     TIP3     OH2      OT      -0.834000       15.9994           0
     26036 TIP3     1197     TIP3     H1       HT       0.417000       1.00800           0
     26037 TIP3     1197     TIP3     H2       HT       0.417000       1.00800           0
     26038 TIP3     1198     TIP3     OH2      OT      -0.834000       15.9994           0
     26039 TIP3     1198     TIP3     H1       HT       0.417000       1.00800           0
     26040 TIP3     1198     TIP3     H2       HT       0.417000       1.00800           0
     26041 TIP3     1199     TIP3     OH2      OT      -0.834000       15.9994           0
     26042 TIP3     1199     TIP3     H1       HT       0.417000       1.00800           0
     26043 TIP3     1199     TIP3     H2       HT       0.417000       1.00800           0
     26044 TIP3     1200     TIP3     OH2      OT      -0.834000       15.9994           0
     26045 TIP3     1200     TIP3     H1       HT       0.417000       1.00800           0
     26046 TIP3     1200     TIP3     H2       HT       0.417000       1.00800           0
     26047 TIP3     1201     TIP3     OH2      OT      -0.834000       15.9994           0
     26048 TIP3     1201     TIP3     H1       HT       0.417000       1.00800           0
     26049 TIP3     1201     TIP3     H2       HT       0.417000       1.00800           0
     26050 TIP3     1202     TIP3     OH2      OT      -0.834000       15.9994           0
     26051 TIP3     1202     TIP3     H1       HT       0.417000       1.00800           0
     26052 TIP3     1202     TIP3     H2       HT       0.417000       1.00800           0
     26053 TIP3     1203     TIP3     OH2      OT      -0.834000       15.9994           0
     26054 TIP3     1203     TIP3     H1       HT       0.417000       1.00800           0
     26055 TIP3     1203     TIP3     H2       HT       0.417000       1.00800           0
     26056 TIP3     1204     TIP3     OH2      OT      -0.834000       15.9994           0
     26057 TIP3     1204     TIP3     H1       HT       0.417000       1.00800           0
     26058 TIP3     1204     TIP3     H2       HT       0.417000       1.00800           0
     26059 TIP3     1205     TIP3     OH2      OT      -0.834000       15.9994           0
     26060 TIP3     1205     TIP3     H1       HT       0.417000       1.00800           0
     26061 TIP3     1205     TIP3     H2       HT       0.417000       1.00800           0
     26062 TIP3     1206     TIP3     OH2      OT      -0.834000       15.9994           0
     26063 TIP3     1206     TIP3     H1       HT       0.417000       1.00800           0
     26064 TIP3     1206     TIP3     H2       HT       0.417000       1.00800           0
     26065 TIP3     1207     TIP3     OH2      OT      -0.834000       15.9994           0
     26066 TIP3     1207     TIP3     H1       HT       0.417000       1.00800           0
     26067 TIP3     1207     TIP3     H2       HT       0.417000       1.00800           0
     26068 TIP3     1208     TIP3     OH2      OT      -0.834000       15.9994           0
     26069 TIP3     1208     TIP3     H1       HT       0.417000       1.00800           0
     26070 TIP3     1208     TIP3     H2       HT       0.417000       1.00800           0
     26071 TIP3     1209     TIP3     OH2      OT      -0.834000       15.9994           0
     26072 TIP3     1209     TIP3     H1       HT       0.417000       1.00800           0
     26073 TIP3     1209     TIP3     H2       HT       0.417000       1.00800           0
     26074 TIP3     1210     TIP3     OH2      OT      -0.834000       15.9994           0
     26075 TIP3     1210     TIP3     H1       HT       0.417000       1.00800           0
     26076 TIP3     1210     TIP3     H2       HT       0.417000       1.00800           0
     26077 TIP3     1211     TIP3     OH2      OT      -0.834000       15.9994           0
     26078 TIP3     1211     TIP3     H1       HT       0.417000       1.00800           0
     26079 TIP3     1211     TIP3     H2       HT       0.417000       1.00800           0
     26080 TIP3     1212     TIP3     OH2      OT      -0.834000       15.9994           0
     26081 TIP3     1212     TIP3     H1       HT       0.417000       1.00800           0
     26082 TIP3     1212     TIP3     H2       HT       0.417000       1.00800           0
     26083 TIP3     1213     TIP3     OH2      OT      -0.834000       15.9994           0
     26084 TIP3     1213     TIP3     H1       HT       0.417000       1.00800           0
     26085 TIP3     1213     TIP3     H2       HT       0.417000       1.00800           0
     26086 TIP3     1214     TIP3     OH2      OT      -0.834000       15.9994           0
     26087 TIP3     1214     TIP3     H1       HT       0.417000       1.00800           0
     26088 TIP3     1214     TIP3     H2       HT       0.417000       1.00800           0
     26089 TIP3     1215     TIP3     OH2      OT      -0.834000       15.9994           0
     26090 TIP3     1215     TIP3     H1       HT       0.417000       1.00800           0
     26091 TIP3     1215     TIP3     H2       HT       0.417000       1.00800           0
     26092 TIP3     1216     TIP3     OH2      OT      -0.834000       15.9994           0
     26093 TIP3     1216     TIP3     H1       HT       0.417000       1.00800           0
     26094 TIP3     1216     TIP3     H2       HT       0.417000       1.00800           0
     26095 TIP3     1217     TIP3     OH2      OT      -0.834000       15.9994           0
     26096 TIP3     1217     TIP3     H1       HT       0.417000       1.00800           0
     26097 TIP3     1217     TIP3     H2       HT       0.417000       1.00800           0
     26098 TIP3     1218     TIP3     OH2      OT      -0.834000       15.9994           0
     26099 TIP3     1218     TIP3     H1       HT       0.417000       1.00800           0
     26100 TIP3     1218     TIP3     H2       HT       0.417000       1.00800           0
     26101 TIP3     1219     TIP3     OH2      OT      -0.834000       15.9994           0
     26102 TIP3     1219     TIP3     H1       HT       0.417000       1.00800           0
     26103 TIP3     1219     TIP3     H2       HT       0.417000       1.00800           0
     26104 TIP3     1220     TIP3     OH2      OT      -0.834000       15.9994           0
     26105 TIP3     1220     TIP3     H1       HT       0.417000       1.00800           0
     26106 TIP3     1220     TIP3     H2       HT       0.417000       1.00800           0
     26107 TIP3     1221     TIP3     OH2      OT      -0.834000       15.9994           0
     26108 TIP3     1221     TIP3     H1       HT       0.417000       1.00800           0
     26109 TIP3     1221     TIP3     H2       HT       0.417000       1.00800           0
     26110 TIP3     1222     TIP3     OH2      OT      -0.834000       15.9994           0
     26111 TIP3     1222     TIP3     H1       HT       0.417000       1.00800           0
     26112 TIP3     1222     TIP3     H2       HT       0.417000       1.00800           0
     26113 TIP3     1223     TIP3     OH2      OT      -0.834000       15.9994           0
     26114 TIP3     1223     TIP3     H1       HT       0.417000       1.00800           0
     26115 TIP3     1223     TIP3     H2       HT       0.417000       1.00800           0
     26116 TIP3     1224     TIP3     OH2      OT      -0.834000       15.9994           0
     26117 TIP3     1224     TIP3     H1       HT       0.417000       1.00800           0
     26118 TIP3     1224     TIP3     H2       HT       0.417000       1.00800           0
     26119 TIP3     1225     TIP3     OH2      OT      -0.834000       15.9994           0
     26120 TIP3     1225     TIP3     H1       HT       0.417000       1.00800           0
     26121 TIP3     1225     TIP3     H2       HT       0.417000       1.00800           0
     26122 TIP3     1226     TIP3     OH2      OT      -0.834000       15.9994           0
     26123 TIP3     1226     TIP3     H1       HT       0.417000       1.00800           0
     26124 TIP3     1226     TIP3     H2       HT       0.417000       1.00800           0
     26125 TIP3     1227     TIP3     OH2      OT      -0.834000       15.9994           0
     26126 TIP3     1227     TIP3     H1       HT       0.417000       1.00800           0
     26127 TIP3     1227     TIP3     H2       HT       0.417000       1.00800           0
     26128 TIP3     1228     TIP3     OH2      OT      -0.834000       15.9994           0
     26129 TIP3     1228     TIP3     H1       HT       0.417000       1.00800           0
     26130 TIP3     1228     TIP3     H2       HT       0.417000       1.00800           0
     26131 TIP3     1229     TIP3     OH2      OT      -0.834000       15.9994           0
     26132 TIP3     1229     TIP3     H1       HT       0.417000       1.00800           0
     26133 TIP3     1229     TIP3     H2       HT       0.417000       1.00800           0
     26134 TIP3     1230     TIP3     OH2      OT      -0.834000       15.9994           0
     26135 TIP3     1230     TIP3     H1       HT       0.417000       1.00800           0
     26136 TIP3     1230     TIP3     H2       HT       0.417000       1.00800           0
     26137 TIP3     1231     TIP3     OH2      OT      -0.834000       15.9994           0
     26138 TIP3     1231     TIP3     H1       HT       0.417000       1.00800           0
     26139 TIP3     1231     TIP3     H2       HT       0.417000       1.00800           0
     26140 TIP3     1232     TIP3     OH2      OT      -0.834000       15.9994           0
     26141 TIP3     1232     TIP3     H1       HT       0.417000       1.00800           0
     26142 TIP3     1232     TIP3     H2       HT       0.417000       1.00800           0
     26143 TIP3     1233     TIP3     OH2      OT      -0.834000       15.9994           0
     26144 TIP3     1233     TIP3     H1       HT       0.417000       1.00800           0
     26145 TIP3     1233     TIP3     H2       HT       0.417000       1.00800           0
     26146 TIP3     1234     TIP3     OH2      OT      -0.834000       15.9994           0
     26147 TIP3     1234     TIP3     H1       HT       0.417000       1.00800           0
     26148 TIP3     1234     TIP3     H2       HT       0.417000       1.00800           0
     26149 TIP3     1235     TIP3     OH2      OT      -0.834000       15.9994           0
     26150 TIP3     1235     TIP3     H1       HT       0.417000       1.00800           0
     26151 TIP3     1235     TIP3     H2       HT       0.417000       1.00800           0
     26152 TIP3     1236     TIP3     OH2      OT      -0.834000       15.9994           0
     26153 TIP3     1236     TIP3     H1       HT       0.417000       1.00800           0
     26154 TIP3     1236     TIP3     H2       HT       0.417000       1.00800           0
     26155 TIP3     1237     TIP3     OH2      OT      -0.834000       15.9994           0
     26156 TIP3     1237     TIP3     H1       HT       0.417000       1.00800           0
     26157 TIP3     1237     TIP3     H2       HT       0.417000       1.00800           0
     26158 TIP3     1238     TIP3     OH2      OT      -0.834000       15.9994           0
     26159 TIP3     1238     TIP3     H1       HT       0.417000       1.00800           0
     26160 TIP3     1238     TIP3     H2       HT       0.417000       1.00800           0
     26161 TIP3     1239     TIP3     OH2      OT      -0.834000       15.9994           0
     26162 TIP3     1239     TIP3     H1       HT       0.417000       1.00800           0
     26163 TIP3     1239     TIP3     H2       HT       0.417000       1.00800           0
     26164 TIP3     1240     TIP3     OH2      OT      -0.834000       15.9994           0
     26165 TIP3     1240     TIP3     H1       HT       0.417000       1.00800           0
     26166 TIP3     1240     TIP3     H2       HT       0.417000       1.00800           0
     26167 TIP3     1241     TIP3     OH2      OT      -0.834000       15.9994           0
     26168 TIP3     1241     TIP3     H1       HT       0.417000       1.00800           0
     26169 TIP3     1241     TIP3     H2       HT       0.417000       1.00800           0
     26170 TIP3     1242     TIP3     OH2      OT      -0.834000       15.9994           0
     26171 TIP3     1242     TIP3     H1       HT       0.417000       1.00800           0
     26172 TIP3     1242     TIP3     H2       HT       0.417000       1.00800           0
     26173 TIP3     1243     TIP3     OH2      OT      -0.834000       15.9994           0
     26174 TIP3     1243     TIP3     H1       HT       0.417000       1.00800           0
     26175 TIP3     1243     TIP3     H2       HT       0.417000       1.00800           0
     26176 TIP3     1244     TIP3     OH2      OT      -0.834000       15.9994           0
     26177 TIP3     1244     TIP3     H1       HT       0.417000       1.00800           0
     26178 TIP3     1244     TIP3     H2       HT       0.417000       1.00800           0
     26179 TIP3     1245     TIP3     OH2      OT      -0.834000       15.9994           0
     26180 TIP3     1245     TIP3     H1       HT       0.417000       1.00800           0
     26181 TIP3     1245     TIP3     H2       HT       0.417000       1.00800           0
     26182 TIP3     1246     TIP3     OH2      OT      -0.834000       15.9994           0
     26183 TIP3     1246     TIP3     H1       HT       0.417000       1.00800           0
     26184 TIP3     1246     TIP3     H2       HT       0.417000       1.00800           0
     26185 TIP3     1247     TIP3     OH2      OT      -0.834000       15.9994           0
     26186 TIP3     1247     TIP3     H1       HT       0.417000       1.00800           0
     26187 TIP3     1247     TIP3     H2       HT       0.417000       1.00800           0
     26188 TIP3     1248     TIP3     OH2      OT      -0.834000       15.9994           0
     26189 TIP3     1248     TIP3     H1       HT       0.417000       1.00800           0
     26190 TIP3     1248     TIP3     H2       HT       0.417000       1.00800           0
     26191 TIP3     1249     TIP3     OH2      OT      -0.834000       15.9994           0
     26192 TIP3     1249     TIP3     H1       HT       0.417000       1.00800           0
     26193 TIP3     1249     TIP3     H2       HT       0.417000       1.00800           0
     26194 TIP3     1250     TIP3     OH2      OT      -0.834000       15.9994           0
     26195 TIP3     1250     TIP3     H1       HT       0.417000       1.00800           0
     26196 TIP3     1250     TIP3     H2       HT       0.417000       1.00800           0
     26197 TIP3     1251     TIP3     OH2      OT      -0.834000       15.9994           0
     26198 TIP3     1251     TIP3     H1       HT       0.417000       1.00800           0
     26199 TIP3     1251     TIP3     H2       HT       0.417000       1.00800           0
     26200 TIP3     1252     TIP3     OH2      OT      -0.834000       15.9994           0
     26201 TIP3     1252     TIP3     H1       HT       0.417000       1.00800           0
     26202 TIP3     1252     TIP3     H2       HT       0.417000       1.00800           0
     26203 TIP3     1253     TIP3     OH2      OT      -0.834000       15.9994           0
     26204 TIP3     1253     TIP3     H1       HT       0.417000       1.00800           0
     26205 TIP3     1253     TIP3     H2       HT       0.417000       1.00800           0
     26206 TIP3     1254     TIP3     OH2      OT      -0.834000       15.9994           0
     26207 TIP3     1254     TIP3     H1       HT       0.417000       1.00800           0
     26208 TIP3     1254     TIP3     H2       HT       0.417000       1.00800           0
     26209 TIP3     1255     TIP3     OH2      OT      -0.834000       15.9994           0
     26210 TIP3     1255     TIP3     H1       HT       0.417000       1.00800           0
     26211 TIP3     1255     TIP3     H2       HT       0.417000       1.00800           0
     26212 TIP3     1256     TIP3     OH2      OT      -0.834000       15.9994           0
     26213 TIP3     1256     TIP3     H1       HT       0.417000       1.00800           0
     26214 TIP3     1256     TIP3     H2       HT       0.417000       1.00800           0
     26215 TIP3     1257     TIP3     OH2      OT      -0.834000       15.9994           0
     26216 TIP3     1257     TIP3     H1       HT       0.417000       1.00800           0
     26217 TIP3     1257     TIP3     H2       HT       0.417000       1.00800           0
     26218 TIP3     1258     TIP3     OH2      OT      -0.834000       15.9994           0
     26219 TIP3     1258     TIP3     H1       HT       0.417000       1.00800           0
     26220 TIP3     1258     TIP3     H2       HT       0.417000       1.00800           0
     26221 TIP3     1259     TIP3     OH2      OT      -0.834000       15.9994           0
     26222 TIP3     1259     TIP3     H1       HT       0.417000       1.00800           0
     26223 TIP3     1259     TIP3     H2       HT       0.417000       1.00800           0
     26224 TIP3     1260     TIP3     OH2      OT      -0.834000       15.9994           0
     26225 TIP3     1260     TIP3     H1       HT       0.417000       1.00800           0
     26226 TIP3     1260     TIP3     H2       HT       0.417000       1.00800           0
     26227 TIP3     1261     TIP3     OH2      OT      -0.834000       15.9994           0
     26228 TIP3     1261     TIP3     H1       HT       0.417000       1.00800           0
     26229 TIP3     1261     TIP3     H2       HT       0.417000       1.00800           0
     26230 TIP3     1262     TIP3     OH2      OT      -0.834000       15.9994           0
     26231 TIP3     1262     TIP3     H1       HT       0.417000       1.00800           0
     26232 TIP3     1262     TIP3     H2       HT       0.417000       1.00800           0
     26233 TIP3     1263     TIP3     OH2      OT      -0.834000       15.9994           0
     26234 TIP3     1263     TIP3     H1       HT       0.417000       1.00800           0
     26235 TIP3     1263     TIP3     H2       HT       0.417000       1.00800           0
     26236 TIP3     1264     TIP3     OH2      OT      -0.834000       15.9994           0
     26237 TIP3     1264     TIP3     H1       HT       0.417000       1.00800           0
     26238 TIP3     1264     TIP3     H2       HT       0.417000       1.00800           0
     26239 TIP3     1265     TIP3     OH2      OT      -0.834000       15.9994           0
     26240 TIP3     1265     TIP3     H1       HT       0.417000       1.00800           0
     26241 TIP3     1265     TIP3     H2       HT       0.417000       1.00800           0
     26242 TIP3     1266     TIP3     OH2      OT      -0.834000       15.9994           0
     26243 TIP3     1266     TIP3     H1       HT       0.417000       1.00800           0
     26244 TIP3     1266     TIP3     H2       HT       0.417000       1.00800           0
     26245 TIP3     1267     TIP3     OH2      OT      -0.834000       15.9994           0
     26246 TIP3     1267     TIP3     H1       HT       0.417000       1.00800           0
     26247 TIP3     1267     TIP3     H2       HT       0.417000       1.00800           0
     26248 TIP3     1268     TIP3     OH2      OT      -0.834000       15.9994           0
     26249 TIP3     1268     TIP3     H1       HT       0.417000       1.00800           0
     26250 TIP3     1268     TIP3     H2       HT       0.417000       1.00800           0
     26251 TIP3     1269     TIP3     OH2      OT      -0.834000       15.9994           0
     26252 TIP3     1269     TIP3     H1       HT       0.417000       1.00800           0
     26253 TIP3     1269     TIP3     H2       HT       0.417000       1.00800           0
     26254 TIP3     1270     TIP3     OH2      OT      -0.834000       15.9994           0
     26255 TIP3     1270     TIP3     H1       HT       0.417000       1.00800           0
     26256 TIP3     1270     TIP3     H2       HT       0.417000       1.00800           0
     26257 TIP3     1271     TIP3     OH2      OT      -0.834000       15.9994           0
     26258 TIP3     1271     TIP3     H1       HT       0.417000       1.00800           0
     26259 TIP3     1271     TIP3     H2       HT       0.417000       1.00800           0
     26260 TIP3     1272     TIP3     OH2      OT      -0.834000       15.9994           0
     26261 TIP3     1272     TIP3     H1       HT       0.417000       1.00800           0
     26262 TIP3     1272     TIP3     H2       HT       0.417000       1.00800           0
     26263 TIP3     1273     TIP3     OH2      OT      -0.834000       15.9994           0
     26264 TIP3     1273     TIP3     H1       HT       0.417000       1.00800           0
     26265 TIP3     1273     TIP3     H2       HT       0.417000       1.00800           0
     26266 TIP3     1274     TIP3     OH2      OT      -0.834000       15.9994           0
     26267 TIP3     1274     TIP3     H1       HT       0.417000       1.00800           0
     26268 TIP3     1274     TIP3     H2       HT       0.417000       1.00800           0
     26269 TIP3     1275     TIP3     OH2      OT      -0.834000       15.9994           0
     26270 TIP3     1275     TIP3     H1       HT       0.417000       1.00800           0
     26271 TIP3     1275     TIP3     H2       HT       0.417000       1.00800           0
     26272 TIP3     1276     TIP3     OH2      OT      -0.834000       15.9994           0
     26273 TIP3     1276     TIP3     H1       HT       0.417000       1.00800           0
     26274 TIP3     1276     TIP3     H2       HT       0.417000       1.00800           0
     26275 TIP3     1277     TIP3     OH2      OT      -0.834000       15.9994           0
     26276 TIP3     1277     TIP3     H1       HT       0.417000       1.00800           0
     26277 TIP3     1277     TIP3     H2       HT       0.417000       1.00800           0
     26278 TIP3     1278     TIP3     OH2      OT      -0.834000       15.9994           0
     26279 TIP3     1278     TIP3     H1       HT       0.417000       1.00800           0
     26280 TIP3     1278     TIP3     H2       HT       0.417000       1.00800           0
     26281 TIP3     1279     TIP3     OH2      OT      -0.834000       15.9994           0
     26282 TIP3     1279     TIP3     H1       HT       0.417000       1.00800           0
     26283 TIP3     1279     TIP3     H2       HT       0.417000       1.00800           0
     26284 TIP3     1280     TIP3     OH2      OT      -0.834000       15.9994           0
     26285 TIP3     1280     TIP3     H1       HT       0.417000       1.00800           0
     26286 TIP3     1280     TIP3     H2       HT       0.417000       1.00800           0
     26287 TIP3     1281     TIP3     OH2      OT      -0.834000       15.9994           0
     26288 TIP3     1281     TIP3     H1       HT       0.417000       1.00800           0
     26289 TIP3     1281     TIP3     H2       HT       0.417000       1.00800           0
     26290 TIP3     1282     TIP3     OH2      OT      -0.834000       15.9994           0
     26291 TIP3     1282     TIP3     H1       HT       0.417000       1.00800           0
     26292 TIP3     1282     TIP3     H2       HT       0.417000       1.00800           0
     26293 TIP3     1283     TIP3     OH2      OT      -0.834000       15.9994           0
     26294 TIP3     1283     TIP3     H1       HT       0.417000       1.00800           0
     26295 TIP3     1283     TIP3     H2       HT       0.417000       1.00800           0
     26296 TIP3     1284     TIP3     OH2      OT      -0.834000       15.9994           0
     26297 TIP3     1284     TIP3     H1       HT       0.417000       1.00800           0
     26298 TIP3     1284     TIP3     H2       HT       0.417000       1.00800           0
     26299 TIP3     1285     TIP3     OH2      OT      -0.834000       15.9994           0
     26300 TIP3     1285     TIP3     H1       HT       0.417000       1.00800           0
     26301 TIP3     1285     TIP3     H2       HT       0.417000       1.00800           0
     26302 TIP3     1286     TIP3     OH2      OT      -0.834000       15.9994           0
     26303 TIP3     1286     TIP3     H1       HT       0.417000       1.00800           0
     26304 TIP3     1286     TIP3     H2       HT       0.417000       1.00800           0
     26305 TIP3     1287     TIP3     OH2      OT      -0.834000       15.9994           0
     26306 TIP3     1287     TIP3     H1       HT       0.417000       1.00800           0
     26307 TIP3     1287     TIP3     H2       HT       0.417000       1.00800           0
     26308 TIP3     1288     TIP3     OH2      OT      -0.834000       15.9994           0
     26309 TIP3     1288     TIP3     H1       HT       0.417000       1.00800           0
     26310 TIP3     1288     TIP3     H2       HT       0.417000       1.00800           0
     26311 TIP3     1289     TIP3     OH2      OT      -0.834000       15.9994           0
     26312 TIP3     1289     TIP3     H1       HT       0.417000       1.00800           0
     26313 TIP3     1289     TIP3     H2       HT       0.417000       1.00800           0
     26314 TIP3     1290     TIP3     OH2      OT      -0.834000       15.9994           0
     26315 TIP3     1290     TIP3     H1       HT       0.417000       1.00800           0
     26316 TIP3     1290     TIP3     H2       HT       0.417000       1.00800           0
     26317 TIP3     1291     TIP3     OH2      OT      -0.834000       15.9994           0
     26318 TIP3     1291     TIP3     H1       HT       0.417000       1.00800           0
     26319 TIP3     1291     TIP3     H2       HT       0.417000       1.00800           0
     26320 TIP3     1292     TIP3     OH2      OT      -0.834000       15.9994           0
     26321 TIP3     1292     TIP3     H1       HT       0.417000       1.00800           0
     26322 TIP3     1292     TIP3     H2       HT       0.417000       1.00800           0
     26323 TIP3     1293     TIP3     OH2      OT      -0.834000       15.9994           0
     26324 TIP3     1293     TIP3     H1       HT       0.417000       1.00800           0
     26325 TIP3     1293     TIP3     H2       HT       0.417000       1.00800           0
     26326 TIP3     1294     TIP3     OH2      OT      -0.834000       15.9994           0
     26327 TIP3     1294     TIP3     H1       HT       0.417000       1.00800           0
     26328 TIP3     1294     TIP3     H2       HT       0.417000       1.00800           0
     26329 TIP3     1295     TIP3     OH2      OT      -0.834000       15.9994           0
     26330 TIP3     1295     TIP3     H1       HT       0.417000       1.00800           0
     26331 TIP3     1295     TIP3     H2       HT       0.417000       1.00800           0
     26332 TIP3     1296     TIP3     OH2      OT      -0.834000       15.9994           0
     26333 TIP3     1296     TIP3     H1       HT       0.417000       1.00800           0
     26334 TIP3     1296     TIP3     H2       HT       0.417000       1.00800           0
     26335 TIP3     1297     TIP3     OH2      OT      -0.834000       15.9994           0
     26336 TIP3     1297     TIP3     H1       HT       0.417000       1.00800           0
     26337 TIP3     1297     TIP3     H2       HT       0.417000       1.00800           0
     26338 TIP3     1298     TIP3     OH2      OT      -0.834000       15.9994           0
     26339 TIP3     1298     TIP3     H1       HT       0.417000       1.00800           0
     26340 TIP3     1298     TIP3     H2       HT       0.417000       1.00800           0
     26341 TIP3     1299     TIP3     OH2      OT      -0.834000       15.9994           0
     26342 TIP3     1299     TIP3     H1       HT       0.417000       1.00800           0
     26343 TIP3     1299     TIP3     H2       HT       0.417000       1.00800           0
     26344 TIP3     1300     TIP3     OH2      OT      -0.834000       15.9994           0
     26345 TIP3     1300     TIP3     H1       HT       0.417000       1.00800           0
     26346 TIP3     1300     TIP3     H2       HT       0.417000       1.00800           0
     26347 TIP3     1301     TIP3     OH2      OT      -0.834000       15.9994           0
     26348 TIP3     1301     TIP3     H1       HT       0.417000       1.00800           0
     26349 TIP3     1301     TIP3     H2       HT       0.417000       1.00800           0
     26350 TIP3     1302     TIP3     OH2      OT      -0.834000       15.9994           0
     26351 TIP3     1302     TIP3     H1       HT       0.417000       1.00800           0
     26352 TIP3     1302     TIP3     H2       HT       0.417000       1.00800           0
     26353 TIP3     1303     TIP3     OH2      OT      -0.834000       15.9994           0
     26354 TIP3     1303     TIP3     H1       HT       0.417000       1.00800           0
     26355 TIP3     1303     TIP3     H2       HT       0.417000       1.00800           0
     26356 TIP3     1304     TIP3     OH2      OT      -0.834000       15.9994           0
     26357 TIP3     1304     TIP3     H1       HT       0.417000       1.00800           0
     26358 TIP3     1304     TIP3     H2       HT       0.417000       1.00800           0
     26359 TIP3     1305     TIP3     OH2      OT      -0.834000       15.9994           0
     26360 TIP3     1305     TIP3     H1       HT       0.417000       1.00800           0
     26361 TIP3     1305     TIP3     H2       HT       0.417000       1.00800           0
     26362 TIP3     1306     TIP3     OH2      OT      -0.834000       15.9994           0
     26363 TIP3     1306     TIP3     H1       HT       0.417000       1.00800           0
     26364 TIP3     1306     TIP3     H2       HT       0.417000       1.00800           0
     26365 TIP3     1307     TIP3     OH2      OT      -0.834000       15.9994           0
     26366 TIP3     1307     TIP3     H1       HT       0.417000       1.00800           0
     26367 TIP3     1307     TIP3     H2       HT       0.417000       1.00800           0
     26368 TIP3     1308     TIP3     OH2      OT      -0.834000       15.9994           0
     26369 TIP3     1308     TIP3     H1       HT       0.417000       1.00800           0
     26370 TIP3     1308     TIP3     H2       HT       0.417000       1.00800           0
     26371 TIP3     1309     TIP3     OH2      OT      -0.834000       15.9994           0
     26372 TIP3     1309     TIP3     H1       HT       0.417000       1.00800           0
     26373 TIP3     1309     TIP3     H2       HT       0.417000       1.00800           0
     26374 TIP3     1310     TIP3     OH2      OT      -0.834000       15.9994           0
     26375 TIP3     1310     TIP3     H1       HT       0.417000       1.00800           0
     26376 TIP3     1310     TIP3     H2       HT       0.417000       1.00800           0
     26377 TIP3     1311     TIP3     OH2      OT      -0.834000       15.9994           0
     26378 TIP3     1311     TIP3     H1       HT       0.417000       1.00800           0
     26379 TIP3     1311     TIP3     H2       HT       0.417000       1.00800           0
     26380 TIP3     1312     TIP3     OH2      OT      -0.834000       15.9994           0
     26381 TIP3     1312     TIP3     H1       HT       0.417000       1.00800           0
     26382 TIP3     1312     TIP3     H2       HT       0.417000       1.00800           0
     26383 TIP3     1313     TIP3     OH2      OT      -0.834000       15.9994           0
     26384 TIP3     1313     TIP3     H1       HT       0.417000       1.00800           0
     26385 TIP3     1313     TIP3     H2       HT       0.417000       1.00800           0
     26386 TIP3     1314     TIP3     OH2      OT      -0.834000       15.9994           0
     26387 TIP3     1314     TIP3     H1       HT       0.417000       1.00800           0
     26388 TIP3     1314     TIP3     H2       HT       0.417000       1.00800           0
     26389 TIP3     1315     TIP3     OH2      OT      -0.834000       15.9994           0
     26390 TIP3     1315     TIP3     H1       HT       0.417000       1.00800           0
     26391 TIP3     1315     TIP3     H2       HT       0.417000       1.00800           0
     26392 TIP3     1316     TIP3     OH2      OT      -0.834000       15.9994           0
     26393 TIP3     1316     TIP3     H1       HT       0.417000       1.00800           0
     26394 TIP3     1316     TIP3     H2       HT       0.417000       1.00800           0
     26395 TIP3     1317     TIP3     OH2      OT      -0.834000       15.9994           0
     26396 TIP3     1317     TIP3     H1       HT       0.417000       1.00800           0
     26397 TIP3     1317     TIP3     H2       HT       0.417000       1.00800           0
     26398 TIP3     1318     TIP3     OH2      OT      -0.834000       15.9994           0
     26399 TIP3     1318     TIP3     H1       HT       0.417000       1.00800           0
     26400 TIP3     1318     TIP3     H2       HT       0.417000       1.00800           0
     26401 TIP3     1319     TIP3     OH2      OT      -0.834000       15.9994           0
     26402 TIP3     1319     TIP3     H1       HT       0.417000       1.00800           0
     26403 TIP3     1319     TIP3     H2       HT       0.417000       1.00800           0
     26404 TIP3     1320     TIP3     OH2      OT      -0.834000       15.9994           0
     26405 TIP3     1320     TIP3     H1       HT       0.417000       1.00800           0
     26406 TIP3     1320     TIP3     H2       HT       0.417000       1.00800           0
     26407 TIP3     1321     TIP3     OH2      OT      -0.834000       15.9994           0
     26408 TIP3     1321     TIP3     H1       HT       0.417000       1.00800           0
     26409 TIP3     1321     TIP3     H2       HT       0.417000       1.00800           0
     26410 TIP3     1322     TIP3     OH2      OT      -0.834000       15.9994           0
     26411 TIP3     1322     TIP3     H1       HT       0.417000       1.00800           0
     26412 TIP3     1322     TIP3     H2       HT       0.417000       1.00800           0
     26413 TIP3     1323     TIP3     OH2      OT      -0.834000       15.9994           0
     26414 TIP3     1323     TIP3     H1       HT       0.417000       1.00800           0
     26415 TIP3     1323     TIP3     H2       HT       0.417000       1.00800           0
     26416 TIP3     1324     TIP3     OH2      OT      -0.834000       15.9994           0
     26417 TIP3     1324     TIP3     H1       HT       0.417000       1.00800           0
     26418 TIP3     1324     TIP3     H2       HT       0.417000       1.00800           0
     26419 TIP3     1325     TIP3     OH2      OT      -0.834000       15.9994           0
     26420 TIP3     1325     TIP3     H1       HT       0.417000       1.00800           0
     26421 TIP3     1325     TIP3     H2       HT       0.417000       1.00800           0
     26422 TIP3     1326     TIP3     OH2      OT      -0.834000       15.9994           0
     26423 TIP3     1326     TIP3     H1       HT       0.417000       1.00800           0
     26424 TIP3     1326     TIP3     H2       HT       0.417000       1.00800           0
     26425 TIP3     1327     TIP3     OH2      OT      -0.834000       15.9994           0
     26426 TIP3     1327     TIP3     H1       HT       0.417000       1.00800           0
     26427 TIP3     1327     TIP3     H2       HT       0.417000       1.00800           0
     26428 TIP3     1328     TIP3     OH2      OT      -0.834000       15.9994           0
     26429 TIP3     1328     TIP3     H1       HT       0.417000       1.00800           0
     26430 TIP3     1328     TIP3     H2       HT       0.417000       1.00800           0
     26431 TIP3     1329     TIP3     OH2      OT      -0.834000       15.9994           0
     26432 TIP3     1329     TIP3     H1       HT       0.417000       1.00800           0
     26433 TIP3     1329     TIP3     H2       HT       0.417000       1.00800           0
     26434 TIP3     1330     TIP3     OH2      OT      -0.834000       15.9994           0
     26435 TIP3     1330     TIP3     H1       HT       0.417000       1.00800           0
     26436 TIP3     1330     TIP3     H2       HT       0.417000       1.00800           0
     26437 TIP3     1331     TIP3     OH2      OT      -0.834000       15.9994           0
     26438 TIP3     1331     TIP3     H1       HT       0.417000       1.00800           0
     26439 TIP3     1331     TIP3     H2       HT       0.417000       1.00800           0
     26440 TIP3     1332     TIP3     OH2      OT      -0.834000       15.9994           0
     26441 TIP3     1332     TIP3     H1       HT       0.417000       1.00800           0
     26442 TIP3     1332     TIP3     H2       HT       0.417000       1.00800           0
     26443 TIP3     1333     TIP3     OH2      OT      -0.834000       15.9994           0
     26444 TIP3     1333     TIP3     H1       HT       0.417000       1.00800           0
     26445 TIP3     1333     TIP3     H2       HT       0.417000       1.00800           0
     26446 TIP3     1334     TIP3     OH2      OT      -0.834000       15.9994           0
     26447 TIP3     1334     TIP3     H1       HT       0.417000       1.00800           0
     26448 TIP3     1334     TIP3     H2       HT       0.417000       1.00800           0
     26449 TIP3     1335     TIP3     OH2      OT      -0.834000       15.9994           0
     26450 TIP3     1335     TIP3     H1       HT       0.417000       1.00800           0
     26451 TIP3     1335     TIP3     H2       HT       0.417000       1.00800           0
     26452 TIP3     1336     TIP3     OH2      OT      -0.834000       15.9994           0
     26453 TIP3     1336     TIP3     H1       HT       0.417000       1.00800           0
     26454 TIP3     1336     TIP3     H2       HT       0.417000       1.00800           0
     26455 TIP3     1337     TIP3     OH2      OT      -0.834000       15.9994           0
     26456 TIP3     1337     TIP3     H1       HT       0.417000       1.00800           0
     26457 TIP3     1337     TIP3     H2       HT       0.417000       1.00800           0
     26458 TIP3     1338     TIP3     OH2      OT      -0.834000       15.9994           0
     26459 TIP3     1338     TIP3     H1       HT       0.417000       1.00800           0
     26460 TIP3     1338     TIP3     H2       HT       0.417000       1.00800           0
     26461 TIP3     1339     TIP3     OH2      OT      -0.834000       15.9994           0
     26462 TIP3     1339     TIP3     H1       HT       0.417000       1.00800           0
     26463 TIP3     1339     TIP3     H2       HT       0.417000       1.00800           0
     26464 TIP3     1340     TIP3     OH2      OT      -0.834000       15.9994           0
     26465 TIP3     1340     TIP3     H1       HT       0.417000       1.00800           0
     26466 TIP3     1340     TIP3     H2       HT       0.417000       1.00800           0
     26467 TIP3     1341     TIP3     OH2      OT      -0.834000       15.9994           0
     26468 TIP3     1341     TIP3     H1       HT       0.417000       1.00800           0
     26469 TIP3     1341     TIP3     H2       HT       0.417000       1.00800           0
     26470 TIP3     1342     TIP3     OH2      OT      -0.834000       15.9994           0
     26471 TIP3     1342     TIP3     H1       HT       0.417000       1.00800           0
     26472 TIP3     1342     TIP3     H2       HT       0.417000       1.00800           0
     26473 TIP3     1343     TIP3     OH2      OT      -0.834000       15.9994           0
     26474 TIP3     1343     TIP3     H1       HT       0.417000       1.00800           0
     26475 TIP3     1343     TIP3     H2       HT       0.417000       1.00800           0
     26476 TIP3     1344     TIP3     OH2      OT      -0.834000       15.9994           0
     26477 TIP3     1344     TIP3     H1       HT       0.417000       1.00800           0
     26478 TIP3     1344     TIP3     H2       HT       0.417000       1.00800           0
     26479 TIP3     1345     TIP3     OH2      OT      -0.834000       15.9994           0
     26480 TIP3     1345     TIP3     H1       HT       0.417000       1.00800           0
     26481 TIP3     1345     TIP3     H2       HT       0.417000       1.00800           0
     26482 TIP3     1346     TIP3     OH2      OT      -0.834000       15.9994           0
     26483 TIP3     1346     TIP3     H1       HT       0.417000       1.00800           0
     26484 TIP3     1346     TIP3     H2       HT       0.417000       1.00800           0
     26485 TIP3     1347     TIP3     OH2      OT      -0.834000       15.9994           0
     26486 TIP3     1347     TIP3     H1       HT       0.417000       1.00800           0
     26487 TIP3     1347     TIP3     H2       HT       0.417000       1.00800           0
     26488 TIP3     1348     TIP3     OH2      OT      -0.834000       15.9994           0
     26489 TIP3     1348     TIP3     H1       HT       0.417000       1.00800           0
     26490 TIP3     1348     TIP3     H2       HT       0.417000       1.00800           0
     26491 TIP3     1349     TIP3     OH2      OT      -0.834000       15.9994           0
     26492 TIP3     1349     TIP3     H1       HT       0.417000       1.00800           0
     26493 TIP3     1349     TIP3     H2       HT       0.417000       1.00800           0
     26494 TIP3     1350     TIP3     OH2      OT      -0.834000       15.9994           0
     26495 TIP3     1350     TIP3     H1       HT       0.417000       1.00800           0
     26496 TIP3     1350     TIP3     H2       HT       0.417000       1.00800           0
     26497 TIP3     1351     TIP3     OH2      OT      -0.834000       15.9994           0
     26498 TIP3     1351     TIP3     H1       HT       0.417000       1.00800           0
     26499 TIP3     1351     TIP3     H2       HT       0.417000       1.00800           0
     26500 TIP3     1352     TIP3     OH2      OT      -0.834000       15.9994           0
     26501 TIP3     1352     TIP3     H1       HT       0.417000       1.00800           0
     26502 TIP3     1352     TIP3     H2       HT       0.417000       1.00800           0
     26503 TIP3     1353     TIP3     OH2      OT      -0.834000       15.9994           0
     26504 TIP3     1353     TIP3     H1       HT       0.417000       1.00800           0
     26505 TIP3     1353     TIP3     H2       HT       0.417000       1.00800           0
     26506 TIP3     1354     TIP3     OH2      OT      -0.834000       15.9994           0
     26507 TIP3     1354     TIP3     H1       HT       0.417000       1.00800           0
     26508 TIP3     1354     TIP3     H2       HT       0.417000       1.00800           0
     26509 TIP3     1355     TIP3     OH2      OT      -0.834000       15.9994           0
     26510 TIP3     1355     TIP3     H1       HT       0.417000       1.00800           0
     26511 TIP3     1355     TIP3     H2       HT       0.417000       1.00800           0
     26512 TIP3     1356     TIP3     OH2      OT      -0.834000       15.9994           0
     26513 TIP3     1356     TIP3     H1       HT       0.417000       1.00800           0
     26514 TIP3     1356     TIP3     H2       HT       0.417000       1.00800           0
     26515 TIP3     1357     TIP3     OH2      OT      -0.834000       15.9994           0
     26516 TIP3     1357     TIP3     H1       HT       0.417000       1.00800           0
     26517 TIP3     1357     TIP3     H2       HT       0.417000       1.00800           0
     26518 TIP3     1358     TIP3     OH2      OT      -0.834000       15.9994           0
     26519 TIP3     1358     TIP3     H1       HT       0.417000       1.00800           0
     26520 TIP3     1358     TIP3     H2       HT       0.417000       1.00800           0
     26521 TIP3     1359     TIP3     OH2      OT      -0.834000       15.9994           0
     26522 TIP3     1359     TIP3     H1       HT       0.417000       1.00800           0
     26523 TIP3     1359     TIP3     H2       HT       0.417000       1.00800           0
     26524 TIP3     1360     TIP3     OH2      OT      -0.834000       15.9994           0
     26525 TIP3     1360     TIP3     H1       HT       0.417000       1.00800           0
     26526 TIP3     1360     TIP3     H2       HT       0.417000       1.00800           0
     26527 TIP3     1361     TIP3     OH2      OT      -0.834000       15.9994           0
     26528 TIP3     1361     TIP3     H1       HT       0.417000       1.00800           0
     26529 TIP3     1361     TIP3     H2       HT       0.417000       1.00800           0
     26530 TIP3     1362     TIP3     OH2      OT      -0.834000       15.9994           0
     26531 TIP3     1362     TIP3     H1       HT       0.417000       1.00800           0
     26532 TIP3     1362     TIP3     H2       HT       0.417000       1.00800           0
     26533 TIP3     1363     TIP3     OH2      OT      -0.834000       15.9994           0
     26534 TIP3     1363     TIP3     H1       HT       0.417000       1.00800           0
     26535 TIP3     1363     TIP3     H2       HT       0.417000       1.00800           0
     26536 TIP3     1364     TIP3     OH2      OT      -0.834000       15.9994           0
     26537 TIP3     1364     TIP3     H1       HT       0.417000       1.00800           0
     26538 TIP3     1364     TIP3     H2       HT       0.417000       1.00800           0
     26539 TIP3     1365     TIP3     OH2      OT      -0.834000       15.9994           0
     26540 TIP3     1365     TIP3     H1       HT       0.417000       1.00800           0
     26541 TIP3     1365     TIP3     H2       HT       0.417000       1.00800           0
     26542 TIP3     1366     TIP3     OH2      OT      -0.834000       15.9994           0
     26543 TIP3     1366     TIP3     H1       HT       0.417000       1.00800           0
     26544 TIP3     1366     TIP3     H2       HT       0.417000       1.00800           0
     26545 TIP3     1367     TIP3     OH2      OT      -0.834000       15.9994           0
     26546 TIP3     1367     TIP3     H1       HT       0.417000       1.00800           0
     26547 TIP3     1367     TIP3     H2       HT       0.417000       1.00800           0
     26548 TIP3     1368     TIP3     OH2      OT      -0.834000       15.9994           0
     26549 TIP3     1368     TIP3     H1       HT       0.417000       1.00800           0
     26550 TIP3     1368     TIP3     H2       HT       0.417000       1.00800           0
     26551 TIP3     1369     TIP3     OH2      OT      -0.834000       15.9994           0
     26552 TIP3     1369     TIP3     H1       HT       0.417000       1.00800           0
     26553 TIP3     1369     TIP3     H2       HT       0.417000       1.00800           0
     26554 TIP3     1370     TIP3     OH2      OT      -0.834000       15.9994           0
     26555 TIP3     1370     TIP3     H1       HT       0.417000       1.00800           0
     26556 TIP3     1370     TIP3     H2       HT       0.417000       1.00800           0
     26557 TIP3     1371     TIP3     OH2      OT      -0.834000       15.9994           0
     26558 TIP3     1371     TIP3     H1       HT       0.417000       1.00800           0
     26559 TIP3     1371     TIP3     H2       HT       0.417000       1.00800           0
     26560 TIP3     1372     TIP3     OH2      OT      -0.834000       15.9994           0
     26561 TIP3     1372     TIP3     H1       HT       0.417000       1.00800           0
     26562 TIP3     1372     TIP3     H2       HT       0.417000       1.00800           0
     26563 TIP3     1373     TIP3     OH2      OT      -0.834000       15.9994           0
     26564 TIP3     1373     TIP3     H1       HT       0.417000       1.00800           0
     26565 TIP3     1373     TIP3     H2       HT       0.417000       1.00800           0
     26566 TIP3     1374     TIP3     OH2      OT      -0.834000       15.9994           0
     26567 TIP3     1374     TIP3     H1       HT       0.417000       1.00800           0
     26568 TIP3     1374     TIP3     H2       HT       0.417000       1.00800           0
     26569 TIP3     1375     TIP3     OH2      OT      -0.834000       15.9994           0
     26570 TIP3     1375     TIP3     H1       HT       0.417000       1.00800           0
     26571 TIP3     1375     TIP3     H2       HT       0.417000       1.00800           0
     26572 TIP3     1376     TIP3     OH2      OT      -0.834000       15.9994           0
     26573 TIP3     1376     TIP3     H1       HT       0.417000       1.00800           0
     26574 TIP3     1376     TIP3     H2       HT       0.417000       1.00800           0
     26575 TIP3     1377     TIP3     OH2      OT      -0.834000       15.9994           0
     26576 TIP3     1377     TIP3     H1       HT       0.417000       1.00800           0
     26577 TIP3     1377     TIP3     H2       HT       0.417000       1.00800           0
     26578 TIP3     1378     TIP3     OH2      OT      -0.834000       15.9994           0
     26579 TIP3     1378     TIP3     H1       HT       0.417000       1.00800           0
     26580 TIP3     1378     TIP3     H2       HT       0.417000       1.00800           0
     26581 TIP3     1379     TIP3     OH2      OT      -0.834000       15.9994           0
     26582 TIP3     1379     TIP3     H1       HT       0.417000       1.00800           0
     26583 TIP3     1379     TIP3     H2       HT       0.417000       1.00800           0
     26584 TIP3     1380     TIP3     OH2      OT      -0.834000       15.9994           0
     26585 TIP3     1380     TIP3     H1       HT       0.417000       1.00800           0
     26586 TIP3     1380     TIP3     H2       HT       0.417000       1.00800           0
     26587 TIP3     1381     TIP3     OH2      OT      -0.834000       15.9994           0
     26588 TIP3     1381     TIP3     H1       HT       0.417000       1.00800           0
     26589 TIP3     1381     TIP3     H2       HT       0.417000       1.00800           0
     26590 TIP3     1382     TIP3     OH2      OT      -0.834000       15.9994           0
     26591 TIP3     1382     TIP3     H1       HT       0.417000       1.00800           0
     26592 TIP3     1382     TIP3     H2       HT       0.417000       1.00800           0
     26593 TIP3     1383     TIP3     OH2      OT      -0.834000       15.9994           0
     26594 TIP3     1383     TIP3     H1       HT       0.417000       1.00800           0
     26595 TIP3     1383     TIP3     H2       HT       0.417000       1.00800           0
     26596 TIP3     1384     TIP3     OH2      OT      -0.834000       15.9994           0
     26597 TIP3     1384     TIP3     H1       HT       0.417000       1.00800           0
     26598 TIP3     1384     TIP3     H2       HT       0.417000       1.00800           0
     26599 TIP3     1385     TIP3     OH2      OT      -0.834000       15.9994           0
     26600 TIP3     1385     TIP3     H1       HT       0.417000       1.00800           0
     26601 TIP3     1385     TIP3     H2       HT       0.417000       1.00800           0
     26602 TIP3     1386     TIP3     OH2      OT      -0.834000       15.9994           0
     26603 TIP3     1386     TIP3     H1       HT       0.417000       1.00800           0
     26604 TIP3     1386     TIP3     H2       HT       0.417000       1.00800           0
     26605 TIP3     1387     TIP3     OH2      OT      -0.834000       15.9994           0
     26606 TIP3     1387     TIP3     H1       HT       0.417000       1.00800           0
     26607 TIP3     1387     TIP3     H2       HT       0.417000       1.00800           0
     26608 TIP3     1388     TIP3     OH2      OT      -0.834000       15.9994           0
     26609 TIP3     1388     TIP3     H1       HT       0.417000       1.00800           0
     26610 TIP3     1388     TIP3     H2       HT       0.417000       1.00800           0
     26611 TIP3     1389     TIP3     OH2      OT      -0.834000       15.9994           0
     26612 TIP3     1389     TIP3     H1       HT       0.417000       1.00800           0
     26613 TIP3     1389     TIP3     H2       HT       0.417000       1.00800           0
     26614 TIP3     1390     TIP3     OH2      OT      -0.834000       15.9994           0
     26615 TIP3     1390     TIP3     H1       HT       0.417000       1.00800           0
     26616 TIP3     1390     TIP3     H2       HT       0.417000       1.00800           0
     26617 TIP3     1391     TIP3     OH2      OT      -0.834000       15.9994           0
     26618 TIP3     1391     TIP3     H1       HT       0.417000       1.00800           0
     26619 TIP3     1391     TIP3     H2       HT       0.417000       1.00800           0
     26620 TIP3     1392     TIP3     OH2      OT      -0.834000       15.9994           0
     26621 TIP3     1392     TIP3     H1       HT       0.417000       1.00800           0
     26622 TIP3     1392     TIP3     H2       HT       0.417000       1.00800           0
     26623 TIP3     1393     TIP3     OH2      OT      -0.834000       15.9994           0
     26624 TIP3     1393     TIP3     H1       HT       0.417000       1.00800           0
     26625 TIP3     1393     TIP3     H2       HT       0.417000       1.00800           0
     26626 TIP3     1394     TIP3     OH2      OT      -0.834000       15.9994           0
     26627 TIP3     1394     TIP3     H1       HT       0.417000       1.00800           0
     26628 TIP3     1394     TIP3     H2       HT       0.417000       1.00800           0
     26629 TIP3     1395     TIP3     OH2      OT      -0.834000       15.9994           0
     26630 TIP3     1395     TIP3     H1       HT       0.417000       1.00800           0
     26631 TIP3     1395     TIP3     H2       HT       0.417000       1.00800           0
     26632 TIP3     1396     TIP3     OH2      OT      -0.834000       15.9994           0
     26633 TIP3     1396     TIP3     H1       HT       0.417000       1.00800           0
     26634 TIP3     1396     TIP3     H2       HT       0.417000       1.00800           0
     26635 TIP3     1397     TIP3     OH2      OT      -0.834000       15.9994           0
     26636 TIP3     1397     TIP3     H1       HT       0.417000       1.00800           0
     26637 TIP3     1397     TIP3     H2       HT       0.417000       1.00800           0
     26638 TIP3     1398     TIP3     OH2      OT      -0.834000       15.9994           0
     26639 TIP3     1398     TIP3     H1       HT       0.417000       1.00800           0
     26640 TIP3     1398     TIP3     H2       HT       0.417000       1.00800           0
     26641 TIP3     1399     TIP3     OH2      OT      -0.834000       15.9994           0
     26642 TIP3     1399     TIP3     H1       HT       0.417000       1.00800           0
     26643 TIP3     1399     TIP3     H2       HT       0.417000       1.00800           0
     26644 TIP3     1400     TIP3     OH2      OT      -0.834000       15.9994           0
     26645 TIP3     1400     TIP3     H1       HT       0.417000       1.00800           0
     26646 TIP3     1400     TIP3     H2       HT       0.417000       1.00800           0
     26647 TIP3     1401     TIP3     OH2      OT      -0.834000       15.9994           0
     26648 TIP3     1401     TIP3     H1       HT       0.417000       1.00800           0
     26649 TIP3     1401     TIP3     H2       HT       0.417000       1.00800           0
     26650 TIP3     1402     TIP3     OH2      OT      -0.834000       15.9994           0
     26651 TIP3     1402     TIP3     H1       HT       0.417000       1.00800           0
     26652 TIP3     1402     TIP3     H2       HT       0.417000       1.00800           0
     26653 TIP3     1403     TIP3     OH2      OT      -0.834000       15.9994           0
     26654 TIP3     1403     TIP3     H1       HT       0.417000       1.00800           0
     26655 TIP3     1403     TIP3     H2       HT       0.417000       1.00800           0
     26656 TIP3     1404     TIP3     OH2      OT      -0.834000       15.9994           0
     26657 TIP3     1404     TIP3     H1       HT       0.417000       1.00800           0
     26658 TIP3     1404     TIP3     H2       HT       0.417000       1.00800           0
     26659 TIP3     1405     TIP3     OH2      OT      -0.834000       15.9994           0
     26660 TIP3     1405     TIP3     H1       HT       0.417000       1.00800           0
     26661 TIP3     1405     TIP3     H2       HT       0.417000       1.00800           0
     26662 TIP3     1406     TIP3     OH2      OT      -0.834000       15.9994           0
     26663 TIP3     1406     TIP3     H1       HT       0.417000       1.00800           0
     26664 TIP3     1406     TIP3     H2       HT       0.417000       1.00800           0
     26665 TIP3     1407     TIP3     OH2      OT      -0.834000       15.9994           0
     26666 TIP3     1407     TIP3     H1       HT       0.417000       1.00800           0
     26667 TIP3     1407     TIP3     H2       HT       0.417000       1.00800           0
     26668 TIP3     1408     TIP3     OH2      OT      -0.834000       15.9994           0
     26669 TIP3     1408     TIP3     H1       HT       0.417000       1.00800           0
     26670 TIP3     1408     TIP3     H2       HT       0.417000       1.00800           0
     26671 TIP3     1409     TIP3     OH2      OT      -0.834000       15.9994           0
     26672 TIP3     1409     TIP3     H1       HT       0.417000       1.00800           0
     26673 TIP3     1409     TIP3     H2       HT       0.417000       1.00800           0
     26674 TIP3     1410     TIP3     OH2      OT      -0.834000       15.9994           0
     26675 TIP3     1410     TIP3     H1       HT       0.417000       1.00800           0
     26676 TIP3     1410     TIP3     H2       HT       0.417000       1.00800           0
     26677 TIP3     1411     TIP3     OH2      OT      -0.834000       15.9994           0
     26678 TIP3     1411     TIP3     H1       HT       0.417000       1.00800           0
     26679 TIP3     1411     TIP3     H2       HT       0.417000       1.00800           0
     26680 TIP3     1412     TIP3     OH2      OT      -0.834000       15.9994           0
     26681 TIP3     1412     TIP3     H1       HT       0.417000       1.00800           0
     26682 TIP3     1412     TIP3     H2       HT       0.417000       1.00800           0
     26683 TIP3     1413     TIP3     OH2      OT      -0.834000       15.9994           0
     26684 TIP3     1413     TIP3     H1       HT       0.417000       1.00800           0
     26685 TIP3     1413     TIP3     H2       HT       0.417000       1.00800           0
     26686 TIP3     1414     TIP3     OH2      OT      -0.834000       15.9994           0
     26687 TIP3     1414     TIP3     H1       HT       0.417000       1.00800           0
     26688 TIP3     1414     TIP3     H2       HT       0.417000       1.00800           0
     26689 TIP3     1415     TIP3     OH2      OT      -0.834000       15.9994           0
     26690 TIP3     1415     TIP3     H1       HT       0.417000       1.00800           0
     26691 TIP3     1415     TIP3     H2       HT       0.417000       1.00800           0
     26692 TIP3     1416     TIP3     OH2      OT      -0.834000       15.9994           0
     26693 TIP3     1416     TIP3     H1       HT       0.417000       1.00800           0
     26694 TIP3     1416     TIP3     H2       HT       0.417000       1.00800           0
     26695 TIP3     1417     TIP3     OH2      OT      -0.834000       15.9994           0
     26696 TIP3     1417     TIP3     H1       HT       0.417000       1.00800           0
     26697 TIP3     1417     TIP3     H2       HT       0.417000       1.00800           0
     26698 TIP3     1418     TIP3     OH2      OT      -0.834000       15.9994           0
     26699 TIP3     1418     TIP3     H1       HT       0.417000       1.00800           0
     26700 TIP3     1418     TIP3     H2       HT       0.417000       1.00800           0
     26701 TIP3     1419     TIP3     OH2      OT      -0.834000       15.9994           0
     26702 TIP3     1419     TIP3     H1       HT       0.417000       1.00800           0
     26703 TIP3     1419     TIP3     H2       HT       0.417000       1.00800           0
     26704 TIP3     1420     TIP3     OH2      OT      -0.834000       15.9994           0
     26705 TIP3     1420     TIP3     H1       HT       0.417000       1.00800           0
     26706 TIP3     1420     TIP3     H2       HT       0.417000       1.00800           0
     26707 TIP3     1421     TIP3     OH2      OT      -0.834000       15.9994           0
     26708 TIP3     1421     TIP3     H1       HT       0.417000       1.00800           0
     26709 TIP3     1421     TIP3     H2       HT       0.417000       1.00800           0
     26710 TIP3     1422     TIP3     OH2      OT      -0.834000       15.9994           0
     26711 TIP3     1422     TIP3     H1       HT       0.417000       1.00800           0
     26712 TIP3     1422     TIP3     H2       HT       0.417000       1.00800           0
     26713 TIP3     1423     TIP3     OH2      OT      -0.834000       15.9994           0
     26714 TIP3     1423     TIP3     H1       HT       0.417000       1.00800           0
     26715 TIP3     1423     TIP3     H2       HT       0.417000       1.00800           0
     26716 TIP3     1424     TIP3     OH2      OT      -0.834000       15.9994           0
     26717 TIP3     1424     TIP3     H1       HT       0.417000       1.00800           0
     26718 TIP3     1424     TIP3     H2       HT       0.417000       1.00800           0
     26719 TIP3     1425     TIP3     OH2      OT      -0.834000       15.9994           0
     26720 TIP3     1425     TIP3     H1       HT       0.417000       1.00800           0
     26721 TIP3     1425     TIP3     H2       HT       0.417000       1.00800           0
     26722 TIP3     1426     TIP3     OH2      OT      -0.834000       15.9994           0
     26723 TIP3     1426     TIP3     H1       HT       0.417000       1.00800           0
     26724 TIP3     1426     TIP3     H2       HT       0.417000       1.00800           0
     26725 TIP3     1427     TIP3     OH2      OT      -0.834000       15.9994           0
     26726 TIP3     1427     TIP3     H1       HT       0.417000       1.00800           0
     26727 TIP3     1427     TIP3     H2       HT       0.417000       1.00800           0
     26728 TIP3     1428     TIP3     OH2      OT      -0.834000       15.9994           0
     26729 TIP3     1428     TIP3     H1       HT       0.417000       1.00800           0
     26730 TIP3     1428     TIP3     H2       HT       0.417000       1.00800           0
     26731 TIP3     1429     TIP3     OH2      OT      -0.834000       15.9994           0
     26732 TIP3     1429     TIP3     H1       HT       0.417000       1.00800           0
     26733 TIP3     1429     TIP3     H2       HT       0.417000       1.00800           0
     26734 TIP3     1430     TIP3     OH2      OT      -0.834000       15.9994           0
     26735 TIP3     1430     TIP3     H1       HT       0.417000       1.00800           0
     26736 TIP3     1430     TIP3     H2       HT       0.417000       1.00800           0
     26737 TIP3     1431     TIP3     OH2      OT      -0.834000       15.9994           0
     26738 TIP3     1431     TIP3     H1       HT       0.417000       1.00800           0
     26739 TIP3     1431     TIP3     H2       HT       0.417000       1.00800           0
     26740 TIP3     1432     TIP3     OH2      OT      -0.834000       15.9994           0
     26741 TIP3     1432     TIP3     H1       HT       0.417000       1.00800           0
     26742 TIP3     1432     TIP3     H2       HT       0.417000       1.00800           0
     26743 TIP3     1433     TIP3     OH2      OT      -0.834000       15.9994           0
     26744 TIP3     1433     TIP3     H1       HT       0.417000       1.00800           0
     26745 TIP3     1433     TIP3     H2       HT       0.417000       1.00800           0
     26746 TIP3     1434     TIP3     OH2      OT      -0.834000       15.9994           0
     26747 TIP3     1434     TIP3     H1       HT       0.417000       1.00800           0
     26748 TIP3     1434     TIP3     H2       HT       0.417000       1.00800           0
     26749 TIP3     1435     TIP3     OH2      OT      -0.834000       15.9994           0
     26750 TIP3     1435     TIP3     H1       HT       0.417000       1.00800           0
     26751 TIP3     1435     TIP3     H2       HT       0.417000       1.00800           0
     26752 TIP3     1436     TIP3     OH2      OT      -0.834000       15.9994           0
     26753 TIP3     1436     TIP3     H1       HT       0.417000       1.00800           0
     26754 TIP3     1436     TIP3     H2       HT       0.417000       1.00800           0
     26755 TIP3     1437     TIP3     OH2      OT      -0.834000       15.9994           0
     26756 TIP3     1437     TIP3     H1       HT       0.417000       1.00800           0
     26757 TIP3     1437     TIP3     H2       HT       0.417000       1.00800           0
     26758 TIP3     1438     TIP3     OH2      OT      -0.834000       15.9994           0
     26759 TIP3     1438     TIP3     H1       HT       0.417000       1.00800           0
     26760 TIP3     1438     TIP3     H2       HT       0.417000       1.00800           0
     26761 TIP3     1439     TIP3     OH2      OT      -0.834000       15.9994           0
     26762 TIP3     1439     TIP3     H1       HT       0.417000       1.00800           0
     26763 TIP3     1439     TIP3     H2       HT       0.417000       1.00800           0
     26764 TIP3     1440     TIP3     OH2      OT      -0.834000       15.9994           0
     26765 TIP3     1440     TIP3     H1       HT       0.417000       1.00800           0
     26766 TIP3     1440     TIP3     H2       HT       0.417000       1.00800           0
     26767 TIP3     1441     TIP3     OH2      OT      -0.834000       15.9994           0
     26768 TIP3     1441     TIP3     H1       HT       0.417000       1.00800           0
     26769 TIP3     1441     TIP3     H2       HT       0.417000       1.00800           0
     26770 TIP3     1442     TIP3     OH2      OT      -0.834000       15.9994           0
     26771 TIP3     1442     TIP3     H1       HT       0.417000       1.00800           0
     26772 TIP3     1442     TIP3     H2       HT       0.417000       1.00800           0
     26773 TIP3     1443     TIP3     OH2      OT      -0.834000       15.9994           0
     26774 TIP3     1443     TIP3     H1       HT       0.417000       1.00800           0
     26775 TIP3     1443     TIP3     H2       HT       0.417000       1.00800           0
     26776 TIP3     1444     TIP3     OH2      OT      -0.834000       15.9994           0
     26777 TIP3     1444     TIP3     H1       HT       0.417000       1.00800           0
     26778 TIP3     1444     TIP3     H2       HT       0.417000       1.00800           0
     26779 TIP3     1445     TIP3     OH2      OT      -0.834000       15.9994           0
     26780 TIP3     1445     TIP3     H1       HT       0.417000       1.00800           0
     26781 TIP3     1445     TIP3     H2       HT       0.417000       1.00800           0
     26782 TIP3     1446     TIP3     OH2      OT      -0.834000       15.9994           0
     26783 TIP3     1446     TIP3     H1       HT       0.417000       1.00800           0
     26784 TIP3     1446     TIP3     H2       HT       0.417000       1.00800           0
     26785 TIP3     1447     TIP3     OH2      OT      -0.834000       15.9994           0
     26786 TIP3     1447     TIP3     H1       HT       0.417000       1.00800           0
     26787 TIP3     1447     TIP3     H2       HT       0.417000       1.00800           0
     26788 TIP3     1448     TIP3     OH2      OT      -0.834000       15.9994           0
     26789 TIP3     1448     TIP3     H1       HT       0.417000       1.00800           0
     26790 TIP3     1448     TIP3     H2       HT       0.417000       1.00800           0
     26791 TIP3     1449     TIP3     OH2      OT      -0.834000       15.9994           0
     26792 TIP3     1449     TIP3     H1       HT       0.417000       1.00800           0
     26793 TIP3     1449     TIP3     H2       HT       0.417000       1.00800           0
     26794 TIP3     1450     TIP3     OH2      OT      -0.834000       15.9994           0
     26795 TIP3     1450     TIP3     H1       HT       0.417000       1.00800           0
     26796 TIP3     1450     TIP3     H2       HT       0.417000       1.00800           0
     26797 TIP3     1451     TIP3     OH2      OT      -0.834000       15.9994           0
     26798 TIP3     1451     TIP3     H1       HT       0.417000       1.00800           0
     26799 TIP3     1451     TIP3     H2       HT       0.417000       1.00800           0
     26800 TIP3     1452     TIP3     OH2      OT      -0.834000       15.9994           0
     26801 TIP3     1452     TIP3     H1       HT       0.417000       1.00800           0
     26802 TIP3     1452     TIP3     H2       HT       0.417000       1.00800           0
     26803 TIP3     1453     TIP3     OH2      OT      -0.834000       15.9994           0
     26804 TIP3     1453     TIP3     H1       HT       0.417000       1.00800           0
     26805 TIP3     1453     TIP3     H2       HT       0.417000       1.00800           0
     26806 TIP3     1454     TIP3     OH2      OT      -0.834000       15.9994           0
     26807 TIP3     1454     TIP3     H1       HT       0.417000       1.00800           0
     26808 TIP3     1454     TIP3     H2       HT       0.417000       1.00800           0
     26809 TIP3     1455     TIP3     OH2      OT      -0.834000       15.9994           0
     26810 TIP3     1455     TIP3     H1       HT       0.417000       1.00800           0
     26811 TIP3     1455     TIP3     H2       HT       0.417000       1.00800           0
     26812 TIP3     1456     TIP3     OH2      OT      -0.834000       15.9994           0
     26813 TIP3     1456     TIP3     H1       HT       0.417000       1.00800           0
     26814 TIP3     1456     TIP3     H2       HT       0.417000       1.00800           0
     26815 TIP3     1457     TIP3     OH2      OT      -0.834000       15.9994           0
     26816 TIP3     1457     TIP3     H1       HT       0.417000       1.00800           0
     26817 TIP3     1457     TIP3     H2       HT       0.417000       1.00800           0
     26818 TIP3     1458     TIP3     OH2      OT      -0.834000       15.9994           0
     26819 TIP3     1458     TIP3     H1       HT       0.417000       1.00800           0
     26820 TIP3     1458     TIP3     H2       HT       0.417000       1.00800           0
     26821 TIP3     1459     TIP3     OH2      OT      -0.834000       15.9994           0
     26822 TIP3     1459     TIP3     H1       HT       0.417000       1.00800           0
     26823 TIP3     1459     TIP3     H2       HT       0.417000       1.00800           0
     26824 TIP3     1460     TIP3     OH2      OT      -0.834000       15.9994           0
     26825 TIP3     1460     TIP3     H1       HT       0.417000       1.00800           0
     26826 TIP3     1460     TIP3     H2       HT       0.417000       1.00800           0
     26827 TIP3     1461     TIP3     OH2      OT      -0.834000       15.9994           0
     26828 TIP3     1461     TIP3     H1       HT       0.417000       1.00800           0
     26829 TIP3     1461     TIP3     H2       HT       0.417000       1.00800           0
     26830 TIP3     1462     TIP3     OH2      OT      -0.834000       15.9994           0
     26831 TIP3     1462     TIP3     H1       HT       0.417000       1.00800           0
     26832 TIP3     1462     TIP3     H2       HT       0.417000       1.00800           0
     26833 TIP3     1463     TIP3     OH2      OT      -0.834000       15.9994           0
     26834 TIP3     1463     TIP3     H1       HT       0.417000       1.00800           0
     26835 TIP3     1463     TIP3     H2       HT       0.417000       1.00800           0
     26836 TIP3     1464     TIP3     OH2      OT      -0.834000       15.9994           0
     26837 TIP3     1464     TIP3     H1       HT       0.417000       1.00800           0
     26838 TIP3     1464     TIP3     H2       HT       0.417000       1.00800           0
     26839 TIP3     1465     TIP3     OH2      OT      -0.834000       15.9994           0
     26840 TIP3     1465     TIP3     H1       HT       0.417000       1.00800           0
     26841 TIP3     1465     TIP3     H2       HT       0.417000       1.00800           0
     26842 TIP3     1466     TIP3     OH2      OT      -0.834000       15.9994           0
     26843 TIP3     1466     TIP3     H1       HT       0.417000       1.00800           0
     26844 TIP3     1466     TIP3     H2       HT       0.417000       1.00800           0
     26845 TIP3     1467     TIP3     OH2      OT      -0.834000       15.9994           0
     26846 TIP3     1467     TIP3     H1       HT       0.417000       1.00800           0
     26847 TIP3     1467     TIP3     H2       HT       0.417000       1.00800           0
     26848 TIP3     1468     TIP3     OH2      OT      -0.834000       15.9994           0
     26849 TIP3     1468     TIP3     H1       HT       0.417000       1.00800           0
     26850 TIP3     1468     TIP3     H2       HT       0.417000       1.00800           0
     26851 TIP3     1469     TIP3     OH2      OT      -0.834000       15.9994           0
     26852 TIP3     1469     TIP3     H1       HT       0.417000       1.00800           0
     26853 TIP3     1469     TIP3     H2       HT       0.417000       1.00800           0
     26854 TIP3     1470     TIP3     OH2      OT      -0.834000       15.9994           0
     26855 TIP3     1470     TIP3     H1       HT       0.417000       1.00800           0
     26856 TIP3     1470     TIP3     H2       HT       0.417000       1.00800           0
     26857 TIP3     1471     TIP3     OH2      OT      -0.834000       15.9994           0
     26858 TIP3     1471     TIP3     H1       HT       0.417000       1.00800           0
     26859 TIP3     1471     TIP3     H2       HT       0.417000       1.00800           0
     26860 TIP3     1472     TIP3     OH2      OT      -0.834000       15.9994           0
     26861 TIP3     1472     TIP3     H1       HT       0.417000       1.00800           0
     26862 TIP3     1472     TIP3     H2       HT       0.417000       1.00800           0
     26863 TIP3     1473     TIP3     OH2      OT      -0.834000       15.9994           0
     26864 TIP3     1473     TIP3     H1       HT       0.417000       1.00800           0
     26865 TIP3     1473     TIP3     H2       HT       0.417000       1.00800           0
     26866 TIP3     1474     TIP3     OH2      OT      -0.834000       15.9994           0
     26867 TIP3     1474     TIP3     H1       HT       0.417000       1.00800           0
     26868 TIP3     1474     TIP3     H2       HT       0.417000       1.00800           0
     26869 TIP3     1475     TIP3     OH2      OT      -0.834000       15.9994           0
     26870 TIP3     1475     TIP3     H1       HT       0.417000       1.00800           0
     26871 TIP3     1475     TIP3     H2       HT       0.417000       1.00800           0
     26872 TIP3     1476     TIP3     OH2      OT      -0.834000       15.9994           0
     26873 TIP3     1476     TIP3     H1       HT       0.417000       1.00800           0
     26874 TIP3     1476     TIP3     H2       HT       0.417000       1.00800           0
     26875 TIP3     1477     TIP3     OH2      OT      -0.834000       15.9994           0
     26876 TIP3     1477     TIP3     H1       HT       0.417000       1.00800           0
     26877 TIP3     1477     TIP3     H2       HT       0.417000       1.00800           0
     26878 TIP3     1478     TIP3     OH2      OT      -0.834000       15.9994           0
     26879 TIP3     1478     TIP3     H1       HT       0.417000       1.00800           0
     26880 TIP3     1478     TIP3     H2       HT       0.417000       1.00800           0
     26881 TIP3     1479     TIP3     OH2      OT      -0.834000       15.9994           0
     26882 TIP3     1479     TIP3     H1       HT       0.417000       1.00800           0
     26883 TIP3     1479     TIP3     H2       HT       0.417000       1.00800           0
     26884 TIP3     1480     TIP3     OH2      OT      -0.834000       15.9994           0
     26885 TIP3     1480     TIP3     H1       HT       0.417000       1.00800           0
     26886 TIP3     1480     TIP3     H2       HT       0.417000       1.00800           0
     26887 TIP3     1481     TIP3     OH2      OT      -0.834000       15.9994           0
     26888 TIP3     1481     TIP3     H1       HT       0.417000       1.00800           0
     26889 TIP3     1481     TIP3     H2       HT       0.417000       1.00800           0
     26890 TIP3     1482     TIP3     OH2      OT      -0.834000       15.9994           0
     26891 TIP3     1482     TIP3     H1       HT       0.417000       1.00800           0
     26892 TIP3     1482     TIP3     H2       HT       0.417000       1.00800           0
     26893 TIP3     1483     TIP3     OH2      OT      -0.834000       15.9994           0
     26894 TIP3     1483     TIP3     H1       HT       0.417000       1.00800           0
     26895 TIP3     1483     TIP3     H2       HT       0.417000       1.00800           0
     26896 TIP3     1484     TIP3     OH2      OT      -0.834000       15.9994           0
     26897 TIP3     1484     TIP3     H1       HT       0.417000       1.00800           0
     26898 TIP3     1484     TIP3     H2       HT       0.417000       1.00800           0
     26899 TIP3     1485     TIP3     OH2      OT      -0.834000       15.9994           0
     26900 TIP3     1485     TIP3     H1       HT       0.417000       1.00800           0
     26901 TIP3     1485     TIP3     H2       HT       0.417000       1.00800           0
     26902 TIP3     1486     TIP3     OH2      OT      -0.834000       15.9994           0
     26903 TIP3     1486     TIP3     H1       HT       0.417000       1.00800           0
     26904 TIP3     1486     TIP3     H2       HT       0.417000       1.00800           0
     26905 TIP3     1487     TIP3     OH2      OT      -0.834000       15.9994           0
     26906 TIP3     1487     TIP3     H1       HT       0.417000       1.00800           0
     26907 TIP3     1487     TIP3     H2       HT       0.417000       1.00800           0
     26908 TIP3     1488     TIP3     OH2      OT      -0.834000       15.9994           0
     26909 TIP3     1488     TIP3     H1       HT       0.417000       1.00800           0
     26910 TIP3     1488     TIP3     H2       HT       0.417000       1.00800           0
     26911 TIP3     1489     TIP3     OH2      OT      -0.834000       15.9994           0
     26912 TIP3     1489     TIP3     H1       HT       0.417000       1.00800           0
     26913 TIP3     1489     TIP3     H2       HT       0.417000       1.00800           0
     26914 TIP3     1490     TIP3     OH2      OT      -0.834000       15.9994           0
     26915 TIP3     1490     TIP3     H1       HT       0.417000       1.00800           0
     26916 TIP3     1490     TIP3     H2       HT       0.417000       1.00800           0
     26917 TIP3     1491     TIP3     OH2      OT      -0.834000       15.9994           0
     26918 TIP3     1491     TIP3     H1       HT       0.417000       1.00800           0
     26919 TIP3     1491     TIP3     H2       HT       0.417000       1.00800           0
     26920 TIP3     1492     TIP3     OH2      OT      -0.834000       15.9994           0
     26921 TIP3     1492     TIP3     H1       HT       0.417000       1.00800           0
     26922 TIP3     1492     TIP3     H2       HT       0.417000       1.00800           0
     26923 TIP3     1493     TIP3     OH2      OT      -0.834000       15.9994           0
     26924 TIP3     1493     TIP3     H1       HT       0.417000       1.00800           0
     26925 TIP3     1493     TIP3     H2       HT       0.417000       1.00800           0
     26926 TIP3     1494     TIP3     OH2      OT      -0.834000       15.9994           0
     26927 TIP3     1494     TIP3     H1       HT       0.417000       1.00800           0
     26928 TIP3     1494     TIP3     H2       HT       0.417000       1.00800           0
     26929 TIP3     1495     TIP3     OH2      OT      -0.834000       15.9994           0
     26930 TIP3     1495     TIP3     H1       HT       0.417000       1.00800           0
     26931 TIP3     1495     TIP3     H2       HT       0.417000       1.00800           0
     26932 TIP3     1496     TIP3     OH2      OT      -0.834000       15.9994           0
     26933 TIP3     1496     TIP3     H1       HT       0.417000       1.00800           0
     26934 TIP3     1496     TIP3     H2       HT       0.417000       1.00800           0
     26935 TIP3     1497     TIP3     OH2      OT      -0.834000       15.9994           0
     26936 TIP3     1497     TIP3     H1       HT       0.417000       1.00800           0
     26937 TIP3     1497     TIP3     H2       HT       0.417000       1.00800           0
     26938 TIP3     1498     TIP3     OH2      OT      -0.834000       15.9994           0
     26939 TIP3     1498     TIP3     H1       HT       0.417000       1.00800           0
     26940 TIP3     1498     TIP3     H2       HT       0.417000       1.00800           0
     26941 TIP3     1499     TIP3     OH2      OT      -0.834000       15.9994           0
     26942 TIP3     1499     TIP3     H1       HT       0.417000       1.00800           0
     26943 TIP3     1499     TIP3     H2       HT       0.417000       1.00800           0
     26944 TIP3     1500     TIP3     OH2      OT      -0.834000       15.9994           0
     26945 TIP3     1500     TIP3     H1       HT       0.417000       1.00800           0
     26946 TIP3     1500     TIP3     H2       HT       0.417000       1.00800           0
     26947 TIP3     1501     TIP3     OH2      OT      -0.834000       15.9994           0
     26948 TIP3     1501     TIP3     H1       HT       0.417000       1.00800           0
     26949 TIP3     1501     TIP3     H2       HT       0.417000       1.00800           0
     26950 TIP3     1502     TIP3     OH2      OT      -0.834000       15.9994           0
     26951 TIP3     1502     TIP3     H1       HT       0.417000       1.00800           0
     26952 TIP3     1502     TIP3     H2       HT       0.417000       1.00800           0
     26953 TIP3     1503     TIP3     OH2      OT      -0.834000       15.9994           0
     26954 TIP3     1503     TIP3     H1       HT       0.417000       1.00800           0
     26955 TIP3     1503     TIP3     H2       HT       0.417000       1.00800           0
     26956 TIP3     1504     TIP3     OH2      OT      -0.834000       15.9994           0
     26957 TIP3     1504     TIP3     H1       HT       0.417000       1.00800           0
     26958 TIP3     1504     TIP3     H2       HT       0.417000       1.00800           0
     26959 TIP3     1505     TIP3     OH2      OT      -0.834000       15.9994           0
     26960 TIP3     1505     TIP3     H1       HT       0.417000       1.00800           0
     26961 TIP3     1505     TIP3     H2       HT       0.417000       1.00800           0
     26962 TIP3     1506     TIP3     OH2      OT      -0.834000       15.9994           0
     26963 TIP3     1506     TIP3     H1       HT       0.417000       1.00800           0
     26964 TIP3     1506     TIP3     H2       HT       0.417000       1.00800           0
     26965 TIP3     1507     TIP3     OH2      OT      -0.834000       15.9994           0
     26966 TIP3     1507     TIP3     H1       HT       0.417000       1.00800           0
     26967 TIP3     1507     TIP3     H2       HT       0.417000       1.00800           0
     26968 TIP3     1508     TIP3     OH2      OT      -0.834000       15.9994           0
     26969 TIP3     1508     TIP3     H1       HT       0.417000       1.00800           0
     26970 TIP3     1508     TIP3     H2       HT       0.417000       1.00800           0
     26971 TIP3     1509     TIP3     OH2      OT      -0.834000       15.9994           0
     26972 TIP3     1509     TIP3     H1       HT       0.417000       1.00800           0
     26973 TIP3     1509     TIP3     H2       HT       0.417000       1.00800           0
     26974 TIP3     1510     TIP3     OH2      OT      -0.834000       15.9994           0
     26975 TIP3     1510     TIP3     H1       HT       0.417000       1.00800           0
     26976 TIP3     1510     TIP3     H2       HT       0.417000       1.00800           0
     26977 TIP3     1511     TIP3     OH2      OT      -0.834000       15.9994           0
     26978 TIP3     1511     TIP3     H1       HT       0.417000       1.00800           0
     26979 TIP3     1511     TIP3     H2       HT       0.417000       1.00800           0
     26980 TIP3     1512     TIP3     OH2      OT      -0.834000       15.9994           0
     26981 TIP3     1512     TIP3     H1       HT       0.417000       1.00800           0
     26982 TIP3     1512     TIP3     H2       HT       0.417000       1.00800           0
     26983 TIP3     1513     TIP3     OH2      OT      -0.834000       15.9994           0
     26984 TIP3     1513     TIP3     H1       HT       0.417000       1.00800           0
     26985 TIP3     1513     TIP3     H2       HT       0.417000       1.00800           0
     26986 TIP3     1514     TIP3     OH2      OT      -0.834000       15.9994           0
     26987 TIP3     1514     TIP3     H1       HT       0.417000       1.00800           0
     26988 TIP3     1514     TIP3     H2       HT       0.417000       1.00800           0
     26989 TIP3     1515     TIP3     OH2      OT      -0.834000       15.9994           0
     26990 TIP3     1515     TIP3     H1       HT       0.417000       1.00800           0
     26991 TIP3     1515     TIP3     H2       HT       0.417000       1.00800           0
     26992 TIP3     1516     TIP3     OH2      OT      -0.834000       15.9994           0
     26993 TIP3     1516     TIP3     H1       HT       0.417000       1.00800           0
     26994 TIP3     1516     TIP3     H2       HT       0.417000       1.00800           0
     26995 TIP3     1517     TIP3     OH2      OT      -0.834000       15.9994           0
     26996 TIP3     1517     TIP3     H1       HT       0.417000       1.00800           0
     26997 TIP3     1517     TIP3     H2       HT       0.417000       1.00800           0
     26998 TIP3     1518     TIP3     OH2      OT      -0.834000       15.9994           0
     26999 TIP3     1518     TIP3     H1       HT       0.417000       1.00800           0
     27000 TIP3     1518     TIP3     H2       HT       0.417000       1.00800           0
     27001 TIP3     1519     TIP3     OH2      OT      -0.834000       15.9994           0
     27002 TIP3     1519     TIP3     H1       HT       0.417000       1.00800           0
     27003 TIP3     1519     TIP3     H2       HT       0.417000       1.00800           0
     27004 TIP3     1520     TIP3     OH2      OT      -0.834000       15.9994           0
     27005 TIP3     1520     TIP3     H1       HT       0.417000       1.00800           0
     27006 TIP3     1520     TIP3     H2       HT       0.417000       1.00800           0
     27007 TIP3     1521     TIP3     OH2      OT      -0.834000       15.9994           0
     27008 TIP3     1521     TIP3     H1       HT       0.417000       1.00800           0
     27009 TIP3     1521     TIP3     H2       HT       0.417000       1.00800           0
     27010 TIP3     1522     TIP3     OH2      OT      -0.834000       15.9994           0
     27011 TIP3     1522     TIP3     H1       HT       0.417000       1.00800           0
     27012 TIP3     1522     TIP3     H2       HT       0.417000       1.00800           0
     27013 TIP3     1523     TIP3     OH2      OT      -0.834000       15.9994           0
     27014 TIP3     1523     TIP3     H1       HT       0.417000       1.00800           0
     27015 TIP3     1523     TIP3     H2       HT       0.417000       1.00800           0
     27016 TIP3     1524     TIP3     OH2      OT      -0.834000       15.9994           0
     27017 TIP3     1524     TIP3     H1       HT       0.417000       1.00800           0
     27018 TIP3     1524     TIP3     H2       HT       0.417000       1.00800           0
     27019 TIP3     1525     TIP3     OH2      OT      -0.834000       15.9994           0
     27020 TIP3     1525     TIP3     H1       HT       0.417000       1.00800           0
     27021 TIP3     1525     TIP3     H2       HT       0.417000       1.00800           0
     27022 TIP3     1526     TIP3     OH2      OT      -0.834000       15.9994           0
     27023 TIP3     1526     TIP3     H1       HT       0.417000       1.00800           0
     27024 TIP3     1526     TIP3     H2       HT       0.417000       1.00800           0
     27025 TIP3     1527     TIP3     OH2      OT      -0.834000       15.9994           0
     27026 TIP3     1527     TIP3     H1       HT       0.417000       1.00800           0
     27027 TIP3     1527     TIP3     H2       HT       0.417000       1.00800           0
     27028 TIP3     1528     TIP3     OH2      OT      -0.834000       15.9994           0
     27029 TIP3     1528     TIP3     H1       HT       0.417000       1.00800           0
     27030 TIP3     1528     TIP3     H2       HT       0.417000       1.00800           0
     27031 TIP3     1529     TIP3     OH2      OT      -0.834000       15.9994           0
     27032 TIP3     1529     TIP3     H1       HT       0.417000       1.00800           0
     27033 TIP3     1529     TIP3     H2       HT       0.417000       1.00800           0
     27034 TIP3     1530     TIP3     OH2      OT      -0.834000       15.9994           0
     27035 TIP3     1530     TIP3     H1       HT       0.417000       1.00800           0
     27036 TIP3     1530     TIP3     H2       HT       0.417000       1.00800           0
     27037 TIP3     1531     TIP3     OH2      OT      -0.834000       15.9994           0
     27038 TIP3     1531     TIP3     H1       HT       0.417000       1.00800           0
     27039 TIP3     1531     TIP3     H2       HT       0.417000       1.00800           0
     27040 TIP3     1532     TIP3     OH2      OT      -0.834000       15.9994           0
     27041 TIP3     1532     TIP3     H1       HT       0.417000       1.00800           0
     27042 TIP3     1532     TIP3     H2       HT       0.417000       1.00800           0
     27043 TIP3     1533     TIP3     OH2      OT      -0.834000       15.9994           0
     27044 TIP3     1533     TIP3     H1       HT       0.417000       1.00800           0
     27045 TIP3     1533     TIP3     H2       HT       0.417000       1.00800           0
     27046 TIP3     1534     TIP3     OH2      OT      -0.834000       15.9994           0
     27047 TIP3     1534     TIP3     H1       HT       0.417000       1.00800           0
     27048 TIP3     1534     TIP3     H2       HT       0.417000       1.00800           0
     27049 TIP3     1535     TIP3     OH2      OT      -0.834000       15.9994           0
     27050 TIP3     1535     TIP3     H1       HT       0.417000       1.00800           0
     27051 TIP3     1535     TIP3     H2       HT       0.417000       1.00800           0
     27052 TIP3     1536     TIP3     OH2      OT      -0.834000       15.9994           0
     27053 TIP3     1536     TIP3     H1       HT       0.417000       1.00800           0
     27054 TIP3     1536     TIP3     H2       HT       0.417000       1.00800           0
     27055 TIP3     1537     TIP3     OH2      OT      -0.834000       15.9994           0
     27056 TIP3     1537     TIP3     H1       HT       0.417000       1.00800           0
     27057 TIP3     1537     TIP3     H2       HT       0.417000       1.00800           0
     27058 TIP3     1538     TIP3     OH2      OT      -0.834000       15.9994           0
     27059 TIP3     1538     TIP3     H1       HT       0.417000       1.00800           0
     27060 TIP3     1538     TIP3     H2       HT       0.417000       1.00800           0
     27061 TIP3     1539     TIP3     OH2      OT      -0.834000       15.9994           0
     27062 TIP3     1539     TIP3     H1       HT       0.417000       1.00800           0
     27063 TIP3     1539     TIP3     H2       HT       0.417000       1.00800           0
     27064 TIP3     1540     TIP3     OH2      OT      -0.834000       15.9994           0
     27065 TIP3     1540     TIP3     H1       HT       0.417000       1.00800           0
     27066 TIP3     1540     TIP3     H2       HT       0.417000       1.00800           0
     27067 TIP3     1541     TIP3     OH2      OT      -0.834000       15.9994           0
     27068 TIP3     1541     TIP3     H1       HT       0.417000       1.00800           0
     27069 TIP3     1541     TIP3     H2       HT       0.417000       1.00800           0
     27070 TIP3     1542     TIP3     OH2      OT      -0.834000       15.9994           0
     27071 TIP3     1542     TIP3     H1       HT       0.417000       1.00800           0
     27072 TIP3     1542     TIP3     H2       HT       0.417000       1.00800           0
     27073 TIP3     1543     TIP3     OH2      OT      -0.834000       15.9994           0
     27074 TIP3     1543     TIP3     H1       HT       0.417000       1.00800           0
     27075 TIP3     1543     TIP3     H2       HT       0.417000       1.00800           0
     27076 TIP3     1544     TIP3     OH2      OT      -0.834000       15.9994           0
     27077 TIP3     1544     TIP3     H1       HT       0.417000       1.00800           0
     27078 TIP3     1544     TIP3     H2       HT       0.417000       1.00800           0
     27079 TIP3     1545     TIP3     OH2      OT      -0.834000       15.9994           0
     27080 TIP3     1545     TIP3     H1       HT       0.417000       1.00800           0
     27081 TIP3     1545     TIP3     H2       HT       0.417000       1.00800           0
     27082 TIP3     1546     TIP3     OH2      OT      -0.834000       15.9994           0
     27083 TIP3     1546     TIP3     H1       HT       0.417000       1.00800           0
     27084 TIP3     1546     TIP3     H2       HT       0.417000       1.00800           0
     27085 TIP3     1547     TIP3     OH2      OT      -0.834000       15.9994           0
     27086 TIP3     1547     TIP3     H1       HT       0.417000       1.00800           0
     27087 TIP3     1547     TIP3     H2       HT       0.417000       1.00800           0
     27088 TIP3     1548     TIP3     OH2      OT      -0.834000       15.9994           0
     27089 TIP3     1548     TIP3     H1       HT       0.417000       1.00800           0
     27090 TIP3     1548     TIP3     H2       HT       0.417000       1.00800           0
     27091 TIP3     1549     TIP3     OH2      OT      -0.834000       15.9994           0
     27092 TIP3     1549     TIP3     H1       HT       0.417000       1.00800           0
     27093 TIP3     1549     TIP3     H2       HT       0.417000       1.00800           0
     27094 TIP3     1550     TIP3     OH2      OT      -0.834000       15.9994           0
     27095 TIP3     1550     TIP3     H1       HT       0.417000       1.00800           0
     27096 TIP3     1550     TIP3     H2       HT       0.417000       1.00800           0
     27097 TIP3     1551     TIP3     OH2      OT      -0.834000       15.9994           0
     27098 TIP3     1551     TIP3     H1       HT       0.417000       1.00800           0
     27099 TIP3     1551     TIP3     H2       HT       0.417000       1.00800           0
     27100 TIP3     1552     TIP3     OH2      OT      -0.834000       15.9994           0
     27101 TIP3     1552     TIP3     H1       HT       0.417000       1.00800           0
     27102 TIP3     1552     TIP3     H2       HT       0.417000       1.00800           0
     27103 TIP3     1553     TIP3     OH2      OT      -0.834000       15.9994           0
     27104 TIP3     1553     TIP3     H1       HT       0.417000       1.00800           0
     27105 TIP3     1553     TIP3     H2       HT       0.417000       1.00800           0
     27106 TIP3     1554     TIP3     OH2      OT      -0.834000       15.9994           0
     27107 TIP3     1554     TIP3     H1       HT       0.417000       1.00800           0
     27108 TIP3     1554     TIP3     H2       HT       0.417000       1.00800           0
     27109 TIP3     1555     TIP3     OH2      OT      -0.834000       15.9994           0
     27110 TIP3     1555     TIP3     H1       HT       0.417000       1.00800           0
     27111 TIP3     1555     TIP3     H2       HT       0.417000       1.00800           0
     27112 TIP3     1556     TIP3     OH2      OT      -0.834000       15.9994           0
     27113 TIP3     1556     TIP3     H1       HT       0.417000       1.00800           0
     27114 TIP3     1556     TIP3     H2       HT       0.417000       1.00800           0
     27115 TIP3     1557     TIP3     OH2      OT      -0.834000       15.9994           0
     27116 TIP3     1557     TIP3     H1       HT       0.417000       1.00800           0
     27117 TIP3     1557     TIP3     H2       HT       0.417000       1.00800           0
     27118 TIP3     1558     TIP3     OH2      OT      -0.834000       15.9994           0
     27119 TIP3     1558     TIP3     H1       HT       0.417000       1.00800           0
     27120 TIP3     1558     TIP3     H2       HT       0.417000       1.00800           0
     27121 TIP3     1559     TIP3     OH2      OT      -0.834000       15.9994           0
     27122 TIP3     1559     TIP3     H1       HT       0.417000       1.00800           0
     27123 TIP3     1559     TIP3     H2       HT       0.417000       1.00800           0
     27124 TIP3     1560     TIP3     OH2      OT      -0.834000       15.9994           0
     27125 TIP3     1560     TIP3     H1       HT       0.417000       1.00800           0
     27126 TIP3     1560     TIP3     H2       HT       0.417000       1.00800           0
     27127 TIP3     1561     TIP3     OH2      OT      -0.834000       15.9994           0
     27128 TIP3     1561     TIP3     H1       HT       0.417000       1.00800           0
     27129 TIP3     1561     TIP3     H2       HT       0.417000       1.00800           0
     27130 TIP3     1562     TIP3     OH2      OT      -0.834000       15.9994           0
     27131 TIP3     1562     TIP3     H1       HT       0.417000       1.00800           0
     27132 TIP3     1562     TIP3     H2       HT       0.417000       1.00800           0
     27133 TIP3     1563     TIP3     OH2      OT      -0.834000       15.9994           0
     27134 TIP3     1563     TIP3     H1       HT       0.417000       1.00800           0
     27135 TIP3     1563     TIP3     H2       HT       0.417000       1.00800           0
     27136 TIP3     1564     TIP3     OH2      OT      -0.834000       15.9994           0
     27137 TIP3     1564     TIP3     H1       HT       0.417000       1.00800           0
     27138 TIP3     1564     TIP3     H2       HT       0.417000       1.00800           0
     27139 TIP3     1565     TIP3     OH2      OT      -0.834000       15.9994           0
     27140 TIP3     1565     TIP3     H1       HT       0.417000       1.00800           0
     27141 TIP3     1565     TIP3     H2       HT       0.417000       1.00800           0
     27142 TIP3     1566     TIP3     OH2      OT      -0.834000       15.9994           0
     27143 TIP3     1566     TIP3     H1       HT       0.417000       1.00800           0
     27144 TIP3     1566     TIP3     H2       HT       0.417000       1.00800           0
     27145 TIP3     1567     TIP3     OH2      OT      -0.834000       15.9994           0
     27146 TIP3     1567     TIP3     H1       HT       0.417000       1.00800           0
     27147 TIP3     1567     TIP3     H2       HT       0.417000       1.00800           0
     27148 TIP3     1568     TIP3     OH2      OT      -0.834000       15.9994           0
     27149 TIP3     1568     TIP3     H1       HT       0.417000       1.00800           0
     27150 TIP3     1568     TIP3     H2       HT       0.417000       1.00800           0
     27151 TIP3     1569     TIP3     OH2      OT      -0.834000       15.9994           0
     27152 TIP3     1569     TIP3     H1       HT       0.417000       1.00800           0
     27153 TIP3     1569     TIP3     H2       HT       0.417000       1.00800           0
     27154 TIP3     1570     TIP3     OH2      OT      -0.834000       15.9994           0
     27155 TIP3     1570     TIP3     H1       HT       0.417000       1.00800           0
     27156 TIP3     1570     TIP3     H2       HT       0.417000       1.00800           0
     27157 TIP3     1571     TIP3     OH2      OT      -0.834000       15.9994           0
     27158 TIP3     1571     TIP3     H1       HT       0.417000       1.00800           0
     27159 TIP3     1571     TIP3     H2       HT       0.417000       1.00800           0
     27160 TIP3     1572     TIP3     OH2      OT      -0.834000       15.9994           0
     27161 TIP3     1572     TIP3     H1       HT       0.417000       1.00800           0
     27162 TIP3     1572     TIP3     H2       HT       0.417000       1.00800           0
     27163 TIP3     1573     TIP3     OH2      OT      -0.834000       15.9994           0
     27164 TIP3     1573     TIP3     H1       HT       0.417000       1.00800           0
     27165 TIP3     1573     TIP3     H2       HT       0.417000       1.00800           0
     27166 TIP3     1574     TIP3     OH2      OT      -0.834000       15.9994           0
     27167 TIP3     1574     TIP3     H1       HT       0.417000       1.00800           0
     27168 TIP3     1574     TIP3     H2       HT       0.417000       1.00800           0
     27169 TIP3     1575     TIP3     OH2      OT      -0.834000       15.9994           0
     27170 TIP3     1575     TIP3     H1       HT       0.417000       1.00800           0
     27171 TIP3     1575     TIP3     H2       HT       0.417000       1.00800           0
     27172 TIP3     1576     TIP3     OH2      OT      -0.834000       15.9994           0
     27173 TIP3     1576     TIP3     H1       HT       0.417000       1.00800           0
     27174 TIP3     1576     TIP3     H2       HT       0.417000       1.00800           0
     27175 TIP3     1577     TIP3     OH2      OT      -0.834000       15.9994           0
     27176 TIP3     1577     TIP3     H1       HT       0.417000       1.00800           0
     27177 TIP3     1577     TIP3     H2       HT       0.417000       1.00800           0
     27178 TIP3     1578     TIP3     OH2      OT      -0.834000       15.9994           0
     27179 TIP3     1578     TIP3     H1       HT       0.417000       1.00800           0
     27180 TIP3     1578     TIP3     H2       HT       0.417000       1.00800           0
     27181 TIP3     1579     TIP3     OH2      OT      -0.834000       15.9994           0
     27182 TIP3     1579     TIP3     H1       HT       0.417000       1.00800           0
     27183 TIP3     1579     TIP3     H2       HT       0.417000       1.00800           0
     27184 TIP3     1580     TIP3     OH2      OT      -0.834000       15.9994           0
     27185 TIP3     1580     TIP3     H1       HT       0.417000       1.00800           0
     27186 TIP3     1580     TIP3     H2       HT       0.417000       1.00800           0
     27187 TIP3     1581     TIP3     OH2      OT      -0.834000       15.9994           0
     27188 TIP3     1581     TIP3     H1       HT       0.417000       1.00800           0
     27189 TIP3     1581     TIP3     H2       HT       0.417000       1.00800           0
     27190 TIP3     1582     TIP3     OH2      OT      -0.834000       15.9994           0
     27191 TIP3     1582     TIP3     H1       HT       0.417000       1.00800           0
     27192 TIP3     1582     TIP3     H2       HT       0.417000       1.00800           0
     27193 TIP3     1583     TIP3     OH2      OT      -0.834000       15.9994           0
     27194 TIP3     1583     TIP3     H1       HT       0.417000       1.00800           0
     27195 TIP3     1583     TIP3     H2       HT       0.417000       1.00800           0
     27196 TIP3     1584     TIP3     OH2      OT      -0.834000       15.9994           0
     27197 TIP3     1584     TIP3     H1       HT       0.417000       1.00800           0
     27198 TIP3     1584     TIP3     H2       HT       0.417000       1.00800           0
     27199 TIP3     1585     TIP3     OH2      OT      -0.834000       15.9994           0
     27200 TIP3     1585     TIP3     H1       HT       0.417000       1.00800           0
     27201 TIP3     1585     TIP3     H2       HT       0.417000       1.00800           0
     27202 TIP3     1586     TIP3     OH2      OT      -0.834000       15.9994           0
     27203 TIP3     1586     TIP3     H1       HT       0.417000       1.00800           0
     27204 TIP3     1586     TIP3     H2       HT       0.417000       1.00800           0
     27205 TIP3     1587     TIP3     OH2      OT      -0.834000       15.9994           0
     27206 TIP3     1587     TIP3     H1       HT       0.417000       1.00800           0
     27207 TIP3     1587     TIP3     H2       HT       0.417000       1.00800           0
     27208 TIP3     1588     TIP3     OH2      OT      -0.834000       15.9994           0
     27209 TIP3     1588     TIP3     H1       HT       0.417000       1.00800           0
     27210 TIP3     1588     TIP3     H2       HT       0.417000       1.00800           0
     27211 TIP3     1589     TIP3     OH2      OT      -0.834000       15.9994           0
     27212 TIP3     1589     TIP3     H1       HT       0.417000       1.00800           0
     27213 TIP3     1589     TIP3     H2       HT       0.417000       1.00800           0
     27214 TIP3     1590     TIP3     OH2      OT      -0.834000       15.9994           0
     27215 TIP3     1590     TIP3     H1       HT       0.417000       1.00800           0
     27216 TIP3     1590     TIP3     H2       HT       0.417000       1.00800           0
     27217 TIP3     1591     TIP3     OH2      OT      -0.834000       15.9994           0
     27218 TIP3     1591     TIP3     H1       HT       0.417000       1.00800           0
     27219 TIP3     1591     TIP3     H2       HT       0.417000       1.00800           0
     27220 TIP3     1592     TIP3     OH2      OT      -0.834000       15.9994           0
     27221 TIP3     1592     TIP3     H1       HT       0.417000       1.00800           0
     27222 TIP3     1592     TIP3     H2       HT       0.417000       1.00800           0
     27223 TIP3     1593     TIP3     OH2      OT      -0.834000       15.9994           0
     27224 TIP3     1593     TIP3     H1       HT       0.417000       1.00800           0
     27225 TIP3     1593     TIP3     H2       HT       0.417000       1.00800           0
     27226 TIP3     1594     TIP3     OH2      OT      -0.834000       15.9994           0
     27227 TIP3     1594     TIP3     H1       HT       0.417000       1.00800           0
     27228 TIP3     1594     TIP3     H2       HT       0.417000       1.00800           0
     27229 TIP3     1595     TIP3     OH2      OT      -0.834000       15.9994           0
     27230 TIP3     1595     TIP3     H1       HT       0.417000       1.00800           0
     27231 TIP3     1595     TIP3     H2       HT       0.417000       1.00800           0
     27232 TIP3     1596     TIP3     OH2      OT      -0.834000       15.9994           0
     27233 TIP3     1596     TIP3     H1       HT       0.417000       1.00800           0
     27234 TIP3     1596     TIP3     H2       HT       0.417000       1.00800           0
     27235 TIP3     1597     TIP3     OH2      OT      -0.834000       15.9994           0
     27236 TIP3     1597     TIP3     H1       HT       0.417000       1.00800           0
     27237 TIP3     1597     TIP3     H2       HT       0.417000       1.00800           0
     27238 TIP3     1598     TIP3     OH2      OT      -0.834000       15.9994           0
     27239 TIP3     1598     TIP3     H1       HT       0.417000       1.00800           0
     27240 TIP3     1598     TIP3     H2       HT       0.417000       1.00800           0
     27241 TIP3     1599     TIP3     OH2      OT      -0.834000       15.9994           0
     27242 TIP3     1599     TIP3     H1       HT       0.417000       1.00800           0
     27243 TIP3     1599     TIP3     H2       HT       0.417000       1.00800           0
     27244 TIP3     1600     TIP3     OH2      OT      -0.834000       15.9994           0
     27245 TIP3     1600     TIP3     H1       HT       0.417000       1.00800           0
     27246 TIP3     1600     TIP3     H2       HT       0.417000       1.00800           0
     27247 TIP3     1601     TIP3     OH2      OT      -0.834000       15.9994           0
     27248 TIP3     1601     TIP3     H1       HT       0.417000       1.00800           0
     27249 TIP3     1601     TIP3     H2       HT       0.417000       1.00800           0
     27250 TIP3     1602     TIP3     OH2      OT      -0.834000       15.9994           0
     27251 TIP3     1602     TIP3     H1       HT       0.417000       1.00800           0
     27252 TIP3     1602     TIP3     H2       HT       0.417000       1.00800           0
     27253 TIP3     1603     TIP3     OH2      OT      -0.834000       15.9994           0
     27254 TIP3     1603     TIP3     H1       HT       0.417000       1.00800           0
     27255 TIP3     1603     TIP3     H2       HT       0.417000       1.00800           0
     27256 TIP3     1604     TIP3     OH2      OT      -0.834000       15.9994           0
     27257 TIP3     1604     TIP3     H1       HT       0.417000       1.00800           0
     27258 TIP3     1604     TIP3     H2       HT       0.417000       1.00800           0
     27259 TIP3     1605     TIP3     OH2      OT      -0.834000       15.9994           0
     27260 TIP3     1605     TIP3     H1       HT       0.417000       1.00800           0
     27261 TIP3     1605     TIP3     H2       HT       0.417000       1.00800           0
     27262 TIP3     1606     TIP3     OH2      OT      -0.834000       15.9994           0
     27263 TIP3     1606     TIP3     H1       HT       0.417000       1.00800           0
     27264 TIP3     1606     TIP3     H2       HT       0.417000       1.00800           0
     27265 TIP3     1607     TIP3     OH2      OT      -0.834000       15.9994           0
     27266 TIP3     1607     TIP3     H1       HT       0.417000       1.00800           0
     27267 TIP3     1607     TIP3     H2       HT       0.417000       1.00800           0
     27268 TIP3     1608     TIP3     OH2      OT      -0.834000       15.9994           0
     27269 TIP3     1608     TIP3     H1       HT       0.417000       1.00800           0
     27270 TIP3     1608     TIP3     H2       HT       0.417000       1.00800           0
     27271 TIP3     1609     TIP3     OH2      OT      -0.834000       15.9994           0
     27272 TIP3     1609     TIP3     H1       HT       0.417000       1.00800           0
     27273 TIP3     1609     TIP3     H2       HT       0.417000       1.00800           0
     27274 TIP3     1610     TIP3     OH2      OT      -0.834000       15.9994           0
     27275 TIP3     1610     TIP3     H1       HT       0.417000       1.00800           0
     27276 TIP3     1610     TIP3     H2       HT       0.417000       1.00800           0
     27277 TIP3     1611     TIP3     OH2      OT      -0.834000       15.9994           0
     27278 TIP3     1611     TIP3     H1       HT       0.417000       1.00800           0
     27279 TIP3     1611     TIP3     H2       HT       0.417000       1.00800           0
     27280 TIP3     1612     TIP3     OH2      OT      -0.834000       15.9994           0
     27281 TIP3     1612     TIP3     H1       HT       0.417000       1.00800           0
     27282 TIP3     1612     TIP3     H2       HT       0.417000       1.00800           0
     27283 TIP3     1613     TIP3     OH2      OT      -0.834000       15.9994           0
     27284 TIP3     1613     TIP3     H1       HT       0.417000       1.00800           0
     27285 TIP3     1613     TIP3     H2       HT       0.417000       1.00800           0
     27286 TIP3     1614     TIP3     OH2      OT      -0.834000       15.9994           0
     27287 TIP3     1614     TIP3     H1       HT       0.417000       1.00800           0
     27288 TIP3     1614     TIP3     H2       HT       0.417000       1.00800           0
     27289 TIP3     1615     TIP3     OH2      OT      -0.834000       15.9994           0
     27290 TIP3     1615     TIP3     H1       HT       0.417000       1.00800           0
     27291 TIP3     1615     TIP3     H2       HT       0.417000       1.00800           0
     27292 TIP3     1616     TIP3     OH2      OT      -0.834000       15.9994           0
     27293 TIP3     1616     TIP3     H1       HT       0.417000       1.00800           0
     27294 TIP3     1616     TIP3     H2       HT       0.417000       1.00800           0
     27295 TIP3     1617     TIP3     OH2      OT      -0.834000       15.9994           0
     27296 TIP3     1617     TIP3     H1       HT       0.417000       1.00800           0
     27297 TIP3     1617     TIP3     H2       HT       0.417000       1.00800           0
     27298 TIP3     1618     TIP3     OH2      OT      -0.834000       15.9994           0
     27299 TIP3     1618     TIP3     H1       HT       0.417000       1.00800           0
     27300 TIP3     1618     TIP3     H2       HT       0.417000       1.00800           0
     27301 TIP3     1619     TIP3     OH2      OT      -0.834000       15.9994           0
     27302 TIP3     1619     TIP3     H1       HT       0.417000       1.00800           0
     27303 TIP3     1619     TIP3     H2       HT       0.417000       1.00800           0
     27304 TIP3     1620     TIP3     OH2      OT      -0.834000       15.9994           0
     27305 TIP3     1620     TIP3     H1       HT       0.417000       1.00800           0
     27306 TIP3     1620     TIP3     H2       HT       0.417000       1.00800           0
     27307 TIP3     1621     TIP3     OH2      OT      -0.834000       15.9994           0
     27308 TIP3     1621     TIP3     H1       HT       0.417000       1.00800           0
     27309 TIP3     1621     TIP3     H2       HT       0.417000       1.00800           0
     27310 TIP3     1622     TIP3     OH2      OT      -0.834000       15.9994           0
     27311 TIP3     1622     TIP3     H1       HT       0.417000       1.00800           0
     27312 TIP3     1622     TIP3     H2       HT       0.417000       1.00800           0
     27313 TIP3     1623     TIP3     OH2      OT      -0.834000       15.9994           0
     27314 TIP3     1623     TIP3     H1       HT       0.417000       1.00800           0
     27315 TIP3     1623     TIP3     H2       HT       0.417000       1.00800           0
     27316 TIP3     1624     TIP3     OH2      OT      -0.834000       15.9994           0
     27317 TIP3     1624     TIP3     H1       HT       0.417000       1.00800           0
     27318 TIP3     1624     TIP3     H2       HT       0.417000       1.00800           0
     27319 TIP3     1625     TIP3     OH2      OT      -0.834000       15.9994           0
     27320 TIP3     1625     TIP3     H1       HT       0.417000       1.00800           0
     27321 TIP3     1625     TIP3     H2       HT       0.417000       1.00800           0
     27322 TIP3     1626     TIP3     OH2      OT      -0.834000       15.9994           0
     27323 TIP3     1626     TIP3     H1       HT       0.417000       1.00800           0
     27324 TIP3     1626     TIP3     H2       HT       0.417000       1.00800           0
     27325 TIP3     1627     TIP3     OH2      OT      -0.834000       15.9994           0
     27326 TIP3     1627     TIP3     H1       HT       0.417000       1.00800           0
     27327 TIP3     1627     TIP3     H2       HT       0.417000       1.00800           0
     27328 TIP3     1628     TIP3     OH2      OT      -0.834000       15.9994           0
     27329 TIP3     1628     TIP3     H1       HT       0.417000       1.00800           0
     27330 TIP3     1628     TIP3     H2       HT       0.417000       1.00800           0
     27331 TIP3     1629     TIP3     OH2      OT      -0.834000       15.9994           0
     27332 TIP3     1629     TIP3     H1       HT       0.417000       1.00800           0
     27333 TIP3     1629     TIP3     H2       HT       0.417000       1.00800           0
     27334 TIP3     1630     TIP3     OH2      OT      -0.834000       15.9994           0
     27335 TIP3     1630     TIP3     H1       HT       0.417000       1.00800           0
     27336 TIP3     1630     TIP3     H2       HT       0.417000       1.00800           0
     27337 TIP3     1631     TIP3     OH2      OT      -0.834000       15.9994           0
     27338 TIP3     1631     TIP3     H1       HT       0.417000       1.00800           0
     27339 TIP3     1631     TIP3     H2       HT       0.417000       1.00800           0
     27340 TIP3     1632     TIP3     OH2      OT      -0.834000       15.9994           0
     27341 TIP3     1632     TIP3     H1       HT       0.417000       1.00800           0
     27342 TIP3     1632     TIP3     H2       HT       0.417000       1.00800           0
     27343 TIP3     1633     TIP3     OH2      OT      -0.834000       15.9994           0
     27344 TIP3     1633     TIP3     H1       HT       0.417000       1.00800           0
     27345 TIP3     1633     TIP3     H2       HT       0.417000       1.00800           0
     27346 TIP3     1634     TIP3     OH2      OT      -0.834000       15.9994           0
     27347 TIP3     1634     TIP3     H1       HT       0.417000       1.00800           0
     27348 TIP3     1634     TIP3     H2       HT       0.417000       1.00800           0
     27349 TIP3     1635     TIP3     OH2      OT      -0.834000       15.9994           0
     27350 TIP3     1635     TIP3     H1       HT       0.417000       1.00800           0
     27351 TIP3     1635     TIP3     H2       HT       0.417000       1.00800           0
     27352 TIP3     1636     TIP3     OH2      OT      -0.834000       15.9994           0
     27353 TIP3     1636     TIP3     H1       HT       0.417000       1.00800           0
     27354 TIP3     1636     TIP3     H2       HT       0.417000       1.00800           0
     27355 TIP3     1637     TIP3     OH2      OT      -0.834000       15.9994           0
     27356 TIP3     1637     TIP3     H1       HT       0.417000       1.00800           0
     27357 TIP3     1637     TIP3     H2       HT       0.417000       1.00800           0
     27358 TIP3     1638     TIP3     OH2      OT      -0.834000       15.9994           0
     27359 TIP3     1638     TIP3     H1       HT       0.417000       1.00800           0
     27360 TIP3     1638     TIP3     H2       HT       0.417000       1.00800           0
     27361 TIP3     1639     TIP3     OH2      OT      -0.834000       15.9994           0
     27362 TIP3     1639     TIP3     H1       HT       0.417000       1.00800           0
     27363 TIP3     1639     TIP3     H2       HT       0.417000       1.00800           0
     27364 TIP3     1640     TIP3     OH2      OT      -0.834000       15.9994           0
     27365 TIP3     1640     TIP3     H1       HT       0.417000       1.00800           0
     27366 TIP3     1640     TIP3     H2       HT       0.417000       1.00800           0
     27367 TIP3     1641     TIP3     OH2      OT      -0.834000       15.9994           0
     27368 TIP3     1641     TIP3     H1       HT       0.417000       1.00800           0
     27369 TIP3     1641     TIP3     H2       HT       0.417000       1.00800           0
     27370 TIP3     1642     TIP3     OH2      OT      -0.834000       15.9994           0
     27371 TIP3     1642     TIP3     H1       HT       0.417000       1.00800           0
     27372 TIP3     1642     TIP3     H2       HT       0.417000       1.00800           0
     27373 TIP3     1643     TIP3     OH2      OT      -0.834000       15.9994           0
     27374 TIP3     1643     TIP3     H1       HT       0.417000       1.00800           0
     27375 TIP3     1643     TIP3     H2       HT       0.417000       1.00800           0
     27376 TIP3     1644     TIP3     OH2      OT      -0.834000       15.9994           0
     27377 TIP3     1644     TIP3     H1       HT       0.417000       1.00800           0
     27378 TIP3     1644     TIP3     H2       HT       0.417000       1.00800           0
     27379 TIP3     1645     TIP3     OH2      OT      -0.834000       15.9994           0
     27380 TIP3     1645     TIP3     H1       HT       0.417000       1.00800           0
     27381 TIP3     1645     TIP3     H2       HT       0.417000       1.00800           0
     27382 TIP3     1646     TIP3     OH2      OT      -0.834000       15.9994           0
     27383 TIP3     1646     TIP3     H1       HT       0.417000       1.00800           0
     27384 TIP3     1646     TIP3     H2       HT       0.417000       1.00800           0
     27385 TIP3     1647     TIP3     OH2      OT      -0.834000       15.9994           0
     27386 TIP3     1647     TIP3     H1       HT       0.417000       1.00800           0
     27387 TIP3     1647     TIP3     H2       HT       0.417000       1.00800           0
     27388 TIP3     1648     TIP3     OH2      OT      -0.834000       15.9994           0
     27389 TIP3     1648     TIP3     H1       HT       0.417000       1.00800           0
     27390 TIP3     1648     TIP3     H2       HT       0.417000       1.00800           0
     27391 TIP3     1649     TIP3     OH2      OT      -0.834000       15.9994           0
     27392 TIP3     1649     TIP3     H1       HT       0.417000       1.00800           0
     27393 TIP3     1649     TIP3     H2       HT       0.417000       1.00800           0
     27394 TIP3     1650     TIP3     OH2      OT      -0.834000       15.9994           0
     27395 TIP3     1650     TIP3     H1       HT       0.417000       1.00800           0
     27396 TIP3     1650     TIP3     H2       HT       0.417000       1.00800           0
     27397 TIP3     1651     TIP3     OH2      OT      -0.834000       15.9994           0
     27398 TIP3     1651     TIP3     H1       HT       0.417000       1.00800           0
     27399 TIP3     1651     TIP3     H2       HT       0.417000       1.00800           0
     27400 TIP3     1652     TIP3     OH2      OT      -0.834000       15.9994           0
     27401 TIP3     1652     TIP3     H1       HT       0.417000       1.00800           0
     27402 TIP3     1652     TIP3     H2       HT       0.417000       1.00800           0
     27403 TIP3     1653     TIP3     OH2      OT      -0.834000       15.9994           0
     27404 TIP3     1653     TIP3     H1       HT       0.417000       1.00800           0
     27405 TIP3     1653     TIP3     H2       HT       0.417000       1.00800           0
     27406 TIP3     1654     TIP3     OH2      OT      -0.834000       15.9994           0
     27407 TIP3     1654     TIP3     H1       HT       0.417000       1.00800           0
     27408 TIP3     1654     TIP3     H2       HT       0.417000       1.00800           0
     27409 TIP3     1655     TIP3     OH2      OT      -0.834000       15.9994           0
     27410 TIP3     1655     TIP3     H1       HT       0.417000       1.00800           0
     27411 TIP3     1655     TIP3     H2       HT       0.417000       1.00800           0
     27412 TIP3     1656     TIP3     OH2      OT      -0.834000       15.9994           0
     27413 TIP3     1656     TIP3     H1       HT       0.417000       1.00800           0
     27414 TIP3     1656     TIP3     H2       HT       0.417000       1.00800           0
     27415 TIP3     1657     TIP3     OH2      OT      -0.834000       15.9994           0
     27416 TIP3     1657     TIP3     H1       HT       0.417000       1.00800           0
     27417 TIP3     1657     TIP3     H2       HT       0.417000       1.00800           0
     27418 TIP3     1658     TIP3     OH2      OT      -0.834000       15.9994           0
     27419 TIP3     1658     TIP3     H1       HT       0.417000       1.00800           0
     27420 TIP3     1658     TIP3     H2       HT       0.417000       1.00800           0
     27421 TIP3     1659     TIP3     OH2      OT      -0.834000       15.9994           0
     27422 TIP3     1659     TIP3     H1       HT       0.417000       1.00800           0
     27423 TIP3     1659     TIP3     H2       HT       0.417000       1.00800           0
     27424 TIP3     1660     TIP3     OH2      OT      -0.834000       15.9994           0
     27425 TIP3     1660     TIP3     H1       HT       0.417000       1.00800           0
     27426 TIP3     1660     TIP3     H2       HT       0.417000       1.00800           0
     27427 TIP3     1661     TIP3     OH2      OT      -0.834000       15.9994           0
     27428 TIP3     1661     TIP3     H1       HT       0.417000       1.00800           0
     27429 TIP3     1661     TIP3     H2       HT       0.417000       1.00800           0
     27430 TIP3     1662     TIP3     OH2      OT      -0.834000       15.9994           0
     27431 TIP3     1662     TIP3     H1       HT       0.417000       1.00800           0
     27432 TIP3     1662     TIP3     H2       HT       0.417000       1.00800           0
     27433 TIP3     1663     TIP3     OH2      OT      -0.834000       15.9994           0
     27434 TIP3     1663     TIP3     H1       HT       0.417000       1.00800           0
     27435 TIP3     1663     TIP3     H2       HT       0.417000       1.00800           0
     27436 TIP3     1664     TIP3     OH2      OT      -0.834000       15.9994           0
     27437 TIP3     1664     TIP3     H1       HT       0.417000       1.00800           0
     27438 TIP3     1664     TIP3     H2       HT       0.417000       1.00800           0
     27439 TIP3     1665     TIP3     OH2      OT      -0.834000       15.9994           0
     27440 TIP3     1665     TIP3     H1       HT       0.417000       1.00800           0
     27441 TIP3     1665     TIP3     H2       HT       0.417000       1.00800           0
     27442 TIP3     1666     TIP3     OH2      OT      -0.834000       15.9994           0
     27443 TIP3     1666     TIP3     H1       HT       0.417000       1.00800           0
     27444 TIP3     1666     TIP3     H2       HT       0.417000       1.00800           0
     27445 TIP3     1667     TIP3     OH2      OT      -0.834000       15.9994           0
     27446 TIP3     1667     TIP3     H1       HT       0.417000       1.00800           0
     27447 TIP3     1667     TIP3     H2       HT       0.417000       1.00800           0
     27448 TIP3     1668     TIP3     OH2      OT      -0.834000       15.9994           0
     27449 TIP3     1668     TIP3     H1       HT       0.417000       1.00800           0
     27450 TIP3     1668     TIP3     H2       HT       0.417000       1.00800           0
     27451 TIP3     1669     TIP3     OH2      OT      -0.834000       15.9994           0
     27452 TIP3     1669     TIP3     H1       HT       0.417000       1.00800           0
     27453 TIP3     1669     TIP3     H2       HT       0.417000       1.00800           0
     27454 TIP3     1670     TIP3     OH2      OT      -0.834000       15.9994           0
     27455 TIP3     1670     TIP3     H1       HT       0.417000       1.00800           0
     27456 TIP3     1670     TIP3     H2       HT       0.417000       1.00800           0
     27457 TIP3     1671     TIP3     OH2      OT      -0.834000       15.9994           0
     27458 TIP3     1671     TIP3     H1       HT       0.417000       1.00800           0
     27459 TIP3     1671     TIP3     H2       HT       0.417000       1.00800           0
     27460 TIP3     1672     TIP3     OH2      OT      -0.834000       15.9994           0
     27461 TIP3     1672     TIP3     H1       HT       0.417000       1.00800           0
     27462 TIP3     1672     TIP3     H2       HT       0.417000       1.00800           0
     27463 TIP3     1673     TIP3     OH2      OT      -0.834000       15.9994           0
     27464 TIP3     1673     TIP3     H1       HT       0.417000       1.00800           0
     27465 TIP3     1673     TIP3     H2       HT       0.417000       1.00800           0
     27466 TIP3     1674     TIP3     OH2      OT      -0.834000       15.9994           0
     27467 TIP3     1674     TIP3     H1       HT       0.417000       1.00800           0
     27468 TIP3     1674     TIP3     H2       HT       0.417000       1.00800           0
     27469 TIP3     1675     TIP3     OH2      OT      -0.834000       15.9994           0
     27470 TIP3     1675     TIP3     H1       HT       0.417000       1.00800           0
     27471 TIP3     1675     TIP3     H2       HT       0.417000       1.00800           0
     27472 TIP3     1676     TIP3     OH2      OT      -0.834000       15.9994           0
     27473 TIP3     1676     TIP3     H1       HT       0.417000       1.00800           0
     27474 TIP3     1676     TIP3     H2       HT       0.417000       1.00800           0
     27475 TIP3     1677     TIP3     OH2      OT      -0.834000       15.9994           0
     27476 TIP3     1677     TIP3     H1       HT       0.417000       1.00800           0
     27477 TIP3     1677     TIP3     H2       HT       0.417000       1.00800           0
     27478 TIP3     1678     TIP3     OH2      OT      -0.834000       15.9994           0
     27479 TIP3     1678     TIP3     H1       HT       0.417000       1.00800           0
     27480 TIP3     1678     TIP3     H2       HT       0.417000       1.00800           0
     27481 TIP3     1679     TIP3     OH2      OT      -0.834000       15.9994           0
     27482 TIP3     1679     TIP3     H1       HT       0.417000       1.00800           0
     27483 TIP3     1679     TIP3     H2       HT       0.417000       1.00800           0
     27484 TIP3     1680     TIP3     OH2      OT      -0.834000       15.9994           0
     27485 TIP3     1680     TIP3     H1       HT       0.417000       1.00800           0
     27486 TIP3     1680     TIP3     H2       HT       0.417000       1.00800           0
     27487 TIP3     1681     TIP3     OH2      OT      -0.834000       15.9994           0
     27488 TIP3     1681     TIP3     H1       HT       0.417000       1.00800           0
     27489 TIP3     1681     TIP3     H2       HT       0.417000       1.00800           0
     27490 TIP3     1682     TIP3     OH2      OT      -0.834000       15.9994           0
     27491 TIP3     1682     TIP3     H1       HT       0.417000       1.00800           0
     27492 TIP3     1682     TIP3     H2       HT       0.417000       1.00800           0
     27493 TIP3     1683     TIP3     OH2      OT      -0.834000       15.9994           0
     27494 TIP3     1683     TIP3     H1       HT       0.417000       1.00800           0
     27495 TIP3     1683     TIP3     H2       HT       0.417000       1.00800           0
     27496 TIP3     1684     TIP3     OH2      OT      -0.834000       15.9994           0
     27497 TIP3     1684     TIP3     H1       HT       0.417000       1.00800           0
     27498 TIP3     1684     TIP3     H2       HT       0.417000       1.00800           0
     27499 TIP3     1685     TIP3     OH2      OT      -0.834000       15.9994           0
     27500 TIP3     1685     TIP3     H1       HT       0.417000       1.00800           0
     27501 TIP3     1685     TIP3     H2       HT       0.417000       1.00800           0
     27502 TIP3     1686     TIP3     OH2      OT      -0.834000       15.9994           0
     27503 TIP3     1686     TIP3     H1       HT       0.417000       1.00800           0
     27504 TIP3     1686     TIP3     H2       HT       0.417000       1.00800           0
     27505 TIP3     1687     TIP3     OH2      OT      -0.834000       15.9994           0
     27506 TIP3     1687     TIP3     H1       HT       0.417000       1.00800           0
     27507 TIP3     1687     TIP3     H2       HT       0.417000       1.00800           0
     27508 TIP3     1688     TIP3     OH2      OT      -0.834000       15.9994           0
     27509 TIP3     1688     TIP3     H1       HT       0.417000       1.00800           0
     27510 TIP3     1688     TIP3     H2       HT       0.417000       1.00800           0
     27511 TIP3     1689     TIP3     OH2      OT      -0.834000       15.9994           0
     27512 TIP3     1689     TIP3     H1       HT       0.417000       1.00800           0
     27513 TIP3     1689     TIP3     H2       HT       0.417000       1.00800           0
     27514 TIP3     1690     TIP3     OH2      OT      -0.834000       15.9994           0
     27515 TIP3     1690     TIP3     H1       HT       0.417000       1.00800           0
     27516 TIP3     1690     TIP3     H2       HT       0.417000       1.00800           0
     27517 TIP3     1691     TIP3     OH2      OT      -0.834000       15.9994           0
     27518 TIP3     1691     TIP3     H1       HT       0.417000       1.00800           0
     27519 TIP3     1691     TIP3     H2       HT       0.417000       1.00800           0
     27520 TIP3     1692     TIP3     OH2      OT      -0.834000       15.9994           0
     27521 TIP3     1692     TIP3     H1       HT       0.417000       1.00800           0
     27522 TIP3     1692     TIP3     H2       HT       0.417000       1.00800           0
     27523 TIP3     1693     TIP3     OH2      OT      -0.834000       15.9994           0
     27524 TIP3     1693     TIP3     H1       HT       0.417000       1.00800           0
     27525 TIP3     1693     TIP3     H2       HT       0.417000       1.00800           0
     27526 TIP3     1694     TIP3     OH2      OT      -0.834000       15.9994           0
     27527 TIP3     1694     TIP3     H1       HT       0.417000       1.00800           0
     27528 TIP3     1694     TIP3     H2       HT       0.417000       1.00800           0
     27529 TIP3     1695     TIP3     OH2      OT      -0.834000       15.9994           0
     27530 TIP3     1695     TIP3     H1       HT       0.417000       1.00800           0
     27531 TIP3     1695     TIP3     H2       HT       0.417000       1.00800           0
     27532 TIP3     1696     TIP3     OH2      OT      -0.834000       15.9994           0
     27533 TIP3     1696     TIP3     H1       HT       0.417000       1.00800           0
     27534 TIP3     1696     TIP3     H2       HT       0.417000       1.00800           0
     27535 TIP3     1697     TIP3     OH2      OT      -0.834000       15.9994           0
     27536 TIP3     1697     TIP3     H1       HT       0.417000       1.00800           0
     27537 TIP3     1697     TIP3     H2       HT       0.417000       1.00800           0
     27538 TIP3     1698     TIP3     OH2      OT      -0.834000       15.9994           0
     27539 TIP3     1698     TIP3     H1       HT       0.417000       1.00800           0
     27540 TIP3     1698     TIP3     H2       HT       0.417000       1.00800           0
     27541 TIP3     1699     TIP3     OH2      OT      -0.834000       15.9994           0
     27542 TIP3     1699     TIP3     H1       HT       0.417000       1.00800           0
     27543 TIP3     1699     TIP3     H2       HT       0.417000       1.00800           0
     27544 TIP3     1700     TIP3     OH2      OT      -0.834000       15.9994           0
     27545 TIP3     1700     TIP3     H1       HT       0.417000       1.00800           0
     27546 TIP3     1700     TIP3     H2       HT       0.417000       1.00800           0
     27547 TIP3     1701     TIP3     OH2      OT      -0.834000       15.9994           0
     27548 TIP3     1701     TIP3     H1       HT       0.417000       1.00800           0
     27549 TIP3     1701     TIP3     H2       HT       0.417000       1.00800           0
     27550 TIP3     1702     TIP3     OH2      OT      -0.834000       15.9994           0
     27551 TIP3     1702     TIP3     H1       HT       0.417000       1.00800           0
     27552 TIP3     1702     TIP3     H2       HT       0.417000       1.00800           0
     27553 TIP3     1703     TIP3     OH2      OT      -0.834000       15.9994           0
     27554 TIP3     1703     TIP3     H1       HT       0.417000       1.00800           0
     27555 TIP3     1703     TIP3     H2       HT       0.417000       1.00800           0
     27556 TIP3     1704     TIP3     OH2      OT      -0.834000       15.9994           0
     27557 TIP3     1704     TIP3     H1       HT       0.417000       1.00800           0
     27558 TIP3     1704     TIP3     H2       HT       0.417000       1.00800           0
     27559 TIP3     1705     TIP3     OH2      OT      -0.834000       15.9994           0
     27560 TIP3     1705     TIP3     H1       HT       0.417000       1.00800           0
     27561 TIP3     1705     TIP3     H2       HT       0.417000       1.00800           0
     27562 TIP3     1706     TIP3     OH2      OT      -0.834000       15.9994           0
     27563 TIP3     1706     TIP3     H1       HT       0.417000       1.00800           0
     27564 TIP3     1706     TIP3     H2       HT       0.417000       1.00800           0
     27565 TIP3     1707     TIP3     OH2      OT      -0.834000       15.9994           0
     27566 TIP3     1707     TIP3     H1       HT       0.417000       1.00800           0
     27567 TIP3     1707     TIP3     H2       HT       0.417000       1.00800           0
     27568 TIP3     1708     TIP3     OH2      OT      -0.834000       15.9994           0
     27569 TIP3     1708     TIP3     H1       HT       0.417000       1.00800           0
     27570 TIP3     1708     TIP3     H2       HT       0.417000       1.00800           0
     27571 TIP3     1709     TIP3     OH2      OT      -0.834000       15.9994           0
     27572 TIP3     1709     TIP3     H1       HT       0.417000       1.00800           0
     27573 TIP3     1709     TIP3     H2       HT       0.417000       1.00800           0
     27574 TIP3     1710     TIP3     OH2      OT      -0.834000       15.9994           0
     27575 TIP3     1710     TIP3     H1       HT       0.417000       1.00800           0
     27576 TIP3     1710     TIP3     H2       HT       0.417000       1.00800           0
     27577 TIP3     1711     TIP3     OH2      OT      -0.834000       15.9994           0
     27578 TIP3     1711     TIP3     H1       HT       0.417000       1.00800           0
     27579 TIP3     1711     TIP3     H2       HT       0.417000       1.00800           0
     27580 TIP3     1712     TIP3     OH2      OT      -0.834000       15.9994           0
     27581 TIP3     1712     TIP3     H1       HT       0.417000       1.00800           0
     27582 TIP3     1712     TIP3     H2       HT       0.417000       1.00800           0
     27583 TIP3     1713     TIP3     OH2      OT      -0.834000       15.9994           0
     27584 TIP3     1713     TIP3     H1       HT       0.417000       1.00800           0
     27585 TIP3     1713     TIP3     H2       HT       0.417000       1.00800           0
     27586 TIP3     1714     TIP3     OH2      OT      -0.834000       15.9994           0
     27587 TIP3     1714     TIP3     H1       HT       0.417000       1.00800           0
     27588 TIP3     1714     TIP3     H2       HT       0.417000       1.00800           0
     27589 TIP3     1715     TIP3     OH2      OT      -0.834000       15.9994           0
     27590 TIP3     1715     TIP3     H1       HT       0.417000       1.00800           0
     27591 TIP3     1715     TIP3     H2       HT       0.417000       1.00800           0
     27592 TIP3     1716     TIP3     OH2      OT      -0.834000       15.9994           0
     27593 TIP3     1716     TIP3     H1       HT       0.417000       1.00800           0
     27594 TIP3     1716     TIP3     H2       HT       0.417000       1.00800           0
     27595 TIP3     1717     TIP3     OH2      OT      -0.834000       15.9994           0
     27596 TIP3     1717     TIP3     H1       HT       0.417000       1.00800           0
     27597 TIP3     1717     TIP3     H2       HT       0.417000       1.00800           0
     27598 TIP3     1718     TIP3     OH2      OT      -0.834000       15.9994           0
     27599 TIP3     1718     TIP3     H1       HT       0.417000       1.00800           0
     27600 TIP3     1718     TIP3     H2       HT       0.417000       1.00800           0
     27601 TIP3     1719     TIP3     OH2      OT      -0.834000       15.9994           0
     27602 TIP3     1719     TIP3     H1       HT       0.417000       1.00800           0
     27603 TIP3     1719     TIP3     H2       HT       0.417000       1.00800           0
     27604 TIP3     1720     TIP3     OH2      OT      -0.834000       15.9994           0
     27605 TIP3     1720     TIP3     H1       HT       0.417000       1.00800           0
     27606 TIP3     1720     TIP3     H2       HT       0.417000       1.00800           0
     27607 TIP3     1721     TIP3     OH2      OT      -0.834000       15.9994           0
     27608 TIP3     1721     TIP3     H1       HT       0.417000       1.00800           0
     27609 TIP3     1721     TIP3     H2       HT       0.417000       1.00800           0
     27610 TIP3     1722     TIP3     OH2      OT      -0.834000       15.9994           0
     27611 TIP3     1722     TIP3     H1       HT       0.417000       1.00800           0
     27612 TIP3     1722     TIP3     H2       HT       0.417000       1.00800           0
     27613 TIP3     1723     TIP3     OH2      OT      -0.834000       15.9994           0
     27614 TIP3     1723     TIP3     H1       HT       0.417000       1.00800           0
     27615 TIP3     1723     TIP3     H2       HT       0.417000       1.00800           0
     27616 TIP3     1724     TIP3     OH2      OT      -0.834000       15.9994           0
     27617 TIP3     1724     TIP3     H1       HT       0.417000       1.00800           0
     27618 TIP3     1724     TIP3     H2       HT       0.417000       1.00800           0
     27619 TIP3     1725     TIP3     OH2      OT      -0.834000       15.9994           0
     27620 TIP3     1725     TIP3     H1       HT       0.417000       1.00800           0
     27621 TIP3     1725     TIP3     H2       HT       0.417000       1.00800           0
     27622 TIP3     1726     TIP3     OH2      OT      -0.834000       15.9994           0
     27623 TIP3     1726     TIP3     H1       HT       0.417000       1.00800           0
     27624 TIP3     1726     TIP3     H2       HT       0.417000       1.00800           0
     27625 TIP3     1727     TIP3     OH2      OT      -0.834000       15.9994           0
     27626 TIP3     1727     TIP3     H1       HT       0.417000       1.00800           0
     27627 TIP3     1727     TIP3     H2       HT       0.417000       1.00800           0
     27628 TIP3     1728     TIP3     OH2      OT      -0.834000       15.9994           0
     27629 TIP3     1728     TIP3     H1       HT       0.417000       1.00800           0
     27630 TIP3     1728     TIP3     H2       HT       0.417000       1.00800           0
     27631 TIP3     1729     TIP3     OH2      OT      -0.834000       15.9994           0
     27632 TIP3     1729     TIP3     H1       HT       0.417000       1.00800           0
     27633 TIP3     1729     TIP3     H2       HT       0.417000       1.00800           0
     27634 TIP3     1730     TIP3     OH2      OT      -0.834000       15.9994           0
     27635 TIP3     1730     TIP3     H1       HT       0.417000       1.00800           0
     27636 TIP3     1730     TIP3     H2       HT       0.417000       1.00800           0
     27637 TIP3     1731     TIP3     OH2      OT      -0.834000       15.9994           0
     27638 TIP3     1731     TIP3     H1       HT       0.417000       1.00800           0
     27639 TIP3     1731     TIP3     H2       HT       0.417000       1.00800           0
     27640 TIP3     1732     TIP3     OH2      OT      -0.834000       15.9994           0
     27641 TIP3     1732     TIP3     H1       HT       0.417000       1.00800           0
     27642 TIP3     1732     TIP3     H2       HT       0.417000       1.00800           0
     27643 TIP3     1733     TIP3     OH2      OT      -0.834000       15.9994           0
     27644 TIP3     1733     TIP3     H1       HT       0.417000       1.00800           0
     27645 TIP3     1733     TIP3     H2       HT       0.417000       1.00800           0
     27646 TIP3     1734     TIP3     OH2      OT      -0.834000       15.9994           0
     27647 TIP3     1734     TIP3     H1       HT       0.417000       1.00800           0
     27648 TIP3     1734     TIP3     H2       HT       0.417000       1.00800           0
     27649 TIP3     1735     TIP3     OH2      OT      -0.834000       15.9994           0
     27650 TIP3     1735     TIP3     H1       HT       0.417000       1.00800           0
     27651 TIP3     1735     TIP3     H2       HT       0.417000       1.00800           0
     27652 TIP3     1736     TIP3     OH2      OT      -0.834000       15.9994           0
     27653 TIP3     1736     TIP3     H1       HT       0.417000       1.00800           0
     27654 TIP3     1736     TIP3     H2       HT       0.417000       1.00800           0
     27655 TIP3     1737     TIP3     OH2      OT      -0.834000       15.9994           0
     27656 TIP3     1737     TIP3     H1       HT       0.417000       1.00800           0
     27657 TIP3     1737     TIP3     H2       HT       0.417000       1.00800           0
     27658 TIP3     1738     TIP3     OH2      OT      -0.834000       15.9994           0
     27659 TIP3     1738     TIP3     H1       HT       0.417000       1.00800           0
     27660 TIP3     1738     TIP3     H2       HT       0.417000       1.00800           0
     27661 TIP3     1739     TIP3     OH2      OT      -0.834000       15.9994           0
     27662 TIP3     1739     TIP3     H1       HT       0.417000       1.00800           0
     27663 TIP3     1739     TIP3     H2       HT       0.417000       1.00800           0
     27664 TIP3     1740     TIP3     OH2      OT      -0.834000       15.9994           0
     27665 TIP3     1740     TIP3     H1       HT       0.417000       1.00800           0
     27666 TIP3     1740     TIP3     H2       HT       0.417000       1.00800           0
     27667 TIP3     1741     TIP3     OH2      OT      -0.834000       15.9994           0
     27668 TIP3     1741     TIP3     H1       HT       0.417000       1.00800           0
     27669 TIP3     1741     TIP3     H2       HT       0.417000       1.00800           0
     27670 TIP3     1742     TIP3     OH2      OT      -0.834000       15.9994           0
     27671 TIP3     1742     TIP3     H1       HT       0.417000       1.00800           0
     27672 TIP3     1742     TIP3     H2       HT       0.417000       1.00800           0
     27673 TIP3     1743     TIP3     OH2      OT      -0.834000       15.9994           0
     27674 TIP3     1743     TIP3     H1       HT       0.417000       1.00800           0
     27675 TIP3     1743     TIP3     H2       HT       0.417000       1.00800           0
     27676 TIP3     1744     TIP3     OH2      OT      -0.834000       15.9994           0
     27677 TIP3     1744     TIP3     H1       HT       0.417000       1.00800           0
     27678 TIP3     1744     TIP3     H2       HT       0.417000       1.00800           0
     27679 TIP3     1745     TIP3     OH2      OT      -0.834000       15.9994           0
     27680 TIP3     1745     TIP3     H1       HT       0.417000       1.00800           0
     27681 TIP3     1745     TIP3     H2       HT       0.417000       1.00800           0
     27682 TIP3     1746     TIP3     OH2      OT      -0.834000       15.9994           0
     27683 TIP3     1746     TIP3     H1       HT       0.417000       1.00800           0
     27684 TIP3     1746     TIP3     H2       HT       0.417000       1.00800           0
     27685 TIP3     1747     TIP3     OH2      OT      -0.834000       15.9994           0
     27686 TIP3     1747     TIP3     H1       HT       0.417000       1.00800           0
     27687 TIP3     1747     TIP3     H2       HT       0.417000       1.00800           0
     27688 TIP3     1748     TIP3     OH2      OT      -0.834000       15.9994           0
     27689 TIP3     1748     TIP3     H1       HT       0.417000       1.00800           0
     27690 TIP3     1748     TIP3     H2       HT       0.417000       1.00800           0
     27691 TIP3     1749     TIP3     OH2      OT      -0.834000       15.9994           0
     27692 TIP3     1749     TIP3     H1       HT       0.417000       1.00800           0
     27693 TIP3     1749     TIP3     H2       HT       0.417000       1.00800           0
     27694 TIP3     1750     TIP3     OH2      OT      -0.834000       15.9994           0
     27695 TIP3     1750     TIP3     H1       HT       0.417000       1.00800           0
     27696 TIP3     1750     TIP3     H2       HT       0.417000       1.00800           0
     27697 TIP3     1751     TIP3     OH2      OT      -0.834000       15.9994           0
     27698 TIP3     1751     TIP3     H1       HT       0.417000       1.00800           0
     27699 TIP3     1751     TIP3     H2       HT       0.417000       1.00800           0
     27700 TIP3     1752     TIP3     OH2      OT      -0.834000       15.9994           0
     27701 TIP3     1752     TIP3     H1       HT       0.417000       1.00800           0
     27702 TIP3     1752     TIP3     H2       HT       0.417000       1.00800           0
     27703 TIP3     1753     TIP3     OH2      OT      -0.834000       15.9994           0
     27704 TIP3     1753     TIP3     H1       HT       0.417000       1.00800           0
     27705 TIP3     1753     TIP3     H2       HT       0.417000       1.00800           0
     27706 TIP3     1754     TIP3     OH2      OT      -0.834000       15.9994           0
     27707 TIP3     1754     TIP3     H1       HT       0.417000       1.00800           0
     27708 TIP3     1754     TIP3     H2       HT       0.417000       1.00800           0
     27709 TIP3     1755     TIP3     OH2      OT      -0.834000       15.9994           0
     27710 TIP3     1755     TIP3     H1       HT       0.417000       1.00800           0
     27711 TIP3     1755     TIP3     H2       HT       0.417000       1.00800           0
     27712 TIP3     1756     TIP3     OH2      OT      -0.834000       15.9994           0
     27713 TIP3     1756     TIP3     H1       HT       0.417000       1.00800           0
     27714 TIP3     1756     TIP3     H2       HT       0.417000       1.00800           0
     27715 TIP3     1757     TIP3     OH2      OT      -0.834000       15.9994           0
     27716 TIP3     1757     TIP3     H1       HT       0.417000       1.00800           0
     27717 TIP3     1757     TIP3     H2       HT       0.417000       1.00800           0
     27718 TIP3     1758     TIP3     OH2      OT      -0.834000       15.9994           0
     27719 TIP3     1758     TIP3     H1       HT       0.417000       1.00800           0
     27720 TIP3     1758     TIP3     H2       HT       0.417000       1.00800           0
     27721 TIP3     1759     TIP3     OH2      OT      -0.834000       15.9994           0
     27722 TIP3     1759     TIP3     H1       HT       0.417000       1.00800           0
     27723 TIP3     1759     TIP3     H2       HT       0.417000       1.00800           0
     27724 TIP3     1760     TIP3     OH2      OT      -0.834000       15.9994           0
     27725 TIP3     1760     TIP3     H1       HT       0.417000       1.00800           0
     27726 TIP3     1760     TIP3     H2       HT       0.417000       1.00800           0
     27727 TIP3     1761     TIP3     OH2      OT      -0.834000       15.9994           0
     27728 TIP3     1761     TIP3     H1       HT       0.417000       1.00800           0
     27729 TIP3     1761     TIP3     H2       HT       0.417000       1.00800           0
     27730 TIP3     1762     TIP3     OH2      OT      -0.834000       15.9994           0
     27731 TIP3     1762     TIP3     H1       HT       0.417000       1.00800           0
     27732 TIP3     1762     TIP3     H2       HT       0.417000       1.00800           0
     27733 TIP3     1763     TIP3     OH2      OT      -0.834000       15.9994           0
     27734 TIP3     1763     TIP3     H1       HT       0.417000       1.00800           0
     27735 TIP3     1763     TIP3     H2       HT       0.417000       1.00800           0
     27736 TIP3     1764     TIP3     OH2      OT      -0.834000       15.9994           0
     27737 TIP3     1764     TIP3     H1       HT       0.417000       1.00800           0
     27738 TIP3     1764     TIP3     H2       HT       0.417000       1.00800           0
     27739 TIP3     1765     TIP3     OH2      OT      -0.834000       15.9994           0
     27740 TIP3     1765     TIP3     H1       HT       0.417000       1.00800           0
     27741 TIP3     1765     TIP3     H2       HT       0.417000       1.00800           0
     27742 TIP3     1766     TIP3     OH2      OT      -0.834000       15.9994           0
     27743 TIP3     1766     TIP3     H1       HT       0.417000       1.00800           0
     27744 TIP3     1766     TIP3     H2       HT       0.417000       1.00800           0
     27745 TIP3     1767     TIP3     OH2      OT      -0.834000       15.9994           0
     27746 TIP3     1767     TIP3     H1       HT       0.417000       1.00800           0
     27747 TIP3     1767     TIP3     H2       HT       0.417000       1.00800           0
     27748 TIP3     1768     TIP3     OH2      OT      -0.834000       15.9994           0
     27749 TIP3     1768     TIP3     H1       HT       0.417000       1.00800           0
     27750 TIP3     1768     TIP3     H2       HT       0.417000       1.00800           0
     27751 TIP3     1769     TIP3     OH2      OT      -0.834000       15.9994           0
     27752 TIP3     1769     TIP3     H1       HT       0.417000       1.00800           0
     27753 TIP3     1769     TIP3     H2       HT       0.417000       1.00800           0
     27754 TIP3     1770     TIP3     OH2      OT      -0.834000       15.9994           0
     27755 TIP3     1770     TIP3     H1       HT       0.417000       1.00800           0
     27756 TIP3     1770     TIP3     H2       HT       0.417000       1.00800           0
     27757 TIP3     1771     TIP3     OH2      OT      -0.834000       15.9994           0
     27758 TIP3     1771     TIP3     H1       HT       0.417000       1.00800           0
     27759 TIP3     1771     TIP3     H2       HT       0.417000       1.00800           0
     27760 TIP3     1772     TIP3     OH2      OT      -0.834000       15.9994           0
     27761 TIP3     1772     TIP3     H1       HT       0.417000       1.00800           0
     27762 TIP3     1772     TIP3     H2       HT       0.417000       1.00800           0
     27763 TIP3     1773     TIP3     OH2      OT      -0.834000       15.9994           0
     27764 TIP3     1773     TIP3     H1       HT       0.417000       1.00800           0
     27765 TIP3     1773     TIP3     H2       HT       0.417000       1.00800           0
     27766 TIP3     1774     TIP3     OH2      OT      -0.834000       15.9994           0
     27767 TIP3     1774     TIP3     H1       HT       0.417000       1.00800           0
     27768 TIP3     1774     TIP3     H2       HT       0.417000       1.00800           0
     27769 TIP3     1775     TIP3     OH2      OT      -0.834000       15.9994           0
     27770 TIP3     1775     TIP3     H1       HT       0.417000       1.00800           0
     27771 TIP3     1775     TIP3     H2       HT       0.417000       1.00800           0
     27772 TIP3     1776     TIP3     OH2      OT      -0.834000       15.9994           0
     27773 TIP3     1776     TIP3     H1       HT       0.417000       1.00800           0
     27774 TIP3     1776     TIP3     H2       HT       0.417000       1.00800           0
     27775 TIP3     1777     TIP3     OH2      OT      -0.834000       15.9994           0
     27776 TIP3     1777     TIP3     H1       HT       0.417000       1.00800           0
     27777 TIP3     1777     TIP3     H2       HT       0.417000       1.00800           0
     27778 TIP3     1778     TIP3     OH2      OT      -0.834000       15.9994           0
     27779 TIP3     1778     TIP3     H1       HT       0.417000       1.00800           0
     27780 TIP3     1778     TIP3     H2       HT       0.417000       1.00800           0
     27781 TIP3     1779     TIP3     OH2      OT      -0.834000       15.9994           0
     27782 TIP3     1779     TIP3     H1       HT       0.417000       1.00800           0
     27783 TIP3     1779     TIP3     H2       HT       0.417000       1.00800           0
     27784 TIP3     1780     TIP3     OH2      OT      -0.834000       15.9994           0
     27785 TIP3     1780     TIP3     H1       HT       0.417000       1.00800           0
     27786 TIP3     1780     TIP3     H2       HT       0.417000       1.00800           0
     27787 TIP3     1781     TIP3     OH2      OT      -0.834000       15.9994           0
     27788 TIP3     1781     TIP3     H1       HT       0.417000       1.00800           0
     27789 TIP3     1781     TIP3     H2       HT       0.417000       1.00800           0
     27790 TIP3     1782     TIP3     OH2      OT      -0.834000       15.9994           0
     27791 TIP3     1782     TIP3     H1       HT       0.417000       1.00800           0
     27792 TIP3     1782     TIP3     H2       HT       0.417000       1.00800           0
     27793 TIP3     1783     TIP3     OH2      OT      -0.834000       15.9994           0
     27794 TIP3     1783     TIP3     H1       HT       0.417000       1.00800           0
     27795 TIP3     1783     TIP3     H2       HT       0.417000       1.00800           0
     27796 TIP3     1784     TIP3     OH2      OT      -0.834000       15.9994           0
     27797 TIP3     1784     TIP3     H1       HT       0.417000       1.00800           0
     27798 TIP3     1784     TIP3     H2       HT       0.417000       1.00800           0
     27799 TIP3     1785     TIP3     OH2      OT      -0.834000       15.9994           0
     27800 TIP3     1785     TIP3     H1       HT       0.417000       1.00800           0
     27801 TIP3     1785     TIP3     H2       HT       0.417000       1.00800           0
     27802 TIP3     1786     TIP3     OH2      OT      -0.834000       15.9994           0
     27803 TIP3     1786     TIP3     H1       HT       0.417000       1.00800           0
     27804 TIP3     1786     TIP3     H2       HT       0.417000       1.00800           0
     27805 TIP3     1787     TIP3     OH2      OT      -0.834000       15.9994           0
     27806 TIP3     1787     TIP3     H1       HT       0.417000       1.00800           0
     27807 TIP3     1787     TIP3     H2       HT       0.417000       1.00800           0
     27808 TIP3     1788     TIP3     OH2      OT      -0.834000       15.9994           0
     27809 TIP3     1788     TIP3     H1       HT       0.417000       1.00800           0
     27810 TIP3     1788     TIP3     H2       HT       0.417000       1.00800           0
     27811 TIP3     1789     TIP3     OH2      OT      -0.834000       15.9994           0
     27812 TIP3     1789     TIP3     H1       HT       0.417000       1.00800           0
     27813 TIP3     1789     TIP3     H2       HT       0.417000       1.00800           0
     27814 TIP3     1790     TIP3     OH2      OT      -0.834000       15.9994           0
     27815 TIP3     1790     TIP3     H1       HT       0.417000       1.00800           0
     27816 TIP3     1790     TIP3     H2       HT       0.417000       1.00800           0
     27817 TIP3     1791     TIP3     OH2      OT      -0.834000       15.9994           0
     27818 TIP3     1791     TIP3     H1       HT       0.417000       1.00800           0
     27819 TIP3     1791     TIP3     H2       HT       0.417000       1.00800           0
     27820 TIP3     1792     TIP3     OH2      OT      -0.834000       15.9994           0
     27821 TIP3     1792     TIP3     H1       HT       0.417000       1.00800           0
     27822 TIP3     1792     TIP3     H2       HT       0.417000       1.00800           0
     27823 TIP3     1793     TIP3     OH2      OT      -0.834000       15.9994           0
     27824 TIP3     1793     TIP3     H1       HT       0.417000       1.00800           0
     27825 TIP3     1793     TIP3     H2       HT       0.417000       1.00800           0
     27826 TIP3     1794     TIP3     OH2      OT      -0.834000       15.9994           0
     27827 TIP3     1794     TIP3     H1       HT       0.417000       1.00800           0
     27828 TIP3     1794     TIP3     H2       HT       0.417000       1.00800           0
     27829 TIP3     1795     TIP3     OH2      OT      -0.834000       15.9994           0
     27830 TIP3     1795     TIP3     H1       HT       0.417000       1.00800           0
     27831 TIP3     1795     TIP3     H2       HT       0.417000       1.00800           0
     27832 TIP3     1796     TIP3     OH2      OT      -0.834000       15.9994           0
     27833 TIP3     1796     TIP3     H1       HT       0.417000       1.00800           0
     27834 TIP3     1796     TIP3     H2       HT       0.417000       1.00800           0
     27835 TIP3     1797     TIP3     OH2      OT      -0.834000       15.9994           0
     27836 TIP3     1797     TIP3     H1       HT       0.417000       1.00800           0
     27837 TIP3     1797     TIP3     H2       HT       0.417000       1.00800           0
     27838 TIP3     1798     TIP3     OH2      OT      -0.834000       15.9994           0
     27839 TIP3     1798     TIP3     H1       HT       0.417000       1.00800           0
     27840 TIP3     1798     TIP3     H2       HT       0.417000       1.00800           0
     27841 TIP3     1799     TIP3     OH2      OT      -0.834000       15.9994           0
     27842 TIP3     1799     TIP3     H1       HT       0.417000       1.00800           0
     27843 TIP3     1799     TIP3     H2       HT       0.417000       1.00800           0
     27844 TIP3     1800     TIP3     OH2      OT      -0.834000       15.9994           0
     27845 TIP3     1800     TIP3     H1       HT       0.417000       1.00800           0
     27846 TIP3     1800     TIP3     H2       HT       0.417000       1.00800           0
     27847 TIP3     1801     TIP3     OH2      OT      -0.834000       15.9994           0
     27848 TIP3     1801     TIP3     H1       HT       0.417000       1.00800           0
     27849 TIP3     1801     TIP3     H2       HT       0.417000       1.00800           0
     27850 TIP3     1802     TIP3     OH2      OT      -0.834000       15.9994           0
     27851 TIP3     1802     TIP3     H1       HT       0.417000       1.00800           0
     27852 TIP3     1802     TIP3     H2       HT       0.417000       1.00800           0
     27853 TIP3     1803     TIP3     OH2      OT      -0.834000       15.9994           0
     27854 TIP3     1803     TIP3     H1       HT       0.417000       1.00800           0
     27855 TIP3     1803     TIP3     H2       HT       0.417000       1.00800           0
     27856 TIP3     1804     TIP3     OH2      OT      -0.834000       15.9994           0
     27857 TIP3     1804     TIP3     H1       HT       0.417000       1.00800           0
     27858 TIP3     1804     TIP3     H2       HT       0.417000       1.00800           0
     27859 TIP3     1805     TIP3     OH2      OT      -0.834000       15.9994           0
     27860 TIP3     1805     TIP3     H1       HT       0.417000       1.00800           0
     27861 TIP3     1805     TIP3     H2       HT       0.417000       1.00800           0
     27862 TIP3     1806     TIP3     OH2      OT      -0.834000       15.9994           0
     27863 TIP3     1806     TIP3     H1       HT       0.417000       1.00800           0
     27864 TIP3     1806     TIP3     H2       HT       0.417000       1.00800           0
     27865 TIP3     1807     TIP3     OH2      OT      -0.834000       15.9994           0
     27866 TIP3     1807     TIP3     H1       HT       0.417000       1.00800           0
     27867 TIP3     1807     TIP3     H2       HT       0.417000       1.00800           0
     27868 TIP3     1808     TIP3     OH2      OT      -0.834000       15.9994           0
     27869 TIP3     1808     TIP3     H1       HT       0.417000       1.00800           0
     27870 TIP3     1808     TIP3     H2       HT       0.417000       1.00800           0
     27871 TIP3     1809     TIP3     OH2      OT      -0.834000       15.9994           0
     27872 TIP3     1809     TIP3     H1       HT       0.417000       1.00800           0
     27873 TIP3     1809     TIP3     H2       HT       0.417000       1.00800           0
     27874 TIP3     1810     TIP3     OH2      OT      -0.834000       15.9994           0
     27875 TIP3     1810     TIP3     H1       HT       0.417000       1.00800           0
     27876 TIP3     1810     TIP3     H2       HT       0.417000       1.00800           0
     27877 TIP3     1811     TIP3     OH2      OT      -0.834000       15.9994           0
     27878 TIP3     1811     TIP3     H1       HT       0.417000       1.00800           0
     27879 TIP3     1811     TIP3     H2       HT       0.417000       1.00800           0
     27880 TIP3     1812     TIP3     OH2      OT      -0.834000       15.9994           0
     27881 TIP3     1812     TIP3     H1       HT       0.417000       1.00800           0
     27882 TIP3     1812     TIP3     H2       HT       0.417000       1.00800           0
     27883 TIP3     1813     TIP3     OH2      OT      -0.834000       15.9994           0
     27884 TIP3     1813     TIP3     H1       HT       0.417000       1.00800           0
     27885 TIP3     1813     TIP3     H2       HT       0.417000       1.00800           0
     27886 TIP3     1814     TIP3     OH2      OT      -0.834000       15.9994           0
     27887 TIP3     1814     TIP3     H1       HT       0.417000       1.00800           0
     27888 TIP3     1814     TIP3     H2       HT       0.417000       1.00800           0
     27889 TIP3     1815     TIP3     OH2      OT      -0.834000       15.9994           0
     27890 TIP3     1815     TIP3     H1       HT       0.417000       1.00800           0
     27891 TIP3     1815     TIP3     H2       HT       0.417000       1.00800           0
     27892 TIP3     1816     TIP3     OH2      OT      -0.834000       15.9994           0
     27893 TIP3     1816     TIP3     H1       HT       0.417000       1.00800           0
     27894 TIP3     1816     TIP3     H2       HT       0.417000       1.00800           0
     27895 TIP3     1817     TIP3     OH2      OT      -0.834000       15.9994           0
     27896 TIP3     1817     TIP3     H1       HT       0.417000       1.00800           0
     27897 TIP3     1817     TIP3     H2       HT       0.417000       1.00800           0
     27898 TIP3     1818     TIP3     OH2      OT      -0.834000       15.9994           0
     27899 TIP3     1818     TIP3     H1       HT       0.417000       1.00800           0
     27900 TIP3     1818     TIP3     H2       HT       0.417000       1.00800           0
     27901 TIP3     1819     TIP3     OH2      OT      -0.834000       15.9994           0
     27902 TIP3     1819     TIP3     H1       HT       0.417000       1.00800           0
     27903 TIP3     1819     TIP3     H2       HT       0.417000       1.00800           0
     27904 TIP3     1820     TIP3     OH2      OT      -0.834000       15.9994           0
     27905 TIP3     1820     TIP3     H1       HT       0.417000       1.00800           0
     27906 TIP3     1820     TIP3     H2       HT       0.417000       1.00800           0
     27907 TIP3     1821     TIP3     OH2      OT      -0.834000       15.9994           0
     27908 TIP3     1821     TIP3     H1       HT       0.417000       1.00800           0
     27909 TIP3     1821     TIP3     H2       HT       0.417000       1.00800           0
     27910 TIP3     1822     TIP3     OH2      OT      -0.834000       15.9994           0
     27911 TIP3     1822     TIP3     H1       HT       0.417000       1.00800           0
     27912 TIP3     1822     TIP3     H2       HT       0.417000       1.00800           0
     27913 TIP3     1823     TIP3     OH2      OT      -0.834000       15.9994           0
     27914 TIP3     1823     TIP3     H1       HT       0.417000       1.00800           0
     27915 TIP3     1823     TIP3     H2       HT       0.417000       1.00800           0
     27916 TIP3     1824     TIP3     OH2      OT      -0.834000       15.9994           0
     27917 TIP3     1824     TIP3     H1       HT       0.417000       1.00800           0
     27918 TIP3     1824     TIP3     H2       HT       0.417000       1.00800           0
     27919 TIP3     1825     TIP3     OH2      OT      -0.834000       15.9994           0
     27920 TIP3     1825     TIP3     H1       HT       0.417000       1.00800           0
     27921 TIP3     1825     TIP3     H2       HT       0.417000       1.00800           0
     27922 TIP3     1826     TIP3     OH2      OT      -0.834000       15.9994           0
     27923 TIP3     1826     TIP3     H1       HT       0.417000       1.00800           0
     27924 TIP3     1826     TIP3     H2       HT       0.417000       1.00800           0
     27925 TIP3     1827     TIP3     OH2      OT      -0.834000       15.9994           0
     27926 TIP3     1827     TIP3     H1       HT       0.417000       1.00800           0
     27927 TIP3     1827     TIP3     H2       HT       0.417000       1.00800           0
     27928 TIP3     1828     TIP3     OH2      OT      -0.834000       15.9994           0
     27929 TIP3     1828     TIP3     H1       HT       0.417000       1.00800           0
     27930 TIP3     1828     TIP3     H2       HT       0.417000       1.00800           0
     27931 TIP3     1829     TIP3     OH2      OT      -0.834000       15.9994           0
     27932 TIP3     1829     TIP3     H1       HT       0.417000       1.00800           0
     27933 TIP3     1829     TIP3     H2       HT       0.417000       1.00800           0
     27934 TIP3     1830     TIP3     OH2      OT      -0.834000       15.9994           0
     27935 TIP3     1830     TIP3     H1       HT       0.417000       1.00800           0
     27936 TIP3     1830     TIP3     H2       HT       0.417000       1.00800           0
     27937 TIP3     1831     TIP3     OH2      OT      -0.834000       15.9994           0
     27938 TIP3     1831     TIP3     H1       HT       0.417000       1.00800           0
     27939 TIP3     1831     TIP3     H2       HT       0.417000       1.00800           0
     27940 TIP3     1832     TIP3     OH2      OT      -0.834000       15.9994           0
     27941 TIP3     1832     TIP3     H1       HT       0.417000       1.00800           0
     27942 TIP3     1832     TIP3     H2       HT       0.417000       1.00800           0
     27943 TIP3     1833     TIP3     OH2      OT      -0.834000       15.9994           0
     27944 TIP3     1833     TIP3     H1       HT       0.417000       1.00800           0
     27945 TIP3     1833     TIP3     H2       HT       0.417000       1.00800           0
     27946 TIP3     1834     TIP3     OH2      OT      -0.834000       15.9994           0
     27947 TIP3     1834     TIP3     H1       HT       0.417000       1.00800           0
     27948 TIP3     1834     TIP3     H2       HT       0.417000       1.00800           0
     27949 TIP3     1835     TIP3     OH2      OT      -0.834000       15.9994           0
     27950 TIP3     1835     TIP3     H1       HT       0.417000       1.00800           0
     27951 TIP3     1835     TIP3     H2       HT       0.417000       1.00800           0
     27952 TIP3     1836     TIP3     OH2      OT      -0.834000       15.9994           0
     27953 TIP3     1836     TIP3     H1       HT       0.417000       1.00800           0
     27954 TIP3     1836     TIP3     H2       HT       0.417000       1.00800           0
     27955 TIP3     1837     TIP3     OH2      OT      -0.834000       15.9994           0
     27956 TIP3     1837     TIP3     H1       HT       0.417000       1.00800           0
     27957 TIP3     1837     TIP3     H2       HT       0.417000       1.00800           0
     27958 TIP3     1838     TIP3     OH2      OT      -0.834000       15.9994           0
     27959 TIP3     1838     TIP3     H1       HT       0.417000       1.00800           0
     27960 TIP3     1838     TIP3     H2       HT       0.417000       1.00800           0
     27961 TIP3     1839     TIP3     OH2      OT      -0.834000       15.9994           0
     27962 TIP3     1839     TIP3     H1       HT       0.417000       1.00800           0
     27963 TIP3     1839     TIP3     H2       HT       0.417000       1.00800           0
     27964 TIP3     1840     TIP3     OH2      OT      -0.834000       15.9994           0
     27965 TIP3     1840     TIP3     H1       HT       0.417000       1.00800           0
     27966 TIP3     1840     TIP3     H2       HT       0.417000       1.00800           0
     27967 TIP3     1841     TIP3     OH2      OT      -0.834000       15.9994           0
     27968 TIP3     1841     TIP3     H1       HT       0.417000       1.00800           0
     27969 TIP3     1841     TIP3     H2       HT       0.417000       1.00800           0
     27970 TIP3     1842     TIP3     OH2      OT      -0.834000       15.9994           0
     27971 TIP3     1842     TIP3     H1       HT       0.417000       1.00800           0
     27972 TIP3     1842     TIP3     H2       HT       0.417000       1.00800           0
     27973 TIP3     1843     TIP3     OH2      OT      -0.834000       15.9994           0
     27974 TIP3     1843     TIP3     H1       HT       0.417000       1.00800           0
     27975 TIP3     1843     TIP3     H2       HT       0.417000       1.00800           0
     27976 TIP3     1844     TIP3     OH2      OT      -0.834000       15.9994           0
     27977 TIP3     1844     TIP3     H1       HT       0.417000       1.00800           0
     27978 TIP3     1844     TIP3     H2       HT       0.417000       1.00800           0
     27979 TIP3     1845     TIP3     OH2      OT      -0.834000       15.9994           0
     27980 TIP3     1845     TIP3     H1       HT       0.417000       1.00800           0
     27981 TIP3     1845     TIP3     H2       HT       0.417000       1.00800           0
     27982 TIP3     1846     TIP3     OH2      OT      -0.834000       15.9994           0
     27983 TIP3     1846     TIP3     H1       HT       0.417000       1.00800           0
     27984 TIP3     1846     TIP3     H2       HT       0.417000       1.00800           0
     27985 TIP3     1847     TIP3     OH2      OT      -0.834000       15.9994           0
     27986 TIP3     1847     TIP3     H1       HT       0.417000       1.00800           0
     27987 TIP3     1847     TIP3     H2       HT       0.417000       1.00800           0
     27988 TIP3     1848     TIP3     OH2      OT      -0.834000       15.9994           0
     27989 TIP3     1848     TIP3     H1       HT       0.417000       1.00800           0
     27990 TIP3     1848     TIP3     H2       HT       0.417000       1.00800           0
     27991 TIP3     1849     TIP3     OH2      OT      -0.834000       15.9994           0
     27992 TIP3     1849     TIP3     H1       HT       0.417000       1.00800           0
     27993 TIP3     1849     TIP3     H2       HT       0.417000       1.00800           0
     27994 TIP3     1850     TIP3     OH2      OT      -0.834000       15.9994           0
     27995 TIP3     1850     TIP3     H1       HT       0.417000       1.00800           0
     27996 TIP3     1850     TIP3     H2       HT       0.417000       1.00800           0
     27997 TIP3     1851     TIP3     OH2      OT      -0.834000       15.9994           0
     27998 TIP3     1851     TIP3     H1       HT       0.417000       1.00800           0
     27999 TIP3     1851     TIP3     H2       HT       0.417000       1.00800           0
     28000 TIP3     1852     TIP3     OH2      OT      -0.834000       15.9994           0
     28001 TIP3     1852     TIP3     H1       HT       0.417000       1.00800           0
     28002 TIP3     1852     TIP3     H2       HT       0.417000       1.00800           0
     28003 TIP3     1853     TIP3     OH2      OT      -0.834000       15.9994           0
     28004 TIP3     1853     TIP3     H1       HT       0.417000       1.00800           0
     28005 TIP3     1853     TIP3     H2       HT       0.417000       1.00800           0
     28006 TIP3     1854     TIP3     OH2      OT      -0.834000       15.9994           0
     28007 TIP3     1854     TIP3     H1       HT       0.417000       1.00800           0
     28008 TIP3     1854     TIP3     H2       HT       0.417000       1.00800           0
     28009 TIP3     1855     TIP3     OH2      OT      -0.834000       15.9994           0
     28010 TIP3     1855     TIP3     H1       HT       0.417000       1.00800           0
     28011 TIP3     1855     TIP3     H2       HT       0.417000       1.00800           0
     28012 TIP3     1856     TIP3     OH2      OT      -0.834000       15.9994           0
     28013 TIP3     1856     TIP3     H1       HT       0.417000       1.00800           0
     28014 TIP3     1856     TIP3     H2       HT       0.417000       1.00800           0
     28015 TIP3     1857     TIP3     OH2      OT      -0.834000       15.9994           0
     28016 TIP3     1857     TIP3     H1       HT       0.417000       1.00800           0
     28017 TIP3     1857     TIP3     H2       HT       0.417000       1.00800           0
     28018 TIP3     1858     TIP3     OH2      OT      -0.834000       15.9994           0
     28019 TIP3     1858     TIP3     H1       HT       0.417000       1.00800           0
     28020 TIP3     1858     TIP3     H2       HT       0.417000       1.00800           0
     28021 TIP3     1859     TIP3     OH2      OT      -0.834000       15.9994           0
     28022 TIP3     1859     TIP3     H1       HT       0.417000       1.00800           0
     28023 TIP3     1859     TIP3     H2       HT       0.417000       1.00800           0
     28024 TIP3     1860     TIP3     OH2      OT      -0.834000       15.9994           0
     28025 TIP3     1860     TIP3     H1       HT       0.417000       1.00800           0
     28026 TIP3     1860     TIP3     H2       HT       0.417000       1.00800           0
     28027 TIP3     1861     TIP3     OH2      OT      -0.834000       15.9994           0
     28028 TIP3     1861     TIP3     H1       HT       0.417000       1.00800           0
     28029 TIP3     1861     TIP3     H2       HT       0.417000       1.00800           0
     28030 TIP3     1862     TIP3     OH2      OT      -0.834000       15.9994           0
     28031 TIP3     1862     TIP3     H1       HT       0.417000       1.00800           0
     28032 TIP3     1862     TIP3     H2       HT       0.417000       1.00800           0
     28033 TIP3     1863     TIP3     OH2      OT      -0.834000       15.9994           0
     28034 TIP3     1863     TIP3     H1       HT       0.417000       1.00800           0
     28035 TIP3     1863     TIP3     H2       HT       0.417000       1.00800           0
     28036 TIP3     1864     TIP3     OH2      OT      -0.834000       15.9994           0
     28037 TIP3     1864     TIP3     H1       HT       0.417000       1.00800           0
     28038 TIP3     1864     TIP3     H2       HT       0.417000       1.00800           0
     28039 TIP3     1865     TIP3     OH2      OT      -0.834000       15.9994           0
     28040 TIP3     1865     TIP3     H1       HT       0.417000       1.00800           0
     28041 TIP3     1865     TIP3     H2       HT       0.417000       1.00800           0
     28042 TIP3     1866     TIP3     OH2      OT      -0.834000       15.9994           0
     28043 TIP3     1866     TIP3     H1       HT       0.417000       1.00800           0
     28044 TIP3     1866     TIP3     H2       HT       0.417000       1.00800           0
     28045 TIP3     1867     TIP3     OH2      OT      -0.834000       15.9994           0
     28046 TIP3     1867     TIP3     H1       HT       0.417000       1.00800           0
     28047 TIP3     1867     TIP3     H2       HT       0.417000       1.00800           0
     28048 TIP3     1868     TIP3     OH2      OT      -0.834000       15.9994           0
     28049 TIP3     1868     TIP3     H1       HT       0.417000       1.00800           0
     28050 TIP3     1868     TIP3     H2       HT       0.417000       1.00800           0
     28051 TIP3     1869     TIP3     OH2      OT      -0.834000       15.9994           0
     28052 TIP3     1869     TIP3     H1       HT       0.417000       1.00800           0
     28053 TIP3     1869     TIP3     H2       HT       0.417000       1.00800           0
     28054 TIP3     1870     TIP3     OH2      OT      -0.834000       15.9994           0
     28055 TIP3     1870     TIP3     H1       HT       0.417000       1.00800           0
     28056 TIP3     1870     TIP3     H2       HT       0.417000       1.00800           0
     28057 TIP3     1871     TIP3     OH2      OT      -0.834000       15.9994           0
     28058 TIP3     1871     TIP3     H1       HT       0.417000       1.00800           0
     28059 TIP3     1871     TIP3     H2       HT       0.417000       1.00800           0
     28060 TIP3     1872     TIP3     OH2      OT      -0.834000       15.9994           0
     28061 TIP3     1872     TIP3     H1       HT       0.417000       1.00800           0
     28062 TIP3     1872     TIP3     H2       HT       0.417000       1.00800           0
     28063 TIP3     1873     TIP3     OH2      OT      -0.834000       15.9994           0
     28064 TIP3     1873     TIP3     H1       HT       0.417000       1.00800           0
     28065 TIP3     1873     TIP3     H2       HT       0.417000       1.00800           0
     28066 TIP3     1874     TIP3     OH2      OT      -0.834000       15.9994           0
     28067 TIP3     1874     TIP3     H1       HT       0.417000       1.00800           0
     28068 TIP3     1874     TIP3     H2       HT       0.417000       1.00800           0
     28069 TIP3     1875     TIP3     OH2      OT      -0.834000       15.9994           0
     28070 TIP3     1875     TIP3     H1       HT       0.417000       1.00800           0
     28071 TIP3     1875     TIP3     H2       HT       0.417000       1.00800           0
     28072 TIP3     1876     TIP3     OH2      OT      -0.834000       15.9994           0
     28073 TIP3     1876     TIP3     H1       HT       0.417000       1.00800           0
     28074 TIP3     1876     TIP3     H2       HT       0.417000       1.00800           0
     28075 TIP3     1877     TIP3     OH2      OT      -0.834000       15.9994           0
     28076 TIP3     1877     TIP3     H1       HT       0.417000       1.00800           0
     28077 TIP3     1877     TIP3     H2       HT       0.417000       1.00800           0
     28078 TIP3     1878     TIP3     OH2      OT      -0.834000       15.9994           0
     28079 TIP3     1878     TIP3     H1       HT       0.417000       1.00800           0
     28080 TIP3     1878     TIP3     H2       HT       0.417000       1.00800           0
     28081 TIP3     1879     TIP3     OH2      OT      -0.834000       15.9994           0
     28082 TIP3     1879     TIP3     H1       HT       0.417000       1.00800           0
     28083 TIP3     1879     TIP3     H2       HT       0.417000       1.00800           0
     28084 TIP3     1880     TIP3     OH2      OT      -0.834000       15.9994           0
     28085 TIP3     1880     TIP3     H1       HT       0.417000       1.00800           0
     28086 TIP3     1880     TIP3     H2       HT       0.417000       1.00800           0
     28087 TIP3     1881     TIP3     OH2      OT      -0.834000       15.9994           0
     28088 TIP3     1881     TIP3     H1       HT       0.417000       1.00800           0
     28089 TIP3     1881     TIP3     H2       HT       0.417000       1.00800           0
     28090 TIP3     1882     TIP3     OH2      OT      -0.834000       15.9994           0
     28091 TIP3     1882     TIP3     H1       HT       0.417000       1.00800           0
     28092 TIP3     1882     TIP3     H2       HT       0.417000       1.00800           0
     28093 TIP3     1883     TIP3     OH2      OT      -0.834000       15.9994           0
     28094 TIP3     1883     TIP3     H1       HT       0.417000       1.00800           0
     28095 TIP3     1883     TIP3     H2       HT       0.417000       1.00800           0
     28096 TIP3     1884     TIP3     OH2      OT      -0.834000       15.9994           0
     28097 TIP3     1884     TIP3     H1       HT       0.417000       1.00800           0
     28098 TIP3     1884     TIP3     H2       HT       0.417000       1.00800           0
     28099 TIP3     1885     TIP3     OH2      OT      -0.834000       15.9994           0
     28100 TIP3     1885     TIP3     H1       HT       0.417000       1.00800           0
     28101 TIP3     1885     TIP3     H2       HT       0.417000       1.00800           0
     28102 TIP3     1886     TIP3     OH2      OT      -0.834000       15.9994           0
     28103 TIP3     1886     TIP3     H1       HT       0.417000       1.00800           0
     28104 TIP3     1886     TIP3     H2       HT       0.417000       1.00800           0
     28105 TIP3     1887     TIP3     OH2      OT      -0.834000       15.9994           0
     28106 TIP3     1887     TIP3     H1       HT       0.417000       1.00800           0
     28107 TIP3     1887     TIP3     H2       HT       0.417000       1.00800           0
     28108 TIP3     1888     TIP3     OH2      OT      -0.834000       15.9994           0
     28109 TIP3     1888     TIP3     H1       HT       0.417000       1.00800           0
     28110 TIP3     1888     TIP3     H2       HT       0.417000       1.00800           0
     28111 TIP3     1889     TIP3     OH2      OT      -0.834000       15.9994           0
     28112 TIP3     1889     TIP3     H1       HT       0.417000       1.00800           0
     28113 TIP3     1889     TIP3     H2       HT       0.417000       1.00800           0
     28114 TIP3     1890     TIP3     OH2      OT      -0.834000       15.9994           0
     28115 TIP3     1890     TIP3     H1       HT       0.417000       1.00800           0
     28116 TIP3     1890     TIP3     H2       HT       0.417000       1.00800           0
     28117 TIP3     1891     TIP3     OH2      OT      -0.834000       15.9994           0
     28118 TIP3     1891     TIP3     H1       HT       0.417000       1.00800           0
     28119 TIP3     1891     TIP3     H2       HT       0.417000       1.00800           0
     28120 TIP3     1892     TIP3     OH2      OT      -0.834000       15.9994           0
     28121 TIP3     1892     TIP3     H1       HT       0.417000       1.00800           0
     28122 TIP3     1892     TIP3     H2       HT       0.417000       1.00800           0
     28123 TIP3     1893     TIP3     OH2      OT      -0.834000       15.9994           0
     28124 TIP3     1893     TIP3     H1       HT       0.417000       1.00800           0
     28125 TIP3     1893     TIP3     H2       HT       0.417000       1.00800           0
     28126 TIP3     1894     TIP3     OH2      OT      -0.834000       15.9994           0
     28127 TIP3     1894     TIP3     H1       HT       0.417000       1.00800           0
     28128 TIP3     1894     TIP3     H2       HT       0.417000       1.00800           0
     28129 TIP3     1895     TIP3     OH2      OT      -0.834000       15.9994           0
     28130 TIP3     1895     TIP3     H1       HT       0.417000       1.00800           0
     28131 TIP3     1895     TIP3     H2       HT       0.417000       1.00800           0
     28132 TIP3     1896     TIP3     OH2      OT      -0.834000       15.9994           0
     28133 TIP3     1896     TIP3     H1       HT       0.417000       1.00800           0
     28134 TIP3     1896     TIP3     H2       HT       0.417000       1.00800           0
     28135 TIP3     1897     TIP3     OH2      OT      -0.834000       15.9994           0
     28136 TIP3     1897     TIP3     H1       HT       0.417000       1.00800           0
     28137 TIP3     1897     TIP3     H2       HT       0.417000       1.00800           0
     28138 TIP3     1898     TIP3     OH2      OT      -0.834000       15.9994           0
     28139 TIP3     1898     TIP3     H1       HT       0.417000       1.00800           0
     28140 TIP3     1898     TIP3     H2       HT       0.417000       1.00800           0
     28141 TIP3     1899     TIP3     OH2      OT      -0.834000       15.9994           0
     28142 TIP3     1899     TIP3     H1       HT       0.417000       1.00800           0
     28143 TIP3     1899     TIP3     H2       HT       0.417000       1.00800           0
     28144 TIP3     1900     TIP3     OH2      OT      -0.834000       15.9994           0
     28145 TIP3     1900     TIP3     H1       HT       0.417000       1.00800           0
     28146 TIP3     1900     TIP3     H2       HT       0.417000       1.00800           0
     28147 TIP3     1901     TIP3     OH2      OT      -0.834000       15.9994           0
     28148 TIP3     1901     TIP3     H1       HT       0.417000       1.00800           0
     28149 TIP3     1901     TIP3     H2       HT       0.417000       1.00800           0
     28150 TIP3     1902     TIP3     OH2      OT      -0.834000       15.9994           0
     28151 TIP3     1902     TIP3     H1       HT       0.417000       1.00800           0
     28152 TIP3     1902     TIP3     H2       HT       0.417000       1.00800           0
     28153 TIP3     1903     TIP3     OH2      OT      -0.834000       15.9994           0
     28154 TIP3     1903     TIP3     H1       HT       0.417000       1.00800           0
     28155 TIP3     1903     TIP3     H2       HT       0.417000       1.00800           0
     28156 TIP3     1904     TIP3     OH2      OT      -0.834000       15.9994           0
     28157 TIP3     1904     TIP3     H1       HT       0.417000       1.00800           0
     28158 TIP3     1904     TIP3     H2       HT       0.417000       1.00800           0
     28159 TIP3     1905     TIP3     OH2      OT      -0.834000       15.9994           0
     28160 TIP3     1905     TIP3     H1       HT       0.417000       1.00800           0
     28161 TIP3     1905     TIP3     H2       HT       0.417000       1.00800           0
     28162 TIP3     1906     TIP3     OH2      OT      -0.834000       15.9994           0
     28163 TIP3     1906     TIP3     H1       HT       0.417000       1.00800           0
     28164 TIP3     1906     TIP3     H2       HT       0.417000       1.00800           0
     28165 TIP3     1907     TIP3     OH2      OT      -0.834000       15.9994           0
     28166 TIP3     1907     TIP3     H1       HT       0.417000       1.00800           0
     28167 TIP3     1907     TIP3     H2       HT       0.417000       1.00800           0
     28168 TIP3     1908     TIP3     OH2      OT      -0.834000       15.9994           0
     28169 TIP3     1908     TIP3     H1       HT       0.417000       1.00800           0
     28170 TIP3     1908     TIP3     H2       HT       0.417000       1.00800           0
     28171 TIP3     1909     TIP3     OH2      OT      -0.834000       15.9994           0
     28172 TIP3     1909     TIP3     H1       HT       0.417000       1.00800           0
     28173 TIP3     1909     TIP3     H2       HT       0.417000       1.00800           0
     28174 TIP3     1910     TIP3     OH2      OT      -0.834000       15.9994           0
     28175 TIP3     1910     TIP3     H1       HT       0.417000       1.00800           0
     28176 TIP3     1910     TIP3     H2       HT       0.417000       1.00800           0
     28177 TIP3     1911     TIP3     OH2      OT      -0.834000       15.9994           0
     28178 TIP3     1911     TIP3     H1       HT       0.417000       1.00800           0
     28179 TIP3     1911     TIP3     H2       HT       0.417000       1.00800           0
     28180 TIP3     1912     TIP3     OH2      OT      -0.834000       15.9994           0
     28181 TIP3     1912     TIP3     H1       HT       0.417000       1.00800           0
     28182 TIP3     1912     TIP3     H2       HT       0.417000       1.00800           0
     28183 TIP3     1913     TIP3     OH2      OT      -0.834000       15.9994           0
     28184 TIP3     1913     TIP3     H1       HT       0.417000       1.00800           0
     28185 TIP3     1913     TIP3     H2       HT       0.417000       1.00800           0
     28186 TIP3     1914     TIP3     OH2      OT      -0.834000       15.9994           0
     28187 TIP3     1914     TIP3     H1       HT       0.417000       1.00800           0
     28188 TIP3     1914     TIP3     H2       HT       0.417000       1.00800           0
     28189 TIP3     1915     TIP3     OH2      OT      -0.834000       15.9994           0
     28190 TIP3     1915     TIP3     H1       HT       0.417000       1.00800           0
     28191 TIP3     1915     TIP3     H2       HT       0.417000       1.00800           0
     28192 TIP3     1916     TIP3     OH2      OT      -0.834000       15.9994           0
     28193 TIP3     1916     TIP3     H1       HT       0.417000       1.00800           0
     28194 TIP3     1916     TIP3     H2       HT       0.417000       1.00800           0
     28195 TIP3     1917     TIP3     OH2      OT      -0.834000       15.9994           0
     28196 TIP3     1917     TIP3     H1       HT       0.417000       1.00800           0
     28197 TIP3     1917     TIP3     H2       HT       0.417000       1.00800           0
     28198 TIP3     1918     TIP3     OH2      OT      -0.834000       15.9994           0
     28199 TIP3     1918     TIP3     H1       HT       0.417000       1.00800           0
     28200 TIP3     1918     TIP3     H2       HT       0.417000       1.00800           0
     28201 TIP3     1919     TIP3     OH2      OT      -0.834000       15.9994           0
     28202 TIP3     1919     TIP3     H1       HT       0.417000       1.00800           0
     28203 TIP3     1919     TIP3     H2       HT       0.417000       1.00800           0
     28204 TIP3     1920     TIP3     OH2      OT      -0.834000       15.9994           0
     28205 TIP3     1920     TIP3     H1       HT       0.417000       1.00800           0
     28206 TIP3     1920     TIP3     H2       HT       0.417000       1.00800           0
     28207 TIP3     1921     TIP3     OH2      OT      -0.834000       15.9994           0
     28208 TIP3     1921     TIP3     H1       HT       0.417000       1.00800           0
     28209 TIP3     1921     TIP3     H2       HT       0.417000       1.00800           0
     28210 TIP3     1922     TIP3     OH2      OT      -0.834000       15.9994           0
     28211 TIP3     1922     TIP3     H1       HT       0.417000       1.00800           0
     28212 TIP3     1922     TIP3     H2       HT       0.417000       1.00800           0
     28213 TIP3     1923     TIP3     OH2      OT      -0.834000       15.9994           0
     28214 TIP3     1923     TIP3     H1       HT       0.417000       1.00800           0
     28215 TIP3     1923     TIP3     H2       HT       0.417000       1.00800           0
     28216 TIP3     1924     TIP3     OH2      OT      -0.834000       15.9994           0
     28217 TIP3     1924     TIP3     H1       HT       0.417000       1.00800           0
     28218 TIP3     1924     TIP3     H2       HT       0.417000       1.00800           0
     28219 TIP3     1925     TIP3     OH2      OT      -0.834000       15.9994           0
     28220 TIP3     1925     TIP3     H1       HT       0.417000       1.00800           0
     28221 TIP3     1925     TIP3     H2       HT       0.417000       1.00800           0
     28222 TIP3     1926     TIP3     OH2      OT      -0.834000       15.9994           0
     28223 TIP3     1926     TIP3     H1       HT       0.417000       1.00800           0
     28224 TIP3     1926     TIP3     H2       HT       0.417000       1.00800           0
     28225 TIP3     1927     TIP3     OH2      OT      -0.834000       15.9994           0
     28226 TIP3     1927     TIP3     H1       HT       0.417000       1.00800           0
     28227 TIP3     1927     TIP3     H2       HT       0.417000       1.00800           0
     28228 TIP3     1928     TIP3     OH2      OT      -0.834000       15.9994           0
     28229 TIP3     1928     TIP3     H1       HT       0.417000       1.00800           0
     28230 TIP3     1928     TIP3     H2       HT       0.417000       1.00800           0
     28231 TIP3     1929     TIP3     OH2      OT      -0.834000       15.9994           0
     28232 TIP3     1929     TIP3     H1       HT       0.417000       1.00800           0
     28233 TIP3     1929     TIP3     H2       HT       0.417000       1.00800           0
     28234 TIP3     1930     TIP3     OH2      OT      -0.834000       15.9994           0
     28235 TIP3     1930     TIP3     H1       HT       0.417000       1.00800           0
     28236 TIP3     1930     TIP3     H2       HT       0.417000       1.00800           0
     28237 TIP3     1931     TIP3     OH2      OT      -0.834000       15.9994           0
     28238 TIP3     1931     TIP3     H1       HT       0.417000       1.00800           0
     28239 TIP3     1931     TIP3     H2       HT       0.417000       1.00800           0
     28240 TIP3     1932     TIP3     OH2      OT      -0.834000       15.9994           0
     28241 TIP3     1932     TIP3     H1       HT       0.417000       1.00800           0
     28242 TIP3     1932     TIP3     H2       HT       0.417000       1.00800           0
     28243 TIP3     1933     TIP3     OH2      OT      -0.834000       15.9994           0
     28244 TIP3     1933     TIP3     H1       HT       0.417000       1.00800           0
     28245 TIP3     1933     TIP3     H2       HT       0.417000       1.00800           0
     28246 TIP3     1934     TIP3     OH2      OT      -0.834000       15.9994           0
     28247 TIP3     1934     TIP3     H1       HT       0.417000       1.00800           0
     28248 TIP3     1934     TIP3     H2       HT       0.417000       1.00800           0
     28249 TIP3     1935     TIP3     OH2      OT      -0.834000       15.9994           0
     28250 TIP3     1935     TIP3     H1       HT       0.417000       1.00800           0
     28251 TIP3     1935     TIP3     H2       HT       0.417000       1.00800           0
     28252 TIP3     1936     TIP3     OH2      OT      -0.834000       15.9994           0
     28253 TIP3     1936     TIP3     H1       HT       0.417000       1.00800           0
     28254 TIP3     1936     TIP3     H2       HT       0.417000       1.00800           0
     28255 TIP3     1937     TIP3     OH2      OT      -0.834000       15.9994           0
     28256 TIP3     1937     TIP3     H1       HT       0.417000       1.00800           0
     28257 TIP3     1937     TIP3     H2       HT       0.417000       1.00800           0
     28258 TIP3     1938     TIP3     OH2      OT      -0.834000       15.9994           0
     28259 TIP3     1938     TIP3     H1       HT       0.417000       1.00800           0
     28260 TIP3     1938     TIP3     H2       HT       0.417000       1.00800           0
     28261 TIP3     1939     TIP3     OH2      OT      -0.834000       15.9994           0
     28262 TIP3     1939     TIP3     H1       HT       0.417000       1.00800           0
     28263 TIP3     1939     TIP3     H2       HT       0.417000       1.00800           0
     28264 TIP3     1940     TIP3     OH2      OT      -0.834000       15.9994           0
     28265 TIP3     1940     TIP3     H1       HT       0.417000       1.00800           0
     28266 TIP3     1940     TIP3     H2       HT       0.417000       1.00800           0
     28267 TIP3     1941     TIP3     OH2      OT      -0.834000       15.9994           0
     28268 TIP3     1941     TIP3     H1       HT       0.417000       1.00800           0
     28269 TIP3     1941     TIP3     H2       HT       0.417000       1.00800           0
     28270 TIP3     1942     TIP3     OH2      OT      -0.834000       15.9994           0
     28271 TIP3     1942     TIP3     H1       HT       0.417000       1.00800           0
     28272 TIP3     1942     TIP3     H2       HT       0.417000       1.00800           0
     28273 TIP3     1943     TIP3     OH2      OT      -0.834000       15.9994           0
     28274 TIP3     1943     TIP3     H1       HT       0.417000       1.00800           0
     28275 TIP3     1943     TIP3     H2       HT       0.417000       1.00800           0
     28276 TIP3     1944     TIP3     OH2      OT      -0.834000       15.9994           0
     28277 TIP3     1944     TIP3     H1       HT       0.417000       1.00800           0
     28278 TIP3     1944     TIP3     H2       HT       0.417000       1.00800           0
     28279 TIP3     1945     TIP3     OH2      OT      -0.834000       15.9994           0
     28280 TIP3     1945     TIP3     H1       HT       0.417000       1.00800           0
     28281 TIP3     1945     TIP3     H2       HT       0.417000       1.00800           0
     28282 TIP3     1946     TIP3     OH2      OT      -0.834000       15.9994           0
     28283 TIP3     1946     TIP3     H1       HT       0.417000       1.00800           0
     28284 TIP3     1946     TIP3     H2       HT       0.417000       1.00800           0
     28285 TIP3     1947     TIP3     OH2      OT      -0.834000       15.9994           0
     28286 TIP3     1947     TIP3     H1       HT       0.417000       1.00800           0
     28287 TIP3     1947     TIP3     H2       HT       0.417000       1.00800           0
     28288 TIP3     1948     TIP3     OH2      OT      -0.834000       15.9994           0
     28289 TIP3     1948     TIP3     H1       HT       0.417000       1.00800           0
     28290 TIP3     1948     TIP3     H2       HT       0.417000       1.00800           0
     28291 TIP3     1949     TIP3     OH2      OT      -0.834000       15.9994           0
     28292 TIP3     1949     TIP3     H1       HT       0.417000       1.00800           0
     28293 TIP3     1949     TIP3     H2       HT       0.417000       1.00800           0
     28294 TIP3     1950     TIP3     OH2      OT      -0.834000       15.9994           0
     28295 TIP3     1950     TIP3     H1       HT       0.417000       1.00800           0
     28296 TIP3     1950     TIP3     H2       HT       0.417000       1.00800           0
     28297 TIP3     1951     TIP3     OH2      OT      -0.834000       15.9994           0
     28298 TIP3     1951     TIP3     H1       HT       0.417000       1.00800           0
     28299 TIP3     1951     TIP3     H2       HT       0.417000       1.00800           0
     28300 TIP3     1952     TIP3     OH2      OT      -0.834000       15.9994           0
     28301 TIP3     1952     TIP3     H1       HT       0.417000       1.00800           0
     28302 TIP3     1952     TIP3     H2       HT       0.417000       1.00800           0
     28303 TIP3     1953     TIP3     OH2      OT      -0.834000       15.9994           0
     28304 TIP3     1953     TIP3     H1       HT       0.417000       1.00800           0
     28305 TIP3     1953     TIP3     H2       HT       0.417000       1.00800           0
     28306 TIP3     1954     TIP3     OH2      OT      -0.834000       15.9994           0
     28307 TIP3     1954     TIP3     H1       HT       0.417000       1.00800           0
     28308 TIP3     1954     TIP3     H2       HT       0.417000       1.00800           0
     28309 TIP3     1955     TIP3     OH2      OT      -0.834000       15.9994           0
     28310 TIP3     1955     TIP3     H1       HT       0.417000       1.00800           0
     28311 TIP3     1955     TIP3     H2       HT       0.417000       1.00800           0
     28312 TIP3     1956     TIP3     OH2      OT      -0.834000       15.9994           0
     28313 TIP3     1956     TIP3     H1       HT       0.417000       1.00800           0
     28314 TIP3     1956     TIP3     H2       HT       0.417000       1.00800           0
     28315 TIP3     1957     TIP3     OH2      OT      -0.834000       15.9994           0
     28316 TIP3     1957     TIP3     H1       HT       0.417000       1.00800           0
     28317 TIP3     1957     TIP3     H2       HT       0.417000       1.00800           0
     28318 TIP3     1958     TIP3     OH2      OT      -0.834000       15.9994           0
     28319 TIP3     1958     TIP3     H1       HT       0.417000       1.00800           0
     28320 TIP3     1958     TIP3     H2       HT       0.417000       1.00800           0
     28321 TIP3     1959     TIP3     OH2      OT      -0.834000       15.9994           0
     28322 TIP3     1959     TIP3     H1       HT       0.417000       1.00800           0
     28323 TIP3     1959     TIP3     H2       HT       0.417000       1.00800           0
     28324 TIP3     1960     TIP3     OH2      OT      -0.834000       15.9994           0
     28325 TIP3     1960     TIP3     H1       HT       0.417000       1.00800           0
     28326 TIP3     1960     TIP3     H2       HT       0.417000       1.00800           0
     28327 TIP3     1961     TIP3     OH2      OT      -0.834000       15.9994           0
     28328 TIP3     1961     TIP3     H1       HT       0.417000       1.00800           0
     28329 TIP3     1961     TIP3     H2       HT       0.417000       1.00800           0
     28330 TIP3     1962     TIP3     OH2      OT      -0.834000       15.9994           0
     28331 TIP3     1962     TIP3     H1       HT       0.417000       1.00800           0
     28332 TIP3     1962     TIP3     H2       HT       0.417000       1.00800           0
     28333 TIP3     1963     TIP3     OH2      OT      -0.834000       15.9994           0
     28334 TIP3     1963     TIP3     H1       HT       0.417000       1.00800           0
     28335 TIP3     1963     TIP3     H2       HT       0.417000       1.00800           0
     28336 TIP3     1964     TIP3     OH2      OT      -0.834000       15.9994           0
     28337 TIP3     1964     TIP3     H1       HT       0.417000       1.00800           0
     28338 TIP3     1964     TIP3     H2       HT       0.417000       1.00800           0
     28339 TIP3     1965     TIP3     OH2      OT      -0.834000       15.9994           0
     28340 TIP3     1965     TIP3     H1       HT       0.417000       1.00800           0
     28341 TIP3     1965     TIP3     H2       HT       0.417000       1.00800           0
     28342 TIP3     1966     TIP3     OH2      OT      -0.834000       15.9994           0
     28343 TIP3     1966     TIP3     H1       HT       0.417000       1.00800           0
     28344 TIP3     1966     TIP3     H2       HT       0.417000       1.00800           0
     28345 TIP3     1967     TIP3     OH2      OT      -0.834000       15.9994           0
     28346 TIP3     1967     TIP3     H1       HT       0.417000       1.00800           0
     28347 TIP3     1967     TIP3     H2       HT       0.417000       1.00800           0
     28348 TIP3     1968     TIP3     OH2      OT      -0.834000       15.9994           0
     28349 TIP3     1968     TIP3     H1       HT       0.417000       1.00800           0
     28350 TIP3     1968     TIP3     H2       HT       0.417000       1.00800           0
     28351 TIP3     1969     TIP3     OH2      OT      -0.834000       15.9994           0
     28352 TIP3     1969     TIP3     H1       HT       0.417000       1.00800           0
     28353 TIP3     1969     TIP3     H2       HT       0.417000       1.00800           0
     28354 TIP3     1970     TIP3     OH2      OT      -0.834000       15.9994           0
     28355 TIP3     1970     TIP3     H1       HT       0.417000       1.00800           0
     28356 TIP3     1970     TIP3     H2       HT       0.417000       1.00800           0
     28357 TIP3     1971     TIP3     OH2      OT      -0.834000       15.9994           0
     28358 TIP3     1971     TIP3     H1       HT       0.417000       1.00800           0
     28359 TIP3     1971     TIP3     H2       HT       0.417000       1.00800           0
     28360 TIP3     1972     TIP3     OH2      OT      -0.834000       15.9994           0
     28361 TIP3     1972     TIP3     H1       HT       0.417000       1.00800           0
     28362 TIP3     1972     TIP3     H2       HT       0.417000       1.00800           0
     28363 TIP3     1973     TIP3     OH2      OT      -0.834000       15.9994           0
     28364 TIP3     1973     TIP3     H1       HT       0.417000       1.00800           0
     28365 TIP3     1973     TIP3     H2       HT       0.417000       1.00800           0
     28366 TIP3     1974     TIP3     OH2      OT      -0.834000       15.9994           0
     28367 TIP3     1974     TIP3     H1       HT       0.417000       1.00800           0
     28368 TIP3     1974     TIP3     H2       HT       0.417000       1.00800           0
     28369 TIP3     1975     TIP3     OH2      OT      -0.834000       15.9994           0
     28370 TIP3     1975     TIP3     H1       HT       0.417000       1.00800           0
     28371 TIP3     1975     TIP3     H2       HT       0.417000       1.00800           0
     28372 TIP3     1976     TIP3     OH2      OT      -0.834000       15.9994           0
     28373 TIP3     1976     TIP3     H1       HT       0.417000       1.00800           0
     28374 TIP3     1976     TIP3     H2       HT       0.417000       1.00800           0
     28375 TIP3     1977     TIP3     OH2      OT      -0.834000       15.9994           0
     28376 TIP3     1977     TIP3     H1       HT       0.417000       1.00800           0
     28377 TIP3     1977     TIP3     H2       HT       0.417000       1.00800           0
     28378 TIP3     1978     TIP3     OH2      OT      -0.834000       15.9994           0
     28379 TIP3     1978     TIP3     H1       HT       0.417000       1.00800           0
     28380 TIP3     1978     TIP3     H2       HT       0.417000       1.00800           0
     28381 TIP3     1979     TIP3     OH2      OT      -0.834000       15.9994           0
     28382 TIP3     1979     TIP3     H1       HT       0.417000       1.00800           0
     28383 TIP3     1979     TIP3     H2       HT       0.417000       1.00800           0
     28384 TIP3     1980     TIP3     OH2      OT      -0.834000       15.9994           0
     28385 TIP3     1980     TIP3     H1       HT       0.417000       1.00800           0
     28386 TIP3     1980     TIP3     H2       HT       0.417000       1.00800           0
     28387 TIP3     1981     TIP3     OH2      OT      -0.834000       15.9994           0
     28388 TIP3     1981     TIP3     H1       HT       0.417000       1.00800           0
     28389 TIP3     1981     TIP3     H2       HT       0.417000       1.00800           0
     28390 TIP3     1982     TIP3     OH2      OT      -0.834000       15.9994           0
     28391 TIP3     1982     TIP3     H1       HT       0.417000       1.00800           0
     28392 TIP3     1982     TIP3     H2       HT       0.417000       1.00800           0
     28393 TIP3     1983     TIP3     OH2      OT      -0.834000       15.9994           0
     28394 TIP3     1983     TIP3     H1       HT       0.417000       1.00800           0
     28395 TIP3     1983     TIP3     H2       HT       0.417000       1.00800           0
     28396 TIP3     1984     TIP3     OH2      OT      -0.834000       15.9994           0
     28397 TIP3     1984     TIP3     H1       HT       0.417000       1.00800           0
     28398 TIP3     1984     TIP3     H2       HT       0.417000       1.00800           0
     28399 TIP3     1985     TIP3     OH2      OT      -0.834000       15.9994           0
     28400 TIP3     1985     TIP3     H1       HT       0.417000       1.00800           0
     28401 TIP3     1985     TIP3     H2       HT       0.417000       1.00800           0
     28402 TIP3     1986     TIP3     OH2      OT      -0.834000       15.9994           0
     28403 TIP3     1986     TIP3     H1       HT       0.417000       1.00800           0
     28404 TIP3     1986     TIP3     H2       HT       0.417000       1.00800           0
     28405 TIP3     1987     TIP3     OH2      OT      -0.834000       15.9994           0
     28406 TIP3     1987     TIP3     H1       HT       0.417000       1.00800           0
     28407 TIP3     1987     TIP3     H2       HT       0.417000       1.00800           0
     28408 TIP3     1988     TIP3     OH2      OT      -0.834000       15.9994           0
     28409 TIP3     1988     TIP3     H1       HT       0.417000       1.00800           0
     28410 TIP3     1988     TIP3     H2       HT       0.417000       1.00800           0
     28411 TIP3     1989     TIP3     OH2      OT      -0.834000       15.9994           0
     28412 TIP3     1989     TIP3     H1       HT       0.417000       1.00800           0
     28413 TIP3     1989     TIP3     H2       HT       0.417000       1.00800           0
     28414 TIP3     1990     TIP3     OH2      OT      -0.834000       15.9994           0
     28415 TIP3     1990     TIP3     H1       HT       0.417000       1.00800           0
     28416 TIP3     1990     TIP3     H2       HT       0.417000       1.00800           0
     28417 TIP3     1991     TIP3     OH2      OT      -0.834000       15.9994           0
     28418 TIP3     1991     TIP3     H1       HT       0.417000       1.00800           0
     28419 TIP3     1991     TIP3     H2       HT       0.417000       1.00800           0
     28420 TIP3     1992     TIP3     OH2      OT      -0.834000       15.9994           0
     28421 TIP3     1992     TIP3     H1       HT       0.417000       1.00800           0
     28422 TIP3     1992     TIP3     H2       HT       0.417000       1.00800           0
     28423 TIP3     1993     TIP3     OH2      OT      -0.834000       15.9994           0
     28424 TIP3     1993     TIP3     H1       HT       0.417000       1.00800           0
     28425 TIP3     1993     TIP3     H2       HT       0.417000       1.00800           0
     28426 TIP3     1994     TIP3     OH2      OT      -0.834000       15.9994           0
     28427 TIP3     1994     TIP3     H1       HT       0.417000       1.00800           0
     28428 TIP3     1994     TIP3     H2       HT       0.417000       1.00800           0
     28429 TIP3     1995     TIP3     OH2      OT      -0.834000       15.9994           0
     28430 TIP3     1995     TIP3     H1       HT       0.417000       1.00800           0
     28431 TIP3     1995     TIP3     H2       HT       0.417000       1.00800           0
     28432 TIP3     1996     TIP3     OH2      OT      -0.834000       15.9994           0
     28433 TIP3     1996     TIP3     H1       HT       0.417000       1.00800           0
     28434 TIP3     1996     TIP3     H2       HT       0.417000       1.00800           0
     28435 TIP3     1997     TIP3     OH2      OT      -0.834000       15.9994           0
     28436 TIP3     1997     TIP3     H1       HT       0.417000       1.00800           0
     28437 TIP3     1997     TIP3     H2       HT       0.417000       1.00800           0
     28438 TIP3     1998     TIP3     OH2      OT      -0.834000       15.9994           0
     28439 TIP3     1998     TIP3     H1       HT       0.417000       1.00800           0
     28440 TIP3     1998     TIP3     H2       HT       0.417000       1.00800           0
     28441 TIP3     1999     TIP3     OH2      OT      -0.834000       15.9994           0
     28442 TIP3     1999     TIP3     H1       HT       0.417000       1.00800           0
     28443 TIP3     1999     TIP3     H2       HT       0.417000       1.00800           0
     28444 TIP3     2000     TIP3     OH2      OT      -0.834000       15.9994           0
     28445 TIP3     2000     TIP3     H1       HT       0.417000       1.00800           0
     28446 TIP3     2000     TIP3     H2       HT       0.417000       1.00800           0
     28447 TIP3     2001     TIP3     OH2      OT      -0.834000       15.9994           0
     28448 TIP3     2001     TIP3     H1       HT       0.417000       1.00800           0
     28449 TIP3     2001     TIP3     H2       HT       0.417000       1.00800           0
     28450 TIP3     2002     TIP3     OH2      OT      -0.834000       15.9994           0
     28451 TIP3     2002     TIP3     H1       HT       0.417000       1.00800           0
     28452 TIP3     2002     TIP3     H2       HT       0.417000       1.00800           0
     28453 TIP3     2003     TIP3     OH2      OT      -0.834000       15.9994           0
     28454 TIP3     2003     TIP3     H1       HT       0.417000       1.00800           0
     28455 TIP3     2003     TIP3     H2       HT       0.417000       1.00800           0
     28456 TIP3     2004     TIP3     OH2      OT      -0.834000       15.9994           0
     28457 TIP3     2004     TIP3     H1       HT       0.417000       1.00800           0
     28458 TIP3     2004     TIP3     H2       HT       0.417000       1.00800           0
     28459 TIP3     2005     TIP3     OH2      OT      -0.834000       15.9994           0
     28460 TIP3     2005     TIP3     H1       HT       0.417000       1.00800           0
     28461 TIP3     2005     TIP3     H2       HT       0.417000       1.00800           0
     28462 TIP3     2006     TIP3     OH2      OT      -0.834000       15.9994           0
     28463 TIP3     2006     TIP3     H1       HT       0.417000       1.00800           0
     28464 TIP3     2006     TIP3     H2       HT       0.417000       1.00800           0
     28465 TIP3     2007     TIP3     OH2      OT      -0.834000       15.9994           0
     28466 TIP3     2007     TIP3     H1       HT       0.417000       1.00800           0
     28467 TIP3     2007     TIP3     H2       HT       0.417000       1.00800           0
     28468 TIP3     2008     TIP3     OH2      OT      -0.834000       15.9994           0
     28469 TIP3     2008     TIP3     H1       HT       0.417000       1.00800           0
     28470 TIP3     2008     TIP3     H2       HT       0.417000       1.00800           0
     28471 TIP3     2009     TIP3     OH2      OT      -0.834000       15.9994           0
     28472 TIP3     2009     TIP3     H1       HT       0.417000       1.00800           0
     28473 TIP3     2009     TIP3     H2       HT       0.417000       1.00800           0
     28474 TIP3     2010     TIP3     OH2      OT      -0.834000       15.9994           0
     28475 TIP3     2010     TIP3     H1       HT       0.417000       1.00800           0
     28476 TIP3     2010     TIP3     H2       HT       0.417000       1.00800           0
     28477 TIP3     2011     TIP3     OH2      OT      -0.834000       15.9994           0
     28478 TIP3     2011     TIP3     H1       HT       0.417000       1.00800           0
     28479 TIP3     2011     TIP3     H2       HT       0.417000       1.00800           0
     28480 TIP3     2012     TIP3     OH2      OT      -0.834000       15.9994           0
     28481 TIP3     2012     TIP3     H1       HT       0.417000       1.00800           0
     28482 TIP3     2012     TIP3     H2       HT       0.417000       1.00800           0
     28483 TIP3     2013     TIP3     OH2      OT      -0.834000       15.9994           0
     28484 TIP3     2013     TIP3     H1       HT       0.417000       1.00800           0
     28485 TIP3     2013     TIP3     H2       HT       0.417000       1.00800           0
     28486 TIP3     2014     TIP3     OH2      OT      -0.834000       15.9994           0
     28487 TIP3     2014     TIP3     H1       HT       0.417000       1.00800           0
     28488 TIP3     2014     TIP3     H2       HT       0.417000       1.00800           0
     28489 TIP3     2015     TIP3     OH2      OT      -0.834000       15.9994           0
     28490 TIP3     2015     TIP3     H1       HT       0.417000       1.00800           0
     28491 TIP3     2015     TIP3     H2       HT       0.417000       1.00800           0
     28492 TIP3     2016     TIP3     OH2      OT      -0.834000       15.9994           0
     28493 TIP3     2016     TIP3     H1       HT       0.417000       1.00800           0
     28494 TIP3     2016     TIP3     H2       HT       0.417000       1.00800           0
     28495 TIP3     2017     TIP3     OH2      OT      -0.834000       15.9994           0
     28496 TIP3     2017     TIP3     H1       HT       0.417000       1.00800           0
     28497 TIP3     2017     TIP3     H2       HT       0.417000       1.00800           0
     28498 TIP3     2018     TIP3     OH2      OT      -0.834000       15.9994           0
     28499 TIP3     2018     TIP3     H1       HT       0.417000       1.00800           0
     28500 TIP3     2018     TIP3     H2       HT       0.417000       1.00800           0
     28501 TIP3     2019     TIP3     OH2      OT      -0.834000       15.9994           0
     28502 TIP3     2019     TIP3     H1       HT       0.417000       1.00800           0
     28503 TIP3     2019     TIP3     H2       HT       0.417000       1.00800           0
     28504 TIP3     2020     TIP3     OH2      OT      -0.834000       15.9994           0
     28505 TIP3     2020     TIP3     H1       HT       0.417000       1.00800           0
     28506 TIP3     2020     TIP3     H2       HT       0.417000       1.00800           0
     28507 TIP3     2021     TIP3     OH2      OT      -0.834000       15.9994           0
     28508 TIP3     2021     TIP3     H1       HT       0.417000       1.00800           0
     28509 TIP3     2021     TIP3     H2       HT       0.417000       1.00800           0
     28510 TIP3     2022     TIP3     OH2      OT      -0.834000       15.9994           0
     28511 TIP3     2022     TIP3     H1       HT       0.417000       1.00800           0
     28512 TIP3     2022     TIP3     H2       HT       0.417000       1.00800           0
     28513 TIP3     2023     TIP3     OH2      OT      -0.834000       15.9994           0
     28514 TIP3     2023     TIP3     H1       HT       0.417000       1.00800           0
     28515 TIP3     2023     TIP3     H2       HT       0.417000       1.00800           0
     28516 TIP3     2024     TIP3     OH2      OT      -0.834000       15.9994           0
     28517 TIP3     2024     TIP3     H1       HT       0.417000       1.00800           0
     28518 TIP3     2024     TIP3     H2       HT       0.417000       1.00800           0
     28519 TIP3     2025     TIP3     OH2      OT      -0.834000       15.9994           0
     28520 TIP3     2025     TIP3     H1       HT       0.417000       1.00800           0
     28521 TIP3     2025     TIP3     H2       HT       0.417000       1.00800           0
     28522 TIP3     2026     TIP3     OH2      OT      -0.834000       15.9994           0
     28523 TIP3     2026     TIP3     H1       HT       0.417000       1.00800           0
     28524 TIP3     2026     TIP3     H2       HT       0.417000       1.00800           0
     28525 TIP3     2027     TIP3     OH2      OT      -0.834000       15.9994           0
     28526 TIP3     2027     TIP3     H1       HT       0.417000       1.00800           0
     28527 TIP3     2027     TIP3     H2       HT       0.417000       1.00800           0
     28528 TIP3     2028     TIP3     OH2      OT      -0.834000       15.9994           0
     28529 TIP3     2028     TIP3     H1       HT       0.417000       1.00800           0
     28530 TIP3     2028     TIP3     H2       HT       0.417000       1.00800           0
     28531 TIP3     2029     TIP3     OH2      OT      -0.834000       15.9994           0
     28532 TIP3     2029     TIP3     H1       HT       0.417000       1.00800           0
     28533 TIP3     2029     TIP3     H2       HT       0.417000       1.00800           0
     28534 TIP3     2030     TIP3     OH2      OT      -0.834000       15.9994           0
     28535 TIP3     2030     TIP3     H1       HT       0.417000       1.00800           0
     28536 TIP3     2030     TIP3     H2       HT       0.417000       1.00800           0
     28537 TIP3     2031     TIP3     OH2      OT      -0.834000       15.9994           0
     28538 TIP3     2031     TIP3     H1       HT       0.417000       1.00800           0
     28539 TIP3     2031     TIP3     H2       HT       0.417000       1.00800           0
     28540 TIP3     2032     TIP3     OH2      OT      -0.834000       15.9994           0
     28541 TIP3     2032     TIP3     H1       HT       0.417000       1.00800           0
     28542 TIP3     2032     TIP3     H2       HT       0.417000       1.00800           0
     28543 TIP3     2033     TIP3     OH2      OT      -0.834000       15.9994           0
     28544 TIP3     2033     TIP3     H1       HT       0.417000       1.00800           0
     28545 TIP3     2033     TIP3     H2       HT       0.417000       1.00800           0
     28546 TIP3     2034     TIP3     OH2      OT      -0.834000       15.9994           0
     28547 TIP3     2034     TIP3     H1       HT       0.417000       1.00800           0
     28548 TIP3     2034     TIP3     H2       HT       0.417000       1.00800           0
     28549 TIP3     2035     TIP3     OH2      OT      -0.834000       15.9994           0
     28550 TIP3     2035     TIP3     H1       HT       0.417000       1.00800           0
     28551 TIP3     2035     TIP3     H2       HT       0.417000       1.00800           0
     28552 TIP3     2036     TIP3     OH2      OT      -0.834000       15.9994           0
     28553 TIP3     2036     TIP3     H1       HT       0.417000       1.00800           0
     28554 TIP3     2036     TIP3     H2       HT       0.417000       1.00800           0
     28555 TIP3     2037     TIP3     OH2      OT      -0.834000       15.9994           0
     28556 TIP3     2037     TIP3     H1       HT       0.417000       1.00800           0
     28557 TIP3     2037     TIP3     H2       HT       0.417000       1.00800           0
     28558 TIP3     2038     TIP3     OH2      OT      -0.834000       15.9994           0
     28559 TIP3     2038     TIP3     H1       HT       0.417000       1.00800           0
     28560 TIP3     2038     TIP3     H2       HT       0.417000       1.00800           0
     28561 TIP3     2039     TIP3     OH2      OT      -0.834000       15.9994           0
     28562 TIP3     2039     TIP3     H1       HT       0.417000       1.00800           0
     28563 TIP3     2039     TIP3     H2       HT       0.417000       1.00800           0
     28564 TIP3     2040     TIP3     OH2      OT      -0.834000       15.9994           0
     28565 TIP3     2040     TIP3     H1       HT       0.417000       1.00800           0
     28566 TIP3     2040     TIP3     H2       HT       0.417000       1.00800           0
     28567 TIP3     2041     TIP3     OH2      OT      -0.834000       15.9994           0
     28568 TIP3     2041     TIP3     H1       HT       0.417000       1.00800           0
     28569 TIP3     2041     TIP3     H2       HT       0.417000       1.00800           0
     28570 TIP3     2042     TIP3     OH2      OT      -0.834000       15.9994           0
     28571 TIP3     2042     TIP3     H1       HT       0.417000       1.00800           0
     28572 TIP3     2042     TIP3     H2       HT       0.417000       1.00800           0
     28573 TIP3     2043     TIP3     OH2      OT      -0.834000       15.9994           0
     28574 TIP3     2043     TIP3     H1       HT       0.417000       1.00800           0
     28575 TIP3     2043     TIP3     H2       HT       0.417000       1.00800           0
     28576 TIP3     2044     TIP3     OH2      OT      -0.834000       15.9994           0
     28577 TIP3     2044     TIP3     H1       HT       0.417000       1.00800           0
     28578 TIP3     2044     TIP3     H2       HT       0.417000       1.00800           0
     28579 TIP3     2045     TIP3     OH2      OT      -0.834000       15.9994           0
     28580 TIP3     2045     TIP3     H1       HT       0.417000       1.00800           0
     28581 TIP3     2045     TIP3     H2       HT       0.417000       1.00800           0
     28582 TIP3     2046     TIP3     OH2      OT      -0.834000       15.9994           0
     28583 TIP3     2046     TIP3     H1       HT       0.417000       1.00800           0
     28584 TIP3     2046     TIP3     H2       HT       0.417000       1.00800           0
     28585 TIP3     2047     TIP3     OH2      OT      -0.834000       15.9994           0
     28586 TIP3     2047     TIP3     H1       HT       0.417000       1.00800           0
     28587 TIP3     2047     TIP3     H2       HT       0.417000       1.00800           0
     28588 TIP3     2048     TIP3     OH2      OT      -0.834000       15.9994           0
     28589 TIP3     2048     TIP3     H1       HT       0.417000       1.00800           0
     28590 TIP3     2048     TIP3     H2       HT       0.417000       1.00800           0
     28591 TIP3     2049     TIP3     OH2      OT      -0.834000       15.9994           0
     28592 TIP3     2049     TIP3     H1       HT       0.417000       1.00800           0
     28593 TIP3     2049     TIP3     H2       HT       0.417000       1.00800           0
     28594 TIP3     2050     TIP3     OH2      OT      -0.834000       15.9994           0
     28595 TIP3     2050     TIP3     H1       HT       0.417000       1.00800           0
     28596 TIP3     2050     TIP3     H2       HT       0.417000       1.00800           0
     28597 TIP3     2051     TIP3     OH2      OT      -0.834000       15.9994           0
     28598 TIP3     2051     TIP3     H1       HT       0.417000       1.00800           0
     28599 TIP3     2051     TIP3     H2       HT       0.417000       1.00800           0
     28600 TIP3     2052     TIP3     OH2      OT      -0.834000       15.9994           0
     28601 TIP3     2052     TIP3     H1       HT       0.417000       1.00800           0
     28602 TIP3     2052     TIP3     H2       HT       0.417000       1.00800           0
     28603 TIP3     2053     TIP3     OH2      OT      -0.834000       15.9994           0
     28604 TIP3     2053     TIP3     H1       HT       0.417000       1.00800           0
     28605 TIP3     2053     TIP3     H2       HT       0.417000       1.00800           0
     28606 TIP3     2054     TIP3     OH2      OT      -0.834000       15.9994           0
     28607 TIP3     2054     TIP3     H1       HT       0.417000       1.00800           0
     28608 TIP3     2054     TIP3     H2       HT       0.417000       1.00800           0
     28609 TIP3     2055     TIP3     OH2      OT      -0.834000       15.9994           0
     28610 TIP3     2055     TIP3     H1       HT       0.417000       1.00800           0
     28611 TIP3     2055     TIP3     H2       HT       0.417000       1.00800           0
     28612 TIP3     2056     TIP3     OH2      OT      -0.834000       15.9994           0
     28613 TIP3     2056     TIP3     H1       HT       0.417000       1.00800           0
     28614 TIP3     2056     TIP3     H2       HT       0.417000       1.00800           0
     28615 TIP3     2057     TIP3     OH2      OT      -0.834000       15.9994           0
     28616 TIP3     2057     TIP3     H1       HT       0.417000       1.00800           0
     28617 TIP3     2057     TIP3     H2       HT       0.417000       1.00800           0
     28618 TIP3     2058     TIP3     OH2      OT      -0.834000       15.9994           0
     28619 TIP3     2058     TIP3     H1       HT       0.417000       1.00800           0
     28620 TIP3     2058     TIP3     H2       HT       0.417000       1.00800           0
     28621 TIP3     2059     TIP3     OH2      OT      -0.834000       15.9994           0
     28622 TIP3     2059     TIP3     H1       HT       0.417000       1.00800           0
     28623 TIP3     2059     TIP3     H2       HT       0.417000       1.00800           0
     28624 TIP3     2060     TIP3     OH2      OT      -0.834000       15.9994           0
     28625 TIP3     2060     TIP3     H1       HT       0.417000       1.00800           0
     28626 TIP3     2060     TIP3     H2       HT       0.417000       1.00800           0
     28627 TIP3     2061     TIP3     OH2      OT      -0.834000       15.9994           0
     28628 TIP3     2061     TIP3     H1       HT       0.417000       1.00800           0
     28629 TIP3     2061     TIP3     H2       HT       0.417000       1.00800           0
     28630 TIP3     2062     TIP3     OH2      OT      -0.834000       15.9994           0
     28631 TIP3     2062     TIP3     H1       HT       0.417000       1.00800           0
     28632 TIP3     2062     TIP3     H2       HT       0.417000       1.00800           0
     28633 TIP3     2063     TIP3     OH2      OT      -0.834000       15.9994           0
     28634 TIP3     2063     TIP3     H1       HT       0.417000       1.00800           0
     28635 TIP3     2063     TIP3     H2       HT       0.417000       1.00800           0
     28636 TIP3     2064     TIP3     OH2      OT      -0.834000       15.9994           0
     28637 TIP3     2064     TIP3     H1       HT       0.417000       1.00800           0
     28638 TIP3     2064     TIP3     H2       HT       0.417000       1.00800           0
     28639 TIP3     2065     TIP3     OH2      OT      -0.834000       15.9994           0
     28640 TIP3     2065     TIP3     H1       HT       0.417000       1.00800           0
     28641 TIP3     2065     TIP3     H2       HT       0.417000       1.00800           0
     28642 TIP3     2066     TIP3     OH2      OT      -0.834000       15.9994           0
     28643 TIP3     2066     TIP3     H1       HT       0.417000       1.00800           0
     28644 TIP3     2066     TIP3     H2       HT       0.417000       1.00800           0
     28645 TIP3     2067     TIP3     OH2      OT      -0.834000       15.9994           0
     28646 TIP3     2067     TIP3     H1       HT       0.417000       1.00800           0
     28647 TIP3     2067     TIP3     H2       HT       0.417000       1.00800           0
     28648 TIP3     2068     TIP3     OH2      OT      -0.834000       15.9994           0
     28649 TIP3     2068     TIP3     H1       HT       0.417000       1.00800           0
     28650 TIP3     2068     TIP3     H2       HT       0.417000       1.00800           0
     28651 TIP3     2069     TIP3     OH2      OT      -0.834000       15.9994           0
     28652 TIP3     2069     TIP3     H1       HT       0.417000       1.00800           0
     28653 TIP3     2069     TIP3     H2       HT       0.417000       1.00800           0
     28654 TIP3     2070     TIP3     OH2      OT      -0.834000       15.9994           0
     28655 TIP3     2070     TIP3     H1       HT       0.417000       1.00800           0
     28656 TIP3     2070     TIP3     H2       HT       0.417000       1.00800           0
     28657 TIP3     2071     TIP3     OH2      OT      -0.834000       15.9994           0
     28658 TIP3     2071     TIP3     H1       HT       0.417000       1.00800           0
     28659 TIP3     2071     TIP3     H2       HT       0.417000       1.00800           0
     28660 TIP3     2072     TIP3     OH2      OT      -0.834000       15.9994           0
     28661 TIP3     2072     TIP3     H1       HT       0.417000       1.00800           0
     28662 TIP3     2072     TIP3     H2       HT       0.417000       1.00800           0
     28663 TIP3     2073     TIP3     OH2      OT      -0.834000       15.9994           0
     28664 TIP3     2073     TIP3     H1       HT       0.417000       1.00800           0
     28665 TIP3     2073     TIP3     H2       HT       0.417000       1.00800           0
     28666 TIP3     2074     TIP3     OH2      OT      -0.834000       15.9994           0
     28667 TIP3     2074     TIP3     H1       HT       0.417000       1.00800           0
     28668 TIP3     2074     TIP3     H2       HT       0.417000       1.00800           0
     28669 TIP3     2075     TIP3     OH2      OT      -0.834000       15.9994           0
     28670 TIP3     2075     TIP3     H1       HT       0.417000       1.00800           0
     28671 TIP3     2075     TIP3     H2       HT       0.417000       1.00800           0
     28672 TIP3     2076     TIP3     OH2      OT      -0.834000       15.9994           0
     28673 TIP3     2076     TIP3     H1       HT       0.417000       1.00800           0
     28674 TIP3     2076     TIP3     H2       HT       0.417000       1.00800           0
     28675 TIP3     2077     TIP3     OH2      OT      -0.834000       15.9994           0
     28676 TIP3     2077     TIP3     H1       HT       0.417000       1.00800           0
     28677 TIP3     2077     TIP3     H2       HT       0.417000       1.00800           0
     28678 TIP3     2078     TIP3     OH2      OT      -0.834000       15.9994           0
     28679 TIP3     2078     TIP3     H1       HT       0.417000       1.00800           0
     28680 TIP3     2078     TIP3     H2       HT       0.417000       1.00800           0
     28681 TIP3     2079     TIP3     OH2      OT      -0.834000       15.9994           0
     28682 TIP3     2079     TIP3     H1       HT       0.417000       1.00800           0
     28683 TIP3     2079     TIP3     H2       HT       0.417000       1.00800           0
     28684 TIP3     2080     TIP3     OH2      OT      -0.834000       15.9994           0
     28685 TIP3     2080     TIP3     H1       HT       0.417000       1.00800           0
     28686 TIP3     2080     TIP3     H2       HT       0.417000       1.00800           0
     28687 TIP3     2081     TIP3     OH2      OT      -0.834000       15.9994           0
     28688 TIP3     2081     TIP3     H1       HT       0.417000       1.00800           0
     28689 TIP3     2081     TIP3     H2       HT       0.417000       1.00800           0
     28690 TIP3     2082     TIP3     OH2      OT      -0.834000       15.9994           0
     28691 TIP3     2082     TIP3     H1       HT       0.417000       1.00800           0
     28692 TIP3     2082     TIP3     H2       HT       0.417000       1.00800           0
     28693 TIP3     2083     TIP3     OH2      OT      -0.834000       15.9994           0
     28694 TIP3     2083     TIP3     H1       HT       0.417000       1.00800           0
     28695 TIP3     2083     TIP3     H2       HT       0.417000       1.00800           0
     28696 TIP3     2084     TIP3     OH2      OT      -0.834000       15.9994           0
     28697 TIP3     2084     TIP3     H1       HT       0.417000       1.00800           0
     28698 TIP3     2084     TIP3     H2       HT       0.417000       1.00800           0
     28699 TIP3     2085     TIP3     OH2      OT      -0.834000       15.9994           0
     28700 TIP3     2085     TIP3     H1       HT       0.417000       1.00800           0
     28701 TIP3     2085     TIP3     H2       HT       0.417000       1.00800           0
     28702 TIP3     2086     TIP3     OH2      OT      -0.834000       15.9994           0
     28703 TIP3     2086     TIP3     H1       HT       0.417000       1.00800           0
     28704 TIP3     2086     TIP3     H2       HT       0.417000       1.00800           0
     28705 TIP3     2087     TIP3     OH2      OT      -0.834000       15.9994           0
     28706 TIP3     2087     TIP3     H1       HT       0.417000       1.00800           0
     28707 TIP3     2087     TIP3     H2       HT       0.417000       1.00800           0
     28708 TIP3     2088     TIP3     OH2      OT      -0.834000       15.9994           0
     28709 TIP3     2088     TIP3     H1       HT       0.417000       1.00800           0
     28710 TIP3     2088     TIP3     H2       HT       0.417000       1.00800           0
     28711 TIP3     2089     TIP3     OH2      OT      -0.834000       15.9994           0
     28712 TIP3     2089     TIP3     H1       HT       0.417000       1.00800           0
     28713 TIP3     2089     TIP3     H2       HT       0.417000       1.00800           0
     28714 TIP3     2090     TIP3     OH2      OT      -0.834000       15.9994           0
     28715 TIP3     2090     TIP3     H1       HT       0.417000       1.00800           0
     28716 TIP3     2090     TIP3     H2       HT       0.417000       1.00800           0
     28717 TIP3     2091     TIP3     OH2      OT      -0.834000       15.9994           0
     28718 TIP3     2091     TIP3     H1       HT       0.417000       1.00800           0
     28719 TIP3     2091     TIP3     H2       HT       0.417000       1.00800           0
     28720 TIP3     2092     TIP3     OH2      OT      -0.834000       15.9994           0
     28721 TIP3     2092     TIP3     H1       HT       0.417000       1.00800           0
     28722 TIP3     2092     TIP3     H2       HT       0.417000       1.00800           0
     28723 TIP3     2093     TIP3     OH2      OT      -0.834000       15.9994           0
     28724 TIP3     2093     TIP3     H1       HT       0.417000       1.00800           0
     28725 TIP3     2093     TIP3     H2       HT       0.417000       1.00800           0
     28726 TIP3     2094     TIP3     OH2      OT      -0.834000       15.9994           0
     28727 TIP3     2094     TIP3     H1       HT       0.417000       1.00800           0
     28728 TIP3     2094     TIP3     H2       HT       0.417000       1.00800           0
     28729 TIP3     2095     TIP3     OH2      OT      -0.834000       15.9994           0
     28730 TIP3     2095     TIP3     H1       HT       0.417000       1.00800           0
     28731 TIP3     2095     TIP3     H2       HT       0.417000       1.00800           0
     28732 TIP3     2096     TIP3     OH2      OT      -0.834000       15.9994           0
     28733 TIP3     2096     TIP3     H1       HT       0.417000       1.00800           0
     28734 TIP3     2096     TIP3     H2       HT       0.417000       1.00800           0
     28735 TIP3     2097     TIP3     OH2      OT      -0.834000       15.9994           0
     28736 TIP3     2097     TIP3     H1       HT       0.417000       1.00800           0
     28737 TIP3     2097     TIP3     H2       HT       0.417000       1.00800           0
     28738 TIP3     2098     TIP3     OH2      OT      -0.834000       15.9994           0
     28739 TIP3     2098     TIP3     H1       HT       0.417000       1.00800           0
     28740 TIP3     2098     TIP3     H2       HT       0.417000       1.00800           0
     28741 TIP3     2099     TIP3     OH2      OT      -0.834000       15.9994           0
     28742 TIP3     2099     TIP3     H1       HT       0.417000       1.00800           0
     28743 TIP3     2099     TIP3     H2       HT       0.417000       1.00800           0
     28744 TIP3     2100     TIP3     OH2      OT      -0.834000       15.9994           0
     28745 TIP3     2100     TIP3     H1       HT       0.417000       1.00800           0
     28746 TIP3     2100     TIP3     H2       HT       0.417000       1.00800           0
     28747 TIP3     2101     TIP3     OH2      OT      -0.834000       15.9994           0
     28748 TIP3     2101     TIP3     H1       HT       0.417000       1.00800           0
     28749 TIP3     2101     TIP3     H2       HT       0.417000       1.00800           0
     28750 TIP3     2102     TIP3     OH2      OT      -0.834000       15.9994           0
     28751 TIP3     2102     TIP3     H1       HT       0.417000       1.00800           0
     28752 TIP3     2102     TIP3     H2       HT       0.417000       1.00800           0
     28753 TIP3     2103     TIP3     OH2      OT      -0.834000       15.9994           0
     28754 TIP3     2103     TIP3     H1       HT       0.417000       1.00800           0
     28755 TIP3     2103     TIP3     H2       HT       0.417000       1.00800           0
     28756 TIP3     2104     TIP3     OH2      OT      -0.834000       15.9994           0
     28757 TIP3     2104     TIP3     H1       HT       0.417000       1.00800           0
     28758 TIP3     2104     TIP3     H2       HT       0.417000       1.00800           0
     28759 TIP3     2105     TIP3     OH2      OT      -0.834000       15.9994           0
     28760 TIP3     2105     TIP3     H1       HT       0.417000       1.00800           0
     28761 TIP3     2105     TIP3     H2       HT       0.417000       1.00800           0
     28762 TIP3     2106     TIP3     OH2      OT      -0.834000       15.9994           0
     28763 TIP3     2106     TIP3     H1       HT       0.417000       1.00800           0
     28764 TIP3     2106     TIP3     H2       HT       0.417000       1.00800           0
     28765 TIP3     2107     TIP3     OH2      OT      -0.834000       15.9994           0
     28766 TIP3     2107     TIP3     H1       HT       0.417000       1.00800           0
     28767 TIP3     2107     TIP3     H2       HT       0.417000       1.00800           0
     28768 TIP3     2108     TIP3     OH2      OT      -0.834000       15.9994           0
     28769 TIP3     2108     TIP3     H1       HT       0.417000       1.00800           0
     28770 TIP3     2108     TIP3     H2       HT       0.417000       1.00800           0
     28771 TIP3     2109     TIP3     OH2      OT      -0.834000       15.9994           0
     28772 TIP3     2109     TIP3     H1       HT       0.417000       1.00800           0
     28773 TIP3     2109     TIP3     H2       HT       0.417000       1.00800           0
     28774 TIP3     2110     TIP3     OH2      OT      -0.834000       15.9994           0
     28775 TIP3     2110     TIP3     H1       HT       0.417000       1.00800           0
     28776 TIP3     2110     TIP3     H2       HT       0.417000       1.00800           0
     28777 TIP3     2111     TIP3     OH2      OT      -0.834000       15.9994           0
     28778 TIP3     2111     TIP3     H1       HT       0.417000       1.00800           0
     28779 TIP3     2111     TIP3     H2       HT       0.417000       1.00800           0
     28780 TIP3     2112     TIP3     OH2      OT      -0.834000       15.9994           0
     28781 TIP3     2112     TIP3     H1       HT       0.417000       1.00800           0
     28782 TIP3     2112     TIP3     H2       HT       0.417000       1.00800           0
     28783 TIP3     2113     TIP3     OH2      OT      -0.834000       15.9994           0
     28784 TIP3     2113     TIP3     H1       HT       0.417000       1.00800           0
     28785 TIP3     2113     TIP3     H2       HT       0.417000       1.00800           0
     28786 TIP3     2114     TIP3     OH2      OT      -0.834000       15.9994           0
     28787 TIP3     2114     TIP3     H1       HT       0.417000       1.00800           0
     28788 TIP3     2114     TIP3     H2       HT       0.417000       1.00800           0
     28789 TIP3     2115     TIP3     OH2      OT      -0.834000       15.9994           0
     28790 TIP3     2115     TIP3     H1       HT       0.417000       1.00800           0
     28791 TIP3     2115     TIP3     H2       HT       0.417000       1.00800           0
     28792 TIP3     2116     TIP3     OH2      OT      -0.834000       15.9994           0
     28793 TIP3     2116     TIP3     H1       HT       0.417000       1.00800           0
     28794 TIP3     2116     TIP3     H2       HT       0.417000       1.00800           0
     28795 TIP3     2117     TIP3     OH2      OT      -0.834000       15.9994           0
     28796 TIP3     2117     TIP3     H1       HT       0.417000       1.00800           0
     28797 TIP3     2117     TIP3     H2       HT       0.417000       1.00800           0
     28798 TIP3     2118     TIP3     OH2      OT      -0.834000       15.9994           0
     28799 TIP3     2118     TIP3     H1       HT       0.417000       1.00800           0
     28800 TIP3     2118     TIP3     H2       HT       0.417000       1.00800           0
     28801 TIP3     2119     TIP3     OH2      OT      -0.834000       15.9994           0
     28802 TIP3     2119     TIP3     H1       HT       0.417000       1.00800           0
     28803 TIP3     2119     TIP3     H2       HT       0.417000       1.00800           0
     28804 TIP3     2120     TIP3     OH2      OT      -0.834000       15.9994           0
     28805 TIP3     2120     TIP3     H1       HT       0.417000       1.00800           0
     28806 TIP3     2120     TIP3     H2       HT       0.417000       1.00800           0
     28807 TIP3     2121     TIP3     OH2      OT      -0.834000       15.9994           0
     28808 TIP3     2121     TIP3     H1       HT       0.417000       1.00800           0
     28809 TIP3     2121     TIP3     H2       HT       0.417000       1.00800           0
     28810 TIP3     2122     TIP3     OH2      OT      -0.834000       15.9994           0
     28811 TIP3     2122     TIP3     H1       HT       0.417000       1.00800           0
     28812 TIP3     2122     TIP3     H2       HT       0.417000       1.00800           0
     28813 TIP3     2123     TIP3     OH2      OT      -0.834000       15.9994           0
     28814 TIP3     2123     TIP3     H1       HT       0.417000       1.00800           0
     28815 TIP3     2123     TIP3     H2       HT       0.417000       1.00800           0
     28816 TIP3     2124     TIP3     OH2      OT      -0.834000       15.9994           0
     28817 TIP3     2124     TIP3     H1       HT       0.417000       1.00800           0
     28818 TIP3     2124     TIP3     H2       HT       0.417000       1.00800           0
     28819 TIP3     2125     TIP3     OH2      OT      -0.834000       15.9994           0
     28820 TIP3     2125     TIP3     H1       HT       0.417000       1.00800           0
     28821 TIP3     2125     TIP3     H2       HT       0.417000       1.00800           0
     28822 TIP3     2126     TIP3     OH2      OT      -0.834000       15.9994           0
     28823 TIP3     2126     TIP3     H1       HT       0.417000       1.00800           0
     28824 TIP3     2126     TIP3     H2       HT       0.417000       1.00800           0
     28825 TIP3     2127     TIP3     OH2      OT      -0.834000       15.9994           0
     28826 TIP3     2127     TIP3     H1       HT       0.417000       1.00800           0
     28827 TIP3     2127     TIP3     H2       HT       0.417000       1.00800           0
     28828 TIP3     2128     TIP3     OH2      OT      -0.834000       15.9994           0
     28829 TIP3     2128     TIP3     H1       HT       0.417000       1.00800           0
     28830 TIP3     2128     TIP3     H2       HT       0.417000       1.00800           0
     28831 TIP3     2129     TIP3     OH2      OT      -0.834000       15.9994           0
     28832 TIP3     2129     TIP3     H1       HT       0.417000       1.00800           0
     28833 TIP3     2129     TIP3     H2       HT       0.417000       1.00800           0
     28834 TIP3     2130     TIP3     OH2      OT      -0.834000       15.9994           0
     28835 TIP3     2130     TIP3     H1       HT       0.417000       1.00800           0
     28836 TIP3     2130     TIP3     H2       HT       0.417000       1.00800           0
     28837 TIP3     2131     TIP3     OH2      OT      -0.834000       15.9994           0
     28838 TIP3     2131     TIP3     H1       HT       0.417000       1.00800           0
     28839 TIP3     2131     TIP3     H2       HT       0.417000       1.00800           0
     28840 TIP3     2132     TIP3     OH2      OT      -0.834000       15.9994           0
     28841 TIP3     2132     TIP3     H1       HT       0.417000       1.00800           0
     28842 TIP3     2132     TIP3     H2       HT       0.417000       1.00800           0
     28843 TIP3     2133     TIP3     OH2      OT      -0.834000       15.9994           0
     28844 TIP3     2133     TIP3     H1       HT       0.417000       1.00800           0
     28845 TIP3     2133     TIP3     H2       HT       0.417000       1.00800           0
     28846 TIP3     2134     TIP3     OH2      OT      -0.834000       15.9994           0
     28847 TIP3     2134     TIP3     H1       HT       0.417000       1.00800           0
     28848 TIP3     2134     TIP3     H2       HT       0.417000       1.00800           0
     28849 TIP3     2135     TIP3     OH2      OT      -0.834000       15.9994           0
     28850 TIP3     2135     TIP3     H1       HT       0.417000       1.00800           0
     28851 TIP3     2135     TIP3     H2       HT       0.417000       1.00800           0
     28852 TIP3     2136     TIP3     OH2      OT      -0.834000       15.9994           0
     28853 TIP3     2136     TIP3     H1       HT       0.417000       1.00800           0
     28854 TIP3     2136     TIP3     H2       HT       0.417000       1.00800           0
     28855 TIP3     2137     TIP3     OH2      OT      -0.834000       15.9994           0
     28856 TIP3     2137     TIP3     H1       HT       0.417000       1.00800           0
     28857 TIP3     2137     TIP3     H2       HT       0.417000       1.00800           0
     28858 TIP3     2138     TIP3     OH2      OT      -0.834000       15.9994           0
     28859 TIP3     2138     TIP3     H1       HT       0.417000       1.00800           0
     28860 TIP3     2138     TIP3     H2       HT       0.417000       1.00800           0
     28861 TIP3     2139     TIP3     OH2      OT      -0.834000       15.9994           0
     28862 TIP3     2139     TIP3     H1       HT       0.417000       1.00800           0
     28863 TIP3     2139     TIP3     H2       HT       0.417000       1.00800           0
     28864 TIP3     2140     TIP3     OH2      OT      -0.834000       15.9994           0
     28865 TIP3     2140     TIP3     H1       HT       0.417000       1.00800           0
     28866 TIP3     2140     TIP3     H2       HT       0.417000       1.00800           0
     28867 TIP3     2141     TIP3     OH2      OT      -0.834000       15.9994           0
     28868 TIP3     2141     TIP3     H1       HT       0.417000       1.00800           0
     28869 TIP3     2141     TIP3     H2       HT       0.417000       1.00800           0
     28870 TIP3     2142     TIP3     OH2      OT      -0.834000       15.9994           0
     28871 TIP3     2142     TIP3     H1       HT       0.417000       1.00800           0
     28872 TIP3     2142     TIP3     H2       HT       0.417000       1.00800           0
     28873 TIP3     2143     TIP3     OH2      OT      -0.834000       15.9994           0
     28874 TIP3     2143     TIP3     H1       HT       0.417000       1.00800           0
     28875 TIP3     2143     TIP3     H2       HT       0.417000       1.00800           0
     28876 TIP3     2144     TIP3     OH2      OT      -0.834000       15.9994           0
     28877 TIP3     2144     TIP3     H1       HT       0.417000       1.00800           0
     28878 TIP3     2144     TIP3     H2       HT       0.417000       1.00800           0
     28879 TIP3     2145     TIP3     OH2      OT      -0.834000       15.9994           0
     28880 TIP3     2145     TIP3     H1       HT       0.417000       1.00800           0
     28881 TIP3     2145     TIP3     H2       HT       0.417000       1.00800           0
     28882 TIP3     2146     TIP3     OH2      OT      -0.834000       15.9994           0
     28883 TIP3     2146     TIP3     H1       HT       0.417000       1.00800           0
     28884 TIP3     2146     TIP3     H2       HT       0.417000       1.00800           0
     28885 TIP3     2147     TIP3     OH2      OT      -0.834000       15.9994           0
     28886 TIP3     2147     TIP3     H1       HT       0.417000       1.00800           0
     28887 TIP3     2147     TIP3     H2       HT       0.417000       1.00800           0
     28888 TIP3     2148     TIP3     OH2      OT      -0.834000       15.9994           0
     28889 TIP3     2148     TIP3     H1       HT       0.417000       1.00800           0
     28890 TIP3     2148     TIP3     H2       HT       0.417000       1.00800           0
     28891 TIP3     2149     TIP3     OH2      OT      -0.834000       15.9994           0
     28892 TIP3     2149     TIP3     H1       HT       0.417000       1.00800           0
     28893 TIP3     2149     TIP3     H2       HT       0.417000       1.00800           0
     28894 TIP3     2150     TIP3     OH2      OT      -0.834000       15.9994           0
     28895 TIP3     2150     TIP3     H1       HT       0.417000       1.00800           0
     28896 TIP3     2150     TIP3     H2       HT       0.417000       1.00800           0
     28897 TIP3     2151     TIP3     OH2      OT      -0.834000       15.9994           0
     28898 TIP3     2151     TIP3     H1       HT       0.417000       1.00800           0
     28899 TIP3     2151     TIP3     H2       HT       0.417000       1.00800           0
     28900 TIP3     2152     TIP3     OH2      OT      -0.834000       15.9994           0
     28901 TIP3     2152     TIP3     H1       HT       0.417000       1.00800           0
     28902 TIP3     2152     TIP3     H2       HT       0.417000       1.00800           0
     28903 TIP3     2153     TIP3     OH2      OT      -0.834000       15.9994           0
     28904 TIP3     2153     TIP3     H1       HT       0.417000       1.00800           0
     28905 TIP3     2153     TIP3     H2       HT       0.417000       1.00800           0
     28906 TIP3     2154     TIP3     OH2      OT      -0.834000       15.9994           0
     28907 TIP3     2154     TIP3     H1       HT       0.417000       1.00800           0
     28908 TIP3     2154     TIP3     H2       HT       0.417000       1.00800           0
     28909 TIP3     2155     TIP3     OH2      OT      -0.834000       15.9994           0
     28910 TIP3     2155     TIP3     H1       HT       0.417000       1.00800           0
     28911 TIP3     2155     TIP3     H2       HT       0.417000       1.00800           0
     28912 TIP3     2156     TIP3     OH2      OT      -0.834000       15.9994           0
     28913 TIP3     2156     TIP3     H1       HT       0.417000       1.00800           0
     28914 TIP3     2156     TIP3     H2       HT       0.417000       1.00800           0
     28915 TIP3     2157     TIP3     OH2      OT      -0.834000       15.9994           0
     28916 TIP3     2157     TIP3     H1       HT       0.417000       1.00800           0
     28917 TIP3     2157     TIP3     H2       HT       0.417000       1.00800           0
     28918 TIP3     2158     TIP3     OH2      OT      -0.834000       15.9994           0
     28919 TIP3     2158     TIP3     H1       HT       0.417000       1.00800           0
     28920 TIP3     2158     TIP3     H2       HT       0.417000       1.00800           0
     28921 TIP3     2159     TIP3     OH2      OT      -0.834000       15.9994           0
     28922 TIP3     2159     TIP3     H1       HT       0.417000       1.00800           0
     28923 TIP3     2159     TIP3     H2       HT       0.417000       1.00800           0
     28924 TIP3     2160     TIP3     OH2      OT      -0.834000       15.9994           0
     28925 TIP3     2160     TIP3     H1       HT       0.417000       1.00800           0
     28926 TIP3     2160     TIP3     H2       HT       0.417000       1.00800           0
     28927 TIP3     2161     TIP3     OH2      OT      -0.834000       15.9994           0
     28928 TIP3     2161     TIP3     H1       HT       0.417000       1.00800           0
     28929 TIP3     2161     TIP3     H2       HT       0.417000       1.00800           0
     28930 TIP3     2162     TIP3     OH2      OT      -0.834000       15.9994           0
     28931 TIP3     2162     TIP3     H1       HT       0.417000       1.00800           0
     28932 TIP3     2162     TIP3     H2       HT       0.417000       1.00800           0
     28933 TIP3     2163     TIP3     OH2      OT      -0.834000       15.9994           0
     28934 TIP3     2163     TIP3     H1       HT       0.417000       1.00800           0
     28935 TIP3     2163     TIP3     H2       HT       0.417000       1.00800           0
     28936 TIP3     2164     TIP3     OH2      OT      -0.834000       15.9994           0
     28937 TIP3     2164     TIP3     H1       HT       0.417000       1.00800           0
     28938 TIP3     2164     TIP3     H2       HT       0.417000       1.00800           0
     28939 TIP3     2165     TIP3     OH2      OT      -0.834000       15.9994           0
     28940 TIP3     2165     TIP3     H1       HT       0.417000       1.00800           0
     28941 TIP3     2165     TIP3     H2       HT       0.417000       1.00800           0
     28942 TIP3     2166     TIP3     OH2      OT      -0.834000       15.9994           0
     28943 TIP3     2166     TIP3     H1       HT       0.417000       1.00800           0
     28944 TIP3     2166     TIP3     H2       HT       0.417000       1.00800           0
     28945 TIP3     2167     TIP3     OH2      OT      -0.834000       15.9994           0
     28946 TIP3     2167     TIP3     H1       HT       0.417000       1.00800           0
     28947 TIP3     2167     TIP3     H2       HT       0.417000       1.00800           0
     28948 TIP3     2168     TIP3     OH2      OT      -0.834000       15.9994           0
     28949 TIP3     2168     TIP3     H1       HT       0.417000       1.00800           0
     28950 TIP3     2168     TIP3     H2       HT       0.417000       1.00800           0
     28951 TIP3     2169     TIP3     OH2      OT      -0.834000       15.9994           0
     28952 TIP3     2169     TIP3     H1       HT       0.417000       1.00800           0
     28953 TIP3     2169     TIP3     H2       HT       0.417000       1.00800           0
     28954 TIP3     2170     TIP3     OH2      OT      -0.834000       15.9994           0
     28955 TIP3     2170     TIP3     H1       HT       0.417000       1.00800           0
     28956 TIP3     2170     TIP3     H2       HT       0.417000       1.00800           0
     28957 TIP3     2171     TIP3     OH2      OT      -0.834000       15.9994           0
     28958 TIP3     2171     TIP3     H1       HT       0.417000       1.00800           0
     28959 TIP3     2171     TIP3     H2       HT       0.417000       1.00800           0
     28960 TIP3     2172     TIP3     OH2      OT      -0.834000       15.9994           0
     28961 TIP3     2172     TIP3     H1       HT       0.417000       1.00800           0
     28962 TIP3     2172     TIP3     H2       HT       0.417000       1.00800           0
     28963 TIP3     2173     TIP3     OH2      OT      -0.834000       15.9994           0
     28964 TIP3     2173     TIP3     H1       HT       0.417000       1.00800           0
     28965 TIP3     2173     TIP3     H2       HT       0.417000       1.00800           0
     28966 TIP3     2174     TIP3     OH2      OT      -0.834000       15.9994           0
     28967 TIP3     2174     TIP3     H1       HT       0.417000       1.00800           0
     28968 TIP3     2174     TIP3     H2       HT       0.417000       1.00800           0
     28969 TIP3     2175     TIP3     OH2      OT      -0.834000       15.9994           0
     28970 TIP3     2175     TIP3     H1       HT       0.417000       1.00800           0
     28971 TIP3     2175     TIP3     H2       HT       0.417000       1.00800           0
     28972 TIP3     2176     TIP3     OH2      OT      -0.834000       15.9994           0
     28973 TIP3     2176     TIP3     H1       HT       0.417000       1.00800           0
     28974 TIP3     2176     TIP3     H2       HT       0.417000       1.00800           0
     28975 TIP3     2177     TIP3     OH2      OT      -0.834000       15.9994           0
     28976 TIP3     2177     TIP3     H1       HT       0.417000       1.00800           0
     28977 TIP3     2177     TIP3     H2       HT       0.417000       1.00800           0
     28978 TIP3     2178     TIP3     OH2      OT      -0.834000       15.9994           0
     28979 TIP3     2178     TIP3     H1       HT       0.417000       1.00800           0
     28980 TIP3     2178     TIP3     H2       HT       0.417000       1.00800           0
     28981 TIP3     2179     TIP3     OH2      OT      -0.834000       15.9994           0
     28982 TIP3     2179     TIP3     H1       HT       0.417000       1.00800           0
     28983 TIP3     2179     TIP3     H2       HT       0.417000       1.00800           0
     28984 TIP3     2180     TIP3     OH2      OT      -0.834000       15.9994           0
     28985 TIP3     2180     TIP3     H1       HT       0.417000       1.00800           0
     28986 TIP3     2180     TIP3     H2       HT       0.417000       1.00800           0
     28987 TIP3     2181     TIP3     OH2      OT      -0.834000       15.9994           0
     28988 TIP3     2181     TIP3     H1       HT       0.417000       1.00800           0
     28989 TIP3     2181     TIP3     H2       HT       0.417000       1.00800           0
     28990 TIP3     2182     TIP3     OH2      OT      -0.834000       15.9994           0
     28991 TIP3     2182     TIP3     H1       HT       0.417000       1.00800           0
     28992 TIP3     2182     TIP3     H2       HT       0.417000       1.00800           0
     28993 TIP3     2183     TIP3     OH2      OT      -0.834000       15.9994           0
     28994 TIP3     2183     TIP3     H1       HT       0.417000       1.00800           0
     28995 TIP3     2183     TIP3     H2       HT       0.417000       1.00800           0
     28996 TIP3     2184     TIP3     OH2      OT      -0.834000       15.9994           0
     28997 TIP3     2184     TIP3     H1       HT       0.417000       1.00800           0
     28998 TIP3     2184     TIP3     H2       HT       0.417000       1.00800           0
     28999 TIP3     2185     TIP3     OH2      OT      -0.834000       15.9994           0
     29000 TIP3     2185     TIP3     H1       HT       0.417000       1.00800           0
     29001 TIP3     2185     TIP3     H2       HT       0.417000       1.00800           0
     29002 TIP3     2186     TIP3     OH2      OT      -0.834000       15.9994           0
     29003 TIP3     2186     TIP3     H1       HT       0.417000       1.00800           0
     29004 TIP3     2186     TIP3     H2       HT       0.417000       1.00800           0
     29005 TIP3     2187     TIP3     OH2      OT      -0.834000       15.9994           0
     29006 TIP3     2187     TIP3     H1       HT       0.417000       1.00800           0
     29007 TIP3     2187     TIP3     H2       HT       0.417000       1.00800           0
     29008 TIP3     2188     TIP3     OH2      OT      -0.834000       15.9994           0
     29009 TIP3     2188     TIP3     H1       HT       0.417000       1.00800           0
     29010 TIP3     2188     TIP3     H2       HT       0.417000       1.00800           0
     29011 TIP3     2189     TIP3     OH2      OT      -0.834000       15.9994           0
     29012 TIP3     2189     TIP3     H1       HT       0.417000       1.00800           0
     29013 TIP3     2189     TIP3     H2       HT       0.417000       1.00800           0
     29014 TIP3     2190     TIP3     OH2      OT      -0.834000       15.9994           0
     29015 TIP3     2190     TIP3     H1       HT       0.417000       1.00800           0
     29016 TIP3     2190     TIP3     H2       HT       0.417000       1.00800           0
     29017 TIP3     2191     TIP3     OH2      OT      -0.834000       15.9994           0
     29018 TIP3     2191     TIP3     H1       HT       0.417000       1.00800           0
     29019 TIP3     2191     TIP3     H2       HT       0.417000       1.00800           0
     29020 TIP3     2192     TIP3     OH2      OT      -0.834000       15.9994           0
     29021 TIP3     2192     TIP3     H1       HT       0.417000       1.00800           0
     29022 TIP3     2192     TIP3     H2       HT       0.417000       1.00800           0
     29023 TIP3     2193     TIP3     OH2      OT      -0.834000       15.9994           0
     29024 TIP3     2193     TIP3     H1       HT       0.417000       1.00800           0
     29025 TIP3     2193     TIP3     H2       HT       0.417000       1.00800           0
     29026 TIP3     2194     TIP3     OH2      OT      -0.834000       15.9994           0
     29027 TIP3     2194     TIP3     H1       HT       0.417000       1.00800           0
     29028 TIP3     2194     TIP3     H2       HT       0.417000       1.00800           0
     29029 TIP3     2195     TIP3     OH2      OT      -0.834000       15.9994           0
     29030 TIP3     2195     TIP3     H1       HT       0.417000       1.00800           0
     29031 TIP3     2195     TIP3     H2       HT       0.417000       1.00800           0
     29032 TIP3     2196     TIP3     OH2      OT      -0.834000       15.9994           0
     29033 TIP3     2196     TIP3     H1       HT       0.417000       1.00800           0
     29034 TIP3     2196     TIP3     H2       HT       0.417000       1.00800           0
     29035 TIP3     2197     TIP3     OH2      OT      -0.834000       15.9994           0
     29036 TIP3     2197     TIP3     H1       HT       0.417000       1.00800           0
     29037 TIP3     2197     TIP3     H2       HT       0.417000       1.00800           0
     29038 TIP3     2198     TIP3     OH2      OT      -0.834000       15.9994           0
     29039 TIP3     2198     TIP3     H1       HT       0.417000       1.00800           0
     29040 TIP3     2198     TIP3     H2       HT       0.417000       1.00800           0
     29041 TIP3     2199     TIP3     OH2      OT      -0.834000       15.9994           0
     29042 TIP3     2199     TIP3     H1       HT       0.417000       1.00800           0
     29043 TIP3     2199     TIP3     H2       HT       0.417000       1.00800           0
     29044 TIP3     2200     TIP3     OH2      OT      -0.834000       15.9994           0
     29045 TIP3     2200     TIP3     H1       HT       0.417000       1.00800           0
     29046 TIP3     2200     TIP3     H2       HT       0.417000       1.00800           0
     29047 TIP3     2201     TIP3     OH2      OT      -0.834000       15.9994           0
     29048 TIP3     2201     TIP3     H1       HT       0.417000       1.00800           0
     29049 TIP3     2201     TIP3     H2       HT       0.417000       1.00800           0
     29050 TIP3     2202     TIP3     OH2      OT      -0.834000       15.9994           0
     29051 TIP3     2202     TIP3     H1       HT       0.417000       1.00800           0
     29052 TIP3     2202     TIP3     H2       HT       0.417000       1.00800           0
     29053 TIP3     2203     TIP3     OH2      OT      -0.834000       15.9994           0
     29054 TIP3     2203     TIP3     H1       HT       0.417000       1.00800           0
     29055 TIP3     2203     TIP3     H2       HT       0.417000       1.00800           0
     29056 TIP3     2204     TIP3     OH2      OT      -0.834000       15.9994           0
     29057 TIP3     2204     TIP3     H1       HT       0.417000       1.00800           0
     29058 TIP3     2204     TIP3     H2       HT       0.417000       1.00800           0
     29059 TIP3     2205     TIP3     OH2      OT      -0.834000       15.9994           0
     29060 TIP3     2205     TIP3     H1       HT       0.417000       1.00800           0
     29061 TIP3     2205     TIP3     H2       HT       0.417000       1.00800           0
     29062 TIP3     2206     TIP3     OH2      OT      -0.834000       15.9994           0
     29063 TIP3     2206     TIP3     H1       HT       0.417000       1.00800           0
     29064 TIP3     2206     TIP3     H2       HT       0.417000       1.00800           0
     29065 TIP3     2207     TIP3     OH2      OT      -0.834000       15.9994           0
     29066 TIP3     2207     TIP3     H1       HT       0.417000       1.00800           0
     29067 TIP3     2207     TIP3     H2       HT       0.417000       1.00800           0
     29068 TIP3     2208     TIP3     OH2      OT      -0.834000       15.9994           0
     29069 TIP3     2208     TIP3     H1       HT       0.417000       1.00800           0
     29070 TIP3     2208     TIP3     H2       HT       0.417000       1.00800           0
     29071 TIP3     2209     TIP3     OH2      OT      -0.834000       15.9994           0
     29072 TIP3     2209     TIP3     H1       HT       0.417000       1.00800           0
     29073 TIP3     2209     TIP3     H2       HT       0.417000       1.00800           0
     29074 TIP3     2210     TIP3     OH2      OT      -0.834000       15.9994           0
     29075 TIP3     2210     TIP3     H1       HT       0.417000       1.00800           0
     29076 TIP3     2210     TIP3     H2       HT       0.417000       1.00800           0
     29077 TIP3     2211     TIP3     OH2      OT      -0.834000       15.9994           0
     29078 TIP3     2211     TIP3     H1       HT       0.417000       1.00800           0
     29079 TIP3     2211     TIP3     H2       HT       0.417000       1.00800           0
     29080 TIP3     2212     TIP3     OH2      OT      -0.834000       15.9994           0
     29081 TIP3     2212     TIP3     H1       HT       0.417000       1.00800           0
     29082 TIP3     2212     TIP3     H2       HT       0.417000       1.00800           0
     29083 TIP3     2213     TIP3     OH2      OT      -0.834000       15.9994           0
     29084 TIP3     2213     TIP3     H1       HT       0.417000       1.00800           0
     29085 TIP3     2213     TIP3     H2       HT       0.417000       1.00800           0
     29086 TIP3     2214     TIP3     OH2      OT      -0.834000       15.9994           0
     29087 TIP3     2214     TIP3     H1       HT       0.417000       1.00800           0
     29088 TIP3     2214     TIP3     H2       HT       0.417000       1.00800           0
     29089 TIP3     2215     TIP3     OH2      OT      -0.834000       15.9994           0
     29090 TIP3     2215     TIP3     H1       HT       0.417000       1.00800           0
     29091 TIP3     2215     TIP3     H2       HT       0.417000       1.00800           0
     29092 TIP3     2216     TIP3     OH2      OT      -0.834000       15.9994           0
     29093 TIP3     2216     TIP3     H1       HT       0.417000       1.00800           0
     29094 TIP3     2216     TIP3     H2       HT       0.417000       1.00800           0
     29095 TIP3     2217     TIP3     OH2      OT      -0.834000       15.9994           0
     29096 TIP3     2217     TIP3     H1       HT       0.417000       1.00800           0
     29097 TIP3     2217     TIP3     H2       HT       0.417000       1.00800           0
     29098 TIP3     2218     TIP3     OH2      OT      -0.834000       15.9994           0
     29099 TIP3     2218     TIP3     H1       HT       0.417000       1.00800           0
     29100 TIP3     2218     TIP3     H2       HT       0.417000       1.00800           0
     29101 TIP3     2219     TIP3     OH2      OT      -0.834000       15.9994           0
     29102 TIP3     2219     TIP3     H1       HT       0.417000       1.00800           0
     29103 TIP3     2219     TIP3     H2       HT       0.417000       1.00800           0
     29104 TIP3     2220     TIP3     OH2      OT      -0.834000       15.9994           0
     29105 TIP3     2220     TIP3     H1       HT       0.417000       1.00800           0
     29106 TIP3     2220     TIP3     H2       HT       0.417000       1.00800           0
     29107 TIP3     2221     TIP3     OH2      OT      -0.834000       15.9994           0
     29108 TIP3     2221     TIP3     H1       HT       0.417000       1.00800           0
     29109 TIP3     2221     TIP3     H2       HT       0.417000       1.00800           0
     29110 TIP3     2222     TIP3     OH2      OT      -0.834000       15.9994           0
     29111 TIP3     2222     TIP3     H1       HT       0.417000       1.00800           0
     29112 TIP3     2222     TIP3     H2       HT       0.417000       1.00800           0
     29113 TIP3     2223     TIP3     OH2      OT      -0.834000       15.9994           0
     29114 TIP3     2223     TIP3     H1       HT       0.417000       1.00800           0
     29115 TIP3     2223     TIP3     H2       HT       0.417000       1.00800           0
     29116 TIP3     2224     TIP3     OH2      OT      -0.834000       15.9994           0
     29117 TIP3     2224     TIP3     H1       HT       0.417000       1.00800           0
     29118 TIP3     2224     TIP3     H2       HT       0.417000       1.00800           0
     29119 TIP3     2225     TIP3     OH2      OT      -0.834000       15.9994           0
     29120 TIP3     2225     TIP3     H1       HT       0.417000       1.00800           0
     29121 TIP3     2225     TIP3     H2       HT       0.417000       1.00800           0
     29122 TIP3     2226     TIP3     OH2      OT      -0.834000       15.9994           0
     29123 TIP3     2226     TIP3     H1       HT       0.417000       1.00800           0
     29124 TIP3     2226     TIP3     H2       HT       0.417000       1.00800           0
     29125 TIP3     2227     TIP3     OH2      OT      -0.834000       15.9994           0
     29126 TIP3     2227     TIP3     H1       HT       0.417000       1.00800           0
     29127 TIP3     2227     TIP3     H2       HT       0.417000       1.00800           0
     29128 TIP3     2228     TIP3     OH2      OT      -0.834000       15.9994           0
     29129 TIP3     2228     TIP3     H1       HT       0.417000       1.00800           0
     29130 TIP3     2228     TIP3     H2       HT       0.417000       1.00800           0
     29131 TIP3     2229     TIP3     OH2      OT      -0.834000       15.9994           0
     29132 TIP3     2229     TIP3     H1       HT       0.417000       1.00800           0
     29133 TIP3     2229     TIP3     H2       HT       0.417000       1.00800           0
     29134 TIP3     2230     TIP3     OH2      OT      -0.834000       15.9994           0
     29135 TIP3     2230     TIP3     H1       HT       0.417000       1.00800           0
     29136 TIP3     2230     TIP3     H2       HT       0.417000       1.00800           0
     29137 TIP3     2231     TIP3     OH2      OT      -0.834000       15.9994           0
     29138 TIP3     2231     TIP3     H1       HT       0.417000       1.00800           0
     29139 TIP3     2231     TIP3     H2       HT       0.417000       1.00800           0
     29140 TIP3     2232     TIP3     OH2      OT      -0.834000       15.9994           0
     29141 TIP3     2232     TIP3     H1       HT       0.417000       1.00800           0
     29142 TIP3     2232     TIP3     H2       HT       0.417000       1.00800           0
     29143 TIP3     2233     TIP3     OH2      OT      -0.834000       15.9994           0
     29144 TIP3     2233     TIP3     H1       HT       0.417000       1.00800           0
     29145 TIP3     2233     TIP3     H2       HT       0.417000       1.00800           0
     29146 TIP3     2234     TIP3     OH2      OT      -0.834000       15.9994           0
     29147 TIP3     2234     TIP3     H1       HT       0.417000       1.00800           0
     29148 TIP3     2234     TIP3     H2       HT       0.417000       1.00800           0
     29149 TIP3     2235     TIP3     OH2      OT      -0.834000       15.9994           0
     29150 TIP3     2235     TIP3     H1       HT       0.417000       1.00800           0
     29151 TIP3     2235     TIP3     H2       HT       0.417000       1.00800           0
     29152 TIP3     2236     TIP3     OH2      OT      -0.834000       15.9994           0
     29153 TIP3     2236     TIP3     H1       HT       0.417000       1.00800           0
     29154 TIP3     2236     TIP3     H2       HT       0.417000       1.00800           0
     29155 TIP3     2237     TIP3     OH2      OT      -0.834000       15.9994           0
     29156 TIP3     2237     TIP3     H1       HT       0.417000       1.00800           0
     29157 TIP3     2237     TIP3     H2       HT       0.417000       1.00800           0
     29158 TIP3     2238     TIP3     OH2      OT      -0.834000       15.9994           0
     29159 TIP3     2238     TIP3     H1       HT       0.417000       1.00800           0
     29160 TIP3     2238     TIP3     H2       HT       0.417000       1.00800           0
     29161 TIP3     2239     TIP3     OH2      OT      -0.834000       15.9994           0
     29162 TIP3     2239     TIP3     H1       HT       0.417000       1.00800           0
     29163 TIP3     2239     TIP3     H2       HT       0.417000       1.00800           0
     29164 TIP3     2240     TIP3     OH2      OT      -0.834000       15.9994           0
     29165 TIP3     2240     TIP3     H1       HT       0.417000       1.00800           0
     29166 TIP3     2240     TIP3     H2       HT       0.417000       1.00800           0
     29167 TIP3     2241     TIP3     OH2      OT      -0.834000       15.9994           0
     29168 TIP3     2241     TIP3     H1       HT       0.417000       1.00800           0
     29169 TIP3     2241     TIP3     H2       HT       0.417000       1.00800           0
     29170 TIP3     2242     TIP3     OH2      OT      -0.834000       15.9994           0
     29171 TIP3     2242     TIP3     H1       HT       0.417000       1.00800           0
     29172 TIP3     2242     TIP3     H2       HT       0.417000       1.00800           0
     29173 TIP3     2243     TIP3     OH2      OT      -0.834000       15.9994           0
     29174 TIP3     2243     TIP3     H1       HT       0.417000       1.00800           0
     29175 TIP3     2243     TIP3     H2       HT       0.417000       1.00800           0
     29176 TIP3     2244     TIP3     OH2      OT      -0.834000       15.9994           0
     29177 TIP3     2244     TIP3     H1       HT       0.417000       1.00800           0
     29178 TIP3     2244     TIP3     H2       HT       0.417000       1.00800           0
     29179 TIP3     2245     TIP3     OH2      OT      -0.834000       15.9994           0
     29180 TIP3     2245     TIP3     H1       HT       0.417000       1.00800           0
     29181 TIP3     2245     TIP3     H2       HT       0.417000       1.00800           0
     29182 TIP3     2246     TIP3     OH2      OT      -0.834000       15.9994           0
     29183 TIP3     2246     TIP3     H1       HT       0.417000       1.00800           0
     29184 TIP3     2246     TIP3     H2       HT       0.417000       1.00800           0
     29185 TIP3     2247     TIP3     OH2      OT      -0.834000       15.9994           0
     29186 TIP3     2247     TIP3     H1       HT       0.417000       1.00800           0
     29187 TIP3     2247     TIP3     H2       HT       0.417000       1.00800           0
     29188 TIP3     2248     TIP3     OH2      OT      -0.834000       15.9994           0
     29189 TIP3     2248     TIP3     H1       HT       0.417000       1.00800           0
     29190 TIP3     2248     TIP3     H2       HT       0.417000       1.00800           0
     29191 TIP3     2249     TIP3     OH2      OT      -0.834000       15.9994           0
     29192 TIP3     2249     TIP3     H1       HT       0.417000       1.00800           0
     29193 TIP3     2249     TIP3     H2       HT       0.417000       1.00800           0
     29194 TIP3     2250     TIP3     OH2      OT      -0.834000       15.9994           0
     29195 TIP3     2250     TIP3     H1       HT       0.417000       1.00800           0
     29196 TIP3     2250     TIP3     H2       HT       0.417000       1.00800           0
     29197 TIP3     2251     TIP3     OH2      OT      -0.834000       15.9994           0
     29198 TIP3     2251     TIP3     H1       HT       0.417000       1.00800           0
     29199 TIP3     2251     TIP3     H2       HT       0.417000       1.00800           0
     29200 TIP3     2252     TIP3     OH2      OT      -0.834000       15.9994           0
     29201 TIP3     2252     TIP3     H1       HT       0.417000       1.00800           0
     29202 TIP3     2252     TIP3     H2       HT       0.417000       1.00800           0
     29203 TIP3     2253     TIP3     OH2      OT      -0.834000       15.9994           0
     29204 TIP3     2253     TIP3     H1       HT       0.417000       1.00800           0
     29205 TIP3     2253     TIP3     H2       HT       0.417000       1.00800           0
     29206 TIP3     2254     TIP3     OH2      OT      -0.834000       15.9994           0
     29207 TIP3     2254     TIP3     H1       HT       0.417000       1.00800           0
     29208 TIP3     2254     TIP3     H2       HT       0.417000       1.00800           0
     29209 TIP3     2255     TIP3     OH2      OT      -0.834000       15.9994           0
     29210 TIP3     2255     TIP3     H1       HT       0.417000       1.00800           0
     29211 TIP3     2255     TIP3     H2       HT       0.417000       1.00800           0
     29212 TIP3     2256     TIP3     OH2      OT      -0.834000       15.9994           0
     29213 TIP3     2256     TIP3     H1       HT       0.417000       1.00800           0
     29214 TIP3     2256     TIP3     H2       HT       0.417000       1.00800           0
     29215 TIP3     2257     TIP3     OH2      OT      -0.834000       15.9994           0
     29216 TIP3     2257     TIP3     H1       HT       0.417000       1.00800           0
     29217 TIP3     2257     TIP3     H2       HT       0.417000       1.00800           0
     29218 TIP3     2258     TIP3     OH2      OT      -0.834000       15.9994           0
     29219 TIP3     2258     TIP3     H1       HT       0.417000       1.00800           0
     29220 TIP3     2258     TIP3     H2       HT       0.417000       1.00800           0
     29221 TIP3     2259     TIP3     OH2      OT      -0.834000       15.9994           0
     29222 TIP3     2259     TIP3     H1       HT       0.417000       1.00800           0
     29223 TIP3     2259     TIP3     H2       HT       0.417000       1.00800           0
     29224 TIP3     2260     TIP3     OH2      OT      -0.834000       15.9994           0
     29225 TIP3     2260     TIP3     H1       HT       0.417000       1.00800           0
     29226 TIP3     2260     TIP3     H2       HT       0.417000       1.00800           0
     29227 TIP3     2261     TIP3     OH2      OT      -0.834000       15.9994           0
     29228 TIP3     2261     TIP3     H1       HT       0.417000       1.00800           0
     29229 TIP3     2261     TIP3     H2       HT       0.417000       1.00800           0
     29230 TIP3     2262     TIP3     OH2      OT      -0.834000       15.9994           0
     29231 TIP3     2262     TIP3     H1       HT       0.417000       1.00800           0
     29232 TIP3     2262     TIP3     H2       HT       0.417000       1.00800           0
     29233 TIP3     2263     TIP3     OH2      OT      -0.834000       15.9994           0
     29234 TIP3     2263     TIP3     H1       HT       0.417000       1.00800           0
     29235 TIP3     2263     TIP3     H2       HT       0.417000       1.00800           0
     29236 TIP3     2264     TIP3     OH2      OT      -0.834000       15.9994           0
     29237 TIP3     2264     TIP3     H1       HT       0.417000       1.00800           0
     29238 TIP3     2264     TIP3     H2       HT       0.417000       1.00800           0
     29239 TIP3     2265     TIP3     OH2      OT      -0.834000       15.9994           0
     29240 TIP3     2265     TIP3     H1       HT       0.417000       1.00800           0
     29241 TIP3     2265     TIP3     H2       HT       0.417000       1.00800           0
     29242 TIP3     2266     TIP3     OH2      OT      -0.834000       15.9994           0
     29243 TIP3     2266     TIP3     H1       HT       0.417000       1.00800           0
     29244 TIP3     2266     TIP3     H2       HT       0.417000       1.00800           0
     29245 TIP3     2267     TIP3     OH2      OT      -0.834000       15.9994           0
     29246 TIP3     2267     TIP3     H1       HT       0.417000       1.00800           0
     29247 TIP3     2267     TIP3     H2       HT       0.417000       1.00800           0
     29248 TIP3     2268     TIP3     OH2      OT      -0.834000       15.9994           0
     29249 TIP3     2268     TIP3     H1       HT       0.417000       1.00800           0
     29250 TIP3     2268     TIP3     H2       HT       0.417000       1.00800           0
     29251 TIP3     2269     TIP3     OH2      OT      -0.834000       15.9994           0
     29252 TIP3     2269     TIP3     H1       HT       0.417000       1.00800           0
     29253 TIP3     2269     TIP3     H2       HT       0.417000       1.00800           0
     29254 TIP3     2270     TIP3     OH2      OT      -0.834000       15.9994           0
     29255 TIP3     2270     TIP3     H1       HT       0.417000       1.00800           0
     29256 TIP3     2270     TIP3     H2       HT       0.417000       1.00800           0
     29257 TIP3     2271     TIP3     OH2      OT      -0.834000       15.9994           0
     29258 TIP3     2271     TIP3     H1       HT       0.417000       1.00800           0
     29259 TIP3     2271     TIP3     H2       HT       0.417000       1.00800           0
     29260 TIP3     2272     TIP3     OH2      OT      -0.834000       15.9994           0
     29261 TIP3     2272     TIP3     H1       HT       0.417000       1.00800           0
     29262 TIP3     2272     TIP3     H2       HT       0.417000       1.00800           0
     29263 TIP3     2273     TIP3     OH2      OT      -0.834000       15.9994           0
     29264 TIP3     2273     TIP3     H1       HT       0.417000       1.00800           0
     29265 TIP3     2273     TIP3     H2       HT       0.417000       1.00800           0
     29266 TIP3     2274     TIP3     OH2      OT      -0.834000       15.9994           0
     29267 TIP3     2274     TIP3     H1       HT       0.417000       1.00800           0
     29268 TIP3     2274     TIP3     H2       HT       0.417000       1.00800           0
     29269 TIP3     2275     TIP3     OH2      OT      -0.834000       15.9994           0
     29270 TIP3     2275     TIP3     H1       HT       0.417000       1.00800           0
     29271 TIP3     2275     TIP3     H2       HT       0.417000       1.00800           0
     29272 TIP3     2276     TIP3     OH2      OT      -0.834000       15.9994           0
     29273 TIP3     2276     TIP3     H1       HT       0.417000       1.00800           0
     29274 TIP3     2276     TIP3     H2       HT       0.417000       1.00800           0
     29275 TIP3     2277     TIP3     OH2      OT      -0.834000       15.9994           0
     29276 TIP3     2277     TIP3     H1       HT       0.417000       1.00800           0
     29277 TIP3     2277     TIP3     H2       HT       0.417000       1.00800           0
     29278 TIP3     2278     TIP3     OH2      OT      -0.834000       15.9994           0
     29279 TIP3     2278     TIP3     H1       HT       0.417000       1.00800           0
     29280 TIP3     2278     TIP3     H2       HT       0.417000       1.00800           0
     29281 TIP3     2279     TIP3     OH2      OT      -0.834000       15.9994           0
     29282 TIP3     2279     TIP3     H1       HT       0.417000       1.00800           0
     29283 TIP3     2279     TIP3     H2       HT       0.417000       1.00800           0
     29284 TIP3     2280     TIP3     OH2      OT      -0.834000       15.9994           0
     29285 TIP3     2280     TIP3     H1       HT       0.417000       1.00800           0
     29286 TIP3     2280     TIP3     H2       HT       0.417000       1.00800           0
     29287 TIP3     2281     TIP3     OH2      OT      -0.834000       15.9994           0
     29288 TIP3     2281     TIP3     H1       HT       0.417000       1.00800           0
     29289 TIP3     2281     TIP3     H2       HT       0.417000       1.00800           0
     29290 TIP3     2282     TIP3     OH2      OT      -0.834000       15.9994           0
     29291 TIP3     2282     TIP3     H1       HT       0.417000       1.00800           0
     29292 TIP3     2282     TIP3     H2       HT       0.417000       1.00800           0
     29293 TIP3     2283     TIP3     OH2      OT      -0.834000       15.9994           0
     29294 TIP3     2283     TIP3     H1       HT       0.417000       1.00800           0
     29295 TIP3     2283     TIP3     H2       HT       0.417000       1.00800           0
     29296 TIP3     2284     TIP3     OH2      OT      -0.834000       15.9994           0
     29297 TIP3     2284     TIP3     H1       HT       0.417000       1.00800           0
     29298 TIP3     2284     TIP3     H2       HT       0.417000       1.00800           0
     29299 TIP3     2285     TIP3     OH2      OT      -0.834000       15.9994           0
     29300 TIP3     2285     TIP3     H1       HT       0.417000       1.00800           0
     29301 TIP3     2285     TIP3     H2       HT       0.417000       1.00800           0
     29302 TIP3     2286     TIP3     OH2      OT      -0.834000       15.9994           0
     29303 TIP3     2286     TIP3     H1       HT       0.417000       1.00800           0
     29304 TIP3     2286     TIP3     H2       HT       0.417000       1.00800           0
     29305 TIP3     2287     TIP3     OH2      OT      -0.834000       15.9994           0
     29306 TIP3     2287     TIP3     H1       HT       0.417000       1.00800           0
     29307 TIP3     2287     TIP3     H2       HT       0.417000       1.00800           0
     29308 TIP3     2288     TIP3     OH2      OT      -0.834000       15.9994           0
     29309 TIP3     2288     TIP3     H1       HT       0.417000       1.00800           0
     29310 TIP3     2288     TIP3     H2       HT       0.417000       1.00800           0
     29311 TIP3     2289     TIP3     OH2      OT      -0.834000       15.9994           0
     29312 TIP3     2289     TIP3     H1       HT       0.417000       1.00800           0
     29313 TIP3     2289     TIP3     H2       HT       0.417000       1.00800           0
     29314 TIP3     2290     TIP3     OH2      OT      -0.834000       15.9994           0
     29315 TIP3     2290     TIP3     H1       HT       0.417000       1.00800           0
     29316 TIP3     2290     TIP3     H2       HT       0.417000       1.00800           0
     29317 TIP3     2291     TIP3     OH2      OT      -0.834000       15.9994           0
     29318 TIP3     2291     TIP3     H1       HT       0.417000       1.00800           0
     29319 TIP3     2291     TIP3     H2       HT       0.417000       1.00800           0
     29320 TIP3     2292     TIP3     OH2      OT      -0.834000       15.9994           0
     29321 TIP3     2292     TIP3     H1       HT       0.417000       1.00800           0
     29322 TIP3     2292     TIP3     H2       HT       0.417000       1.00800           0
     29323 TIP3     2293     TIP3     OH2      OT      -0.834000       15.9994           0
     29324 TIP3     2293     TIP3     H1       HT       0.417000       1.00800           0
     29325 TIP3     2293     TIP3     H2       HT       0.417000       1.00800           0
     29326 TIP3     2294     TIP3     OH2      OT      -0.834000       15.9994           0
     29327 TIP3     2294     TIP3     H1       HT       0.417000       1.00800           0
     29328 TIP3     2294     TIP3     H2       HT       0.417000       1.00800           0
     29329 TIP3     2295     TIP3     OH2      OT      -0.834000       15.9994           0
     29330 TIP3     2295     TIP3     H1       HT       0.417000       1.00800           0
     29331 TIP3     2295     TIP3     H2       HT       0.417000       1.00800           0
     29332 TIP3     2296     TIP3     OH2      OT      -0.834000       15.9994           0
     29333 TIP3     2296     TIP3     H1       HT       0.417000       1.00800           0
     29334 TIP3     2296     TIP3     H2       HT       0.417000       1.00800           0
     29335 TIP3     2297     TIP3     OH2      OT      -0.834000       15.9994           0
     29336 TIP3     2297     TIP3     H1       HT       0.417000       1.00800           0
     29337 TIP3     2297     TIP3     H2       HT       0.417000       1.00800           0
     29338 TIP3     2298     TIP3     OH2      OT      -0.834000       15.9994           0
     29339 TIP3     2298     TIP3     H1       HT       0.417000       1.00800           0
     29340 TIP3     2298     TIP3     H2       HT       0.417000       1.00800           0
     29341 TIP3     2299     TIP3     OH2      OT      -0.834000       15.9994           0
     29342 TIP3     2299     TIP3     H1       HT       0.417000       1.00800           0
     29343 TIP3     2299     TIP3     H2       HT       0.417000       1.00800           0
     29344 TIP3     2300     TIP3     OH2      OT      -0.834000       15.9994           0
     29345 TIP3     2300     TIP3     H1       HT       0.417000       1.00800           0
     29346 TIP3     2300     TIP3     H2       HT       0.417000       1.00800           0
     29347 TIP3     2301     TIP3     OH2      OT      -0.834000       15.9994           0
     29348 TIP3     2301     TIP3     H1       HT       0.417000       1.00800           0
     29349 TIP3     2301     TIP3     H2       HT       0.417000       1.00800           0
     29350 TIP3     2302     TIP3     OH2      OT      -0.834000       15.9994           0
     29351 TIP3     2302     TIP3     H1       HT       0.417000       1.00800           0
     29352 TIP3     2302     TIP3     H2       HT       0.417000       1.00800           0
     29353 TIP3     2303     TIP3     OH2      OT      -0.834000       15.9994           0
     29354 TIP3     2303     TIP3     H1       HT       0.417000       1.00800           0
     29355 TIP3     2303     TIP3     H2       HT       0.417000       1.00800           0
     29356 TIP3     2304     TIP3     OH2      OT      -0.834000       15.9994           0
     29357 TIP3     2304     TIP3     H1       HT       0.417000       1.00800           0
     29358 TIP3     2304     TIP3     H2       HT       0.417000       1.00800           0
     29359 TIP3     2305     TIP3     OH2      OT      -0.834000       15.9994           0
     29360 TIP3     2305     TIP3     H1       HT       0.417000       1.00800           0
     29361 TIP3     2305     TIP3     H2       HT       0.417000       1.00800           0
     29362 TIP3     2306     TIP3     OH2      OT      -0.834000       15.9994           0
     29363 TIP3     2306     TIP3     H1       HT       0.417000       1.00800           0
     29364 TIP3     2306     TIP3     H2       HT       0.417000       1.00800           0
     29365 TIP3     2307     TIP3     OH2      OT      -0.834000       15.9994           0
     29366 TIP3     2307     TIP3     H1       HT       0.417000       1.00800           0
     29367 TIP3     2307     TIP3     H2       HT       0.417000       1.00800           0
     29368 TIP3     2308     TIP3     OH2      OT      -0.834000       15.9994           0
     29369 TIP3     2308     TIP3     H1       HT       0.417000       1.00800           0
     29370 TIP3     2308     TIP3     H2       HT       0.417000       1.00800           0
     29371 TIP3     2309     TIP3     OH2      OT      -0.834000       15.9994           0
     29372 TIP3     2309     TIP3     H1       HT       0.417000       1.00800           0
     29373 TIP3     2309     TIP3     H2       HT       0.417000       1.00800           0
     29374 TIP3     2310     TIP3     OH2      OT      -0.834000       15.9994           0
     29375 TIP3     2310     TIP3     H1       HT       0.417000       1.00800           0
     29376 TIP3     2310     TIP3     H2       HT       0.417000       1.00800           0
     29377 TIP3     2311     TIP3     OH2      OT      -0.834000       15.9994           0
     29378 TIP3     2311     TIP3     H1       HT       0.417000       1.00800           0
     29379 TIP3     2311     TIP3     H2       HT       0.417000       1.00800           0
     29380 TIP3     2312     TIP3     OH2      OT      -0.834000       15.9994           0
     29381 TIP3     2312     TIP3     H1       HT       0.417000       1.00800           0
     29382 TIP3     2312     TIP3     H2       HT       0.417000       1.00800           0
     29383 TIP3     2313     TIP3     OH2      OT      -0.834000       15.9994           0
     29384 TIP3     2313     TIP3     H1       HT       0.417000       1.00800           0
     29385 TIP3     2313     TIP3     H2       HT       0.417000       1.00800           0
     29386 TIP3     2314     TIP3     OH2      OT      -0.834000       15.9994           0
     29387 TIP3     2314     TIP3     H1       HT       0.417000       1.00800           0
     29388 TIP3     2314     TIP3     H2       HT       0.417000       1.00800           0
     29389 TIP3     2315     TIP3     OH2      OT      -0.834000       15.9994           0
     29390 TIP3     2315     TIP3     H1       HT       0.417000       1.00800           0
     29391 TIP3     2315     TIP3     H2       HT       0.417000       1.00800           0
     29392 TIP3     2316     TIP3     OH2      OT      -0.834000       15.9994           0
     29393 TIP3     2316     TIP3     H1       HT       0.417000       1.00800           0
     29394 TIP3     2316     TIP3     H2       HT       0.417000       1.00800           0
     29395 TIP3     2317     TIP3     OH2      OT      -0.834000       15.9994           0
     29396 TIP3     2317     TIP3     H1       HT       0.417000       1.00800           0
     29397 TIP3     2317     TIP3     H2       HT       0.417000       1.00800           0
     29398 TIP3     2318     TIP3     OH2      OT      -0.834000       15.9994           0
     29399 TIP3     2318     TIP3     H1       HT       0.417000       1.00800           0
     29400 TIP3     2318     TIP3     H2       HT       0.417000       1.00800           0
     29401 TIP3     2319     TIP3     OH2      OT      -0.834000       15.9994           0
     29402 TIP3     2319     TIP3     H1       HT       0.417000       1.00800           0
     29403 TIP3     2319     TIP3     H2       HT       0.417000       1.00800           0
     29404 TIP3     2320     TIP3     OH2      OT      -0.834000       15.9994           0
     29405 TIP3     2320     TIP3     H1       HT       0.417000       1.00800           0
     29406 TIP3     2320     TIP3     H2       HT       0.417000       1.00800           0
     29407 TIP3     2321     TIP3     OH2      OT      -0.834000       15.9994           0
     29408 TIP3     2321     TIP3     H1       HT       0.417000       1.00800           0
     29409 TIP3     2321     TIP3     H2       HT       0.417000       1.00800           0
     29410 TIP3     2322     TIP3     OH2      OT      -0.834000       15.9994           0
     29411 TIP3     2322     TIP3     H1       HT       0.417000       1.00800           0
     29412 TIP3     2322     TIP3     H2       HT       0.417000       1.00800           0
     29413 TIP3     2323     TIP3     OH2      OT      -0.834000       15.9994           0
     29414 TIP3     2323     TIP3     H1       HT       0.417000       1.00800           0
     29415 TIP3     2323     TIP3     H2       HT       0.417000       1.00800           0
     29416 TIP3     2324     TIP3     OH2      OT      -0.834000       15.9994           0
     29417 TIP3     2324     TIP3     H1       HT       0.417000       1.00800           0
     29418 TIP3     2324     TIP3     H2       HT       0.417000       1.00800           0
     29419 TIP3     2325     TIP3     OH2      OT      -0.834000       15.9994           0
     29420 TIP3     2325     TIP3     H1       HT       0.417000       1.00800           0
     29421 TIP3     2325     TIP3     H2       HT       0.417000       1.00800           0
     29422 TIP3     2326     TIP3     OH2      OT      -0.834000       15.9994           0
     29423 TIP3     2326     TIP3     H1       HT       0.417000       1.00800           0
     29424 TIP3     2326     TIP3     H2       HT       0.417000       1.00800           0
     29425 TIP3     2327     TIP3     OH2      OT      -0.834000       15.9994           0
     29426 TIP3     2327     TIP3     H1       HT       0.417000       1.00800           0
     29427 TIP3     2327     TIP3     H2       HT       0.417000       1.00800           0
     29428 TIP3     2328     TIP3     OH2      OT      -0.834000       15.9994           0
     29429 TIP3     2328     TIP3     H1       HT       0.417000       1.00800           0
     29430 TIP3     2328     TIP3     H2       HT       0.417000       1.00800           0
     29431 TIP3     2329     TIP3     OH2      OT      -0.834000       15.9994           0
     29432 TIP3     2329     TIP3     H1       HT       0.417000       1.00800           0
     29433 TIP3     2329     TIP3     H2       HT       0.417000       1.00800           0
     29434 TIP3     2330     TIP3     OH2      OT      -0.834000       15.9994           0
     29435 TIP3     2330     TIP3     H1       HT       0.417000       1.00800           0
     29436 TIP3     2330     TIP3     H2       HT       0.417000       1.00800           0
     29437 TIP3     2331     TIP3     OH2      OT      -0.834000       15.9994           0
     29438 TIP3     2331     TIP3     H1       HT       0.417000       1.00800           0
     29439 TIP3     2331     TIP3     H2       HT       0.417000       1.00800           0
     29440 TIP3     2332     TIP3     OH2      OT      -0.834000       15.9994           0
     29441 TIP3     2332     TIP3     H1       HT       0.417000       1.00800           0
     29442 TIP3     2332     TIP3     H2       HT       0.417000       1.00800           0
     29443 TIP3     2333     TIP3     OH2      OT      -0.834000       15.9994           0
     29444 TIP3     2333     TIP3     H1       HT       0.417000       1.00800           0
     29445 TIP3     2333     TIP3     H2       HT       0.417000       1.00800           0
     29446 TIP3     2334     TIP3     OH2      OT      -0.834000       15.9994           0
     29447 TIP3     2334     TIP3     H1       HT       0.417000       1.00800           0
     29448 TIP3     2334     TIP3     H2       HT       0.417000       1.00800           0
     29449 TIP3     2335     TIP3     OH2      OT      -0.834000       15.9994           0
     29450 TIP3     2335     TIP3     H1       HT       0.417000       1.00800           0
     29451 TIP3     2335     TIP3     H2       HT       0.417000       1.00800           0
     29452 TIP3     2336     TIP3     OH2      OT      -0.834000       15.9994           0
     29453 TIP3     2336     TIP3     H1       HT       0.417000       1.00800           0
     29454 TIP3     2336     TIP3     H2       HT       0.417000       1.00800           0
     29455 TIP3     2337     TIP3     OH2      OT      -0.834000       15.9994           0
     29456 TIP3     2337     TIP3     H1       HT       0.417000       1.00800           0
     29457 TIP3     2337     TIP3     H2       HT       0.417000       1.00800           0
     29458 TIP3     2338     TIP3     OH2      OT      -0.834000       15.9994           0
     29459 TIP3     2338     TIP3     H1       HT       0.417000       1.00800           0
     29460 TIP3     2338     TIP3     H2       HT       0.417000       1.00800           0
     29461 TIP3     2339     TIP3     OH2      OT      -0.834000       15.9994           0
     29462 TIP3     2339     TIP3     H1       HT       0.417000       1.00800           0
     29463 TIP3     2339     TIP3     H2       HT       0.417000       1.00800           0
     29464 TIP3     2340     TIP3     OH2      OT      -0.834000       15.9994           0
     29465 TIP3     2340     TIP3     H1       HT       0.417000       1.00800           0
     29466 TIP3     2340     TIP3     H2       HT       0.417000       1.00800           0
     29467 TIP3     2341     TIP3     OH2      OT      -0.834000       15.9994           0
     29468 TIP3     2341     TIP3     H1       HT       0.417000       1.00800           0
     29469 TIP3     2341     TIP3     H2       HT       0.417000       1.00800           0
     29470 TIP3     2342     TIP3     OH2      OT      -0.834000       15.9994           0
     29471 TIP3     2342     TIP3     H1       HT       0.417000       1.00800           0
     29472 TIP3     2342     TIP3     H2       HT       0.417000       1.00800           0
     29473 TIP3     2343     TIP3     OH2      OT      -0.834000       15.9994           0
     29474 TIP3     2343     TIP3     H1       HT       0.417000       1.00800           0
     29475 TIP3     2343     TIP3     H2       HT       0.417000       1.00800           0
     29476 TIP3     2344     TIP3     OH2      OT      -0.834000       15.9994           0
     29477 TIP3     2344     TIP3     H1       HT       0.417000       1.00800           0
     29478 TIP3     2344     TIP3     H2       HT       0.417000       1.00800           0
     29479 TIP3     2345     TIP3     OH2      OT      -0.834000       15.9994           0
     29480 TIP3     2345     TIP3     H1       HT       0.417000       1.00800           0
     29481 TIP3     2345     TIP3     H2       HT       0.417000       1.00800           0
     29482 TIP3     2346     TIP3     OH2      OT      -0.834000       15.9994           0
     29483 TIP3     2346     TIP3     H1       HT       0.417000       1.00800           0
     29484 TIP3     2346     TIP3     H2       HT       0.417000       1.00800           0
     29485 TIP3     2347     TIP3     OH2      OT      -0.834000       15.9994           0
     29486 TIP3     2347     TIP3     H1       HT       0.417000       1.00800           0
     29487 TIP3     2347     TIP3     H2       HT       0.417000       1.00800           0
     29488 TIP3     2348     TIP3     OH2      OT      -0.834000       15.9994           0
     29489 TIP3     2348     TIP3     H1       HT       0.417000       1.00800           0
     29490 TIP3     2348     TIP3     H2       HT       0.417000       1.00800           0
     29491 TIP3     2349     TIP3     OH2      OT      -0.834000       15.9994           0
     29492 TIP3     2349     TIP3     H1       HT       0.417000       1.00800           0
     29493 TIP3     2349     TIP3     H2       HT       0.417000       1.00800           0
     29494 TIP3     2350     TIP3     OH2      OT      -0.834000       15.9994           0
     29495 TIP3     2350     TIP3     H1       HT       0.417000       1.00800           0
     29496 TIP3     2350     TIP3     H2       HT       0.417000       1.00800           0
     29497 TIP3     2351     TIP3     OH2      OT      -0.834000       15.9994           0
     29498 TIP3     2351     TIP3     H1       HT       0.417000       1.00800           0
     29499 TIP3     2351     TIP3     H2       HT       0.417000       1.00800           0
     29500 TIP3     2352     TIP3     OH2      OT      -0.834000       15.9994           0
     29501 TIP3     2352     TIP3     H1       HT       0.417000       1.00800           0
     29502 TIP3     2352     TIP3     H2       HT       0.417000       1.00800           0
     29503 TIP3     2353     TIP3     OH2      OT      -0.834000       15.9994           0
     29504 TIP3     2353     TIP3     H1       HT       0.417000       1.00800           0
     29505 TIP3     2353     TIP3     H2       HT       0.417000       1.00800           0
     29506 TIP3     2354     TIP3     OH2      OT      -0.834000       15.9994           0
     29507 TIP3     2354     TIP3     H1       HT       0.417000       1.00800           0
     29508 TIP3     2354     TIP3     H2       HT       0.417000       1.00800           0
     29509 TIP3     2355     TIP3     OH2      OT      -0.834000       15.9994           0
     29510 TIP3     2355     TIP3     H1       HT       0.417000       1.00800           0
     29511 TIP3     2355     TIP3     H2       HT       0.417000       1.00800           0
     29512 TIP3     2356     TIP3     OH2      OT      -0.834000       15.9994           0
     29513 TIP3     2356     TIP3     H1       HT       0.417000       1.00800           0
     29514 TIP3     2356     TIP3     H2       HT       0.417000       1.00800           0
     29515 TIP3     2357     TIP3     OH2      OT      -0.834000       15.9994           0
     29516 TIP3     2357     TIP3     H1       HT       0.417000       1.00800           0
     29517 TIP3     2357     TIP3     H2       HT       0.417000       1.00800           0
     29518 TIP3     2358     TIP3     OH2      OT      -0.834000       15.9994           0
     29519 TIP3     2358     TIP3     H1       HT       0.417000       1.00800           0
     29520 TIP3     2358     TIP3     H2       HT       0.417000       1.00800           0
     29521 TIP3     2359     TIP3     OH2      OT      -0.834000       15.9994           0
     29522 TIP3     2359     TIP3     H1       HT       0.417000       1.00800           0
     29523 TIP3     2359     TIP3     H2       HT       0.417000       1.00800           0
     29524 TIP3     2360     TIP3     OH2      OT      -0.834000       15.9994           0
     29525 TIP3     2360     TIP3     H1       HT       0.417000       1.00800           0
     29526 TIP3     2360     TIP3     H2       HT       0.417000       1.00800           0
     29527 TIP3     2361     TIP3     OH2      OT      -0.834000       15.9994           0
     29528 TIP3     2361     TIP3     H1       HT       0.417000       1.00800           0
     29529 TIP3     2361     TIP3     H2       HT       0.417000       1.00800           0
     29530 TIP3     2362     TIP3     OH2      OT      -0.834000       15.9994           0
     29531 TIP3     2362     TIP3     H1       HT       0.417000       1.00800           0
     29532 TIP3     2362     TIP3     H2       HT       0.417000       1.00800           0
     29533 TIP3     2363     TIP3     OH2      OT      -0.834000       15.9994           0
     29534 TIP3     2363     TIP3     H1       HT       0.417000       1.00800           0
     29535 TIP3     2363     TIP3     H2       HT       0.417000       1.00800           0
     29536 TIP3     2364     TIP3     OH2      OT      -0.834000       15.9994           0
     29537 TIP3     2364     TIP3     H1       HT       0.417000       1.00800           0
     29538 TIP3     2364     TIP3     H2       HT       0.417000       1.00800           0
     29539 TIP3     2365     TIP3     OH2      OT      -0.834000       15.9994           0
     29540 TIP3     2365     TIP3     H1       HT       0.417000       1.00800           0
     29541 TIP3     2365     TIP3     H2       HT       0.417000       1.00800           0
     29542 TIP3     2366     TIP3     OH2      OT      -0.834000       15.9994           0
     29543 TIP3     2366     TIP3     H1       HT       0.417000       1.00800           0
     29544 TIP3     2366     TIP3     H2       HT       0.417000       1.00800           0
     29545 TIP3     2367     TIP3     OH2      OT      -0.834000       15.9994           0
     29546 TIP3     2367     TIP3     H1       HT       0.417000       1.00800           0
     29547 TIP3     2367     TIP3     H2       HT       0.417000       1.00800           0
     29548 TIP3     2368     TIP3     OH2      OT      -0.834000       15.9994           0
     29549 TIP3     2368     TIP3     H1       HT       0.417000       1.00800           0
     29550 TIP3     2368     TIP3     H2       HT       0.417000       1.00800           0
     29551 TIP3     2369     TIP3     OH2      OT      -0.834000       15.9994           0
     29552 TIP3     2369     TIP3     H1       HT       0.417000       1.00800           0
     29553 TIP3     2369     TIP3     H2       HT       0.417000       1.00800           0
     29554 TIP3     2370     TIP3     OH2      OT      -0.834000       15.9994           0
     29555 TIP3     2370     TIP3     H1       HT       0.417000       1.00800           0
     29556 TIP3     2370     TIP3     H2       HT       0.417000       1.00800           0
     29557 TIP3     2371     TIP3     OH2      OT      -0.834000       15.9994           0
     29558 TIP3     2371     TIP3     H1       HT       0.417000       1.00800           0
     29559 TIP3     2371     TIP3     H2       HT       0.417000       1.00800           0
     29560 TIP3     2372     TIP3     OH2      OT      -0.834000       15.9994           0
     29561 TIP3     2372     TIP3     H1       HT       0.417000       1.00800           0
     29562 TIP3     2372     TIP3     H2       HT       0.417000       1.00800           0
     29563 TIP3     2373     TIP3     OH2      OT      -0.834000       15.9994           0
     29564 TIP3     2373     TIP3     H1       HT       0.417000       1.00800           0
     29565 TIP3     2373     TIP3     H2       HT       0.417000       1.00800           0
     29566 TIP3     2374     TIP3     OH2      OT      -0.834000       15.9994           0
     29567 TIP3     2374     TIP3     H1       HT       0.417000       1.00800           0
     29568 TIP3     2374     TIP3     H2       HT       0.417000       1.00800           0
     29569 TIP3     2375     TIP3     OH2      OT      -0.834000       15.9994           0
     29570 TIP3     2375     TIP3     H1       HT       0.417000       1.00800           0
     29571 TIP3     2375     TIP3     H2       HT       0.417000       1.00800           0
     29572 TIP3     2376     TIP3     OH2      OT      -0.834000       15.9994           0
     29573 TIP3     2376     TIP3     H1       HT       0.417000       1.00800           0
     29574 TIP3     2376     TIP3     H2       HT       0.417000       1.00800           0
     29575 TIP3     2377     TIP3     OH2      OT      -0.834000       15.9994           0
     29576 TIP3     2377     TIP3     H1       HT       0.417000       1.00800           0
     29577 TIP3     2377     TIP3     H2       HT       0.417000       1.00800           0
     29578 TIP3     2378     TIP3     OH2      OT      -0.834000       15.9994           0
     29579 TIP3     2378     TIP3     H1       HT       0.417000       1.00800           0
     29580 TIP3     2378     TIP3     H2       HT       0.417000       1.00800           0
     29581 TIP3     2379     TIP3     OH2      OT      -0.834000       15.9994           0
     29582 TIP3     2379     TIP3     H1       HT       0.417000       1.00800           0
     29583 TIP3     2379     TIP3     H2       HT       0.417000       1.00800           0
     29584 TIP3     2380     TIP3     OH2      OT      -0.834000       15.9994           0
     29585 TIP3     2380     TIP3     H1       HT       0.417000       1.00800           0
     29586 TIP3     2380     TIP3     H2       HT       0.417000       1.00800           0
     29587 TIP3     2381     TIP3     OH2      OT      -0.834000       15.9994           0
     29588 TIP3     2381     TIP3     H1       HT       0.417000       1.00800           0
     29589 TIP3     2381     TIP3     H2       HT       0.417000       1.00800           0
     29590 TIP3     2382     TIP3     OH2      OT      -0.834000       15.9994           0
     29591 TIP3     2382     TIP3     H1       HT       0.417000       1.00800           0
     29592 TIP3     2382     TIP3     H2       HT       0.417000       1.00800           0
     29593 TIP3     2383     TIP3     OH2      OT      -0.834000       15.9994           0
     29594 TIP3     2383     TIP3     H1       HT       0.417000       1.00800           0
     29595 TIP3     2383     TIP3     H2       HT       0.417000       1.00800           0
     29596 TIP3     2384     TIP3     OH2      OT      -0.834000       15.9994           0
     29597 TIP3     2384     TIP3     H1       HT       0.417000       1.00800           0
     29598 TIP3     2384     TIP3     H2       HT       0.417000       1.00800           0
     29599 TIP3     2385     TIP3     OH2      OT      -0.834000       15.9994           0
     29600 TIP3     2385     TIP3     H1       HT       0.417000       1.00800           0
     29601 TIP3     2385     TIP3     H2       HT       0.417000       1.00800           0
     29602 TIP3     2386     TIP3     OH2      OT      -0.834000       15.9994           0
     29603 TIP3     2386     TIP3     H1       HT       0.417000       1.00800           0
     29604 TIP3     2386     TIP3     H2       HT       0.417000       1.00800           0
     29605 TIP3     2387     TIP3     OH2      OT      -0.834000       15.9994           0
     29606 TIP3     2387     TIP3     H1       HT       0.417000       1.00800           0
     29607 TIP3     2387     TIP3     H2       HT       0.417000       1.00800           0
     29608 TIP3     2388     TIP3     OH2      OT      -0.834000       15.9994           0
     29609 TIP3     2388     TIP3     H1       HT       0.417000       1.00800           0
     29610 TIP3     2388     TIP3     H2       HT       0.417000       1.00800           0
     29611 TIP3     2389     TIP3     OH2      OT      -0.834000       15.9994           0
     29612 TIP3     2389     TIP3     H1       HT       0.417000       1.00800           0
     29613 TIP3     2389     TIP3     H2       HT       0.417000       1.00800           0
     29614 TIP3     2390     TIP3     OH2      OT      -0.834000       15.9994           0
     29615 TIP3     2390     TIP3     H1       HT       0.417000       1.00800           0
     29616 TIP3     2390     TIP3     H2       HT       0.417000       1.00800           0
     29617 TIP3     2391     TIP3     OH2      OT      -0.834000       15.9994           0
     29618 TIP3     2391     TIP3     H1       HT       0.417000       1.00800           0
     29619 TIP3     2391     TIP3     H2       HT       0.417000       1.00800           0
     29620 TIP3     2392     TIP3     OH2      OT      -0.834000       15.9994           0
     29621 TIP3     2392     TIP3     H1       HT       0.417000       1.00800           0
     29622 TIP3     2392     TIP3     H2       HT       0.417000       1.00800           0
     29623 TIP3     2393     TIP3     OH2      OT      -0.834000       15.9994           0
     29624 TIP3     2393     TIP3     H1       HT       0.417000       1.00800           0
     29625 TIP3     2393     TIP3     H2       HT       0.417000       1.00800           0
     29626 TIP3     2394     TIP3     OH2      OT      -0.834000       15.9994           0
     29627 TIP3     2394     TIP3     H1       HT       0.417000       1.00800           0
     29628 TIP3     2394     TIP3     H2       HT       0.417000       1.00800           0
     29629 TIP3     2395     TIP3     OH2      OT      -0.834000       15.9994           0
     29630 TIP3     2395     TIP3     H1       HT       0.417000       1.00800           0
     29631 TIP3     2395     TIP3     H2       HT       0.417000       1.00800           0
     29632 TIP3     2396     TIP3     OH2      OT      -0.834000       15.9994           0
     29633 TIP3     2396     TIP3     H1       HT       0.417000       1.00800           0
     29634 TIP3     2396     TIP3     H2       HT       0.417000       1.00800           0
     29635 TIP3     2397     TIP3     OH2      OT      -0.834000       15.9994           0
     29636 TIP3     2397     TIP3     H1       HT       0.417000       1.00800           0
     29637 TIP3     2397     TIP3     H2       HT       0.417000       1.00800           0
     29638 TIP3     2398     TIP3     OH2      OT      -0.834000       15.9994           0
     29639 TIP3     2398     TIP3     H1       HT       0.417000       1.00800           0
     29640 TIP3     2398     TIP3     H2       HT       0.417000       1.00800           0
     29641 TIP3     2399     TIP3     OH2      OT      -0.834000       15.9994           0
     29642 TIP3     2399     TIP3     H1       HT       0.417000       1.00800           0
     29643 TIP3     2399     TIP3     H2       HT       0.417000       1.00800           0
     29644 TIP3     2400     TIP3     OH2      OT      -0.834000       15.9994           0
     29645 TIP3     2400     TIP3     H1       HT       0.417000       1.00800           0
     29646 TIP3     2400     TIP3     H2       HT       0.417000       1.00800           0
     29647 TIP3     2401     TIP3     OH2      OT      -0.834000       15.9994           0
     29648 TIP3     2401     TIP3     H1       HT       0.417000       1.00800           0
     29649 TIP3     2401     TIP3     H2       HT       0.417000       1.00800           0
     29650 TIP3     2402     TIP3     OH2      OT      -0.834000       15.9994           0
     29651 TIP3     2402     TIP3     H1       HT       0.417000       1.00800           0
     29652 TIP3     2402     TIP3     H2       HT       0.417000       1.00800           0
     29653 TIP3     2403     TIP3     OH2      OT      -0.834000       15.9994           0
     29654 TIP3     2403     TIP3     H1       HT       0.417000       1.00800           0
     29655 TIP3     2403     TIP3     H2       HT       0.417000       1.00800           0
     29656 TIP3     2404     TIP3     OH2      OT      -0.834000       15.9994           0
     29657 TIP3     2404     TIP3     H1       HT       0.417000       1.00800           0
     29658 TIP3     2404     TIP3     H2       HT       0.417000       1.00800           0
     29659 TIP3     2405     TIP3     OH2      OT      -0.834000       15.9994           0
     29660 TIP3     2405     TIP3     H1       HT       0.417000       1.00800           0
     29661 TIP3     2405     TIP3     H2       HT       0.417000       1.00800           0
     29662 TIP3     2406     TIP3     OH2      OT      -0.834000       15.9994           0
     29663 TIP3     2406     TIP3     H1       HT       0.417000       1.00800           0
     29664 TIP3     2406     TIP3     H2       HT       0.417000       1.00800           0
     29665 TIP3     2407     TIP3     OH2      OT      -0.834000       15.9994           0
     29666 TIP3     2407     TIP3     H1       HT       0.417000       1.00800           0
     29667 TIP3     2407     TIP3     H2       HT       0.417000       1.00800           0
     29668 TIP3     2408     TIP3     OH2      OT      -0.834000       15.9994           0
     29669 TIP3     2408     TIP3     H1       HT       0.417000       1.00800           0
     29670 TIP3     2408     TIP3     H2       HT       0.417000       1.00800           0
     29671 TIP3     2409     TIP3     OH2      OT      -0.834000       15.9994           0
     29672 TIP3     2409     TIP3     H1       HT       0.417000       1.00800           0
     29673 TIP3     2409     TIP3     H2       HT       0.417000       1.00800           0
     29674 TIP3     2410     TIP3     OH2      OT      -0.834000       15.9994           0
     29675 TIP3     2410     TIP3     H1       HT       0.417000       1.00800           0
     29676 TIP3     2410     TIP3     H2       HT       0.417000       1.00800           0
     29677 TIP3     2411     TIP3     OH2      OT      -0.834000       15.9994           0
     29678 TIP3     2411     TIP3     H1       HT       0.417000       1.00800           0
     29679 TIP3     2411     TIP3     H2       HT       0.417000       1.00800           0
     29680 TIP3     2412     TIP3     OH2      OT      -0.834000       15.9994           0
     29681 TIP3     2412     TIP3     H1       HT       0.417000       1.00800           0
     29682 TIP3     2412     TIP3     H2       HT       0.417000       1.00800           0
     29683 TIP3     2413     TIP3     OH2      OT      -0.834000       15.9994           0
     29684 TIP3     2413     TIP3     H1       HT       0.417000       1.00800           0
     29685 TIP3     2413     TIP3     H2       HT       0.417000       1.00800           0
     29686 TIP3     2414     TIP3     OH2      OT      -0.834000       15.9994           0
     29687 TIP3     2414     TIP3     H1       HT       0.417000       1.00800           0
     29688 TIP3     2414     TIP3     H2       HT       0.417000       1.00800           0
     29689 TIP3     2415     TIP3     OH2      OT      -0.834000       15.9994           0
     29690 TIP3     2415     TIP3     H1       HT       0.417000       1.00800           0
     29691 TIP3     2415     TIP3     H2       HT       0.417000       1.00800           0
     29692 TIP3     2416     TIP3     OH2      OT      -0.834000       15.9994           0
     29693 TIP3     2416     TIP3     H1       HT       0.417000       1.00800           0
     29694 TIP3     2416     TIP3     H2       HT       0.417000       1.00800           0
     29695 TIP3     2417     TIP3     OH2      OT      -0.834000       15.9994           0
     29696 TIP3     2417     TIP3     H1       HT       0.417000       1.00800           0
     29697 TIP3     2417     TIP3     H2       HT       0.417000       1.00800           0
     29698 TIP3     2418     TIP3     OH2      OT      -0.834000       15.9994           0
     29699 TIP3     2418     TIP3     H1       HT       0.417000       1.00800           0
     29700 TIP3     2418     TIP3     H2       HT       0.417000       1.00800           0
     29701 TIP3     2419     TIP3     OH2      OT      -0.834000       15.9994           0
     29702 TIP3     2419     TIP3     H1       HT       0.417000       1.00800           0
     29703 TIP3     2419     TIP3     H2       HT       0.417000       1.00800           0
     29704 TIP3     2420     TIP3     OH2      OT      -0.834000       15.9994           0
     29705 TIP3     2420     TIP3     H1       HT       0.417000       1.00800           0
     29706 TIP3     2420     TIP3     H2       HT       0.417000       1.00800           0
     29707 TIP3     2421     TIP3     OH2      OT      -0.834000       15.9994           0
     29708 TIP3     2421     TIP3     H1       HT       0.417000       1.00800           0
     29709 TIP3     2421     TIP3     H2       HT       0.417000       1.00800           0
     29710 TIP3     2422     TIP3     OH2      OT      -0.834000       15.9994           0
     29711 TIP3     2422     TIP3     H1       HT       0.417000       1.00800           0
     29712 TIP3     2422     TIP3     H2       HT       0.417000       1.00800           0
     29713 TIP3     2423     TIP3     OH2      OT      -0.834000       15.9994           0
     29714 TIP3     2423     TIP3     H1       HT       0.417000       1.00800           0
     29715 TIP3     2423     TIP3     H2       HT       0.417000       1.00800           0
     29716 TIP3     2424     TIP3     OH2      OT      -0.834000       15.9994           0
     29717 TIP3     2424     TIP3     H1       HT       0.417000       1.00800           0
     29718 TIP3     2424     TIP3     H2       HT       0.417000       1.00800           0
     29719 TIP3     2425     TIP3     OH2      OT      -0.834000       15.9994           0
     29720 TIP3     2425     TIP3     H1       HT       0.417000       1.00800           0
     29721 TIP3     2425     TIP3     H2       HT       0.417000       1.00800           0
     29722 TIP3     2426     TIP3     OH2      OT      -0.834000       15.9994           0
     29723 TIP3     2426     TIP3     H1       HT       0.417000       1.00800           0
     29724 TIP3     2426     TIP3     H2       HT       0.417000       1.00800           0
     29725 TIP3     2427     TIP3     OH2      OT      -0.834000       15.9994           0
     29726 TIP3     2427     TIP3     H1       HT       0.417000       1.00800           0
     29727 TIP3     2427     TIP3     H2       HT       0.417000       1.00800           0
     29728 TIP3     2428     TIP3     OH2      OT      -0.834000       15.9994           0
     29729 TIP3     2428     TIP3     H1       HT       0.417000       1.00800           0
     29730 TIP3     2428     TIP3     H2       HT       0.417000       1.00800           0
     29731 TIP3     2429     TIP3     OH2      OT      -0.834000       15.9994           0
     29732 TIP3     2429     TIP3     H1       HT       0.417000       1.00800           0
     29733 TIP3     2429     TIP3     H2       HT       0.417000       1.00800           0
     29734 TIP3     2430     TIP3     OH2      OT      -0.834000       15.9994           0
     29735 TIP3     2430     TIP3     H1       HT       0.417000       1.00800           0
     29736 TIP3     2430     TIP3     H2       HT       0.417000       1.00800           0
     29737 TIP3     2431     TIP3     OH2      OT      -0.834000       15.9994           0
     29738 TIP3     2431     TIP3     H1       HT       0.417000       1.00800           0
     29739 TIP3     2431     TIP3     H2       HT       0.417000       1.00800           0
     29740 TIP3     2432     TIP3     OH2      OT      -0.834000       15.9994           0
     29741 TIP3     2432     TIP3     H1       HT       0.417000       1.00800           0
     29742 TIP3     2432     TIP3     H2       HT       0.417000       1.00800           0
     29743 TIP3     2433     TIP3     OH2      OT      -0.834000       15.9994           0
     29744 TIP3     2433     TIP3     H1       HT       0.417000       1.00800           0
     29745 TIP3     2433     TIP3     H2       HT       0.417000       1.00800           0
     29746 TIP3     2434     TIP3     OH2      OT      -0.834000       15.9994           0
     29747 TIP3     2434     TIP3     H1       HT       0.417000       1.00800           0
     29748 TIP3     2434     TIP3     H2       HT       0.417000       1.00800           0
     29749 TIP3     2435     TIP3     OH2      OT      -0.834000       15.9994           0
     29750 TIP3     2435     TIP3     H1       HT       0.417000       1.00800           0
     29751 TIP3     2435     TIP3     H2       HT       0.417000       1.00800           0
     29752 TIP3     2436     TIP3     OH2      OT      -0.834000       15.9994           0
     29753 TIP3     2436     TIP3     H1       HT       0.417000       1.00800           0
     29754 TIP3     2436     TIP3     H2       HT       0.417000       1.00800           0
     29755 TIP3     2437     TIP3     OH2      OT      -0.834000       15.9994           0
     29756 TIP3     2437     TIP3     H1       HT       0.417000       1.00800           0
     29757 TIP3     2437     TIP3     H2       HT       0.417000       1.00800           0
     29758 TIP3     2438     TIP3     OH2      OT      -0.834000       15.9994           0
     29759 TIP3     2438     TIP3     H1       HT       0.417000       1.00800           0
     29760 TIP3     2438     TIP3     H2       HT       0.417000       1.00800           0
     29761 TIP3     2439     TIP3     OH2      OT      -0.834000       15.9994           0
     29762 TIP3     2439     TIP3     H1       HT       0.417000       1.00800           0
     29763 TIP3     2439     TIP3     H2       HT       0.417000       1.00800           0
     29764 TIP3     2440     TIP3     OH2      OT      -0.834000       15.9994           0
     29765 TIP3     2440     TIP3     H1       HT       0.417000       1.00800           0
     29766 TIP3     2440     TIP3     H2       HT       0.417000       1.00800           0
     29767 TIP3     2441     TIP3     OH2      OT      -0.834000       15.9994           0
     29768 TIP3     2441     TIP3     H1       HT       0.417000       1.00800           0
     29769 TIP3     2441     TIP3     H2       HT       0.417000       1.00800           0
     29770 TIP3     2442     TIP3     OH2      OT      -0.834000       15.9994           0
     29771 TIP3     2442     TIP3     H1       HT       0.417000       1.00800           0
     29772 TIP3     2442     TIP3     H2       HT       0.417000       1.00800           0
     29773 TIP3     2443     TIP3     OH2      OT      -0.834000       15.9994           0
     29774 TIP3     2443     TIP3     H1       HT       0.417000       1.00800           0
     29775 TIP3     2443     TIP3     H2       HT       0.417000       1.00800           0
     29776 TIP3     2444     TIP3     OH2      OT      -0.834000       15.9994           0
     29777 TIP3     2444     TIP3     H1       HT       0.417000       1.00800           0
     29778 TIP3     2444     TIP3     H2       HT       0.417000       1.00800           0
     29779 TIP3     2445     TIP3     OH2      OT      -0.834000       15.9994           0
     29780 TIP3     2445     TIP3     H1       HT       0.417000       1.00800           0
     29781 TIP3     2445     TIP3     H2       HT       0.417000       1.00800           0
     29782 TIP3     2446     TIP3     OH2      OT      -0.834000       15.9994           0
     29783 TIP3     2446     TIP3     H1       HT       0.417000       1.00800           0
     29784 TIP3     2446     TIP3     H2       HT       0.417000       1.00800           0
     29785 TIP3     2447     TIP3     OH2      OT      -0.834000       15.9994           0
     29786 TIP3     2447     TIP3     H1       HT       0.417000       1.00800           0
     29787 TIP3     2447     TIP3     H2       HT       0.417000       1.00800           0
     29788 TIP3     2448     TIP3     OH2      OT      -0.834000       15.9994           0
     29789 TIP3     2448     TIP3     H1       HT       0.417000       1.00800           0
     29790 TIP3     2448     TIP3     H2       HT       0.417000       1.00800           0
     29791 TIP3     2449     TIP3     OH2      OT      -0.834000       15.9994           0
     29792 TIP3     2449     TIP3     H1       HT       0.417000       1.00800           0
     29793 TIP3     2449     TIP3     H2       HT       0.417000       1.00800           0
     29794 TIP3     2450     TIP3     OH2      OT      -0.834000       15.9994           0
     29795 TIP3     2450     TIP3     H1       HT       0.417000       1.00800           0
     29796 TIP3     2450     TIP3     H2       HT       0.417000       1.00800           0
     29797 TIP3     2451     TIP3     OH2      OT      -0.834000       15.9994           0
     29798 TIP3     2451     TIP3     H1       HT       0.417000       1.00800           0
     29799 TIP3     2451     TIP3     H2       HT       0.417000       1.00800           0
     29800 TIP3     2452     TIP3     OH2      OT      -0.834000       15.9994           0
     29801 TIP3     2452     TIP3     H1       HT       0.417000       1.00800           0
     29802 TIP3     2452     TIP3     H2       HT       0.417000       1.00800           0
     29803 TIP3     2453     TIP3     OH2      OT      -0.834000       15.9994           0
     29804 TIP3     2453     TIP3     H1       HT       0.417000       1.00800           0
     29805 TIP3     2453     TIP3     H2       HT       0.417000       1.00800           0
     29806 TIP3     2454     TIP3     OH2      OT      -0.834000       15.9994           0
     29807 TIP3     2454     TIP3     H1       HT       0.417000       1.00800           0
     29808 TIP3     2454     TIP3     H2       HT       0.417000       1.00800           0
     29809 TIP3     2455     TIP3     OH2      OT      -0.834000       15.9994           0
     29810 TIP3     2455     TIP3     H1       HT       0.417000       1.00800           0
     29811 TIP3     2455     TIP3     H2       HT       0.417000       1.00800           0
     29812 TIP3     2456     TIP3     OH2      OT      -0.834000       15.9994           0
     29813 TIP3     2456     TIP3     H1       HT       0.417000       1.00800           0
     29814 TIP3     2456     TIP3     H2       HT       0.417000       1.00800           0
     29815 TIP3     2457     TIP3     OH2      OT      -0.834000       15.9994           0
     29816 TIP3     2457     TIP3     H1       HT       0.417000       1.00800           0
     29817 TIP3     2457     TIP3     H2       HT       0.417000       1.00800           0
     29818 TIP3     2458     TIP3     OH2      OT      -0.834000       15.9994           0
     29819 TIP3     2458     TIP3     H1       HT       0.417000       1.00800           0
     29820 TIP3     2458     TIP3     H2       HT       0.417000       1.00800           0
     29821 TIP3     2459     TIP3     OH2      OT      -0.834000       15.9994           0
     29822 TIP3     2459     TIP3     H1       HT       0.417000       1.00800           0
     29823 TIP3     2459     TIP3     H2       HT       0.417000       1.00800           0
     29824 TIP3     2460     TIP3     OH2      OT      -0.834000       15.9994           0
     29825 TIP3     2460     TIP3     H1       HT       0.417000       1.00800           0
     29826 TIP3     2460     TIP3     H2       HT       0.417000       1.00800           0
     29827 TIP3     2461     TIP3     OH2      OT      -0.834000       15.9994           0
     29828 TIP3     2461     TIP3     H1       HT       0.417000       1.00800           0
     29829 TIP3     2461     TIP3     H2       HT       0.417000       1.00800           0
     29830 TIP3     2462     TIP3     OH2      OT      -0.834000       15.9994           0
     29831 TIP3     2462     TIP3     H1       HT       0.417000       1.00800           0
     29832 TIP3     2462     TIP3     H2       HT       0.417000       1.00800           0
     29833 TIP3     2463     TIP3     OH2      OT      -0.834000       15.9994           0
     29834 TIP3     2463     TIP3     H1       HT       0.417000       1.00800           0
     29835 TIP3     2463     TIP3     H2       HT       0.417000       1.00800           0
     29836 TIP3     2464     TIP3     OH2      OT      -0.834000       15.9994           0
     29837 TIP3     2464     TIP3     H1       HT       0.417000       1.00800           0
     29838 TIP3     2464     TIP3     H2       HT       0.417000       1.00800           0
     29839 TIP3     2465     TIP3     OH2      OT      -0.834000       15.9994           0
     29840 TIP3     2465     TIP3     H1       HT       0.417000       1.00800           0
     29841 TIP3     2465     TIP3     H2       HT       0.417000       1.00800           0
     29842 TIP3     2466     TIP3     OH2      OT      -0.834000       15.9994           0
     29843 TIP3     2466     TIP3     H1       HT       0.417000       1.00800           0
     29844 TIP3     2466     TIP3     H2       HT       0.417000       1.00800           0
     29845 TIP3     2467     TIP3     OH2      OT      -0.834000       15.9994           0
     29846 TIP3     2467     TIP3     H1       HT       0.417000       1.00800           0
     29847 TIP3     2467     TIP3     H2       HT       0.417000       1.00800           0
     29848 TIP3     2468     TIP3     OH2      OT      -0.834000       15.9994           0
     29849 TIP3     2468     TIP3     H1       HT       0.417000       1.00800           0
     29850 TIP3     2468     TIP3     H2       HT       0.417000       1.00800           0
     29851 TIP3     2469     TIP3     OH2      OT      -0.834000       15.9994           0
     29852 TIP3     2469     TIP3     H1       HT       0.417000       1.00800           0
     29853 TIP3     2469     TIP3     H2       HT       0.417000       1.00800           0
     29854 TIP3     2470     TIP3     OH2      OT      -0.834000       15.9994           0
     29855 TIP3     2470     TIP3     H1       HT       0.417000       1.00800           0
     29856 TIP3     2470     TIP3     H2       HT       0.417000       1.00800           0
     29857 TIP3     2471     TIP3     OH2      OT      -0.834000       15.9994           0
     29858 TIP3     2471     TIP3     H1       HT       0.417000       1.00800           0
     29859 TIP3     2471     TIP3     H2       HT       0.417000       1.00800           0
     29860 TIP3     2472     TIP3     OH2      OT      -0.834000       15.9994           0
     29861 TIP3     2472     TIP3     H1       HT       0.417000       1.00800           0
     29862 TIP3     2472     TIP3     H2       HT       0.417000       1.00800           0
     29863 TIP3     2473     TIP3     OH2      OT      -0.834000       15.9994           0
     29864 TIP3     2473     TIP3     H1       HT       0.417000       1.00800           0
     29865 TIP3     2473     TIP3     H2       HT       0.417000       1.00800           0
     29866 TIP3     2474     TIP3     OH2      OT      -0.834000       15.9994           0
     29867 TIP3     2474     TIP3     H1       HT       0.417000       1.00800           0
     29868 TIP3     2474     TIP3     H2       HT       0.417000       1.00800           0
     29869 TIP3     2475     TIP3     OH2      OT      -0.834000       15.9994           0
     29870 TIP3     2475     TIP3     H1       HT       0.417000       1.00800           0
     29871 TIP3     2475     TIP3     H2       HT       0.417000       1.00800           0
     29872 TIP3     2476     TIP3     OH2      OT      -0.834000       15.9994           0
     29873 TIP3     2476     TIP3     H1       HT       0.417000       1.00800           0
     29874 TIP3     2476     TIP3     H2       HT       0.417000       1.00800           0
     29875 TIP3     2477     TIP3     OH2      OT      -0.834000       15.9994           0
     29876 TIP3     2477     TIP3     H1       HT       0.417000       1.00800           0
     29877 TIP3     2477     TIP3     H2       HT       0.417000       1.00800           0
     29878 TIP3     2478     TIP3     OH2      OT      -0.834000       15.9994           0
     29879 TIP3     2478     TIP3     H1       HT       0.417000       1.00800           0
     29880 TIP3     2478     TIP3     H2       HT       0.417000       1.00800           0
     29881 TIP3     2479     TIP3     OH2      OT      -0.834000       15.9994           0
     29882 TIP3     2479     TIP3     H1       HT       0.417000       1.00800           0
     29883 TIP3     2479     TIP3     H2       HT       0.417000       1.00800           0
     29884 TIP3     2480     TIP3     OH2      OT      -0.834000       15.9994           0
     29885 TIP3     2480     TIP3     H1       HT       0.417000       1.00800           0
     29886 TIP3     2480     TIP3     H2       HT       0.417000       1.00800           0
     29887 TIP3     2481     TIP3     OH2      OT      -0.834000       15.9994           0
     29888 TIP3     2481     TIP3     H1       HT       0.417000       1.00800           0
     29889 TIP3     2481     TIP3     H2       HT       0.417000       1.00800           0
     29890 TIP3     2482     TIP3     OH2      OT      -0.834000       15.9994           0
     29891 TIP3     2482     TIP3     H1       HT       0.417000       1.00800           0
     29892 TIP3     2482     TIP3     H2       HT       0.417000       1.00800           0
     29893 TIP3     2483     TIP3     OH2      OT      -0.834000       15.9994           0
     29894 TIP3     2483     TIP3     H1       HT       0.417000       1.00800           0
     29895 TIP3     2483     TIP3     H2       HT       0.417000       1.00800           0
     29896 TIP3     2484     TIP3     OH2      OT      -0.834000       15.9994           0
     29897 TIP3     2484     TIP3     H1       HT       0.417000       1.00800           0
     29898 TIP3     2484     TIP3     H2       HT       0.417000       1.00800           0
     29899 TIP3     2485     TIP3     OH2      OT      -0.834000       15.9994           0
     29900 TIP3     2485     TIP3     H1       HT       0.417000       1.00800           0
     29901 TIP3     2485     TIP3     H2       HT       0.417000       1.00800           0
     29902 TIP3     2486     TIP3     OH2      OT      -0.834000       15.9994           0
     29903 TIP3     2486     TIP3     H1       HT       0.417000       1.00800           0
     29904 TIP3     2486     TIP3     H2       HT       0.417000       1.00800           0
     29905 TIP3     2487     TIP3     OH2      OT      -0.834000       15.9994           0
     29906 TIP3     2487     TIP3     H1       HT       0.417000       1.00800           0
     29907 TIP3     2487     TIP3     H2       HT       0.417000       1.00800           0
     29908 TIP3     2488     TIP3     OH2      OT      -0.834000       15.9994           0
     29909 TIP3     2488     TIP3     H1       HT       0.417000       1.00800           0
     29910 TIP3     2488     TIP3     H2       HT       0.417000       1.00800           0
     29911 TIP3     2489     TIP3     OH2      OT      -0.834000       15.9994           0
     29912 TIP3     2489     TIP3     H1       HT       0.417000       1.00800           0
     29913 TIP3     2489     TIP3     H2       HT       0.417000       1.00800           0
     29914 TIP3     2490     TIP3     OH2      OT      -0.834000       15.9994           0
     29915 TIP3     2490     TIP3     H1       HT       0.417000       1.00800           0
     29916 TIP3     2490     TIP3     H2       HT       0.417000       1.00800           0
     29917 TIP3     2491     TIP3     OH2      OT      -0.834000       15.9994           0
     29918 TIP3     2491     TIP3     H1       HT       0.417000       1.00800           0
     29919 TIP3     2491     TIP3     H2       HT       0.417000       1.00800           0
     29920 TIP3     2492     TIP3     OH2      OT      -0.834000       15.9994           0
     29921 TIP3     2492     TIP3     H1       HT       0.417000       1.00800           0
     29922 TIP3     2492     TIP3     H2       HT       0.417000       1.00800           0
     29923 TIP3     2493     TIP3     OH2      OT      -0.834000       15.9994           0
     29924 TIP3     2493     TIP3     H1       HT       0.417000       1.00800           0
     29925 TIP3     2493     TIP3     H2       HT       0.417000       1.00800           0
     29926 TIP3     2494     TIP3     OH2      OT      -0.834000       15.9994           0
     29927 TIP3     2494     TIP3     H1       HT       0.417000       1.00800           0
     29928 TIP3     2494     TIP3     H2       HT       0.417000       1.00800           0
     29929 TIP3     2495     TIP3     OH2      OT      -0.834000       15.9994           0
     29930 TIP3     2495     TIP3     H1       HT       0.417000       1.00800           0
     29931 TIP3     2495     TIP3     H2       HT       0.417000       1.00800           0
     29932 TIP3     2496     TIP3     OH2      OT      -0.834000       15.9994           0
     29933 TIP3     2496     TIP3     H1       HT       0.417000       1.00800           0
     29934 TIP3     2496     TIP3     H2       HT       0.417000       1.00800           0
     29935 TIP3     2497     TIP3     OH2      OT      -0.834000       15.9994           0
     29936 TIP3     2497     TIP3     H1       HT       0.417000       1.00800           0
     29937 TIP3     2497     TIP3     H2       HT       0.417000       1.00800           0
     29938 TIP3     2498     TIP3     OH2      OT      -0.834000       15.9994           0
     29939 TIP3     2498     TIP3     H1       HT       0.417000       1.00800           0
     29940 TIP3     2498     TIP3     H2       HT       0.417000       1.00800           0
     29941 TIP3     2499     TIP3     OH2      OT      -0.834000       15.9994           0
     29942 TIP3     2499     TIP3     H1       HT       0.417000       1.00800           0
     29943 TIP3     2499     TIP3     H2       HT       0.417000       1.00800           0
     29944 TIP3     2500     TIP3     OH2      OT      -0.834000       15.9994           0
     29945 TIP3     2500     TIP3     H1       HT       0.417000       1.00800           0
     29946 TIP3     2500     TIP3     H2       HT       0.417000       1.00800           0
     29947 TIP3     2501     TIP3     OH2      OT      -0.834000       15.9994           0
     29948 TIP3     2501     TIP3     H1       HT       0.417000       1.00800           0
     29949 TIP3     2501     TIP3     H2       HT       0.417000       1.00800           0
     29950 TIP3     2502     TIP3     OH2      OT      -0.834000       15.9994           0
     29951 TIP3     2502     TIP3     H1       HT       0.417000       1.00800           0
     29952 TIP3     2502     TIP3     H2       HT       0.417000       1.00800           0
     29953 TIP3     2503     TIP3     OH2      OT      -0.834000       15.9994           0
     29954 TIP3     2503     TIP3     H1       HT       0.417000       1.00800           0
     29955 TIP3     2503     TIP3     H2       HT       0.417000       1.00800           0
     29956 TIP3     2504     TIP3     OH2      OT      -0.834000       15.9994           0
     29957 TIP3     2504     TIP3     H1       HT       0.417000       1.00800           0
     29958 TIP3     2504     TIP3     H2       HT       0.417000       1.00800           0
     29959 TIP3     2505     TIP3     OH2      OT      -0.834000       15.9994           0
     29960 TIP3     2505     TIP3     H1       HT       0.417000       1.00800           0
     29961 TIP3     2505     TIP3     H2       HT       0.417000       1.00800           0
     29962 TIP3     2506     TIP3     OH2      OT      -0.834000       15.9994           0
     29963 TIP3     2506     TIP3     H1       HT       0.417000       1.00800           0
     29964 TIP3     2506     TIP3     H2       HT       0.417000       1.00800           0
     29965 TIP3     2507     TIP3     OH2      OT      -0.834000       15.9994           0
     29966 TIP3     2507     TIP3     H1       HT       0.417000       1.00800           0
     29967 TIP3     2507     TIP3     H2       HT       0.417000       1.00800           0
     29968 TIP3     2508     TIP3     OH2      OT      -0.834000       15.9994           0
     29969 TIP3     2508     TIP3     H1       HT       0.417000       1.00800           0
     29970 TIP3     2508     TIP3     H2       HT       0.417000       1.00800           0
     29971 TIP3     2509     TIP3     OH2      OT      -0.834000       15.9994           0
     29972 TIP3     2509     TIP3     H1       HT       0.417000       1.00800           0
     29973 TIP3     2509     TIP3     H2       HT       0.417000       1.00800           0
     29974 TIP3     2510     TIP3     OH2      OT      -0.834000       15.9994           0
     29975 TIP3     2510     TIP3     H1       HT       0.417000       1.00800           0
     29976 TIP3     2510     TIP3     H2       HT       0.417000       1.00800           0
     29977 TIP3     2511     TIP3     OH2      OT      -0.834000       15.9994           0
     29978 TIP3     2511     TIP3     H1       HT       0.417000       1.00800           0
     29979 TIP3     2511     TIP3     H2       HT       0.417000       1.00800           0
     29980 TIP3     2512     TIP3     OH2      OT      -0.834000       15.9994           0
     29981 TIP3     2512     TIP3     H1       HT       0.417000       1.00800           0
     29982 TIP3     2512     TIP3     H2       HT       0.417000       1.00800           0
     29983 TIP3     2513     TIP3     OH2      OT      -0.834000       15.9994           0
     29984 TIP3     2513     TIP3     H1       HT       0.417000       1.00800           0
     29985 TIP3     2513     TIP3     H2       HT       0.417000       1.00800           0
     29986 TIP3     2514     TIP3     OH2      OT      -0.834000       15.9994           0
     29987 TIP3     2514     TIP3     H1       HT       0.417000       1.00800           0
     29988 TIP3     2514     TIP3     H2       HT       0.417000       1.00800           0
     29989 TIP3     2515     TIP3     OH2      OT      -0.834000       15.9994           0
     29990 TIP3     2515     TIP3     H1       HT       0.417000       1.00800           0
     29991 TIP3     2515     TIP3     H2       HT       0.417000       1.00800           0
     29992 TIP3     2516     TIP3     OH2      OT      -0.834000       15.9994           0
     29993 TIP3     2516     TIP3     H1       HT       0.417000       1.00800           0
     29994 TIP3     2516     TIP3     H2       HT       0.417000       1.00800           0
     29995 TIP3     2517     TIP3     OH2      OT      -0.834000       15.9994           0
     29996 TIP3     2517     TIP3     H1       HT       0.417000       1.00800           0
     29997 TIP3     2517     TIP3     H2       HT       0.417000       1.00800           0
     29998 TIP3     2518     TIP3     OH2      OT      -0.834000       15.9994           0
     29999 TIP3     2518     TIP3     H1       HT       0.417000       1.00800           0
     30000 TIP3     2518     TIP3     H2       HT       0.417000       1.00800           0
     30001 TIP3     2519     TIP3     OH2      OT      -0.834000       15.9994           0
     30002 TIP3     2519     TIP3     H1       HT       0.417000       1.00800           0
     30003 TIP3     2519     TIP3     H2       HT       0.417000       1.00800           0
     30004 TIP3     2520     TIP3     OH2      OT      -0.834000       15.9994           0
     30005 TIP3     2520     TIP3     H1       HT       0.417000       1.00800           0
     30006 TIP3     2520     TIP3     H2       HT       0.417000       1.00800           0
     30007 TIP3     2521     TIP3     OH2      OT      -0.834000       15.9994           0
     30008 TIP3     2521     TIP3     H1       HT       0.417000       1.00800           0
     30009 TIP3     2521     TIP3     H2       HT       0.417000       1.00800           0
     30010 TIP3     2522     TIP3     OH2      OT      -0.834000       15.9994           0
     30011 TIP3     2522     TIP3     H1       HT       0.417000       1.00800           0
     30012 TIP3     2522     TIP3     H2       HT       0.417000       1.00800           0
     30013 TIP3     2523     TIP3     OH2      OT      -0.834000       15.9994           0
     30014 TIP3     2523     TIP3     H1       HT       0.417000       1.00800           0
     30015 TIP3     2523     TIP3     H2       HT       0.417000       1.00800           0
     30016 TIP3     2524     TIP3     OH2      OT      -0.834000       15.9994           0
     30017 TIP3     2524     TIP3     H1       HT       0.417000       1.00800           0
     30018 TIP3     2524     TIP3     H2       HT       0.417000       1.00800           0
     30019 TIP3     2525     TIP3     OH2      OT      -0.834000       15.9994           0
     30020 TIP3     2525     TIP3     H1       HT       0.417000       1.00800           0
     30021 TIP3     2525     TIP3     H2       HT       0.417000       1.00800           0
     30022 TIP3     2526     TIP3     OH2      OT      -0.834000       15.9994           0
     30023 TIP3     2526     TIP3     H1       HT       0.417000       1.00800           0
     30024 TIP3     2526     TIP3     H2       HT       0.417000       1.00800           0
     30025 TIP3     2527     TIP3     OH2      OT      -0.834000       15.9994           0
     30026 TIP3     2527     TIP3     H1       HT       0.417000       1.00800           0
     30027 TIP3     2527     TIP3     H2       HT       0.417000       1.00800           0
     30028 TIP3     2528     TIP3     OH2      OT      -0.834000       15.9994           0
     30029 TIP3     2528     TIP3     H1       HT       0.417000       1.00800           0
     30030 TIP3     2528     TIP3     H2       HT       0.417000       1.00800           0
     30031 TIP3     2529     TIP3     OH2      OT      -0.834000       15.9994           0
     30032 TIP3     2529     TIP3     H1       HT       0.417000       1.00800           0
     30033 TIP3     2529     TIP3     H2       HT       0.417000       1.00800           0
     30034 TIP3     2530     TIP3     OH2      OT      -0.834000       15.9994           0
     30035 TIP3     2530     TIP3     H1       HT       0.417000       1.00800           0
     30036 TIP3     2530     TIP3     H2       HT       0.417000       1.00800           0
     30037 TIP3     2531     TIP3     OH2      OT      -0.834000       15.9994           0
     30038 TIP3     2531     TIP3     H1       HT       0.417000       1.00800           0
     30039 TIP3     2531     TIP3     H2       HT       0.417000       1.00800           0
     30040 TIP3     2532     TIP3     OH2      OT      -0.834000       15.9994           0
     30041 TIP3     2532     TIP3     H1       HT       0.417000       1.00800           0
     30042 TIP3     2532     TIP3     H2       HT       0.417000       1.00800           0
     30043 TIP3     2533     TIP3     OH2      OT      -0.834000       15.9994           0
     30044 TIP3     2533     TIP3     H1       HT       0.417000       1.00800           0
     30045 TIP3     2533     TIP3     H2       HT       0.417000       1.00800           0
     30046 TIP3     2534     TIP3     OH2      OT      -0.834000       15.9994           0
     30047 TIP3     2534     TIP3     H1       HT       0.417000       1.00800           0
     30048 TIP3     2534     TIP3     H2       HT       0.417000       1.00800           0
     30049 TIP3     2535     TIP3     OH2      OT      -0.834000       15.9994           0
     30050 TIP3     2535     TIP3     H1       HT       0.417000       1.00800           0
     30051 TIP3     2535     TIP3     H2       HT       0.417000       1.00800           0
     30052 TIP3     2536     TIP3     OH2      OT      -0.834000       15.9994           0
     30053 TIP3     2536     TIP3     H1       HT       0.417000       1.00800           0
     30054 TIP3     2536     TIP3     H2       HT       0.417000       1.00800           0
     30055 TIP3     2537     TIP3     OH2      OT      -0.834000       15.9994           0
     30056 TIP3     2537     TIP3     H1       HT       0.417000       1.00800           0
     30057 TIP3     2537     TIP3     H2       HT       0.417000       1.00800           0
     30058 TIP3     2538     TIP3     OH2      OT      -0.834000       15.9994           0
     30059 TIP3     2538     TIP3     H1       HT       0.417000       1.00800           0
     30060 TIP3     2538     TIP3     H2       HT       0.417000       1.00800           0
     30061 TIP3     2539     TIP3     OH2      OT      -0.834000       15.9994           0
     30062 TIP3     2539     TIP3     H1       HT       0.417000       1.00800           0
     30063 TIP3     2539     TIP3     H2       HT       0.417000       1.00800           0
     30064 TIP3     2540     TIP3     OH2      OT      -0.834000       15.9994           0
     30065 TIP3     2540     TIP3     H1       HT       0.417000       1.00800           0
     30066 TIP3     2540     TIP3     H2       HT       0.417000       1.00800           0
     30067 TIP3     2541     TIP3     OH2      OT      -0.834000       15.9994           0
     30068 TIP3     2541     TIP3     H1       HT       0.417000       1.00800           0
     30069 TIP3     2541     TIP3     H2       HT       0.417000       1.00800           0
     30070 TIP3     2542     TIP3     OH2      OT      -0.834000       15.9994           0
     30071 TIP3     2542     TIP3     H1       HT       0.417000       1.00800           0
     30072 TIP3     2542     TIP3     H2       HT       0.417000       1.00800           0
     30073 TIP3     2543     TIP3     OH2      OT      -0.834000       15.9994           0
     30074 TIP3     2543     TIP3     H1       HT       0.417000       1.00800           0
     30075 TIP3     2543     TIP3     H2       HT       0.417000       1.00800           0
     30076 TIP3     2544     TIP3     OH2      OT      -0.834000       15.9994           0
     30077 TIP3     2544     TIP3     H1       HT       0.417000       1.00800           0
     30078 TIP3     2544     TIP3     H2       HT       0.417000       1.00800           0
     30079 TIP3     2545     TIP3     OH2      OT      -0.834000       15.9994           0
     30080 TIP3     2545     TIP3     H1       HT       0.417000       1.00800           0
     30081 TIP3     2545     TIP3     H2       HT       0.417000       1.00800           0
     30082 TIP3     2546     TIP3     OH2      OT      -0.834000       15.9994           0
     30083 TIP3     2546     TIP3     H1       HT       0.417000       1.00800           0
     30084 TIP3     2546     TIP3     H2       HT       0.417000       1.00800           0
     30085 TIP3     2547     TIP3     OH2      OT      -0.834000       15.9994           0
     30086 TIP3     2547     TIP3     H1       HT       0.417000       1.00800           0
     30087 TIP3     2547     TIP3     H2       HT       0.417000       1.00800           0
     30088 TIP3     2548     TIP3     OH2      OT      -0.834000       15.9994           0
     30089 TIP3     2548     TIP3     H1       HT       0.417000       1.00800           0
     30090 TIP3     2548     TIP3     H2       HT       0.417000       1.00800           0
     30091 TIP3     2549     TIP3     OH2      OT      -0.834000       15.9994           0
     30092 TIP3     2549     TIP3     H1       HT       0.417000       1.00800           0
     30093 TIP3     2549     TIP3     H2       HT       0.417000       1.00800           0
     30094 TIP3     2550     TIP3     OH2      OT      -0.834000       15.9994           0
     30095 TIP3     2550     TIP3     H1       HT       0.417000       1.00800           0
     30096 TIP3     2550     TIP3     H2       HT       0.417000       1.00800           0
     30097 TIP3     2551     TIP3     OH2      OT      -0.834000       15.9994           0
     30098 TIP3     2551     TIP3     H1       HT       0.417000       1.00800           0
     30099 TIP3     2551     TIP3     H2       HT       0.417000       1.00800           0
     30100 TIP3     2552     TIP3     OH2      OT      -0.834000       15.9994           0
     30101 TIP3     2552     TIP3     H1       HT       0.417000       1.00800           0
     30102 TIP3     2552     TIP3     H2       HT       0.417000       1.00800           0
     30103 TIP3     2553     TIP3     OH2      OT      -0.834000       15.9994           0
     30104 TIP3     2553     TIP3     H1       HT       0.417000       1.00800           0
     30105 TIP3     2553     TIP3     H2       HT       0.417000       1.00800           0
     30106 TIP3     2554     TIP3     OH2      OT      -0.834000       15.9994           0
     30107 TIP3     2554     TIP3     H1       HT       0.417000       1.00800           0
     30108 TIP3     2554     TIP3     H2       HT       0.417000       1.00800           0
     30109 TIP3     2555     TIP3     OH2      OT      -0.834000       15.9994           0
     30110 TIP3     2555     TIP3     H1       HT       0.417000       1.00800           0
     30111 TIP3     2555     TIP3     H2       HT       0.417000       1.00800           0
     30112 TIP3     2556     TIP3     OH2      OT      -0.834000       15.9994           0
     30113 TIP3     2556     TIP3     H1       HT       0.417000       1.00800           0
     30114 TIP3     2556     TIP3     H2       HT       0.417000       1.00800           0
     30115 TIP3     2557     TIP3     OH2      OT      -0.834000       15.9994           0
     30116 TIP3     2557     TIP3     H1       HT       0.417000       1.00800           0
     30117 TIP3     2557     TIP3     H2       HT       0.417000       1.00800           0
     30118 TIP3     2558     TIP3     OH2      OT      -0.834000       15.9994           0
     30119 TIP3     2558     TIP3     H1       HT       0.417000       1.00800           0
     30120 TIP3     2558     TIP3     H2       HT       0.417000       1.00800           0
     30121 TIP3     2559     TIP3     OH2      OT      -0.834000       15.9994           0
     30122 TIP3     2559     TIP3     H1       HT       0.417000       1.00800           0
     30123 TIP3     2559     TIP3     H2       HT       0.417000       1.00800           0
     30124 TIP3     2560     TIP3     OH2      OT      -0.834000       15.9994           0
     30125 TIP3     2560     TIP3     H1       HT       0.417000       1.00800           0
     30126 TIP3     2560     TIP3     H2       HT       0.417000       1.00800           0
     30127 TIP3     2561     TIP3     OH2      OT      -0.834000       15.9994           0
     30128 TIP3     2561     TIP3     H1       HT       0.417000       1.00800           0
     30129 TIP3     2561     TIP3     H2       HT       0.417000       1.00800           0
     30130 TIP3     2562     TIP3     OH2      OT      -0.834000       15.9994           0
     30131 TIP3     2562     TIP3     H1       HT       0.417000       1.00800           0
     30132 TIP3     2562     TIP3     H2       HT       0.417000       1.00800           0
     30133 TIP3     2563     TIP3     OH2      OT      -0.834000       15.9994           0
     30134 TIP3     2563     TIP3     H1       HT       0.417000       1.00800           0
     30135 TIP3     2563     TIP3     H2       HT       0.417000       1.00800           0
     30136 TIP3     2564     TIP3     OH2      OT      -0.834000       15.9994           0
     30137 TIP3     2564     TIP3     H1       HT       0.417000       1.00800           0
     30138 TIP3     2564     TIP3     H2       HT       0.417000       1.00800           0
     30139 TIP3     2565     TIP3     OH2      OT      -0.834000       15.9994           0
     30140 TIP3     2565     TIP3     H1       HT       0.417000       1.00800           0
     30141 TIP3     2565     TIP3     H2       HT       0.417000       1.00800           0
     30142 TIP3     2566     TIP3     OH2      OT      -0.834000       15.9994           0
     30143 TIP3     2566     TIP3     H1       HT       0.417000       1.00800           0
     30144 TIP3     2566     TIP3     H2       HT       0.417000       1.00800           0
     30145 TIP3     2567     TIP3     OH2      OT      -0.834000       15.9994           0
     30146 TIP3     2567     TIP3     H1       HT       0.417000       1.00800           0
     30147 TIP3     2567     TIP3     H2       HT       0.417000       1.00800           0
     30148 TIP3     2568     TIP3     OH2      OT      -0.834000       15.9994           0
     30149 TIP3     2568     TIP3     H1       HT       0.417000       1.00800           0
     30150 TIP3     2568     TIP3     H2       HT       0.417000       1.00800           0
     30151 TIP3     2569     TIP3     OH2      OT      -0.834000       15.9994           0
     30152 TIP3     2569     TIP3     H1       HT       0.417000       1.00800           0
     30153 TIP3     2569     TIP3     H2       HT       0.417000       1.00800           0
     30154 TIP3     2570     TIP3     OH2      OT      -0.834000       15.9994           0
     30155 TIP3     2570     TIP3     H1       HT       0.417000       1.00800           0
     30156 TIP3     2570     TIP3     H2       HT       0.417000       1.00800           0
     30157 TIP3     2571     TIP3     OH2      OT      -0.834000       15.9994           0
     30158 TIP3     2571     TIP3     H1       HT       0.417000       1.00800           0
     30159 TIP3     2571     TIP3     H2       HT       0.417000       1.00800           0
     30160 TIP3     2572     TIP3     OH2      OT      -0.834000       15.9994           0
     30161 TIP3     2572     TIP3     H1       HT       0.417000       1.00800           0
     30162 TIP3     2572     TIP3     H2       HT       0.417000       1.00800           0
     30163 TIP3     2573     TIP3     OH2      OT      -0.834000       15.9994           0
     30164 TIP3     2573     TIP3     H1       HT       0.417000       1.00800           0
     30165 TIP3     2573     TIP3     H2       HT       0.417000       1.00800           0
     30166 TIP3     2574     TIP3     OH2      OT      -0.834000       15.9994           0
     30167 TIP3     2574     TIP3     H1       HT       0.417000       1.00800           0
     30168 TIP3     2574     TIP3     H2       HT       0.417000       1.00800           0
     30169 TIP3     2575     TIP3     OH2      OT      -0.834000       15.9994           0
     30170 TIP3     2575     TIP3     H1       HT       0.417000       1.00800           0
     30171 TIP3     2575     TIP3     H2       HT       0.417000       1.00800           0
     30172 TIP3     2576     TIP3     OH2      OT      -0.834000       15.9994           0
     30173 TIP3     2576     TIP3     H1       HT       0.417000       1.00800           0
     30174 TIP3     2576     TIP3     H2       HT       0.417000       1.00800           0
     30175 TIP3     2577     TIP3     OH2      OT      -0.834000       15.9994           0
     30176 TIP3     2577     TIP3     H1       HT       0.417000       1.00800           0
     30177 TIP3     2577     TIP3     H2       HT       0.417000       1.00800           0
     30178 TIP3     2578     TIP3     OH2      OT      -0.834000       15.9994           0
     30179 TIP3     2578     TIP3     H1       HT       0.417000       1.00800           0
     30180 TIP3     2578     TIP3     H2       HT       0.417000       1.00800           0
     30181 TIP3     2579     TIP3     OH2      OT      -0.834000       15.9994           0
     30182 TIP3     2579     TIP3     H1       HT       0.417000       1.00800           0
     30183 TIP3     2579     TIP3     H2       HT       0.417000       1.00800           0
     30184 TIP3     2580     TIP3     OH2      OT      -0.834000       15.9994           0
     30185 TIP3     2580     TIP3     H1       HT       0.417000       1.00800           0
     30186 TIP3     2580     TIP3     H2       HT       0.417000       1.00800           0
     30187 TIP3     2581     TIP3     OH2      OT      -0.834000       15.9994           0
     30188 TIP3     2581     TIP3     H1       HT       0.417000       1.00800           0
     30189 TIP3     2581     TIP3     H2       HT       0.417000       1.00800           0
     30190 TIP3     2582     TIP3     OH2      OT      -0.834000       15.9994           0
     30191 TIP3     2582     TIP3     H1       HT       0.417000       1.00800           0
     30192 TIP3     2582     TIP3     H2       HT       0.417000       1.00800           0
     30193 TIP3     2583     TIP3     OH2      OT      -0.834000       15.9994           0
     30194 TIP3     2583     TIP3     H1       HT       0.417000       1.00800           0
     30195 TIP3     2583     TIP3     H2       HT       0.417000       1.00800           0
     30196 TIP3     2584     TIP3     OH2      OT      -0.834000       15.9994           0
     30197 TIP3     2584     TIP3     H1       HT       0.417000       1.00800           0
     30198 TIP3     2584     TIP3     H2       HT       0.417000       1.00800           0
     30199 TIP3     2585     TIP3     OH2      OT      -0.834000       15.9994           0
     30200 TIP3     2585     TIP3     H1       HT       0.417000       1.00800           0
     30201 TIP3     2585     TIP3     H2       HT       0.417000       1.00800           0
     30202 TIP3     2586     TIP3     OH2      OT      -0.834000       15.9994           0
     30203 TIP3     2586     TIP3     H1       HT       0.417000       1.00800           0
     30204 TIP3     2586     TIP3     H2       HT       0.417000       1.00800           0
     30205 TIP3     2587     TIP3     OH2      OT      -0.834000       15.9994           0
     30206 TIP3     2587     TIP3     H1       HT       0.417000       1.00800           0
     30207 TIP3     2587     TIP3     H2       HT       0.417000       1.00800           0
     30208 TIP3     2588     TIP3     OH2      OT      -0.834000       15.9994           0
     30209 TIP3     2588     TIP3     H1       HT       0.417000       1.00800           0
     30210 TIP3     2588     TIP3     H2       HT       0.417000       1.00800           0
     30211 TIP3     2589     TIP3     OH2      OT      -0.834000       15.9994           0
     30212 TIP3     2589     TIP3     H1       HT       0.417000       1.00800           0
     30213 TIP3     2589     TIP3     H2       HT       0.417000       1.00800           0
     30214 TIP3     2590     TIP3     OH2      OT      -0.834000       15.9994           0
     30215 TIP3     2590     TIP3     H1       HT       0.417000       1.00800           0
     30216 TIP3     2590     TIP3     H2       HT       0.417000       1.00800           0
     30217 TIP3     2591     TIP3     OH2      OT      -0.834000       15.9994           0
     30218 TIP3     2591     TIP3     H1       HT       0.417000       1.00800           0
     30219 TIP3     2591     TIP3     H2       HT       0.417000       1.00800           0
     30220 TIP3     2592     TIP3     OH2      OT      -0.834000       15.9994           0
     30221 TIP3     2592     TIP3     H1       HT       0.417000       1.00800           0
     30222 TIP3     2592     TIP3     H2       HT       0.417000       1.00800           0
     30223 TIP3     2593     TIP3     OH2      OT      -0.834000       15.9994           0
     30224 TIP3     2593     TIP3     H1       HT       0.417000       1.00800           0
     30225 TIP3     2593     TIP3     H2       HT       0.417000       1.00800           0
     30226 TIP3     2594     TIP3     OH2      OT      -0.834000       15.9994           0
     30227 TIP3     2594     TIP3     H1       HT       0.417000       1.00800           0
     30228 TIP3     2594     TIP3     H2       HT       0.417000       1.00800           0
     30229 TIP3     2595     TIP3     OH2      OT      -0.834000       15.9994           0
     30230 TIP3     2595     TIP3     H1       HT       0.417000       1.00800           0
     30231 TIP3     2595     TIP3     H2       HT       0.417000       1.00800           0
     30232 TIP3     2596     TIP3     OH2      OT      -0.834000       15.9994           0
     30233 TIP3     2596     TIP3     H1       HT       0.417000       1.00800           0
     30234 TIP3     2596     TIP3     H2       HT       0.417000       1.00800           0
     30235 TIP3     2597     TIP3     OH2      OT      -0.834000       15.9994           0
     30236 TIP3     2597     TIP3     H1       HT       0.417000       1.00800           0
     30237 TIP3     2597     TIP3     H2       HT       0.417000       1.00800           0
     30238 TIP3     2598     TIP3     OH2      OT      -0.834000       15.9994           0
     30239 TIP3     2598     TIP3     H1       HT       0.417000       1.00800           0
     30240 TIP3     2598     TIP3     H2       HT       0.417000       1.00800           0
     30241 TIP3     2599     TIP3     OH2      OT      -0.834000       15.9994           0
     30242 TIP3     2599     TIP3     H1       HT       0.417000       1.00800           0
     30243 TIP3     2599     TIP3     H2       HT       0.417000       1.00800           0
     30244 TIP3     2600     TIP3     OH2      OT      -0.834000       15.9994           0
     30245 TIP3     2600     TIP3     H1       HT       0.417000       1.00800           0
     30246 TIP3     2600     TIP3     H2       HT       0.417000       1.00800           0
     30247 TIP3     2601     TIP3     OH2      OT      -0.834000       15.9994           0
     30248 TIP3     2601     TIP3     H1       HT       0.417000       1.00800           0
     30249 TIP3     2601     TIP3     H2       HT       0.417000       1.00800           0
     30250 TIP3     2602     TIP3     OH2      OT      -0.834000       15.9994           0
     30251 TIP3     2602     TIP3     H1       HT       0.417000       1.00800           0
     30252 TIP3     2602     TIP3     H2       HT       0.417000       1.00800           0
     30253 TIP3     2603     TIP3     OH2      OT      -0.834000       15.9994           0
     30254 TIP3     2603     TIP3     H1       HT       0.417000       1.00800           0
     30255 TIP3     2603     TIP3     H2       HT       0.417000       1.00800           0
     30256 TIP3     2604     TIP3     OH2      OT      -0.834000       15.9994           0
     30257 TIP3     2604     TIP3     H1       HT       0.417000       1.00800           0
     30258 TIP3     2604     TIP3     H2       HT       0.417000       1.00800           0
     30259 TIP3     2605     TIP3     OH2      OT      -0.834000       15.9994           0
     30260 TIP3     2605     TIP3     H1       HT       0.417000       1.00800           0
     30261 TIP3     2605     TIP3     H2       HT       0.417000       1.00800           0
     30262 TIP3     2606     TIP3     OH2      OT      -0.834000       15.9994           0
     30263 TIP3     2606     TIP3     H1       HT       0.417000       1.00800           0
     30264 TIP3     2606     TIP3     H2       HT       0.417000       1.00800           0
     30265 TIP3     2607     TIP3     OH2      OT      -0.834000       15.9994           0
     30266 TIP3     2607     TIP3     H1       HT       0.417000       1.00800           0
     30267 TIP3     2607     TIP3     H2       HT       0.417000       1.00800           0
     30268 TIP3     2608     TIP3     OH2      OT      -0.834000       15.9994           0
     30269 TIP3     2608     TIP3     H1       HT       0.417000       1.00800           0
     30270 TIP3     2608     TIP3     H2       HT       0.417000       1.00800           0
     30271 TIP3     2609     TIP3     OH2      OT      -0.834000       15.9994           0
     30272 TIP3     2609     TIP3     H1       HT       0.417000       1.00800           0
     30273 TIP3     2609     TIP3     H2       HT       0.417000       1.00800           0
     30274 TIP3     2610     TIP3     OH2      OT      -0.834000       15.9994           0
     30275 TIP3     2610     TIP3     H1       HT       0.417000       1.00800           0
     30276 TIP3     2610     TIP3     H2       HT       0.417000       1.00800           0
     30277 TIP3     2611     TIP3     OH2      OT      -0.834000       15.9994           0
     30278 TIP3     2611     TIP3     H1       HT       0.417000       1.00800           0
     30279 TIP3     2611     TIP3     H2       HT       0.417000       1.00800           0
     30280 TIP3     2612     TIP3     OH2      OT      -0.834000       15.9994           0
     30281 TIP3     2612     TIP3     H1       HT       0.417000       1.00800           0
     30282 TIP3     2612     TIP3     H2       HT       0.417000       1.00800           0
     30283 TIP3     2613     TIP3     OH2      OT      -0.834000       15.9994           0
     30284 TIP3     2613     TIP3     H1       HT       0.417000       1.00800           0
     30285 TIP3     2613     TIP3     H2       HT       0.417000       1.00800           0
     30286 TIP3     2614     TIP3     OH2      OT      -0.834000       15.9994           0
     30287 TIP3     2614     TIP3     H1       HT       0.417000       1.00800           0
     30288 TIP3     2614     TIP3     H2       HT       0.417000       1.00800           0
     30289 TIP3     2615     TIP3     OH2      OT      -0.834000       15.9994           0
     30290 TIP3     2615     TIP3     H1       HT       0.417000       1.00800           0
     30291 TIP3     2615     TIP3     H2       HT       0.417000       1.00800           0
     30292 TIP3     2616     TIP3     OH2      OT      -0.834000       15.9994           0
     30293 TIP3     2616     TIP3     H1       HT       0.417000       1.00800           0
     30294 TIP3     2616     TIP3     H2       HT       0.417000       1.00800           0
     30295 TIP3     2617     TIP3     OH2      OT      -0.834000       15.9994           0
     30296 TIP3     2617     TIP3     H1       HT       0.417000       1.00800           0
     30297 TIP3     2617     TIP3     H2       HT       0.417000       1.00800           0
     30298 TIP3     2618     TIP3     OH2      OT      -0.834000       15.9994           0
     30299 TIP3     2618     TIP3     H1       HT       0.417000       1.00800           0
     30300 TIP3     2618     TIP3     H2       HT       0.417000       1.00800           0
     30301 TIP3     2619     TIP3     OH2      OT      -0.834000       15.9994           0
     30302 TIP3     2619     TIP3     H1       HT       0.417000       1.00800           0
     30303 TIP3     2619     TIP3     H2       HT       0.417000       1.00800           0
     30304 TIP3     2620     TIP3     OH2      OT      -0.834000       15.9994           0
     30305 TIP3     2620     TIP3     H1       HT       0.417000       1.00800           0
     30306 TIP3     2620     TIP3     H2       HT       0.417000       1.00800           0
     30307 TIP3     2621     TIP3     OH2      OT      -0.834000       15.9994           0
     30308 TIP3     2621     TIP3     H1       HT       0.417000       1.00800           0
     30309 TIP3     2621     TIP3     H2       HT       0.417000       1.00800           0
     30310 TIP3     2622     TIP3     OH2      OT      -0.834000       15.9994           0
     30311 TIP3     2622     TIP3     H1       HT       0.417000       1.00800           0
     30312 TIP3     2622     TIP3     H2       HT       0.417000       1.00800           0
     30313 TIP3     2623     TIP3     OH2      OT      -0.834000       15.9994           0
     30314 TIP3     2623     TIP3     H1       HT       0.417000       1.00800           0
     30315 TIP3     2623     TIP3     H2       HT       0.417000       1.00800           0
     30316 TIP3     2624     TIP3     OH2      OT      -0.834000       15.9994           0
     30317 TIP3     2624     TIP3     H1       HT       0.417000       1.00800           0
     30318 TIP3     2624     TIP3     H2       HT       0.417000       1.00800           0
     30319 TIP3     2625     TIP3     OH2      OT      -0.834000       15.9994           0
     30320 TIP3     2625     TIP3     H1       HT       0.417000       1.00800           0
     30321 TIP3     2625     TIP3     H2       HT       0.417000       1.00800           0
     30322 TIP3     2626     TIP3     OH2      OT      -0.834000       15.9994           0
     30323 TIP3     2626     TIP3     H1       HT       0.417000       1.00800           0
     30324 TIP3     2626     TIP3     H2       HT       0.417000       1.00800           0
     30325 TIP3     2627     TIP3     OH2      OT      -0.834000       15.9994           0
     30326 TIP3     2627     TIP3     H1       HT       0.417000       1.00800           0
     30327 TIP3     2627     TIP3     H2       HT       0.417000       1.00800           0
     30328 TIP3     2628     TIP3     OH2      OT      -0.834000       15.9994           0
     30329 TIP3     2628     TIP3     H1       HT       0.417000       1.00800           0
     30330 TIP3     2628     TIP3     H2       HT       0.417000       1.00800           0
     30331 TIP3     2629     TIP3     OH2      OT      -0.834000       15.9994           0
     30332 TIP3     2629     TIP3     H1       HT       0.417000       1.00800           0
     30333 TIP3     2629     TIP3     H2       HT       0.417000       1.00800           0
     30334 TIP3     2630     TIP3     OH2      OT      -0.834000       15.9994           0
     30335 TIP3     2630     TIP3     H1       HT       0.417000       1.00800           0
     30336 TIP3     2630     TIP3     H2       HT       0.417000       1.00800           0
     30337 TIP3     2631     TIP3     OH2      OT      -0.834000       15.9994           0
     30338 TIP3     2631     TIP3     H1       HT       0.417000       1.00800           0
     30339 TIP3     2631     TIP3     H2       HT       0.417000       1.00800           0
     30340 TIP3     2632     TIP3     OH2      OT      -0.834000       15.9994           0
     30341 TIP3     2632     TIP3     H1       HT       0.417000       1.00800           0
     30342 TIP3     2632     TIP3     H2       HT       0.417000       1.00800           0
     30343 TIP3     2633     TIP3     OH2      OT      -0.834000       15.9994           0
     30344 TIP3     2633     TIP3     H1       HT       0.417000       1.00800           0
     30345 TIP3     2633     TIP3     H2       HT       0.417000       1.00800           0
     30346 TIP3     2634     TIP3     OH2      OT      -0.834000       15.9994           0
     30347 TIP3     2634     TIP3     H1       HT       0.417000       1.00800           0
     30348 TIP3     2634     TIP3     H2       HT       0.417000       1.00800           0
     30349 TIP3     2635     TIP3     OH2      OT      -0.834000       15.9994           0
     30350 TIP3     2635     TIP3     H1       HT       0.417000       1.00800           0
     30351 TIP3     2635     TIP3     H2       HT       0.417000       1.00800           0
     30352 TIP3     2636     TIP3     OH2      OT      -0.834000       15.9994           0
     30353 TIP3     2636     TIP3     H1       HT       0.417000       1.00800           0
     30354 TIP3     2636     TIP3     H2       HT       0.417000       1.00800           0
     30355 TIP3     2637     TIP3     OH2      OT      -0.834000       15.9994           0
     30356 TIP3     2637     TIP3     H1       HT       0.417000       1.00800           0
     30357 TIP3     2637     TIP3     H2       HT       0.417000       1.00800           0
     30358 TIP3     2638     TIP3     OH2      OT      -0.834000       15.9994           0
     30359 TIP3     2638     TIP3     H1       HT       0.417000       1.00800           0
     30360 TIP3     2638     TIP3     H2       HT       0.417000       1.00800           0
     30361 TIP3     2639     TIP3     OH2      OT      -0.834000       15.9994           0
     30362 TIP3     2639     TIP3     H1       HT       0.417000       1.00800           0
     30363 TIP3     2639     TIP3     H2       HT       0.417000       1.00800           0
     30364 TIP3     2640     TIP3     OH2      OT      -0.834000       15.9994           0
     30365 TIP3     2640     TIP3     H1       HT       0.417000       1.00800           0
     30366 TIP3     2640     TIP3     H2       HT       0.417000       1.00800           0
     30367 TIP3     2641     TIP3     OH2      OT      -0.834000       15.9994           0
     30368 TIP3     2641     TIP3     H1       HT       0.417000       1.00800           0
     30369 TIP3     2641     TIP3     H2       HT       0.417000       1.00800           0
     30370 TIP3     2642     TIP3     OH2      OT      -0.834000       15.9994           0
     30371 TIP3     2642     TIP3     H1       HT       0.417000       1.00800           0
     30372 TIP3     2642     TIP3     H2       HT       0.417000       1.00800           0
     30373 TIP3     2643     TIP3     OH2      OT      -0.834000       15.9994           0
     30374 TIP3     2643     TIP3     H1       HT       0.417000       1.00800           0
     30375 TIP3     2643     TIP3     H2       HT       0.417000       1.00800           0
     30376 TIP3     2644     TIP3     OH2      OT      -0.834000       15.9994           0
     30377 TIP3     2644     TIP3     H1       HT       0.417000       1.00800           0
     30378 TIP3     2644     TIP3     H2       HT       0.417000       1.00800           0
     30379 TIP3     2645     TIP3     OH2      OT      -0.834000       15.9994           0
     30380 TIP3     2645     TIP3     H1       HT       0.417000       1.00800           0
     30381 TIP3     2645     TIP3     H2       HT       0.417000       1.00800           0
     30382 TIP3     2646     TIP3     OH2      OT      -0.834000       15.9994           0
     30383 TIP3     2646     TIP3     H1       HT       0.417000       1.00800           0
     30384 TIP3     2646     TIP3     H2       HT       0.417000       1.00800           0
     30385 TIP3     2647     TIP3     OH2      OT      -0.834000       15.9994           0
     30386 TIP3     2647     TIP3     H1       HT       0.417000       1.00800           0
     30387 TIP3     2647     TIP3     H2       HT       0.417000       1.00800           0
     30388 TIP3     2648     TIP3     OH2      OT      -0.834000       15.9994           0
     30389 TIP3     2648     TIP3     H1       HT       0.417000       1.00800           0
     30390 TIP3     2648     TIP3     H2       HT       0.417000       1.00800           0
     30391 TIP3     2649     TIP3     OH2      OT      -0.834000       15.9994           0
     30392 TIP3     2649     TIP3     H1       HT       0.417000       1.00800           0
     30393 TIP3     2649     TIP3     H2       HT       0.417000       1.00800           0
     30394 TIP3     2650     TIP3     OH2      OT      -0.834000       15.9994           0
     30395 TIP3     2650     TIP3     H1       HT       0.417000       1.00800           0
     30396 TIP3     2650     TIP3     H2       HT       0.417000       1.00800           0
     30397 TIP3     2651     TIP3     OH2      OT      -0.834000       15.9994           0
     30398 TIP3     2651     TIP3     H1       HT       0.417000       1.00800           0
     30399 TIP3     2651     TIP3     H2       HT       0.417000       1.00800           0
     30400 TIP3     2652     TIP3     OH2      OT      -0.834000       15.9994           0
     30401 TIP3     2652     TIP3     H1       HT       0.417000       1.00800           0
     30402 TIP3     2652     TIP3     H2       HT       0.417000       1.00800           0
     30403 TIP3     2653     TIP3     OH2      OT      -0.834000       15.9994           0
     30404 TIP3     2653     TIP3     H1       HT       0.417000       1.00800           0
     30405 TIP3     2653     TIP3     H2       HT       0.417000       1.00800           0
     30406 TIP3     2654     TIP3     OH2      OT      -0.834000       15.9994           0
     30407 TIP3     2654     TIP3     H1       HT       0.417000       1.00800           0
     30408 TIP3     2654     TIP3     H2       HT       0.417000       1.00800           0
     30409 TIP3     2655     TIP3     OH2      OT      -0.834000       15.9994           0
     30410 TIP3     2655     TIP3     H1       HT       0.417000       1.00800           0
     30411 TIP3     2655     TIP3     H2       HT       0.417000       1.00800           0
     30412 TIP3     2656     TIP3     OH2      OT      -0.834000       15.9994           0
     30413 TIP3     2656     TIP3     H1       HT       0.417000       1.00800           0
     30414 TIP3     2656     TIP3     H2       HT       0.417000       1.00800           0
     30415 TIP3     2657     TIP3     OH2      OT      -0.834000       15.9994           0
     30416 TIP3     2657     TIP3     H1       HT       0.417000       1.00800           0
     30417 TIP3     2657     TIP3     H2       HT       0.417000       1.00800           0
     30418 TIP3     2658     TIP3     OH2      OT      -0.834000       15.9994           0
     30419 TIP3     2658     TIP3     H1       HT       0.417000       1.00800           0
     30420 TIP3     2658     TIP3     H2       HT       0.417000       1.00800           0
     30421 TIP3     2659     TIP3     OH2      OT      -0.834000       15.9994           0
     30422 TIP3     2659     TIP3     H1       HT       0.417000       1.00800           0
     30423 TIP3     2659     TIP3     H2       HT       0.417000       1.00800           0
     30424 TIP3     2660     TIP3     OH2      OT      -0.834000       15.9994           0
     30425 TIP3     2660     TIP3     H1       HT       0.417000       1.00800           0
     30426 TIP3     2660     TIP3     H2       HT       0.417000       1.00800           0
     30427 TIP3     2661     TIP3     OH2      OT      -0.834000       15.9994           0
     30428 TIP3     2661     TIP3     H1       HT       0.417000       1.00800           0
     30429 TIP3     2661     TIP3     H2       HT       0.417000       1.00800           0
     30430 TIP3     2662     TIP3     OH2      OT      -0.834000       15.9994           0
     30431 TIP3     2662     TIP3     H1       HT       0.417000       1.00800           0
     30432 TIP3     2662     TIP3     H2       HT       0.417000       1.00800           0
     30433 TIP3     2663     TIP3     OH2      OT      -0.834000       15.9994           0
     30434 TIP3     2663     TIP3     H1       HT       0.417000       1.00800           0
     30435 TIP3     2663     TIP3     H2       HT       0.417000       1.00800           0
     30436 TIP3     2664     TIP3     OH2      OT      -0.834000       15.9994           0
     30437 TIP3     2664     TIP3     H1       HT       0.417000       1.00800           0
     30438 TIP3     2664     TIP3     H2       HT       0.417000       1.00800           0
     30439 TIP3     2665     TIP3     OH2      OT      -0.834000       15.9994           0
     30440 TIP3     2665     TIP3     H1       HT       0.417000       1.00800           0
     30441 TIP3     2665     TIP3     H2       HT       0.417000       1.00800           0
     30442 TIP3     2666     TIP3     OH2      OT      -0.834000       15.9994           0
     30443 TIP3     2666     TIP3     H1       HT       0.417000       1.00800           0
     30444 TIP3     2666     TIP3     H2       HT       0.417000       1.00800           0
     30445 TIP3     2667     TIP3     OH2      OT      -0.834000       15.9994           0
     30446 TIP3     2667     TIP3     H1       HT       0.417000       1.00800           0
     30447 TIP3     2667     TIP3     H2       HT       0.417000       1.00800           0
     30448 TIP3     2668     TIP3     OH2      OT      -0.834000       15.9994           0
     30449 TIP3     2668     TIP3     H1       HT       0.417000       1.00800           0
     30450 TIP3     2668     TIP3     H2       HT       0.417000       1.00800           0
     30451 TIP3     2669     TIP3     OH2      OT      -0.834000       15.9994           0
     30452 TIP3     2669     TIP3     H1       HT       0.417000       1.00800           0
     30453 TIP3     2669     TIP3     H2       HT       0.417000       1.00800           0
     30454 TIP3     2670     TIP3     OH2      OT      -0.834000       15.9994           0
     30455 TIP3     2670     TIP3     H1       HT       0.417000       1.00800           0
     30456 TIP3     2670     TIP3     H2       HT       0.417000       1.00800           0
     30457 TIP3     2671     TIP3     OH2      OT      -0.834000       15.9994           0
     30458 TIP3     2671     TIP3     H1       HT       0.417000       1.00800           0
     30459 TIP3     2671     TIP3     H2       HT       0.417000       1.00800           0
     30460 TIP3     2672     TIP3     OH2      OT      -0.834000       15.9994           0
     30461 TIP3     2672     TIP3     H1       HT       0.417000       1.00800           0
     30462 TIP3     2672     TIP3     H2       HT       0.417000       1.00800           0
     30463 TIP3     2673     TIP3     OH2      OT      -0.834000       15.9994           0
     30464 TIP3     2673     TIP3     H1       HT       0.417000       1.00800           0
     30465 TIP3     2673     TIP3     H2       HT       0.417000       1.00800           0
     30466 TIP3     2674     TIP3     OH2      OT      -0.834000       15.9994           0
     30467 TIP3     2674     TIP3     H1       HT       0.417000       1.00800           0
     30468 TIP3     2674     TIP3     H2       HT       0.417000       1.00800           0
     30469 TIP3     2675     TIP3     OH2      OT      -0.834000       15.9994           0
     30470 TIP3     2675     TIP3     H1       HT       0.417000       1.00800           0
     30471 TIP3     2675     TIP3     H2       HT       0.417000       1.00800           0
     30472 TIP3     2676     TIP3     OH2      OT      -0.834000       15.9994           0
     30473 TIP3     2676     TIP3     H1       HT       0.417000       1.00800           0
     30474 TIP3     2676     TIP3     H2       HT       0.417000       1.00800           0
     30475 TIP3     2677     TIP3     OH2      OT      -0.834000       15.9994           0
     30476 TIP3     2677     TIP3     H1       HT       0.417000       1.00800           0
     30477 TIP3     2677     TIP3     H2       HT       0.417000       1.00800           0
     30478 TIP3     2678     TIP3     OH2      OT      -0.834000       15.9994           0
     30479 TIP3     2678     TIP3     H1       HT       0.417000       1.00800           0
     30480 TIP3     2678     TIP3     H2       HT       0.417000       1.00800           0
     30481 TIP3     2679     TIP3     OH2      OT      -0.834000       15.9994           0
     30482 TIP3     2679     TIP3     H1       HT       0.417000       1.00800           0
     30483 TIP3     2679     TIP3     H2       HT       0.417000       1.00800           0
     30484 TIP3     2680     TIP3     OH2      OT      -0.834000       15.9994           0
     30485 TIP3     2680     TIP3     H1       HT       0.417000       1.00800           0
     30486 TIP3     2680     TIP3     H2       HT       0.417000       1.00800           0
     30487 TIP3     2681     TIP3     OH2      OT      -0.834000       15.9994           0
     30488 TIP3     2681     TIP3     H1       HT       0.417000       1.00800           0
     30489 TIP3     2681     TIP3     H2       HT       0.417000       1.00800           0
     30490 TIP3     2682     TIP3     OH2      OT      -0.834000       15.9994           0
     30491 TIP3     2682     TIP3     H1       HT       0.417000       1.00800           0
     30492 TIP3     2682     TIP3     H2       HT       0.417000       1.00800           0
     30493 TIP3     2683     TIP3     OH2      OT      -0.834000       15.9994           0
     30494 TIP3     2683     TIP3     H1       HT       0.417000       1.00800           0
     30495 TIP3     2683     TIP3     H2       HT       0.417000       1.00800           0
     30496 TIP3     2684     TIP3     OH2      OT      -0.834000       15.9994           0
     30497 TIP3     2684     TIP3     H1       HT       0.417000       1.00800           0
     30498 TIP3     2684     TIP3     H2       HT       0.417000       1.00800           0
     30499 TIP3     2685     TIP3     OH2      OT      -0.834000       15.9994           0
     30500 TIP3     2685     TIP3     H1       HT       0.417000       1.00800           0
     30501 TIP3     2685     TIP3     H2       HT       0.417000       1.00800           0
     30502 TIP3     2686     TIP3     OH2      OT      -0.834000       15.9994           0
     30503 TIP3     2686     TIP3     H1       HT       0.417000       1.00800           0
     30504 TIP3     2686     TIP3     H2       HT       0.417000       1.00800           0
     30505 TIP3     2687     TIP3     OH2      OT      -0.834000       15.9994           0
     30506 TIP3     2687     TIP3     H1       HT       0.417000       1.00800           0
     30507 TIP3     2687     TIP3     H2       HT       0.417000       1.00800           0
     30508 TIP3     2688     TIP3     OH2      OT      -0.834000       15.9994           0
     30509 TIP3     2688     TIP3     H1       HT       0.417000       1.00800           0
     30510 TIP3     2688     TIP3     H2       HT       0.417000       1.00800           0
     30511 TIP3     2689     TIP3     OH2      OT      -0.834000       15.9994           0
     30512 TIP3     2689     TIP3     H1       HT       0.417000       1.00800           0
     30513 TIP3     2689     TIP3     H2       HT       0.417000       1.00800           0
     30514 TIP3     2690     TIP3     OH2      OT      -0.834000       15.9994           0
     30515 TIP3     2690     TIP3     H1       HT       0.417000       1.00800           0
     30516 TIP3     2690     TIP3     H2       HT       0.417000       1.00800           0
     30517 TIP3     2691     TIP3     OH2      OT      -0.834000       15.9994           0
     30518 TIP3     2691     TIP3     H1       HT       0.417000       1.00800           0
     30519 TIP3     2691     TIP3     H2       HT       0.417000       1.00800           0
     30520 TIP3     2692     TIP3     OH2      OT      -0.834000       15.9994           0
     30521 TIP3     2692     TIP3     H1       HT       0.417000       1.00800           0
     30522 TIP3     2692     TIP3     H2       HT       0.417000       1.00800           0
     30523 TIP3     2693     TIP3     OH2      OT      -0.834000       15.9994           0
     30524 TIP3     2693     TIP3     H1       HT       0.417000       1.00800           0
     30525 TIP3     2693     TIP3     H2       HT       0.417000       1.00800           0
     30526 TIP3     2694     TIP3     OH2      OT      -0.834000       15.9994           0
     30527 TIP3     2694     TIP3     H1       HT       0.417000       1.00800           0
     30528 TIP3     2694     TIP3     H2       HT       0.417000       1.00800           0
     30529 TIP3     2695     TIP3     OH2      OT      -0.834000       15.9994           0
     30530 TIP3     2695     TIP3     H1       HT       0.417000       1.00800           0
     30531 TIP3     2695     TIP3     H2       HT       0.417000       1.00800           0
     30532 TIP3     2696     TIP3     OH2      OT      -0.834000       15.9994           0
     30533 TIP3     2696     TIP3     H1       HT       0.417000       1.00800           0
     30534 TIP3     2696     TIP3     H2       HT       0.417000       1.00800           0
     30535 TIP3     2697     TIP3     OH2      OT      -0.834000       15.9994           0
     30536 TIP3     2697     TIP3     H1       HT       0.417000       1.00800           0
     30537 TIP3     2697     TIP3     H2       HT       0.417000       1.00800           0
     30538 TIP3     2698     TIP3     OH2      OT      -0.834000       15.9994           0
     30539 TIP3     2698     TIP3     H1       HT       0.417000       1.00800           0
     30540 TIP3     2698     TIP3     H2       HT       0.417000       1.00800           0
     30541 TIP3     2699     TIP3     OH2      OT      -0.834000       15.9994           0
     30542 TIP3     2699     TIP3     H1       HT       0.417000       1.00800           0
     30543 TIP3     2699     TIP3     H2       HT       0.417000       1.00800           0
     30544 TIP3     2700     TIP3     OH2      OT      -0.834000       15.9994           0
     30545 TIP3     2700     TIP3     H1       HT       0.417000       1.00800           0
     30546 TIP3     2700     TIP3     H2       HT       0.417000       1.00800           0
     30547 TIP3     2701     TIP3     OH2      OT      -0.834000       15.9994           0
     30548 TIP3     2701     TIP3     H1       HT       0.417000       1.00800           0
     30549 TIP3     2701     TIP3     H2       HT       0.417000       1.00800           0
     30550 TIP3     2702     TIP3     OH2      OT      -0.834000       15.9994           0
     30551 TIP3     2702     TIP3     H1       HT       0.417000       1.00800           0
     30552 TIP3     2702     TIP3     H2       HT       0.417000       1.00800           0
     30553 TIP3     2703     TIP3     OH2      OT      -0.834000       15.9994           0
     30554 TIP3     2703     TIP3     H1       HT       0.417000       1.00800           0
     30555 TIP3     2703     TIP3     H2       HT       0.417000       1.00800           0
     30556 TIP3     2704     TIP3     OH2      OT      -0.834000       15.9994           0
     30557 TIP3     2704     TIP3     H1       HT       0.417000       1.00800           0
     30558 TIP3     2704     TIP3     H2       HT       0.417000       1.00800           0
     30559 TIP3     2705     TIP3     OH2      OT      -0.834000       15.9994           0
     30560 TIP3     2705     TIP3     H1       HT       0.417000       1.00800           0
     30561 TIP3     2705     TIP3     H2       HT       0.417000       1.00800           0
     30562 TIP3     2706     TIP3     OH2      OT      -0.834000       15.9994           0
     30563 TIP3     2706     TIP3     H1       HT       0.417000       1.00800           0
     30564 TIP3     2706     TIP3     H2       HT       0.417000       1.00800           0
     30565 TIP3     2707     TIP3     OH2      OT      -0.834000       15.9994           0
     30566 TIP3     2707     TIP3     H1       HT       0.417000       1.00800           0
     30567 TIP3     2707     TIP3     H2       HT       0.417000       1.00800           0
     30568 TIP3     2708     TIP3     OH2      OT      -0.834000       15.9994           0
     30569 TIP3     2708     TIP3     H1       HT       0.417000       1.00800           0
     30570 TIP3     2708     TIP3     H2       HT       0.417000       1.00800           0
     30571 TIP3     2709     TIP3     OH2      OT      -0.834000       15.9994           0
     30572 TIP3     2709     TIP3     H1       HT       0.417000       1.00800           0
     30573 TIP3     2709     TIP3     H2       HT       0.417000       1.00800           0
     30574 TIP3     2710     TIP3     OH2      OT      -0.834000       15.9994           0
     30575 TIP3     2710     TIP3     H1       HT       0.417000       1.00800           0
     30576 TIP3     2710     TIP3     H2       HT       0.417000       1.00800           0
     30577 TIP3     2711     TIP3     OH2      OT      -0.834000       15.9994           0
     30578 TIP3     2711     TIP3     H1       HT       0.417000       1.00800           0
     30579 TIP3     2711     TIP3     H2       HT       0.417000       1.00800           0
     30580 TIP3     2712     TIP3     OH2      OT      -0.834000       15.9994           0
     30581 TIP3     2712     TIP3     H1       HT       0.417000       1.00800           0
     30582 TIP3     2712     TIP3     H2       HT       0.417000       1.00800           0
     30583 TIP3     2713     TIP3     OH2      OT      -0.834000       15.9994           0
     30584 TIP3     2713     TIP3     H1       HT       0.417000       1.00800           0
     30585 TIP3     2713     TIP3     H2       HT       0.417000       1.00800           0
     30586 TIP3     2714     TIP3     OH2      OT      -0.834000       15.9994           0
     30587 TIP3     2714     TIP3     H1       HT       0.417000       1.00800           0
     30588 TIP3     2714     TIP3     H2       HT       0.417000       1.00800           0
     30589 TIP3     2715     TIP3     OH2      OT      -0.834000       15.9994           0
     30590 TIP3     2715     TIP3     H1       HT       0.417000       1.00800           0
     30591 TIP3     2715     TIP3     H2       HT       0.417000       1.00800           0
     30592 TIP3     2716     TIP3     OH2      OT      -0.834000       15.9994           0
     30593 TIP3     2716     TIP3     H1       HT       0.417000       1.00800           0
     30594 TIP3     2716     TIP3     H2       HT       0.417000       1.00800           0
     30595 TIP3     2717     TIP3     OH2      OT      -0.834000       15.9994           0
     30596 TIP3     2717     TIP3     H1       HT       0.417000       1.00800           0
     30597 TIP3     2717     TIP3     H2       HT       0.417000       1.00800           0
     30598 TIP3     2718     TIP3     OH2      OT      -0.834000       15.9994           0
     30599 TIP3     2718     TIP3     H1       HT       0.417000       1.00800           0
     30600 TIP3     2718     TIP3     H2       HT       0.417000       1.00800           0
     30601 TIP3     2719     TIP3     OH2      OT      -0.834000       15.9994           0
     30602 TIP3     2719     TIP3     H1       HT       0.417000       1.00800           0
     30603 TIP3     2719     TIP3     H2       HT       0.417000       1.00800           0
     30604 TIP3     2720     TIP3     OH2      OT      -0.834000       15.9994           0
     30605 TIP3     2720     TIP3     H1       HT       0.417000       1.00800           0
     30606 TIP3     2720     TIP3     H2       HT       0.417000       1.00800           0
     30607 TIP3     2721     TIP3     OH2      OT      -0.834000       15.9994           0
     30608 TIP3     2721     TIP3     H1       HT       0.417000       1.00800           0
     30609 TIP3     2721     TIP3     H2       HT       0.417000       1.00800           0
     30610 TIP3     2722     TIP3     OH2      OT      -0.834000       15.9994           0
     30611 TIP3     2722     TIP3     H1       HT       0.417000       1.00800           0
     30612 TIP3     2722     TIP3     H2       HT       0.417000       1.00800           0
     30613 TIP3     2723     TIP3     OH2      OT      -0.834000       15.9994           0
     30614 TIP3     2723     TIP3     H1       HT       0.417000       1.00800           0
     30615 TIP3     2723     TIP3     H2       HT       0.417000       1.00800           0
     30616 TIP3     2724     TIP3     OH2      OT      -0.834000       15.9994           0
     30617 TIP3     2724     TIP3     H1       HT       0.417000       1.00800           0
     30618 TIP3     2724     TIP3     H2       HT       0.417000       1.00800           0
     30619 TIP3     2725     TIP3     OH2      OT      -0.834000       15.9994           0
     30620 TIP3     2725     TIP3     H1       HT       0.417000       1.00800           0
     30621 TIP3     2725     TIP3     H2       HT       0.417000       1.00800           0
     30622 TIP3     2726     TIP3     OH2      OT      -0.834000       15.9994           0
     30623 TIP3     2726     TIP3     H1       HT       0.417000       1.00800           0
     30624 TIP3     2726     TIP3     H2       HT       0.417000       1.00800           0
     30625 TIP3     2727     TIP3     OH2      OT      -0.834000       15.9994           0
     30626 TIP3     2727     TIP3     H1       HT       0.417000       1.00800           0
     30627 TIP3     2727     TIP3     H2       HT       0.417000       1.00800           0
     30628 TIP3     2728     TIP3     OH2      OT      -0.834000       15.9994           0
     30629 TIP3     2728     TIP3     H1       HT       0.417000       1.00800           0
     30630 TIP3     2728     TIP3     H2       HT       0.417000       1.00800           0
     30631 TIP3     2729     TIP3     OH2      OT      -0.834000       15.9994           0
     30632 TIP3     2729     TIP3     H1       HT       0.417000       1.00800           0
     30633 TIP3     2729     TIP3     H2       HT       0.417000       1.00800           0
     30634 TIP3     2730     TIP3     OH2      OT      -0.834000       15.9994           0
     30635 TIP3     2730     TIP3     H1       HT       0.417000       1.00800           0
     30636 TIP3     2730     TIP3     H2       HT       0.417000       1.00800           0
     30637 TIP3     2731     TIP3     OH2      OT      -0.834000       15.9994           0
     30638 TIP3     2731     TIP3     H1       HT       0.417000       1.00800           0
     30639 TIP3     2731     TIP3     H2       HT       0.417000       1.00800           0
     30640 TIP3     2732     TIP3     OH2      OT      -0.834000       15.9994           0
     30641 TIP3     2732     TIP3     H1       HT       0.417000       1.00800           0
     30642 TIP3     2732     TIP3     H2       HT       0.417000       1.00800           0
     30643 TIP3     2733     TIP3     OH2      OT      -0.834000       15.9994           0
     30644 TIP3     2733     TIP3     H1       HT       0.417000       1.00800           0
     30645 TIP3     2733     TIP3     H2       HT       0.417000       1.00800           0
     30646 TIP3     2734     TIP3     OH2      OT      -0.834000       15.9994           0
     30647 TIP3     2734     TIP3     H1       HT       0.417000       1.00800           0
     30648 TIP3     2734     TIP3     H2       HT       0.417000       1.00800           0
     30649 TIP3     2735     TIP3     OH2      OT      -0.834000       15.9994           0
     30650 TIP3     2735     TIP3     H1       HT       0.417000       1.00800           0
     30651 TIP3     2735     TIP3     H2       HT       0.417000       1.00800           0
     30652 TIP3     2736     TIP3     OH2      OT      -0.834000       15.9994           0
     30653 TIP3     2736     TIP3     H1       HT       0.417000       1.00800           0
     30654 TIP3     2736     TIP3     H2       HT       0.417000       1.00800           0
     30655 TIP3     2737     TIP3     OH2      OT      -0.834000       15.9994           0
     30656 TIP3     2737     TIP3     H1       HT       0.417000       1.00800           0
     30657 TIP3     2737     TIP3     H2       HT       0.417000       1.00800           0
     30658 TIP3     2738     TIP3     OH2      OT      -0.834000       15.9994           0
     30659 TIP3     2738     TIP3     H1       HT       0.417000       1.00800           0
     30660 TIP3     2738     TIP3     H2       HT       0.417000       1.00800           0
     30661 TIP3     2739     TIP3     OH2      OT      -0.834000       15.9994           0
     30662 TIP3     2739     TIP3     H1       HT       0.417000       1.00800           0
     30663 TIP3     2739     TIP3     H2       HT       0.417000       1.00800           0
     30664 TIP3     2740     TIP3     OH2      OT      -0.834000       15.9994           0
     30665 TIP3     2740     TIP3     H1       HT       0.417000       1.00800           0
     30666 TIP3     2740     TIP3     H2       HT       0.417000       1.00800           0
     30667 TIP3     2741     TIP3     OH2      OT      -0.834000       15.9994           0
     30668 TIP3     2741     TIP3     H1       HT       0.417000       1.00800           0
     30669 TIP3     2741     TIP3     H2       HT       0.417000       1.00800           0
     30670 TIP3     2742     TIP3     OH2      OT      -0.834000       15.9994           0
     30671 TIP3     2742     TIP3     H1       HT       0.417000       1.00800           0
     30672 TIP3     2742     TIP3     H2       HT       0.417000       1.00800           0
     30673 TIP3     2743     TIP3     OH2      OT      -0.834000       15.9994           0
     30674 TIP3     2743     TIP3     H1       HT       0.417000       1.00800           0
     30675 TIP3     2743     TIP3     H2       HT       0.417000       1.00800           0
     30676 TIP3     2744     TIP3     OH2      OT      -0.834000       15.9994           0
     30677 TIP3     2744     TIP3     H1       HT       0.417000       1.00800           0
     30678 TIP3     2744     TIP3     H2       HT       0.417000       1.00800           0
     30679 TIP3     2745     TIP3     OH2      OT      -0.834000       15.9994           0
     30680 TIP3     2745     TIP3     H1       HT       0.417000       1.00800           0
     30681 TIP3     2745     TIP3     H2       HT       0.417000       1.00800           0
     30682 TIP3     2746     TIP3     OH2      OT      -0.834000       15.9994           0
     30683 TIP3     2746     TIP3     H1       HT       0.417000       1.00800           0
     30684 TIP3     2746     TIP3     H2       HT       0.417000       1.00800           0
     30685 TIP3     2747     TIP3     OH2      OT      -0.834000       15.9994           0
     30686 TIP3     2747     TIP3     H1       HT       0.417000       1.00800           0
     30687 TIP3     2747     TIP3     H2       HT       0.417000       1.00800           0
     30688 TIP3     2748     TIP3     OH2      OT      -0.834000       15.9994           0
     30689 TIP3     2748     TIP3     H1       HT       0.417000       1.00800           0
     30690 TIP3     2748     TIP3     H2       HT       0.417000       1.00800           0
     30691 TIP3     2749     TIP3     OH2      OT      -0.834000       15.9994           0
     30692 TIP3     2749     TIP3     H1       HT       0.417000       1.00800           0
     30693 TIP3     2749     TIP3     H2       HT       0.417000       1.00800           0
     30694 TIP3     2750     TIP3     OH2      OT      -0.834000       15.9994           0
     30695 TIP3     2750     TIP3     H1       HT       0.417000       1.00800           0
     30696 TIP3     2750     TIP3     H2       HT       0.417000       1.00800           0
     30697 TIP3     2751     TIP3     OH2      OT      -0.834000       15.9994           0
     30698 TIP3     2751     TIP3     H1       HT       0.417000       1.00800           0
     30699 TIP3     2751     TIP3     H2       HT       0.417000       1.00800           0
     30700 TIP3     2752     TIP3     OH2      OT      -0.834000       15.9994           0
     30701 TIP3     2752     TIP3     H1       HT       0.417000       1.00800           0
     30702 TIP3     2752     TIP3     H2       HT       0.417000       1.00800           0
     30703 TIP3     2753     TIP3     OH2      OT      -0.834000       15.9994           0
     30704 TIP3     2753     TIP3     H1       HT       0.417000       1.00800           0
     30705 TIP3     2753     TIP3     H2       HT       0.417000       1.00800           0
     30706 TIP3     2754     TIP3     OH2      OT      -0.834000       15.9994           0
     30707 TIP3     2754     TIP3     H1       HT       0.417000       1.00800           0
     30708 TIP3     2754     TIP3     H2       HT       0.417000       1.00800           0
     30709 TIP3     2755     TIP3     OH2      OT      -0.834000       15.9994           0
     30710 TIP3     2755     TIP3     H1       HT       0.417000       1.00800           0
     30711 TIP3     2755     TIP3     H2       HT       0.417000       1.00800           0
     30712 TIP3     2756     TIP3     OH2      OT      -0.834000       15.9994           0
     30713 TIP3     2756     TIP3     H1       HT       0.417000       1.00800           0
     30714 TIP3     2756     TIP3     H2       HT       0.417000       1.00800           0
     30715 TIP3     2757     TIP3     OH2      OT      -0.834000       15.9994           0
     30716 TIP3     2757     TIP3     H1       HT       0.417000       1.00800           0
     30717 TIP3     2757     TIP3     H2       HT       0.417000       1.00800           0
     30718 TIP3     2758     TIP3     OH2      OT      -0.834000       15.9994           0
     30719 TIP3     2758     TIP3     H1       HT       0.417000       1.00800           0
     30720 TIP3     2758     TIP3     H2       HT       0.417000       1.00800           0
     30721 TIP3     2759     TIP3     OH2      OT      -0.834000       15.9994           0
     30722 TIP3     2759     TIP3     H1       HT       0.417000       1.00800           0
     30723 TIP3     2759     TIP3     H2       HT       0.417000       1.00800           0
     30724 TIP3     2760     TIP3     OH2      OT      -0.834000       15.9994           0
     30725 TIP3     2760     TIP3     H1       HT       0.417000       1.00800           0
     30726 TIP3     2760     TIP3     H2       HT       0.417000       1.00800           0
     30727 TIP3     2761     TIP3     OH2      OT      -0.834000       15.9994           0
     30728 TIP3     2761     TIP3     H1       HT       0.417000       1.00800           0
     30729 TIP3     2761     TIP3     H2       HT       0.417000       1.00800           0
     30730 TIP3     2762     TIP3     OH2      OT      -0.834000       15.9994           0
     30731 TIP3     2762     TIP3     H1       HT       0.417000       1.00800           0
     30732 TIP3     2762     TIP3     H2       HT       0.417000       1.00800           0
     30733 TIP3     2763     TIP3     OH2      OT      -0.834000       15.9994           0
     30734 TIP3     2763     TIP3     H1       HT       0.417000       1.00800           0
     30735 TIP3     2763     TIP3     H2       HT       0.417000       1.00800           0
     30736 TIP3     2764     TIP3     OH2      OT      -0.834000       15.9994           0
     30737 TIP3     2764     TIP3     H1       HT       0.417000       1.00800           0
     30738 TIP3     2764     TIP3     H2       HT       0.417000       1.00800           0
     30739 TIP3     2765     TIP3     OH2      OT      -0.834000       15.9994           0
     30740 TIP3     2765     TIP3     H1       HT       0.417000       1.00800           0
     30741 TIP3     2765     TIP3     H2       HT       0.417000       1.00800           0
     30742 TIP3     2766     TIP3     OH2      OT      -0.834000       15.9994           0
     30743 TIP3     2766     TIP3     H1       HT       0.417000       1.00800           0
     30744 TIP3     2766     TIP3     H2       HT       0.417000       1.00800           0
     30745 TIP3     2767     TIP3     OH2      OT      -0.834000       15.9994           0
     30746 TIP3     2767     TIP3     H1       HT       0.417000       1.00800           0
     30747 TIP3     2767     TIP3     H2       HT       0.417000       1.00800           0
     30748 TIP3     2768     TIP3     OH2      OT      -0.834000       15.9994           0
     30749 TIP3     2768     TIP3     H1       HT       0.417000       1.00800           0
     30750 TIP3     2768     TIP3     H2       HT       0.417000       1.00800           0
     30751 TIP3     2769     TIP3     OH2      OT      -0.834000       15.9994           0
     30752 TIP3     2769     TIP3     H1       HT       0.417000       1.00800           0
     30753 TIP3     2769     TIP3     H2       HT       0.417000       1.00800           0
     30754 TIP3     2770     TIP3     OH2      OT      -0.834000       15.9994           0
     30755 TIP3     2770     TIP3     H1       HT       0.417000       1.00800           0
     30756 TIP3     2770     TIP3     H2       HT       0.417000       1.00800           0
     30757 TIP3     2771     TIP3     OH2      OT      -0.834000       15.9994           0
     30758 TIP3     2771     TIP3     H1       HT       0.417000       1.00800           0
     30759 TIP3     2771     TIP3     H2       HT       0.417000       1.00800           0
     30760 TIP3     2772     TIP3     OH2      OT      -0.834000       15.9994           0
     30761 TIP3     2772     TIP3     H1       HT       0.417000       1.00800           0
     30762 TIP3     2772     TIP3     H2       HT       0.417000       1.00800           0
     30763 TIP3     2773     TIP3     OH2      OT      -0.834000       15.9994           0
     30764 TIP3     2773     TIP3     H1       HT       0.417000       1.00800           0
     30765 TIP3     2773     TIP3     H2       HT       0.417000       1.00800           0
     30766 TIP3     2774     TIP3     OH2      OT      -0.834000       15.9994           0
     30767 TIP3     2774     TIP3     H1       HT       0.417000       1.00800           0
     30768 TIP3     2774     TIP3     H2       HT       0.417000       1.00800           0
     30769 TIP3     2775     TIP3     OH2      OT      -0.834000       15.9994           0
     30770 TIP3     2775     TIP3     H1       HT       0.417000       1.00800           0
     30771 TIP3     2775     TIP3     H2       HT       0.417000       1.00800           0
     30772 TIP3     2776     TIP3     OH2      OT      -0.834000       15.9994           0
     30773 TIP3     2776     TIP3     H1       HT       0.417000       1.00800           0
     30774 TIP3     2776     TIP3     H2       HT       0.417000       1.00800           0
     30775 TIP3     2777     TIP3     OH2      OT      -0.834000       15.9994           0
     30776 TIP3     2777     TIP3     H1       HT       0.417000       1.00800           0
     30777 TIP3     2777     TIP3     H2       HT       0.417000       1.00800           0
     30778 TIP3     2778     TIP3     OH2      OT      -0.834000       15.9994           0
     30779 TIP3     2778     TIP3     H1       HT       0.417000       1.00800           0
     30780 TIP3     2778     TIP3     H2       HT       0.417000       1.00800           0
     30781 TIP3     2779     TIP3     OH2      OT      -0.834000       15.9994           0
     30782 TIP3     2779     TIP3     H1       HT       0.417000       1.00800           0
     30783 TIP3     2779     TIP3     H2       HT       0.417000       1.00800           0
     30784 TIP3     2780     TIP3     OH2      OT      -0.834000       15.9994           0
     30785 TIP3     2780     TIP3     H1       HT       0.417000       1.00800           0
     30786 TIP3     2780     TIP3     H2       HT       0.417000       1.00800           0
     30787 TIP3     2781     TIP3     OH2      OT      -0.834000       15.9994           0
     30788 TIP3     2781     TIP3     H1       HT       0.417000       1.00800           0
     30789 TIP3     2781     TIP3     H2       HT       0.417000       1.00800           0
     30790 TIP3     2782     TIP3     OH2      OT      -0.834000       15.9994           0
     30791 TIP3     2782     TIP3     H1       HT       0.417000       1.00800           0
     30792 TIP3     2782     TIP3     H2       HT       0.417000       1.00800           0
     30793 TIP3     2783     TIP3     OH2      OT      -0.834000       15.9994           0
     30794 TIP3     2783     TIP3     H1       HT       0.417000       1.00800           0
     30795 TIP3     2783     TIP3     H2       HT       0.417000       1.00800           0
     30796 TIP3     2784     TIP3     OH2      OT      -0.834000       15.9994           0
     30797 TIP3     2784     TIP3     H1       HT       0.417000       1.00800           0
     30798 TIP3     2784     TIP3     H2       HT       0.417000       1.00800           0
     30799 TIP3     2785     TIP3     OH2      OT      -0.834000       15.9994           0
     30800 TIP3     2785     TIP3     H1       HT       0.417000       1.00800           0
     30801 TIP3     2785     TIP3     H2       HT       0.417000       1.00800           0
     30802 TIP3     2786     TIP3     OH2      OT      -0.834000       15.9994           0
     30803 TIP3     2786     TIP3     H1       HT       0.417000       1.00800           0
     30804 TIP3     2786     TIP3     H2       HT       0.417000       1.00800           0
     30805 TIP3     2787     TIP3     OH2      OT      -0.834000       15.9994           0
     30806 TIP3     2787     TIP3     H1       HT       0.417000       1.00800           0
     30807 TIP3     2787     TIP3     H2       HT       0.417000       1.00800           0
     30808 TIP3     2788     TIP3     OH2      OT      -0.834000       15.9994           0
     30809 TIP3     2788     TIP3     H1       HT       0.417000       1.00800           0
     30810 TIP3     2788     TIP3     H2       HT       0.417000       1.00800           0
     30811 TIP3     2789     TIP3     OH2      OT      -0.834000       15.9994           0
     30812 TIP3     2789     TIP3     H1       HT       0.417000       1.00800           0
     30813 TIP3     2789     TIP3     H2       HT       0.417000       1.00800           0
     30814 TIP3     2790     TIP3     OH2      OT      -0.834000       15.9994           0
     30815 TIP3     2790     TIP3     H1       HT       0.417000       1.00800           0
     30816 TIP3     2790     TIP3     H2       HT       0.417000       1.00800           0
     30817 TIP3     2791     TIP3     OH2      OT      -0.834000       15.9994           0
     30818 TIP3     2791     TIP3     H1       HT       0.417000       1.00800           0
     30819 TIP3     2791     TIP3     H2       HT       0.417000       1.00800           0
     30820 TIP3     2792     TIP3     OH2      OT      -0.834000       15.9994           0
     30821 TIP3     2792     TIP3     H1       HT       0.417000       1.00800           0
     30822 TIP3     2792     TIP3     H2       HT       0.417000       1.00800           0
     30823 TIP3     2793     TIP3     OH2      OT      -0.834000       15.9994           0
     30824 TIP3     2793     TIP3     H1       HT       0.417000       1.00800           0
     30825 TIP3     2793     TIP3     H2       HT       0.417000       1.00800           0
     30826 TIP3     2794     TIP3     OH2      OT      -0.834000       15.9994           0
     30827 TIP3     2794     TIP3     H1       HT       0.417000       1.00800           0
     30828 TIP3     2794     TIP3     H2       HT       0.417000       1.00800           0
     30829 TIP3     2795     TIP3     OH2      OT      -0.834000       15.9994           0
     30830 TIP3     2795     TIP3     H1       HT       0.417000       1.00800           0
     30831 TIP3     2795     TIP3     H2       HT       0.417000       1.00800           0
     30832 TIP3     2796     TIP3     OH2      OT      -0.834000       15.9994           0
     30833 TIP3     2796     TIP3     H1       HT       0.417000       1.00800           0
     30834 TIP3     2796     TIP3     H2       HT       0.417000       1.00800           0
     30835 TIP3     2797     TIP3     OH2      OT      -0.834000       15.9994           0
     30836 TIP3     2797     TIP3     H1       HT       0.417000       1.00800           0
     30837 TIP3     2797     TIP3     H2       HT       0.417000       1.00800           0
     30838 TIP3     2798     TIP3     OH2      OT      -0.834000       15.9994           0
     30839 TIP3     2798     TIP3     H1       HT       0.417000       1.00800           0
     30840 TIP3     2798     TIP3     H2       HT       0.417000       1.00800           0
     30841 TIP3     2799     TIP3     OH2      OT      -0.834000       15.9994           0
     30842 TIP3     2799     TIP3     H1       HT       0.417000       1.00800           0
     30843 TIP3     2799     TIP3     H2       HT       0.417000       1.00800           0
     30844 TIP3     2800     TIP3     OH2      OT      -0.834000       15.9994           0
     30845 TIP3     2800     TIP3     H1       HT       0.417000       1.00800           0
     30846 TIP3     2800     TIP3     H2       HT       0.417000       1.00800           0
     30847 TIP3     2801     TIP3     OH2      OT      -0.834000       15.9994           0
     30848 TIP3     2801     TIP3     H1       HT       0.417000       1.00800           0
     30849 TIP3     2801     TIP3     H2       HT       0.417000       1.00800           0
     30850 TIP3     2802     TIP3     OH2      OT      -0.834000       15.9994           0
     30851 TIP3     2802     TIP3     H1       HT       0.417000       1.00800           0
     30852 TIP3     2802     TIP3     H2       HT       0.417000       1.00800           0
     30853 TIP3     2803     TIP3     OH2      OT      -0.834000       15.9994           0
     30854 TIP3     2803     TIP3     H1       HT       0.417000       1.00800           0
     30855 TIP3     2803     TIP3     H2       HT       0.417000       1.00800           0
     30856 TIP3     2804     TIP3     OH2      OT      -0.834000       15.9994           0
     30857 TIP3     2804     TIP3     H1       HT       0.417000       1.00800           0
     30858 TIP3     2804     TIP3     H2       HT       0.417000       1.00800           0
     30859 TIP3     2805     TIP3     OH2      OT      -0.834000       15.9994           0
     30860 TIP3     2805     TIP3     H1       HT       0.417000       1.00800           0
     30861 TIP3     2805     TIP3     H2       HT       0.417000       1.00800           0
     30862 TIP3     2806     TIP3     OH2      OT      -0.834000       15.9994           0
     30863 TIP3     2806     TIP3     H1       HT       0.417000       1.00800           0
     30864 TIP3     2806     TIP3     H2       HT       0.417000       1.00800           0
     30865 TIP3     2807     TIP3     OH2      OT      -0.834000       15.9994           0
     30866 TIP3     2807     TIP3     H1       HT       0.417000       1.00800           0
     30867 TIP3     2807     TIP3     H2       HT       0.417000       1.00800           0
     30868 TIP3     2808     TIP3     OH2      OT      -0.834000       15.9994           0
     30869 TIP3     2808     TIP3     H1       HT       0.417000       1.00800           0
     30870 TIP3     2808     TIP3     H2       HT       0.417000       1.00800           0
     30871 TIP3     2809     TIP3     OH2      OT      -0.834000       15.9994           0
     30872 TIP3     2809     TIP3     H1       HT       0.417000       1.00800           0
     30873 TIP3     2809     TIP3     H2       HT       0.417000       1.00800           0
     30874 TIP3     2810     TIP3     OH2      OT      -0.834000       15.9994           0
     30875 TIP3     2810     TIP3     H1       HT       0.417000       1.00800           0
     30876 TIP3     2810     TIP3     H2       HT       0.417000       1.00800           0
     30877 TIP3     2811     TIP3     OH2      OT      -0.834000       15.9994           0
     30878 TIP3     2811     TIP3     H1       HT       0.417000       1.00800           0
     30879 TIP3     2811     TIP3     H2       HT       0.417000       1.00800           0
     30880 TIP3     2812     TIP3     OH2      OT      -0.834000       15.9994           0
     30881 TIP3     2812     TIP3     H1       HT       0.417000       1.00800           0
     30882 TIP3     2812     TIP3     H2       HT       0.417000       1.00800           0
     30883 TIP3     2813     TIP3     OH2      OT      -0.834000       15.9994           0
     30884 TIP3     2813     TIP3     H1       HT       0.417000       1.00800           0
     30885 TIP3     2813     TIP3     H2       HT       0.417000       1.00800           0
     30886 TIP3     2814     TIP3     OH2      OT      -0.834000       15.9994           0
     30887 TIP3     2814     TIP3     H1       HT       0.417000       1.00800           0
     30888 TIP3     2814     TIP3     H2       HT       0.417000       1.00800           0
     30889 TIP3     2815     TIP3     OH2      OT      -0.834000       15.9994           0
     30890 TIP3     2815     TIP3     H1       HT       0.417000       1.00800           0
     30891 TIP3     2815     TIP3     H2       HT       0.417000       1.00800           0
     30892 TIP3     2816     TIP3     OH2      OT      -0.834000       15.9994           0
     30893 TIP3     2816     TIP3     H1       HT       0.417000       1.00800           0
     30894 TIP3     2816     TIP3     H2       HT       0.417000       1.00800           0
     30895 TIP3     2817     TIP3     OH2      OT      -0.834000       15.9994           0
     30896 TIP3     2817     TIP3     H1       HT       0.417000       1.00800           0
     30897 TIP3     2817     TIP3     H2       HT       0.417000       1.00800           0
     30898 TIP3     2818     TIP3     OH2      OT      -0.834000       15.9994           0
     30899 TIP3     2818     TIP3     H1       HT       0.417000       1.00800           0
     30900 TIP3     2818     TIP3     H2       HT       0.417000       1.00800           0
     30901 TIP3     2819     TIP3     OH2      OT      -0.834000       15.9994           0
     30902 TIP3     2819     TIP3     H1       HT       0.417000       1.00800           0
     30903 TIP3     2819     TIP3     H2       HT       0.417000       1.00800           0
     30904 TIP3     2820     TIP3     OH2      OT      -0.834000       15.9994           0
     30905 TIP3     2820     TIP3     H1       HT       0.417000       1.00800           0
     30906 TIP3     2820     TIP3     H2       HT       0.417000       1.00800           0
     30907 TIP3     2821     TIP3     OH2      OT      -0.834000       15.9994           0
     30908 TIP3     2821     TIP3     H1       HT       0.417000       1.00800           0
     30909 TIP3     2821     TIP3     H2       HT       0.417000       1.00800           0
     30910 TIP3     2822     TIP3     OH2      OT      -0.834000       15.9994           0
     30911 TIP3     2822     TIP3     H1       HT       0.417000       1.00800           0
     30912 TIP3     2822     TIP3     H2       HT       0.417000       1.00800           0
     30913 TIP3     2823     TIP3     OH2      OT      -0.834000       15.9994           0
     30914 TIP3     2823     TIP3     H1       HT       0.417000       1.00800           0
     30915 TIP3     2823     TIP3     H2       HT       0.417000       1.00800           0
     30916 TIP3     2824     TIP3     OH2      OT      -0.834000       15.9994           0
     30917 TIP3     2824     TIP3     H1       HT       0.417000       1.00800           0
     30918 TIP3     2824     TIP3     H2       HT       0.417000       1.00800           0
     30919 TIP3     2825     TIP3     OH2      OT      -0.834000       15.9994           0
     30920 TIP3     2825     TIP3     H1       HT       0.417000       1.00800           0
     30921 TIP3     2825     TIP3     H2       HT       0.417000       1.00800           0
     30922 TIP3     2826     TIP3     OH2      OT      -0.834000       15.9994           0
     30923 TIP3     2826     TIP3     H1       HT       0.417000       1.00800           0
     30924 TIP3     2826     TIP3     H2       HT       0.417000       1.00800           0
     30925 TIP3     2827     TIP3     OH2      OT      -0.834000       15.9994           0
     30926 TIP3     2827     TIP3     H1       HT       0.417000       1.00800           0
     30927 TIP3     2827     TIP3     H2       HT       0.417000       1.00800           0
     30928 TIP3     2828     TIP3     OH2      OT      -0.834000       15.9994           0
     30929 TIP3     2828     TIP3     H1       HT       0.417000       1.00800           0
     30930 TIP3     2828     TIP3     H2       HT       0.417000       1.00800           0
     30931 TIP3     2829     TIP3     OH2      OT      -0.834000       15.9994           0
     30932 TIP3     2829     TIP3     H1       HT       0.417000       1.00800           0
     30933 TIP3     2829     TIP3     H2       HT       0.417000       1.00800           0
     30934 TIP3     2830     TIP3     OH2      OT      -0.834000       15.9994           0
     30935 TIP3     2830     TIP3     H1       HT       0.417000       1.00800           0
     30936 TIP3     2830     TIP3     H2       HT       0.417000       1.00800           0
     30937 TIP3     2831     TIP3     OH2      OT      -0.834000       15.9994           0
     30938 TIP3     2831     TIP3     H1       HT       0.417000       1.00800           0
     30939 TIP3     2831     TIP3     H2       HT       0.417000       1.00800           0
     30940 TIP3     2832     TIP3     OH2      OT      -0.834000       15.9994           0
     30941 TIP3     2832     TIP3     H1       HT       0.417000       1.00800           0
     30942 TIP3     2832     TIP3     H2       HT       0.417000       1.00800           0
     30943 TIP3     2833     TIP3     OH2      OT      -0.834000       15.9994           0
     30944 TIP3     2833     TIP3     H1       HT       0.417000       1.00800           0
     30945 TIP3     2833     TIP3     H2       HT       0.417000       1.00800           0
     30946 TIP3     2834     TIP3     OH2      OT      -0.834000       15.9994           0
     30947 TIP3     2834     TIP3     H1       HT       0.417000       1.00800           0
     30948 TIP3     2834     TIP3     H2       HT       0.417000       1.00800           0
     30949 TIP3     2835     TIP3     OH2      OT      -0.834000       15.9994           0
     30950 TIP3     2835     TIP3     H1       HT       0.417000       1.00800           0
     30951 TIP3     2835     TIP3     H2       HT       0.417000       1.00800           0
     30952 TIP3     2836     TIP3     OH2      OT      -0.834000       15.9994           0
     30953 TIP3     2836     TIP3     H1       HT       0.417000       1.00800           0
     30954 TIP3     2836     TIP3     H2       HT       0.417000       1.00800           0
     30955 TIP3     2837     TIP3     OH2      OT      -0.834000       15.9994           0
     30956 TIP3     2837     TIP3     H1       HT       0.417000       1.00800           0
     30957 TIP3     2837     TIP3     H2       HT       0.417000       1.00800           0
     30958 TIP3     2838     TIP3     OH2      OT      -0.834000       15.9994           0
     30959 TIP3     2838     TIP3     H1       HT       0.417000       1.00800           0
     30960 TIP3     2838     TIP3     H2       HT       0.417000       1.00800           0
     30961 TIP3     2839     TIP3     OH2      OT      -0.834000       15.9994           0
     30962 TIP3     2839     TIP3     H1       HT       0.417000       1.00800           0
     30963 TIP3     2839     TIP3     H2       HT       0.417000       1.00800           0
     30964 TIP3     2840     TIP3     OH2      OT      -0.834000       15.9994           0
     30965 TIP3     2840     TIP3     H1       HT       0.417000       1.00800           0
     30966 TIP3     2840     TIP3     H2       HT       0.417000       1.00800           0
     30967 TIP3     2841     TIP3     OH2      OT      -0.834000       15.9994           0
     30968 TIP3     2841     TIP3     H1       HT       0.417000       1.00800           0
     30969 TIP3     2841     TIP3     H2       HT       0.417000       1.00800           0
     30970 TIP3     2842     TIP3     OH2      OT      -0.834000       15.9994           0
     30971 TIP3     2842     TIP3     H1       HT       0.417000       1.00800           0
     30972 TIP3     2842     TIP3     H2       HT       0.417000       1.00800           0
     30973 TIP3     2843     TIP3     OH2      OT      -0.834000       15.9994           0
     30974 TIP3     2843     TIP3     H1       HT       0.417000       1.00800           0
     30975 TIP3     2843     TIP3     H2       HT       0.417000       1.00800           0
     30976 TIP3     2844     TIP3     OH2      OT      -0.834000       15.9994           0
     30977 TIP3     2844     TIP3     H1       HT       0.417000       1.00800           0
     30978 TIP3     2844     TIP3     H2       HT       0.417000       1.00800           0
     30979 TIP3     2845     TIP3     OH2      OT      -0.834000       15.9994           0
     30980 TIP3     2845     TIP3     H1       HT       0.417000       1.00800           0
     30981 TIP3     2845     TIP3     H2       HT       0.417000       1.00800           0
     30982 TIP3     2846     TIP3     OH2      OT      -0.834000       15.9994           0
     30983 TIP3     2846     TIP3     H1       HT       0.417000       1.00800           0
     30984 TIP3     2846     TIP3     H2       HT       0.417000       1.00800           0
     30985 TIP3     2847     TIP3     OH2      OT      -0.834000       15.9994           0
     30986 TIP3     2847     TIP3     H1       HT       0.417000       1.00800           0
     30987 TIP3     2847     TIP3     H2       HT       0.417000       1.00800           0
     30988 TIP3     2848     TIP3     OH2      OT      -0.834000       15.9994           0
     30989 TIP3     2848     TIP3     H1       HT       0.417000       1.00800           0
     30990 TIP3     2848     TIP3     H2       HT       0.417000       1.00800           0
     30991 TIP3     2849     TIP3     OH2      OT      -0.834000       15.9994           0
     30992 TIP3     2849     TIP3     H1       HT       0.417000       1.00800           0
     30993 TIP3     2849     TIP3     H2       HT       0.417000       1.00800           0
     30994 TIP3     2850     TIP3     OH2      OT      -0.834000       15.9994           0
     30995 TIP3     2850     TIP3     H1       HT       0.417000       1.00800           0
     30996 TIP3     2850     TIP3     H2       HT       0.417000       1.00800           0
     30997 TIP3     2851     TIP3     OH2      OT      -0.834000       15.9994           0
     30998 TIP3     2851     TIP3     H1       HT       0.417000       1.00800           0
     30999 TIP3     2851     TIP3     H2       HT       0.417000       1.00800           0
     31000 TIP3     2852     TIP3     OH2      OT      -0.834000       15.9994           0
     31001 TIP3     2852     TIP3     H1       HT       0.417000       1.00800           0
     31002 TIP3     2852     TIP3     H2       HT       0.417000       1.00800           0
     31003 TIP3     2853     TIP3     OH2      OT      -0.834000       15.9994           0
     31004 TIP3     2853     TIP3     H1       HT       0.417000       1.00800           0
     31005 TIP3     2853     TIP3     H2       HT       0.417000       1.00800           0
     31006 TIP3     2854     TIP3     OH2      OT      -0.834000       15.9994           0
     31007 TIP3     2854     TIP3     H1       HT       0.417000       1.00800           0
     31008 TIP3     2854     TIP3     H2       HT       0.417000       1.00800           0
     31009 TIP3     2855     TIP3     OH2      OT      -0.834000       15.9994           0
     31010 TIP3     2855     TIP3     H1       HT       0.417000       1.00800           0
     31011 TIP3     2855     TIP3     H2       HT       0.417000       1.00800           0
     31012 TIP3     2856     TIP3     OH2      OT      -0.834000       15.9994           0
     31013 TIP3     2856     TIP3     H1       HT       0.417000       1.00800           0
     31014 TIP3     2856     TIP3     H2       HT       0.417000       1.00800           0
     31015 TIP3     2857     TIP3     OH2      OT      -0.834000       15.9994           0
     31016 TIP3     2857     TIP3     H1       HT       0.417000       1.00800           0
     31017 TIP3     2857     TIP3     H2       HT       0.417000       1.00800           0
     31018 TIP3     2858     TIP3     OH2      OT      -0.834000       15.9994           0
     31019 TIP3     2858     TIP3     H1       HT       0.417000       1.00800           0
     31020 TIP3     2858     TIP3     H2       HT       0.417000       1.00800           0
     31021 TIP3     2859     TIP3     OH2      OT      -0.834000       15.9994           0
     31022 TIP3     2859     TIP3     H1       HT       0.417000       1.00800           0
     31023 TIP3     2859     TIP3     H2       HT       0.417000       1.00800           0
     31024 TIP3     2860     TIP3     OH2      OT      -0.834000       15.9994           0
     31025 TIP3     2860     TIP3     H1       HT       0.417000       1.00800           0
     31026 TIP3     2860     TIP3     H2       HT       0.417000       1.00800           0
     31027 TIP3     2861     TIP3     OH2      OT      -0.834000       15.9994           0
     31028 TIP3     2861     TIP3     H1       HT       0.417000       1.00800           0
     31029 TIP3     2861     TIP3     H2       HT       0.417000       1.00800           0
     31030 TIP3     2862     TIP3     OH2      OT      -0.834000       15.9994           0
     31031 TIP3     2862     TIP3     H1       HT       0.417000       1.00800           0
     31032 TIP3     2862     TIP3     H2       HT       0.417000       1.00800           0
     31033 TIP3     2863     TIP3     OH2      OT      -0.834000       15.9994           0
     31034 TIP3     2863     TIP3     H1       HT       0.417000       1.00800           0
     31035 TIP3     2863     TIP3     H2       HT       0.417000       1.00800           0
     31036 TIP3     2864     TIP3     OH2      OT      -0.834000       15.9994           0
     31037 TIP3     2864     TIP3     H1       HT       0.417000       1.00800           0
     31038 TIP3     2864     TIP3     H2       HT       0.417000       1.00800           0
     31039 TIP3     2865     TIP3     OH2      OT      -0.834000       15.9994           0
     31040 TIP3     2865     TIP3     H1       HT       0.417000       1.00800           0
     31041 TIP3     2865     TIP3     H2       HT       0.417000       1.00800           0
     31042 TIP3     2866     TIP3     OH2      OT      -0.834000       15.9994           0
     31043 TIP3     2866     TIP3     H1       HT       0.417000       1.00800           0
     31044 TIP3     2866     TIP3     H2       HT       0.417000       1.00800           0
     31045 TIP3     2867     TIP3     OH2      OT      -0.834000       15.9994           0
     31046 TIP3     2867     TIP3     H1       HT       0.417000       1.00800           0
     31047 TIP3     2867     TIP3     H2       HT       0.417000       1.00800           0
     31048 TIP3     2868     TIP3     OH2      OT      -0.834000       15.9994           0
     31049 TIP3     2868     TIP3     H1       HT       0.417000       1.00800           0
     31050 TIP3     2868     TIP3     H2       HT       0.417000       1.00800           0
     31051 TIP3     2869     TIP3     OH2      OT      -0.834000       15.9994           0
     31052 TIP3     2869     TIP3     H1       HT       0.417000       1.00800           0
     31053 TIP3     2869     TIP3     H2       HT       0.417000       1.00800           0
     31054 TIP3     2870     TIP3     OH2      OT      -0.834000       15.9994           0
     31055 TIP3     2870     TIP3     H1       HT       0.417000       1.00800           0
     31056 TIP3     2870     TIP3     H2       HT       0.417000       1.00800           0
     31057 TIP3     2871     TIP3     OH2      OT      -0.834000       15.9994           0
     31058 TIP3     2871     TIP3     H1       HT       0.417000       1.00800           0
     31059 TIP3     2871     TIP3     H2       HT       0.417000       1.00800           0
     31060 TIP3     2872     TIP3     OH2      OT      -0.834000       15.9994           0
     31061 TIP3     2872     TIP3     H1       HT       0.417000       1.00800           0
     31062 TIP3     2872     TIP3     H2       HT       0.417000       1.00800           0
     31063 TIP3     2873     TIP3     OH2      OT      -0.834000       15.9994           0
     31064 TIP3     2873     TIP3     H1       HT       0.417000       1.00800           0
     31065 TIP3     2873     TIP3     H2       HT       0.417000       1.00800           0
     31066 TIP3     2874     TIP3     OH2      OT      -0.834000       15.9994           0
     31067 TIP3     2874     TIP3     H1       HT       0.417000       1.00800           0
     31068 TIP3     2874     TIP3     H2       HT       0.417000       1.00800           0
     31069 TIP3     2875     TIP3     OH2      OT      -0.834000       15.9994           0
     31070 TIP3     2875     TIP3     H1       HT       0.417000       1.00800           0
     31071 TIP3     2875     TIP3     H2       HT       0.417000       1.00800           0
     31072 TIP3     2876     TIP3     OH2      OT      -0.834000       15.9994           0
     31073 TIP3     2876     TIP3     H1       HT       0.417000       1.00800           0
     31074 TIP3     2876     TIP3     H2       HT       0.417000       1.00800           0
     31075 TIP3     2877     TIP3     OH2      OT      -0.834000       15.9994           0
     31076 TIP3     2877     TIP3     H1       HT       0.417000       1.00800           0
     31077 TIP3     2877     TIP3     H2       HT       0.417000       1.00800           0
     31078 TIP3     2878     TIP3     OH2      OT      -0.834000       15.9994           0
     31079 TIP3     2878     TIP3     H1       HT       0.417000       1.00800           0
     31080 TIP3     2878     TIP3     H2       HT       0.417000       1.00800           0
     31081 TIP3     2879     TIP3     OH2      OT      -0.834000       15.9994           0
     31082 TIP3     2879     TIP3     H1       HT       0.417000       1.00800           0
     31083 TIP3     2879     TIP3     H2       HT       0.417000       1.00800           0
     31084 TIP3     2880     TIP3     OH2      OT      -0.834000       15.9994           0
     31085 TIP3     2880     TIP3     H1       HT       0.417000       1.00800           0
     31086 TIP3     2880     TIP3     H2       HT       0.417000       1.00800           0
     31087 TIP3     2881     TIP3     OH2      OT      -0.834000       15.9994           0
     31088 TIP3     2881     TIP3     H1       HT       0.417000       1.00800           0
     31089 TIP3     2881     TIP3     H2       HT       0.417000       1.00800           0
     31090 TIP3     2882     TIP3     OH2      OT      -0.834000       15.9994           0
     31091 TIP3     2882     TIP3     H1       HT       0.417000       1.00800           0
     31092 TIP3     2882     TIP3     H2       HT       0.417000       1.00800           0
     31093 TIP3     2883     TIP3     OH2      OT      -0.834000       15.9994           0
     31094 TIP3     2883     TIP3     H1       HT       0.417000       1.00800           0
     31095 TIP3     2883     TIP3     H2       HT       0.417000       1.00800           0
     31096 TIP3     2884     TIP3     OH2      OT      -0.834000       15.9994           0
     31097 TIP3     2884     TIP3     H1       HT       0.417000       1.00800           0
     31098 TIP3     2884     TIP3     H2       HT       0.417000       1.00800           0
     31099 TIP3     2885     TIP3     OH2      OT      -0.834000       15.9994           0
     31100 TIP3     2885     TIP3     H1       HT       0.417000       1.00800           0
     31101 TIP3     2885     TIP3     H2       HT       0.417000       1.00800           0
     31102 TIP3     2886     TIP3     OH2      OT      -0.834000       15.9994           0
     31103 TIP3     2886     TIP3     H1       HT       0.417000       1.00800           0
     31104 TIP3     2886     TIP3     H2       HT       0.417000       1.00800           0
     31105 TIP3     2887     TIP3     OH2      OT      -0.834000       15.9994           0
     31106 TIP3     2887     TIP3     H1       HT       0.417000       1.00800           0
     31107 TIP3     2887     TIP3     H2       HT       0.417000       1.00800           0
     31108 TIP3     2888     TIP3     OH2      OT      -0.834000       15.9994           0
     31109 TIP3     2888     TIP3     H1       HT       0.417000       1.00800           0
     31110 TIP3     2888     TIP3     H2       HT       0.417000       1.00800           0
     31111 TIP3     2889     TIP3     OH2      OT      -0.834000       15.9994           0
     31112 TIP3     2889     TIP3     H1       HT       0.417000       1.00800           0
     31113 TIP3     2889     TIP3     H2       HT       0.417000       1.00800           0
     31114 TIP3     2890     TIP3     OH2      OT      -0.834000       15.9994           0
     31115 TIP3     2890     TIP3     H1       HT       0.417000       1.00800           0
     31116 TIP3     2890     TIP3     H2       HT       0.417000       1.00800           0
     31117 TIP3     2891     TIP3     OH2      OT      -0.834000       15.9994           0
     31118 TIP3     2891     TIP3     H1       HT       0.417000       1.00800           0
     31119 TIP3     2891     TIP3     H2       HT       0.417000       1.00800           0
     31120 TIP3     2892     TIP3     OH2      OT      -0.834000       15.9994           0
     31121 TIP3     2892     TIP3     H1       HT       0.417000       1.00800           0
     31122 TIP3     2892     TIP3     H2       HT       0.417000       1.00800           0
     31123 TIP3     2893     TIP3     OH2      OT      -0.834000       15.9994           0
     31124 TIP3     2893     TIP3     H1       HT       0.417000       1.00800           0
     31125 TIP3     2893     TIP3     H2       HT       0.417000       1.00800           0
     31126 TIP3     2894     TIP3     OH2      OT      -0.834000       15.9994           0
     31127 TIP3     2894     TIP3     H1       HT       0.417000       1.00800           0
     31128 TIP3     2894     TIP3     H2       HT       0.417000       1.00800           0
     31129 TIP3     2895     TIP3     OH2      OT      -0.834000       15.9994           0
     31130 TIP3     2895     TIP3     H1       HT       0.417000       1.00800           0
     31131 TIP3     2895     TIP3     H2       HT       0.417000       1.00800           0
     31132 TIP3     2896     TIP3     OH2      OT      -0.834000       15.9994           0
     31133 TIP3     2896     TIP3     H1       HT       0.417000       1.00800           0
     31134 TIP3     2896     TIP3     H2       HT       0.417000       1.00800           0
     31135 TIP3     2897     TIP3     OH2      OT      -0.834000       15.9994           0
     31136 TIP3     2897     TIP3     H1       HT       0.417000       1.00800           0
     31137 TIP3     2897     TIP3     H2       HT       0.417000       1.00800           0
     31138 TIP3     2898     TIP3     OH2      OT      -0.834000       15.9994           0
     31139 TIP3     2898     TIP3     H1       HT       0.417000       1.00800           0
     31140 TIP3     2898     TIP3     H2       HT       0.417000       1.00800           0
     31141 TIP3     2899     TIP3     OH2      OT      -0.834000       15.9994           0
     31142 TIP3     2899     TIP3     H1       HT       0.417000       1.00800           0
     31143 TIP3     2899     TIP3     H2       HT       0.417000       1.00800           0
     31144 TIP3     2900     TIP3     OH2      OT      -0.834000       15.9994           0
     31145 TIP3     2900     TIP3     H1       HT       0.417000       1.00800           0
     31146 TIP3     2900     TIP3     H2       HT       0.417000       1.00800           0
     31147 TIP3     2901     TIP3     OH2      OT      -0.834000       15.9994           0
     31148 TIP3     2901     TIP3     H1       HT       0.417000       1.00800           0
     31149 TIP3     2901     TIP3     H2       HT       0.417000       1.00800           0
     31150 TIP3     2902     TIP3     OH2      OT      -0.834000       15.9994           0
     31151 TIP3     2902     TIP3     H1       HT       0.417000       1.00800           0
     31152 TIP3     2902     TIP3     H2       HT       0.417000       1.00800           0
     31153 TIP3     2903     TIP3     OH2      OT      -0.834000       15.9994           0
     31154 TIP3     2903     TIP3     H1       HT       0.417000       1.00800           0
     31155 TIP3     2903     TIP3     H2       HT       0.417000       1.00800           0
     31156 TIP3     2904     TIP3     OH2      OT      -0.834000       15.9994           0
     31157 TIP3     2904     TIP3     H1       HT       0.417000       1.00800           0
     31158 TIP3     2904     TIP3     H2       HT       0.417000       1.00800           0
     31159 TIP3     2905     TIP3     OH2      OT      -0.834000       15.9994           0
     31160 TIP3     2905     TIP3     H1       HT       0.417000       1.00800           0
     31161 TIP3     2905     TIP3     H2       HT       0.417000       1.00800           0
     31162 TIP3     2906     TIP3     OH2      OT      -0.834000       15.9994           0
     31163 TIP3     2906     TIP3     H1       HT       0.417000       1.00800           0
     31164 TIP3     2906     TIP3     H2       HT       0.417000       1.00800           0
     31165 TIP3     2907     TIP3     OH2      OT      -0.834000       15.9994           0
     31166 TIP3     2907     TIP3     H1       HT       0.417000       1.00800           0
     31167 TIP3     2907     TIP3     H2       HT       0.417000       1.00800           0
     31168 TIP3     2908     TIP3     OH2      OT      -0.834000       15.9994           0
     31169 TIP3     2908     TIP3     H1       HT       0.417000       1.00800           0
     31170 TIP3     2908     TIP3     H2       HT       0.417000       1.00800           0
     31171 TIP3     2909     TIP3     OH2      OT      -0.834000       15.9994           0
     31172 TIP3     2909     TIP3     H1       HT       0.417000       1.00800           0
     31173 TIP3     2909     TIP3     H2       HT       0.417000       1.00800           0
     31174 TIP3     2910     TIP3     OH2      OT      -0.834000       15.9994           0
     31175 TIP3     2910     TIP3     H1       HT       0.417000       1.00800           0
     31176 TIP3     2910     TIP3     H2       HT       0.417000       1.00800           0
     31177 TIP3     2911     TIP3     OH2      OT      -0.834000       15.9994           0
     31178 TIP3     2911     TIP3     H1       HT       0.417000       1.00800           0
     31179 TIP3     2911     TIP3     H2       HT       0.417000       1.00800           0
     31180 TIP3     2912     TIP3     OH2      OT      -0.834000       15.9994           0
     31181 TIP3     2912     TIP3     H1       HT       0.417000       1.00800           0
     31182 TIP3     2912     TIP3     H2       HT       0.417000       1.00800           0
     31183 TIP3     2913     TIP3     OH2      OT      -0.834000       15.9994           0
     31184 TIP3     2913     TIP3     H1       HT       0.417000       1.00800           0
     31185 TIP3     2913     TIP3     H2       HT       0.417000       1.00800           0
     31186 TIP3     2914     TIP3     OH2      OT      -0.834000       15.9994           0
     31187 TIP3     2914     TIP3     H1       HT       0.417000       1.00800           0
     31188 TIP3     2914     TIP3     H2       HT       0.417000       1.00800           0
     31189 TIP3     2915     TIP3     OH2      OT      -0.834000       15.9994           0
     31190 TIP3     2915     TIP3     H1       HT       0.417000       1.00800           0
     31191 TIP3     2915     TIP3     H2       HT       0.417000       1.00800           0
     31192 TIP3     2916     TIP3     OH2      OT      -0.834000       15.9994           0
     31193 TIP3     2916     TIP3     H1       HT       0.417000       1.00800           0
     31194 TIP3     2916     TIP3     H2       HT       0.417000       1.00800           0
     31195 TIP3     2917     TIP3     OH2      OT      -0.834000       15.9994           0
     31196 TIP3     2917     TIP3     H1       HT       0.417000       1.00800           0
     31197 TIP3     2917     TIP3     H2       HT       0.417000       1.00800           0
     31198 TIP3     2918     TIP3     OH2      OT      -0.834000       15.9994           0
     31199 TIP3     2918     TIP3     H1       HT       0.417000       1.00800           0
     31200 TIP3     2918     TIP3     H2       HT       0.417000       1.00800           0
     31201 TIP3     2919     TIP3     OH2      OT      -0.834000       15.9994           0
     31202 TIP3     2919     TIP3     H1       HT       0.417000       1.00800           0
     31203 TIP3     2919     TIP3     H2       HT       0.417000       1.00800           0
     31204 TIP3     2920     TIP3     OH2      OT      -0.834000       15.9994           0
     31205 TIP3     2920     TIP3     H1       HT       0.417000       1.00800           0
     31206 TIP3     2920     TIP3     H2       HT       0.417000       1.00800           0
     31207 TIP3     2921     TIP3     OH2      OT      -0.834000       15.9994           0
     31208 TIP3     2921     TIP3     H1       HT       0.417000       1.00800           0
     31209 TIP3     2921     TIP3     H2       HT       0.417000       1.00800           0
     31210 TIP3     2922     TIP3     OH2      OT      -0.834000       15.9994           0
     31211 TIP3     2922     TIP3     H1       HT       0.417000       1.00800           0
     31212 TIP3     2922     TIP3     H2       HT       0.417000       1.00800           0
     31213 TIP3     2923     TIP3     OH2      OT      -0.834000       15.9994           0
     31214 TIP3     2923     TIP3     H1       HT       0.417000       1.00800           0
     31215 TIP3     2923     TIP3     H2       HT       0.417000       1.00800           0
     31216 TIP3     2924     TIP3     OH2      OT      -0.834000       15.9994           0
     31217 TIP3     2924     TIP3     H1       HT       0.417000       1.00800           0
     31218 TIP3     2924     TIP3     H2       HT       0.417000       1.00800           0
     31219 TIP3     2925     TIP3     OH2      OT      -0.834000       15.9994           0
     31220 TIP3     2925     TIP3     H1       HT       0.417000       1.00800           0
     31221 TIP3     2925     TIP3     H2       HT       0.417000       1.00800           0
     31222 TIP3     2926     TIP3     OH2      OT      -0.834000       15.9994           0
     31223 TIP3     2926     TIP3     H1       HT       0.417000       1.00800           0
     31224 TIP3     2926     TIP3     H2       HT       0.417000       1.00800           0
     31225 TIP3     2927     TIP3     OH2      OT      -0.834000       15.9994           0
     31226 TIP3     2927     TIP3     H1       HT       0.417000       1.00800           0
     31227 TIP3     2927     TIP3     H2       HT       0.417000       1.00800           0
     31228 TIP3     2928     TIP3     OH2      OT      -0.834000       15.9994           0
     31229 TIP3     2928     TIP3     H1       HT       0.417000       1.00800           0
     31230 TIP3     2928     TIP3     H2       HT       0.417000       1.00800           0
     31231 TIP3     2929     TIP3     OH2      OT      -0.834000       15.9994           0
     31232 TIP3     2929     TIP3     H1       HT       0.417000       1.00800           0
     31233 TIP3     2929     TIP3     H2       HT       0.417000       1.00800           0
     31234 TIP3     2930     TIP3     OH2      OT      -0.834000       15.9994           0
     31235 TIP3     2930     TIP3     H1       HT       0.417000       1.00800           0
     31236 TIP3     2930     TIP3     H2       HT       0.417000       1.00800           0
     31237 TIP3     2931     TIP3     OH2      OT      -0.834000       15.9994           0
     31238 TIP3     2931     TIP3     H1       HT       0.417000       1.00800           0
     31239 TIP3     2931     TIP3     H2       HT       0.417000       1.00800           0
     31240 TIP3     2932     TIP3     OH2      OT      -0.834000       15.9994           0
     31241 TIP3     2932     TIP3     H1       HT       0.417000       1.00800           0
     31242 TIP3     2932     TIP3     H2       HT       0.417000       1.00800           0
     31243 TIP3     2933     TIP3     OH2      OT      -0.834000       15.9994           0
     31244 TIP3     2933     TIP3     H1       HT       0.417000       1.00800           0
     31245 TIP3     2933     TIP3     H2       HT       0.417000       1.00800           0
     31246 TIP3     2934     TIP3     OH2      OT      -0.834000       15.9994           0
     31247 TIP3     2934     TIP3     H1       HT       0.417000       1.00800           0
     31248 TIP3     2934     TIP3     H2       HT       0.417000       1.00800           0
     31249 TIP3     2935     TIP3     OH2      OT      -0.834000       15.9994           0
     31250 TIP3     2935     TIP3     H1       HT       0.417000       1.00800           0
     31251 TIP3     2935     TIP3     H2       HT       0.417000       1.00800           0
     31252 TIP3     2936     TIP3     OH2      OT      -0.834000       15.9994           0
     31253 TIP3     2936     TIP3     H1       HT       0.417000       1.00800           0
     31254 TIP3     2936     TIP3     H2       HT       0.417000       1.00800           0
     31255 TIP3     2937     TIP3     OH2      OT      -0.834000       15.9994           0
     31256 TIP3     2937     TIP3     H1       HT       0.417000       1.00800           0
     31257 TIP3     2937     TIP3     H2       HT       0.417000       1.00800           0
     31258 TIP3     2938     TIP3     OH2      OT      -0.834000       15.9994           0
     31259 TIP3     2938     TIP3     H1       HT       0.417000       1.00800           0
     31260 TIP3     2938     TIP3     H2       HT       0.417000       1.00800           0
     31261 TIP3     2939     TIP3     OH2      OT      -0.834000       15.9994           0
     31262 TIP3     2939     TIP3     H1       HT       0.417000       1.00800           0
     31263 TIP3     2939     TIP3     H2       HT       0.417000       1.00800           0
     31264 TIP3     2940     TIP3     OH2      OT      -0.834000       15.9994           0
     31265 TIP3     2940     TIP3     H1       HT       0.417000       1.00800           0
     31266 TIP3     2940     TIP3     H2       HT       0.417000       1.00800           0
     31267 TIP3     2941     TIP3     OH2      OT      -0.834000       15.9994           0
     31268 TIP3     2941     TIP3     H1       HT       0.417000       1.00800           0
     31269 TIP3     2941     TIP3     H2       HT       0.417000       1.00800           0
     31270 TIP3     2942     TIP3     OH2      OT      -0.834000       15.9994           0
     31271 TIP3     2942     TIP3     H1       HT       0.417000       1.00800           0
     31272 TIP3     2942     TIP3     H2       HT       0.417000       1.00800           0
     31273 TIP3     2943     TIP3     OH2      OT      -0.834000       15.9994           0
     31274 TIP3     2943     TIP3     H1       HT       0.417000       1.00800           0
     31275 TIP3     2943     TIP3     H2       HT       0.417000       1.00800           0
     31276 TIP3     2944     TIP3     OH2      OT      -0.834000       15.9994           0
     31277 TIP3     2944     TIP3     H1       HT       0.417000       1.00800           0
     31278 TIP3     2944     TIP3     H2       HT       0.417000       1.00800           0
     31279 TIP3     2945     TIP3     OH2      OT      -0.834000       15.9994           0
     31280 TIP3     2945     TIP3     H1       HT       0.417000       1.00800           0
     31281 TIP3     2945     TIP3     H2       HT       0.417000       1.00800           0
     31282 TIP3     2946     TIP3     OH2      OT      -0.834000       15.9994           0
     31283 TIP3     2946     TIP3     H1       HT       0.417000       1.00800           0
     31284 TIP3     2946     TIP3     H2       HT       0.417000       1.00800           0
     31285 TIP3     2947     TIP3     OH2      OT      -0.834000       15.9994           0
     31286 TIP3     2947     TIP3     H1       HT       0.417000       1.00800           0
     31287 TIP3     2947     TIP3     H2       HT       0.417000       1.00800           0
     31288 TIP3     2948     TIP3     OH2      OT      -0.834000       15.9994           0
     31289 TIP3     2948     TIP3     H1       HT       0.417000       1.00800           0
     31290 TIP3     2948     TIP3     H2       HT       0.417000       1.00800           0
     31291 TIP3     2949     TIP3     OH2      OT      -0.834000       15.9994           0
     31292 TIP3     2949     TIP3     H1       HT       0.417000       1.00800           0
     31293 TIP3     2949     TIP3     H2       HT       0.417000       1.00800           0
     31294 TIP3     2950     TIP3     OH2      OT      -0.834000       15.9994           0
     31295 TIP3     2950     TIP3     H1       HT       0.417000       1.00800           0
     31296 TIP3     2950     TIP3     H2       HT       0.417000       1.00800           0
     31297 TIP3     2951     TIP3     OH2      OT      -0.834000       15.9994           0
     31298 TIP3     2951     TIP3     H1       HT       0.417000       1.00800           0
     31299 TIP3     2951     TIP3     H2       HT       0.417000       1.00800           0
     31300 TIP3     2952     TIP3     OH2      OT      -0.834000       15.9994           0
     31301 TIP3     2952     TIP3     H1       HT       0.417000       1.00800           0
     31302 TIP3     2952     TIP3     H2       HT       0.417000       1.00800           0
     31303 TIP3     2953     TIP3     OH2      OT      -0.834000       15.9994           0
     31304 TIP3     2953     TIP3     H1       HT       0.417000       1.00800           0
     31305 TIP3     2953     TIP3     H2       HT       0.417000       1.00800           0
     31306 TIP3     2954     TIP3     OH2      OT      -0.834000       15.9994           0
     31307 TIP3     2954     TIP3     H1       HT       0.417000       1.00800           0
     31308 TIP3     2954     TIP3     H2       HT       0.417000       1.00800           0
     31309 TIP3     2955     TIP3     OH2      OT      -0.834000       15.9994           0
     31310 TIP3     2955     TIP3     H1       HT       0.417000       1.00800           0
     31311 TIP3     2955     TIP3     H2       HT       0.417000       1.00800           0
     31312 TIP3     2956     TIP3     OH2      OT      -0.834000       15.9994           0
     31313 TIP3     2956     TIP3     H1       HT       0.417000       1.00800           0
     31314 TIP3     2956     TIP3     H2       HT       0.417000       1.00800           0
     31315 TIP3     2957     TIP3     OH2      OT      -0.834000       15.9994           0
     31316 TIP3     2957     TIP3     H1       HT       0.417000       1.00800           0
     31317 TIP3     2957     TIP3     H2       HT       0.417000       1.00800           0
     31318 TIP3     2958     TIP3     OH2      OT      -0.834000       15.9994           0
     31319 TIP3     2958     TIP3     H1       HT       0.417000       1.00800           0
     31320 TIP3     2958     TIP3     H2       HT       0.417000       1.00800           0
     31321 TIP3     2959     TIP3     OH2      OT      -0.834000       15.9994           0
     31322 TIP3     2959     TIP3     H1       HT       0.417000       1.00800           0
     31323 TIP3     2959     TIP3     H2       HT       0.417000       1.00800           0
     31324 TIP3     2960     TIP3     OH2      OT      -0.834000       15.9994           0
     31325 TIP3     2960     TIP3     H1       HT       0.417000       1.00800           0
     31326 TIP3     2960     TIP3     H2       HT       0.417000       1.00800           0
     31327 TIP3     2961     TIP3     OH2      OT      -0.834000       15.9994           0
     31328 TIP3     2961     TIP3     H1       HT       0.417000       1.00800           0
     31329 TIP3     2961     TIP3     H2       HT       0.417000       1.00800           0
     31330 TIP3     2962     TIP3     OH2      OT      -0.834000       15.9994           0
     31331 TIP3     2962     TIP3     H1       HT       0.417000       1.00800           0
     31332 TIP3     2962     TIP3     H2       HT       0.417000       1.00800           0
     31333 TIP3     2963     TIP3     OH2      OT      -0.834000       15.9994           0
     31334 TIP3     2963     TIP3     H1       HT       0.417000       1.00800           0
     31335 TIP3     2963     TIP3     H2       HT       0.417000       1.00800           0
     31336 TIP3     2964     TIP3     OH2      OT      -0.834000       15.9994           0
     31337 TIP3     2964     TIP3     H1       HT       0.417000       1.00800           0
     31338 TIP3     2964     TIP3     H2       HT       0.417000       1.00800           0
     31339 TIP3     2965     TIP3     OH2      OT      -0.834000       15.9994           0
     31340 TIP3     2965     TIP3     H1       HT       0.417000       1.00800           0
     31341 TIP3     2965     TIP3     H2       HT       0.417000       1.00800           0
     31342 TIP3     2966     TIP3     OH2      OT      -0.834000       15.9994           0
     31343 TIP3     2966     TIP3     H1       HT       0.417000       1.00800           0
     31344 TIP3     2966     TIP3     H2       HT       0.417000       1.00800           0
     31345 TIP3     2967     TIP3     OH2      OT      -0.834000       15.9994           0
     31346 TIP3     2967     TIP3     H1       HT       0.417000       1.00800           0
     31347 TIP3     2967     TIP3     H2       HT       0.417000       1.00800           0
     31348 TIP3     2968     TIP3     OH2      OT      -0.834000       15.9994           0
     31349 TIP3     2968     TIP3     H1       HT       0.417000       1.00800           0
     31350 TIP3     2968     TIP3     H2       HT       0.417000       1.00800           0
     31351 TIP3     2969     TIP3     OH2      OT      -0.834000       15.9994           0
     31352 TIP3     2969     TIP3     H1       HT       0.417000       1.00800           0
     31353 TIP3     2969     TIP3     H2       HT       0.417000       1.00800           0
     31354 TIP3     2970     TIP3     OH2      OT      -0.834000       15.9994           0
     31355 TIP3     2970     TIP3     H1       HT       0.417000       1.00800           0
     31356 TIP3     2970     TIP3     H2       HT       0.417000       1.00800           0
     31357 TIP3     2971     TIP3     OH2      OT      -0.834000       15.9994           0
     31358 TIP3     2971     TIP3     H1       HT       0.417000       1.00800           0
     31359 TIP3     2971     TIP3     H2       HT       0.417000       1.00800           0
     31360 TIP3     2972     TIP3     OH2      OT      -0.834000       15.9994           0
     31361 TIP3     2972     TIP3     H1       HT       0.417000       1.00800           0
     31362 TIP3     2972     TIP3     H2       HT       0.417000       1.00800           0
     31363 TIP3     2973     TIP3     OH2      OT      -0.834000       15.9994           0
     31364 TIP3     2973     TIP3     H1       HT       0.417000       1.00800           0
     31365 TIP3     2973     TIP3     H2       HT       0.417000       1.00800           0
     31366 TIP3     2974     TIP3     OH2      OT      -0.834000       15.9994           0
     31367 TIP3     2974     TIP3     H1       HT       0.417000       1.00800           0
     31368 TIP3     2974     TIP3     H2       HT       0.417000       1.00800           0
     31369 TIP3     2975     TIP3     OH2      OT      -0.834000       15.9994           0
     31370 TIP3     2975     TIP3     H1       HT       0.417000       1.00800           0
     31371 TIP3     2975     TIP3     H2       HT       0.417000       1.00800           0
     31372 TIP3     2976     TIP3     OH2      OT      -0.834000       15.9994           0
     31373 TIP3     2976     TIP3     H1       HT       0.417000       1.00800           0
     31374 TIP3     2976     TIP3     H2       HT       0.417000       1.00800           0
     31375 TIP3     2977     TIP3     OH2      OT      -0.834000       15.9994           0
     31376 TIP3     2977     TIP3     H1       HT       0.417000       1.00800           0
     31377 TIP3     2977     TIP3     H2       HT       0.417000       1.00800           0
     31378 TIP3     2978     TIP3     OH2      OT      -0.834000       15.9994           0
     31379 TIP3     2978     TIP3     H1       HT       0.417000       1.00800           0
     31380 TIP3     2978     TIP3     H2       HT       0.417000       1.00800           0
     31381 TIP3     2979     TIP3     OH2      OT      -0.834000       15.9994           0
     31382 TIP3     2979     TIP3     H1       HT       0.417000       1.00800           0
     31383 TIP3     2979     TIP3     H2       HT       0.417000       1.00800           0
     31384 TIP3     2980     TIP3     OH2      OT      -0.834000       15.9994           0
     31385 TIP3     2980     TIP3     H1       HT       0.417000       1.00800           0
     31386 TIP3     2980     TIP3     H2       HT       0.417000       1.00800           0
     31387 TIP3     2981     TIP3     OH2      OT      -0.834000       15.9994           0
     31388 TIP3     2981     TIP3     H1       HT       0.417000       1.00800           0
     31389 TIP3     2981     TIP3     H2       HT       0.417000       1.00800           0
     31390 TIP3     2982     TIP3     OH2      OT      -0.834000       15.9994           0
     31391 TIP3     2982     TIP3     H1       HT       0.417000       1.00800           0
     31392 TIP3     2982     TIP3     H2       HT       0.417000       1.00800           0
     31393 TIP3     2983     TIP3     OH2      OT      -0.834000       15.9994           0
     31394 TIP3     2983     TIP3     H1       HT       0.417000       1.00800           0
     31395 TIP3     2983     TIP3     H2       HT       0.417000       1.00800           0
     31396 TIP3     2984     TIP3     OH2      OT      -0.834000       15.9994           0
     31397 TIP3     2984     TIP3     H1       HT       0.417000       1.00800           0
     31398 TIP3     2984     TIP3     H2       HT       0.417000       1.00800           0
     31399 TIP3     2985     TIP3     OH2      OT      -0.834000       15.9994           0
     31400 TIP3     2985     TIP3     H1       HT       0.417000       1.00800           0
     31401 TIP3     2985     TIP3     H2       HT       0.417000       1.00800           0
     31402 TIP3     2986     TIP3     OH2      OT      -0.834000       15.9994           0
     31403 TIP3     2986     TIP3     H1       HT       0.417000       1.00800           0
     31404 TIP3     2986     TIP3     H2       HT       0.417000       1.00800           0
     31405 TIP3     2987     TIP3     OH2      OT      -0.834000       15.9994           0
     31406 TIP3     2987     TIP3     H1       HT       0.417000       1.00800           0
     31407 TIP3     2987     TIP3     H2       HT       0.417000       1.00800           0
     31408 TIP3     2988     TIP3     OH2      OT      -0.834000       15.9994           0
     31409 TIP3     2988     TIP3     H1       HT       0.417000       1.00800           0
     31410 TIP3     2988     TIP3     H2       HT       0.417000       1.00800           0
     31411 TIP3     2989     TIP3     OH2      OT      -0.834000       15.9994           0
     31412 TIP3     2989     TIP3     H1       HT       0.417000       1.00800           0
     31413 TIP3     2989     TIP3     H2       HT       0.417000       1.00800           0
     31414 TIP3     2990     TIP3     OH2      OT      -0.834000       15.9994           0
     31415 TIP3     2990     TIP3     H1       HT       0.417000       1.00800           0
     31416 TIP3     2990     TIP3     H2       HT       0.417000       1.00800           0
     31417 TIP3     2991     TIP3     OH2      OT      -0.834000       15.9994           0
     31418 TIP3     2991     TIP3     H1       HT       0.417000       1.00800           0
     31419 TIP3     2991     TIP3     H2       HT       0.417000       1.00800           0
     31420 TIP3     2992     TIP3     OH2      OT      -0.834000       15.9994           0
     31421 TIP3     2992     TIP3     H1       HT       0.417000       1.00800           0
     31422 TIP3     2992     TIP3     H2       HT       0.417000       1.00800           0
     31423 TIP3     2993     TIP3     OH2      OT      -0.834000       15.9994           0
     31424 TIP3     2993     TIP3     H1       HT       0.417000       1.00800           0
     31425 TIP3     2993     TIP3     H2       HT       0.417000       1.00800           0
     31426 TIP3     2994     TIP3     OH2      OT      -0.834000       15.9994           0
     31427 TIP3     2994     TIP3     H1       HT       0.417000       1.00800           0
     31428 TIP3     2994     TIP3     H2       HT       0.417000       1.00800           0
     31429 TIP3     2995     TIP3     OH2      OT      -0.834000       15.9994           0
     31430 TIP3     2995     TIP3     H1       HT       0.417000       1.00800           0
     31431 TIP3     2995     TIP3     H2       HT       0.417000       1.00800           0
     31432 TIP3     2996     TIP3     OH2      OT      -0.834000       15.9994           0
     31433 TIP3     2996     TIP3     H1       HT       0.417000       1.00800           0
     31434 TIP3     2996     TIP3     H2       HT       0.417000       1.00800           0
     31435 TIP3     2997     TIP3     OH2      OT      -0.834000       15.9994           0
     31436 TIP3     2997     TIP3     H1       HT       0.417000       1.00800           0
     31437 TIP3     2997     TIP3     H2       HT       0.417000       1.00800           0
     31438 TIP3     2998     TIP3     OH2      OT      -0.834000       15.9994           0
     31439 TIP3     2998     TIP3     H1       HT       0.417000       1.00800           0
     31440 TIP3     2998     TIP3     H2       HT       0.417000       1.00800           0
     31441 TIP3     2999     TIP3     OH2      OT      -0.834000       15.9994           0
     31442 TIP3     2999     TIP3     H1       HT       0.417000       1.00800           0
     31443 TIP3     2999     TIP3     H2       HT       0.417000       1.00800           0
     31444 TIP3     3000     TIP3     OH2      OT      -0.834000       15.9994           0
     31445 TIP3     3000     TIP3     H1       HT       0.417000       1.00800           0
     31446 TIP3     3000     TIP3     H2       HT       0.417000       1.00800           0
     31447 TIP3     3001     TIP3     OH2      OT      -0.834000       15.9994           0
     31448 TIP3     3001     TIP3     H1       HT       0.417000       1.00800           0
     31449 TIP3     3001     TIP3     H2       HT       0.417000       1.00800           0
     31450 TIP3     3002     TIP3     OH2      OT      -0.834000       15.9994           0
     31451 TIP3     3002     TIP3     H1       HT       0.417000       1.00800           0
     31452 TIP3     3002     TIP3     H2       HT       0.417000       1.00800           0
     31453 TIP3     3003     TIP3     OH2      OT      -0.834000       15.9994           0
     31454 TIP3     3003     TIP3     H1       HT       0.417000       1.00800           0
     31455 TIP3     3003     TIP3     H2       HT       0.417000       1.00800           0
     31456 TIP3     3004     TIP3     OH2      OT      -0.834000       15.9994           0
     31457 TIP3     3004     TIP3     H1       HT       0.417000       1.00800           0
     31458 TIP3     3004     TIP3     H2       HT       0.417000       1.00800           0
     31459 TIP3     3005     TIP3     OH2      OT      -0.834000       15.9994           0
     31460 TIP3     3005     TIP3     H1       HT       0.417000       1.00800           0
     31461 TIP3     3005     TIP3     H2       HT       0.417000       1.00800           0
     31462 TIP3     3006     TIP3     OH2      OT      -0.834000       15.9994           0
     31463 TIP3     3006     TIP3     H1       HT       0.417000       1.00800           0
     31464 TIP3     3006     TIP3     H2       HT       0.417000       1.00800           0
     31465 TIP3     3007     TIP3     OH2      OT      -0.834000       15.9994           0
     31466 TIP3     3007     TIP3     H1       HT       0.417000       1.00800           0
     31467 TIP3     3007     TIP3     H2       HT       0.417000       1.00800           0
     31468 TIP3     3008     TIP3     OH2      OT      -0.834000       15.9994           0
     31469 TIP3     3008     TIP3     H1       HT       0.417000       1.00800           0
     31470 TIP3     3008     TIP3     H2       HT       0.417000       1.00800           0
     31471 TIP3     3009     TIP3     OH2      OT      -0.834000       15.9994           0
     31472 TIP3     3009     TIP3     H1       HT       0.417000       1.00800           0
     31473 TIP3     3009     TIP3     H2       HT       0.417000       1.00800           0
     31474 TIP3     3010     TIP3     OH2      OT      -0.834000       15.9994           0
     31475 TIP3     3010     TIP3     H1       HT       0.417000       1.00800           0
     31476 TIP3     3010     TIP3     H2       HT       0.417000       1.00800           0
     31477 TIP3     3011     TIP3     OH2      OT      -0.834000       15.9994           0
     31478 TIP3     3011     TIP3     H1       HT       0.417000       1.00800           0
     31479 TIP3     3011     TIP3     H2       HT       0.417000       1.00800           0
     31480 TIP3     3012     TIP3     OH2      OT      -0.834000       15.9994           0
     31481 TIP3     3012     TIP3     H1       HT       0.417000       1.00800           0
     31482 TIP3     3012     TIP3     H2       HT       0.417000       1.00800           0
     31483 TIP3     3013     TIP3     OH2      OT      -0.834000       15.9994           0
     31484 TIP3     3013     TIP3     H1       HT       0.417000       1.00800           0
     31485 TIP3     3013     TIP3     H2       HT       0.417000       1.00800           0
     31486 TIP3     3014     TIP3     OH2      OT      -0.834000       15.9994           0
     31487 TIP3     3014     TIP3     H1       HT       0.417000       1.00800           0
     31488 TIP3     3014     TIP3     H2       HT       0.417000       1.00800           0
     31489 TIP3     3015     TIP3     OH2      OT      -0.834000       15.9994           0
     31490 TIP3     3015     TIP3     H1       HT       0.417000       1.00800           0
     31491 TIP3     3015     TIP3     H2       HT       0.417000       1.00800           0
     31492 TIP3     3016     TIP3     OH2      OT      -0.834000       15.9994           0
     31493 TIP3     3016     TIP3     H1       HT       0.417000       1.00800           0
     31494 TIP3     3016     TIP3     H2       HT       0.417000       1.00800           0
     31495 TIP3     3017     TIP3     OH2      OT      -0.834000       15.9994           0
     31496 TIP3     3017     TIP3     H1       HT       0.417000       1.00800           0
     31497 TIP3     3017     TIP3     H2       HT       0.417000       1.00800           0
     31498 TIP3     3018     TIP3     OH2      OT      -0.834000       15.9994           0
     31499 TIP3     3018     TIP3     H1       HT       0.417000       1.00800           0
     31500 TIP3     3018     TIP3     H2       HT       0.417000       1.00800           0
     31501 TIP3     3019     TIP3     OH2      OT      -0.834000       15.9994           0
     31502 TIP3     3019     TIP3     H1       HT       0.417000       1.00800           0
     31503 TIP3     3019     TIP3     H2       HT       0.417000       1.00800           0
     31504 TIP3     3020     TIP3     OH2      OT      -0.834000       15.9994           0
     31505 TIP3     3020     TIP3     H1       HT       0.417000       1.00800           0
     31506 TIP3     3020     TIP3     H2       HT       0.417000       1.00800           0
     31507 TIP3     3021     TIP3     OH2      OT      -0.834000       15.9994           0
     31508 TIP3     3021     TIP3     H1       HT       0.417000       1.00800           0
     31509 TIP3     3021     TIP3     H2       HT       0.417000       1.00800           0
     31510 TIP3     3022     TIP3     OH2      OT      -0.834000       15.9994           0
     31511 TIP3     3022     TIP3     H1       HT       0.417000       1.00800           0
     31512 TIP3     3022     TIP3     H2       HT       0.417000       1.00800           0
     31513 TIP3     3023     TIP3     OH2      OT      -0.834000       15.9994           0
     31514 TIP3     3023     TIP3     H1       HT       0.417000       1.00800           0
     31515 TIP3     3023     TIP3     H2       HT       0.417000       1.00800           0
     31516 TIP3     3024     TIP3     OH2      OT      -0.834000       15.9994           0
     31517 TIP3     3024     TIP3     H1       HT       0.417000       1.00800           0
     31518 TIP3     3024     TIP3     H2       HT       0.417000       1.00800           0
     31519 TIP3     3025     TIP3     OH2      OT      -0.834000       15.9994           0
     31520 TIP3     3025     TIP3     H1       HT       0.417000       1.00800           0
     31521 TIP3     3025     TIP3     H2       HT       0.417000       1.00800           0
     31522 TIP3     3026     TIP3     OH2      OT      -0.834000       15.9994           0
     31523 TIP3     3026     TIP3     H1       HT       0.417000       1.00800           0
     31524 TIP3     3026     TIP3     H2       HT       0.417000       1.00800           0
     31525 TIP3     3027     TIP3     OH2      OT      -0.834000       15.9994           0
     31526 TIP3     3027     TIP3     H1       HT       0.417000       1.00800           0
     31527 TIP3     3027     TIP3     H2       HT       0.417000       1.00800           0
     31528 TIP3     3028     TIP3     OH2      OT      -0.834000       15.9994           0
     31529 TIP3     3028     TIP3     H1       HT       0.417000       1.00800           0
     31530 TIP3     3028     TIP3     H2       HT       0.417000       1.00800           0
     31531 TIP3     3029     TIP3     OH2      OT      -0.834000       15.9994           0
     31532 TIP3     3029     TIP3     H1       HT       0.417000       1.00800           0
     31533 TIP3     3029     TIP3     H2       HT       0.417000       1.00800           0
     31534 TIP3     3030     TIP3     OH2      OT      -0.834000       15.9994           0
     31535 TIP3     3030     TIP3     H1       HT       0.417000       1.00800           0
     31536 TIP3     3030     TIP3     H2       HT       0.417000       1.00800           0
     31537 TIP3     3031     TIP3     OH2      OT      -0.834000       15.9994           0
     31538 TIP3     3031     TIP3     H1       HT       0.417000       1.00800           0
     31539 TIP3     3031     TIP3     H2       HT       0.417000       1.00800           0
     31540 TIP3     3032     TIP3     OH2      OT      -0.834000       15.9994           0
     31541 TIP3     3032     TIP3     H1       HT       0.417000       1.00800           0
     31542 TIP3     3032     TIP3     H2       HT       0.417000       1.00800           0
     31543 TIP3     3033     TIP3     OH2      OT      -0.834000       15.9994           0
     31544 TIP3     3033     TIP3     H1       HT       0.417000       1.00800           0
     31545 TIP3     3033     TIP3     H2       HT       0.417000       1.00800           0
     31546 TIP3     3034     TIP3     OH2      OT      -0.834000       15.9994           0
     31547 TIP3     3034     TIP3     H1       HT       0.417000       1.00800           0
     31548 TIP3     3034     TIP3     H2       HT       0.417000       1.00800           0
     31549 TIP3     3035     TIP3     OH2      OT      -0.834000       15.9994           0
     31550 TIP3     3035     TIP3     H1       HT       0.417000       1.00800           0
     31551 TIP3     3035     TIP3     H2       HT       0.417000       1.00800           0
     31552 TIP3     3036     TIP3     OH2      OT      -0.834000       15.9994           0
     31553 TIP3     3036     TIP3     H1       HT       0.417000       1.00800           0
     31554 TIP3     3036     TIP3     H2       HT       0.417000       1.00800           0
     31555 TIP3     3037     TIP3     OH2      OT      -0.834000       15.9994           0
     31556 TIP3     3037     TIP3     H1       HT       0.417000       1.00800           0
     31557 TIP3     3037     TIP3     H2       HT       0.417000       1.00800           0
     31558 TIP3     3038     TIP3     OH2      OT      -0.834000       15.9994           0
     31559 TIP3     3038     TIP3     H1       HT       0.417000       1.00800           0
     31560 TIP3     3038     TIP3     H2       HT       0.417000       1.00800           0
     31561 TIP3     3039     TIP3     OH2      OT      -0.834000       15.9994           0
     31562 TIP3     3039     TIP3     H1       HT       0.417000       1.00800           0
     31563 TIP3     3039     TIP3     H2       HT       0.417000       1.00800           0
     31564 TIP3     3040     TIP3     OH2      OT      -0.834000       15.9994           0
     31565 TIP3     3040     TIP3     H1       HT       0.417000       1.00800           0
     31566 TIP3     3040     TIP3     H2       HT       0.417000       1.00800           0
     31567 TIP3     3041     TIP3     OH2      OT      -0.834000       15.9994           0
     31568 TIP3     3041     TIP3     H1       HT       0.417000       1.00800           0
     31569 TIP3     3041     TIP3     H2       HT       0.417000       1.00800           0
     31570 TIP3     3042     TIP3     OH2      OT      -0.834000       15.9994           0
     31571 TIP3     3042     TIP3     H1       HT       0.417000       1.00800           0
     31572 TIP3     3042     TIP3     H2       HT       0.417000       1.00800           0
     31573 TIP3     3043     TIP3     OH2      OT      -0.834000       15.9994           0
     31574 TIP3     3043     TIP3     H1       HT       0.417000       1.00800           0
     31575 TIP3     3043     TIP3     H2       HT       0.417000       1.00800           0
     31576 TIP3     3044     TIP3     OH2      OT      -0.834000       15.9994           0
     31577 TIP3     3044     TIP3     H1       HT       0.417000       1.00800           0
     31578 TIP3     3044     TIP3     H2       HT       0.417000       1.00800           0
     31579 TIP3     3045     TIP3     OH2      OT      -0.834000       15.9994           0
     31580 TIP3     3045     TIP3     H1       HT       0.417000       1.00800           0
     31581 TIP3     3045     TIP3     H2       HT       0.417000       1.00800           0
     31582 TIP3     3046     TIP3     OH2      OT      -0.834000       15.9994           0
     31583 TIP3     3046     TIP3     H1       HT       0.417000       1.00800           0
     31584 TIP3     3046     TIP3     H2       HT       0.417000       1.00800           0
     31585 TIP3     3047     TIP3     OH2      OT      -0.834000       15.9994           0
     31586 TIP3     3047     TIP3     H1       HT       0.417000       1.00800           0
     31587 TIP3     3047     TIP3     H2       HT       0.417000       1.00800           0
     31588 TIP3     3048     TIP3     OH2      OT      -0.834000       15.9994           0
     31589 TIP3     3048     TIP3     H1       HT       0.417000       1.00800           0
     31590 TIP3     3048     TIP3     H2       HT       0.417000       1.00800           0
     31591 TIP3     3049     TIP3     OH2      OT      -0.834000       15.9994           0
     31592 TIP3     3049     TIP3     H1       HT       0.417000       1.00800           0
     31593 TIP3     3049     TIP3     H2       HT       0.417000       1.00800           0
     31594 TIP3     3050     TIP3     OH2      OT      -0.834000       15.9994           0
     31595 TIP3     3050     TIP3     H1       HT       0.417000       1.00800           0
     31596 TIP3     3050     TIP3     H2       HT       0.417000       1.00800           0
     31597 TIP3     3051     TIP3     OH2      OT      -0.834000       15.9994           0
     31598 TIP3     3051     TIP3     H1       HT       0.417000       1.00800           0
     31599 TIP3     3051     TIP3     H2       HT       0.417000       1.00800           0
     31600 TIP3     3052     TIP3     OH2      OT      -0.834000       15.9994           0
     31601 TIP3     3052     TIP3     H1       HT       0.417000       1.00800           0
     31602 TIP3     3052     TIP3     H2       HT       0.417000       1.00800           0
     31603 TIP3     3053     TIP3     OH2      OT      -0.834000       15.9994           0
     31604 TIP3     3053     TIP3     H1       HT       0.417000       1.00800           0
     31605 TIP3     3053     TIP3     H2       HT       0.417000       1.00800           0
     31606 TIP3     3054     TIP3     OH2      OT      -0.834000       15.9994           0
     31607 TIP3     3054     TIP3     H1       HT       0.417000       1.00800           0
     31608 TIP3     3054     TIP3     H2       HT       0.417000       1.00800           0
     31609 TIP3     3055     TIP3     OH2      OT      -0.834000       15.9994           0
     31610 TIP3     3055     TIP3     H1       HT       0.417000       1.00800           0
     31611 TIP3     3055     TIP3     H2       HT       0.417000       1.00800           0
     31612 TIP3     3056     TIP3     OH2      OT      -0.834000       15.9994           0
     31613 TIP3     3056     TIP3     H1       HT       0.417000       1.00800           0
     31614 TIP3     3056     TIP3     H2       HT       0.417000       1.00800           0
     31615 TIP3     3057     TIP3     OH2      OT      -0.834000       15.9994           0
     31616 TIP3     3057     TIP3     H1       HT       0.417000       1.00800           0
     31617 TIP3     3057     TIP3     H2       HT       0.417000       1.00800           0
     31618 TIP3     3058     TIP3     OH2      OT      -0.834000       15.9994           0
     31619 TIP3     3058     TIP3     H1       HT       0.417000       1.00800           0
     31620 TIP3     3058     TIP3     H2       HT       0.417000       1.00800           0
     31621 TIP3     3059     TIP3     OH2      OT      -0.834000       15.9994           0
     31622 TIP3     3059     TIP3     H1       HT       0.417000       1.00800           0
     31623 TIP3     3059     TIP3     H2       HT       0.417000       1.00800           0
     31624 TIP3     3060     TIP3     OH2      OT      -0.834000       15.9994           0
     31625 TIP3     3060     TIP3     H1       HT       0.417000       1.00800           0
     31626 TIP3     3060     TIP3     H2       HT       0.417000       1.00800           0
     31627 TIP3     3061     TIP3     OH2      OT      -0.834000       15.9994           0
     31628 TIP3     3061     TIP3     H1       HT       0.417000       1.00800           0
     31629 TIP3     3061     TIP3     H2       HT       0.417000       1.00800           0
     31630 TIP3     3062     TIP3     OH2      OT      -0.834000       15.9994           0
     31631 TIP3     3062     TIP3     H1       HT       0.417000       1.00800           0
     31632 TIP3     3062     TIP3     H2       HT       0.417000       1.00800           0
     31633 TIP3     3063     TIP3     OH2      OT      -0.834000       15.9994           0
     31634 TIP3     3063     TIP3     H1       HT       0.417000       1.00800           0
     31635 TIP3     3063     TIP3     H2       HT       0.417000       1.00800           0
     31636 TIP3     3064     TIP3     OH2      OT      -0.834000       15.9994           0
     31637 TIP3     3064     TIP3     H1       HT       0.417000       1.00800           0
     31638 TIP3     3064     TIP3     H2       HT       0.417000       1.00800           0
     31639 TIP3     3065     TIP3     OH2      OT      -0.834000       15.9994           0
     31640 TIP3     3065     TIP3     H1       HT       0.417000       1.00800           0
     31641 TIP3     3065     TIP3     H2       HT       0.417000       1.00800           0
     31642 TIP3     3066     TIP3     OH2      OT      -0.834000       15.9994           0
     31643 TIP3     3066     TIP3     H1       HT       0.417000       1.00800           0
     31644 TIP3     3066     TIP3     H2       HT       0.417000       1.00800           0
     31645 TIP3     3067     TIP3     OH2      OT      -0.834000       15.9994           0
     31646 TIP3     3067     TIP3     H1       HT       0.417000       1.00800           0
     31647 TIP3     3067     TIP3     H2       HT       0.417000       1.00800           0
     31648 TIP3     3068     TIP3     OH2      OT      -0.834000       15.9994           0
     31649 TIP3     3068     TIP3     H1       HT       0.417000       1.00800           0
     31650 TIP3     3068     TIP3     H2       HT       0.417000       1.00800           0
     31651 TIP3     3069     TIP3     OH2      OT      -0.834000       15.9994           0
     31652 TIP3     3069     TIP3     H1       HT       0.417000       1.00800           0
     31653 TIP3     3069     TIP3     H2       HT       0.417000       1.00800           0
     31654 TIP3     3070     TIP3     OH2      OT      -0.834000       15.9994           0
     31655 TIP3     3070     TIP3     H1       HT       0.417000       1.00800           0
     31656 TIP3     3070     TIP3     H2       HT       0.417000       1.00800           0
     31657 TIP3     3071     TIP3     OH2      OT      -0.834000       15.9994           0
     31658 TIP3     3071     TIP3     H1       HT       0.417000       1.00800           0
     31659 TIP3     3071     TIP3     H2       HT       0.417000       1.00800           0
     31660 TIP3     3072     TIP3     OH2      OT      -0.834000       15.9994           0
     31661 TIP3     3072     TIP3     H1       HT       0.417000       1.00800           0
     31662 TIP3     3072     TIP3     H2       HT       0.417000       1.00800           0
     31663 TIP3     3073     TIP3     OH2      OT      -0.834000       15.9994           0
     31664 TIP3     3073     TIP3     H1       HT       0.417000       1.00800           0
     31665 TIP3     3073     TIP3     H2       HT       0.417000       1.00800           0
     31666 TIP3     3074     TIP3     OH2      OT      -0.834000       15.9994           0
     31667 TIP3     3074     TIP3     H1       HT       0.417000       1.00800           0
     31668 TIP3     3074     TIP3     H2       HT       0.417000       1.00800           0
     31669 TIP3     3075     TIP3     OH2      OT      -0.834000       15.9994           0
     31670 TIP3     3075     TIP3     H1       HT       0.417000       1.00800           0
     31671 TIP3     3075     TIP3     H2       HT       0.417000       1.00800           0
     31672 TIP3     3076     TIP3     OH2      OT      -0.834000       15.9994           0
     31673 TIP3     3076     TIP3     H1       HT       0.417000       1.00800           0
     31674 TIP3     3076     TIP3     H2       HT       0.417000       1.00800           0
     31675 TIP3     3077     TIP3     OH2      OT      -0.834000       15.9994           0
     31676 TIP3     3077     TIP3     H1       HT       0.417000       1.00800           0
     31677 TIP3     3077     TIP3     H2       HT       0.417000       1.00800           0
     31678 TIP3     3078     TIP3     OH2      OT      -0.834000       15.9994           0
     31679 TIP3     3078     TIP3     H1       HT       0.417000       1.00800           0
     31680 TIP3     3078     TIP3     H2       HT       0.417000       1.00800           0
     31681 TIP3     3079     TIP3     OH2      OT      -0.834000       15.9994           0
     31682 TIP3     3079     TIP3     H1       HT       0.417000       1.00800           0
     31683 TIP3     3079     TIP3     H2       HT       0.417000       1.00800           0
     31684 TIP3     3080     TIP3     OH2      OT      -0.834000       15.9994           0
     31685 TIP3     3080     TIP3     H1       HT       0.417000       1.00800           0
     31686 TIP3     3080     TIP3     H2       HT       0.417000       1.00800           0
     31687 TIP3     3081     TIP3     OH2      OT      -0.834000       15.9994           0
     31688 TIP3     3081     TIP3     H1       HT       0.417000       1.00800           0
     31689 TIP3     3081     TIP3     H2       HT       0.417000       1.00800           0
     31690 TIP3     3082     TIP3     OH2      OT      -0.834000       15.9994           0
     31691 TIP3     3082     TIP3     H1       HT       0.417000       1.00800           0
     31692 TIP3     3082     TIP3     H2       HT       0.417000       1.00800           0
     31693 TIP3     3083     TIP3     OH2      OT      -0.834000       15.9994           0
     31694 TIP3     3083     TIP3     H1       HT       0.417000       1.00800           0
     31695 TIP3     3083     TIP3     H2       HT       0.417000       1.00800           0
     31696 TIP3     3084     TIP3     OH2      OT      -0.834000       15.9994           0
     31697 TIP3     3084     TIP3     H1       HT       0.417000       1.00800           0
     31698 TIP3     3084     TIP3     H2       HT       0.417000       1.00800           0
     31699 TIP3     3085     TIP3     OH2      OT      -0.834000       15.9994           0
     31700 TIP3     3085     TIP3     H1       HT       0.417000       1.00800           0
     31701 TIP3     3085     TIP3     H2       HT       0.417000       1.00800           0
     31702 TIP3     3086     TIP3     OH2      OT      -0.834000       15.9994           0
     31703 TIP3     3086     TIP3     H1       HT       0.417000       1.00800           0
     31704 TIP3     3086     TIP3     H2       HT       0.417000       1.00800           0
     31705 TIP3     3087     TIP3     OH2      OT      -0.834000       15.9994           0
     31706 TIP3     3087     TIP3     H1       HT       0.417000       1.00800           0
     31707 TIP3     3087     TIP3     H2       HT       0.417000       1.00800           0
     31708 TIP3     3088     TIP3     OH2      OT      -0.834000       15.9994           0
     31709 TIP3     3088     TIP3     H1       HT       0.417000       1.00800           0
     31710 TIP3     3088     TIP3     H2       HT       0.417000       1.00800           0
     31711 TIP3     3089     TIP3     OH2      OT      -0.834000       15.9994           0
     31712 TIP3     3089     TIP3     H1       HT       0.417000       1.00800           0
     31713 TIP3     3089     TIP3     H2       HT       0.417000       1.00800           0
     31714 TIP3     3090     TIP3     OH2      OT      -0.834000       15.9994           0
     31715 TIP3     3090     TIP3     H1       HT       0.417000       1.00800           0
     31716 TIP3     3090     TIP3     H2       HT       0.417000       1.00800           0
     31717 TIP3     3091     TIP3     OH2      OT      -0.834000       15.9994           0
     31718 TIP3     3091     TIP3     H1       HT       0.417000       1.00800           0
     31719 TIP3     3091     TIP3     H2       HT       0.417000       1.00800           0
     31720 TIP3     3092     TIP3     OH2      OT      -0.834000       15.9994           0
     31721 TIP3     3092     TIP3     H1       HT       0.417000       1.00800           0
     31722 TIP3     3092     TIP3     H2       HT       0.417000       1.00800           0
     31723 TIP3     3093     TIP3     OH2      OT      -0.834000       15.9994           0
     31724 TIP3     3093     TIP3     H1       HT       0.417000       1.00800           0
     31725 TIP3     3093     TIP3     H2       HT       0.417000       1.00800           0
     31726 TIP3     3094     TIP3     OH2      OT      -0.834000       15.9994           0
     31727 TIP3     3094     TIP3     H1       HT       0.417000       1.00800           0
     31728 TIP3     3094     TIP3     H2       HT       0.417000       1.00800           0
     31729 TIP3     3095     TIP3     OH2      OT      -0.834000       15.9994           0
     31730 TIP3     3095     TIP3     H1       HT       0.417000       1.00800           0
     31731 TIP3     3095     TIP3     H2       HT       0.417000       1.00800           0
     31732 TIP3     3096     TIP3     OH2      OT      -0.834000       15.9994           0
     31733 TIP3     3096     TIP3     H1       HT       0.417000       1.00800           0
     31734 TIP3     3096     TIP3     H2       HT       0.417000       1.00800           0
     31735 TIP3     3097     TIP3     OH2      OT      -0.834000       15.9994           0
     31736 TIP3     3097     TIP3     H1       HT       0.417000       1.00800           0
     31737 TIP3     3097     TIP3     H2       HT       0.417000       1.00800           0
     31738 TIP3     3098     TIP3     OH2      OT      -0.834000       15.9994           0
     31739 TIP3     3098     TIP3     H1       HT       0.417000       1.00800           0
     31740 TIP3     3098     TIP3     H2       HT       0.417000       1.00800           0
     31741 TIP3     3099     TIP3     OH2      OT      -0.834000       15.9994           0
     31742 TIP3     3099     TIP3     H1       HT       0.417000       1.00800           0
     31743 TIP3     3099     TIP3     H2       HT       0.417000       1.00800           0
     31744 TIP3     3100     TIP3     OH2      OT      -0.834000       15.9994           0
     31745 TIP3     3100     TIP3     H1       HT       0.417000       1.00800           0
     31746 TIP3     3100     TIP3     H2       HT       0.417000       1.00800           0
     31747 TIP3     3101     TIP3     OH2      OT      -0.834000       15.9994           0
     31748 TIP3     3101     TIP3     H1       HT       0.417000       1.00800           0
     31749 TIP3     3101     TIP3     H2       HT       0.417000       1.00800           0
     31750 TIP3     3102     TIP3     OH2      OT      -0.834000       15.9994           0
     31751 TIP3     3102     TIP3     H1       HT       0.417000       1.00800           0
     31752 TIP3     3102     TIP3     H2       HT       0.417000       1.00800           0
     31753 TIP3     3103     TIP3     OH2      OT      -0.834000       15.9994           0
     31754 TIP3     3103     TIP3     H1       HT       0.417000       1.00800           0
     31755 TIP3     3103     TIP3     H2       HT       0.417000       1.00800           0
     31756 TIP3     3104     TIP3     OH2      OT      -0.834000       15.9994           0
     31757 TIP3     3104     TIP3     H1       HT       0.417000       1.00800           0
     31758 TIP3     3104     TIP3     H2       HT       0.417000       1.00800           0
     31759 TIP3     3105     TIP3     OH2      OT      -0.834000       15.9994           0
     31760 TIP3     3105     TIP3     H1       HT       0.417000       1.00800           0
     31761 TIP3     3105     TIP3     H2       HT       0.417000       1.00800           0
     31762 TIP3     3106     TIP3     OH2      OT      -0.834000       15.9994           0
     31763 TIP3     3106     TIP3     H1       HT       0.417000       1.00800           0
     31764 TIP3     3106     TIP3     H2       HT       0.417000       1.00800           0
     31765 TIP3     3107     TIP3     OH2      OT      -0.834000       15.9994           0
     31766 TIP3     3107     TIP3     H1       HT       0.417000       1.00800           0
     31767 TIP3     3107     TIP3     H2       HT       0.417000       1.00800           0
     31768 TIP3     3108     TIP3     OH2      OT      -0.834000       15.9994           0
     31769 TIP3     3108     TIP3     H1       HT       0.417000       1.00800           0
     31770 TIP3     3108     TIP3     H2       HT       0.417000       1.00800           0
     31771 TIP3     3109     TIP3     OH2      OT      -0.834000       15.9994           0
     31772 TIP3     3109     TIP3     H1       HT       0.417000       1.00800           0
     31773 TIP3     3109     TIP3     H2       HT       0.417000       1.00800           0
     31774 TIP3     3110     TIP3     OH2      OT      -0.834000       15.9994           0
     31775 TIP3     3110     TIP3     H1       HT       0.417000       1.00800           0
     31776 TIP3     3110     TIP3     H2       HT       0.417000       1.00800           0
     31777 TIP3     3111     TIP3     OH2      OT      -0.834000       15.9994           0
     31778 TIP3     3111     TIP3     H1       HT       0.417000       1.00800           0
     31779 TIP3     3111     TIP3     H2       HT       0.417000       1.00800           0
     31780 TIP3     3112     TIP3     OH2      OT      -0.834000       15.9994           0
     31781 TIP3     3112     TIP3     H1       HT       0.417000       1.00800           0
     31782 TIP3     3112     TIP3     H2       HT       0.417000       1.00800           0
     31783 TIP3     3113     TIP3     OH2      OT      -0.834000       15.9994           0
     31784 TIP3     3113     TIP3     H1       HT       0.417000       1.00800           0
     31785 TIP3     3113     TIP3     H2       HT       0.417000       1.00800           0
     31786 TIP3     3114     TIP3     OH2      OT      -0.834000       15.9994           0
     31787 TIP3     3114     TIP3     H1       HT       0.417000       1.00800           0
     31788 TIP3     3114     TIP3     H2       HT       0.417000       1.00800           0
     31789 TIP3     3115     TIP3     OH2      OT      -0.834000       15.9994           0
     31790 TIP3     3115     TIP3     H1       HT       0.417000       1.00800           0
     31791 TIP3     3115     TIP3     H2       HT       0.417000       1.00800           0
     31792 TIP3     3116     TIP3     OH2      OT      -0.834000       15.9994           0
     31793 TIP3     3116     TIP3     H1       HT       0.417000       1.00800           0
     31794 TIP3     3116     TIP3     H2       HT       0.417000       1.00800           0
     31795 TIP3     3117     TIP3     OH2      OT      -0.834000       15.9994           0
     31796 TIP3     3117     TIP3     H1       HT       0.417000       1.00800           0
     31797 TIP3     3117     TIP3     H2       HT       0.417000       1.00800           0
     31798 TIP3     3118     TIP3     OH2      OT      -0.834000       15.9994           0
     31799 TIP3     3118     TIP3     H1       HT       0.417000       1.00800           0
     31800 TIP3     3118     TIP3     H2       HT       0.417000       1.00800           0
     31801 TIP3     3119     TIP3     OH2      OT      -0.834000       15.9994           0
     31802 TIP3     3119     TIP3     H1       HT       0.417000       1.00800           0
     31803 TIP3     3119     TIP3     H2       HT       0.417000       1.00800           0
     31804 TIP3     3120     TIP3     OH2      OT      -0.834000       15.9994           0
     31805 TIP3     3120     TIP3     H1       HT       0.417000       1.00800           0
     31806 TIP3     3120     TIP3     H2       HT       0.417000       1.00800           0
     31807 TIP3     3121     TIP3     OH2      OT      -0.834000       15.9994           0
     31808 TIP3     3121     TIP3     H1       HT       0.417000       1.00800           0
     31809 TIP3     3121     TIP3     H2       HT       0.417000       1.00800           0
     31810 TIP3     3122     TIP3     OH2      OT      -0.834000       15.9994           0
     31811 TIP3     3122     TIP3     H1       HT       0.417000       1.00800           0
     31812 TIP3     3122     TIP3     H2       HT       0.417000       1.00800           0
     31813 TIP3     3123     TIP3     OH2      OT      -0.834000       15.9994           0
     31814 TIP3     3123     TIP3     H1       HT       0.417000       1.00800           0
     31815 TIP3     3123     TIP3     H2       HT       0.417000       1.00800           0
     31816 TIP3     3124     TIP3     OH2      OT      -0.834000       15.9994           0
     31817 TIP3     3124     TIP3     H1       HT       0.417000       1.00800           0
     31818 TIP3     3124     TIP3     H2       HT       0.417000       1.00800           0
     31819 TIP3     3125     TIP3     OH2      OT      -0.834000       15.9994           0
     31820 TIP3     3125     TIP3     H1       HT       0.417000       1.00800           0
     31821 TIP3     3125     TIP3     H2       HT       0.417000       1.00800           0
     31822 TIP3     3126     TIP3     OH2      OT      -0.834000       15.9994           0
     31823 TIP3     3126     TIP3     H1       HT       0.417000       1.00800           0
     31824 TIP3     3126     TIP3     H2       HT       0.417000       1.00800           0
     31825 TIP3     3127     TIP3     OH2      OT      -0.834000       15.9994           0
     31826 TIP3     3127     TIP3     H1       HT       0.417000       1.00800           0
     31827 TIP3     3127     TIP3     H2       HT       0.417000       1.00800           0
     31828 TIP3     3128     TIP3     OH2      OT      -0.834000       15.9994           0
     31829 TIP3     3128     TIP3     H1       HT       0.417000       1.00800           0
     31830 TIP3     3128     TIP3     H2       HT       0.417000       1.00800           0
     31831 TIP3     3129     TIP3     OH2      OT      -0.834000       15.9994           0
     31832 TIP3     3129     TIP3     H1       HT       0.417000       1.00800           0
     31833 TIP3     3129     TIP3     H2       HT       0.417000       1.00800           0
     31834 TIP3     3130     TIP3     OH2      OT      -0.834000       15.9994           0
     31835 TIP3     3130     TIP3     H1       HT       0.417000       1.00800           0
     31836 TIP3     3130     TIP3     H2       HT       0.417000       1.00800           0
     31837 TIP3     3131     TIP3     OH2      OT      -0.834000       15.9994           0
     31838 TIP3     3131     TIP3     H1       HT       0.417000       1.00800           0
     31839 TIP3     3131     TIP3     H2       HT       0.417000       1.00800           0
     31840 TIP3     3132     TIP3     OH2      OT      -0.834000       15.9994           0
     31841 TIP3     3132     TIP3     H1       HT       0.417000       1.00800           0
     31842 TIP3     3132     TIP3     H2       HT       0.417000       1.00800           0
     31843 TIP3     3133     TIP3     OH2      OT      -0.834000       15.9994           0
     31844 TIP3     3133     TIP3     H1       HT       0.417000       1.00800           0
     31845 TIP3     3133     TIP3     H2       HT       0.417000       1.00800           0
     31846 TIP3     3134     TIP3     OH2      OT      -0.834000       15.9994           0
     31847 TIP3     3134     TIP3     H1       HT       0.417000       1.00800           0
     31848 TIP3     3134     TIP3     H2       HT       0.417000       1.00800           0
     31849 TIP3     3135     TIP3     OH2      OT      -0.834000       15.9994           0
     31850 TIP3     3135     TIP3     H1       HT       0.417000       1.00800           0
     31851 TIP3     3135     TIP3     H2       HT       0.417000       1.00800           0
     31852 TIP3     3136     TIP3     OH2      OT      -0.834000       15.9994           0
     31853 TIP3     3136     TIP3     H1       HT       0.417000       1.00800           0
     31854 TIP3     3136     TIP3     H2       HT       0.417000       1.00800           0
     31855 TIP3     3137     TIP3     OH2      OT      -0.834000       15.9994           0
     31856 TIP3     3137     TIP3     H1       HT       0.417000       1.00800           0
     31857 TIP3     3137     TIP3     H2       HT       0.417000       1.00800           0
     31858 TIP3     3138     TIP3     OH2      OT      -0.834000       15.9994           0
     31859 TIP3     3138     TIP3     H1       HT       0.417000       1.00800           0
     31860 TIP3     3138     TIP3     H2       HT       0.417000       1.00800           0
     31861 TIP3     3139     TIP3     OH2      OT      -0.834000       15.9994           0
     31862 TIP3     3139     TIP3     H1       HT       0.417000       1.00800           0
     31863 TIP3     3139     TIP3     H2       HT       0.417000       1.00800           0
     31864 TIP3     3140     TIP3     OH2      OT      -0.834000       15.9994           0
     31865 TIP3     3140     TIP3     H1       HT       0.417000       1.00800           0
     31866 TIP3     3140     TIP3     H2       HT       0.417000       1.00800           0
     31867 TIP3     3141     TIP3     OH2      OT      -0.834000       15.9994           0
     31868 TIP3     3141     TIP3     H1       HT       0.417000       1.00800           0
     31869 TIP3     3141     TIP3     H2       HT       0.417000       1.00800           0
     31870 TIP3     3142     TIP3     OH2      OT      -0.834000       15.9994           0
     31871 TIP3     3142     TIP3     H1       HT       0.417000       1.00800           0
     31872 TIP3     3142     TIP3     H2       HT       0.417000       1.00800           0
     31873 TIP3     3143     TIP3     OH2      OT      -0.834000       15.9994           0
     31874 TIP3     3143     TIP3     H1       HT       0.417000       1.00800           0
     31875 TIP3     3143     TIP3     H2       HT       0.417000       1.00800           0
     31876 TIP3     3144     TIP3     OH2      OT      -0.834000       15.9994           0
     31877 TIP3     3144     TIP3     H1       HT       0.417000       1.00800           0
     31878 TIP3     3144     TIP3     H2       HT       0.417000       1.00800           0
     31879 TIP3     3145     TIP3     OH2      OT      -0.834000       15.9994           0
     31880 TIP3     3145     TIP3     H1       HT       0.417000       1.00800           0
     31881 TIP3     3145     TIP3     H2       HT       0.417000       1.00800           0
     31882 TIP3     3146     TIP3     OH2      OT      -0.834000       15.9994           0
     31883 TIP3     3146     TIP3     H1       HT       0.417000       1.00800           0
     31884 TIP3     3146     TIP3     H2       HT       0.417000       1.00800           0
     31885 TIP3     3147     TIP3     OH2      OT      -0.834000       15.9994           0
     31886 TIP3     3147     TIP3     H1       HT       0.417000       1.00800           0
     31887 TIP3     3147     TIP3     H2       HT       0.417000       1.00800           0
     31888 TIP3     3148     TIP3     OH2      OT      -0.834000       15.9994           0
     31889 TIP3     3148     TIP3     H1       HT       0.417000       1.00800           0
     31890 TIP3     3148     TIP3     H2       HT       0.417000       1.00800           0
     31891 TIP3     3149     TIP3     OH2      OT      -0.834000       15.9994           0
     31892 TIP3     3149     TIP3     H1       HT       0.417000       1.00800           0
     31893 TIP3     3149     TIP3     H2       HT       0.417000       1.00800           0
     31894 TIP3     3150     TIP3     OH2      OT      -0.834000       15.9994           0
     31895 TIP3     3150     TIP3     H1       HT       0.417000       1.00800           0
     31896 TIP3     3150     TIP3     H2       HT       0.417000       1.00800           0
     31897 TIP3     3151     TIP3     OH2      OT      -0.834000       15.9994           0
     31898 TIP3     3151     TIP3     H1       HT       0.417000       1.00800           0
     31899 TIP3     3151     TIP3     H2       HT       0.417000       1.00800           0
     31900 TIP3     3152     TIP3     OH2      OT      -0.834000       15.9994           0
     31901 TIP3     3152     TIP3     H1       HT       0.417000       1.00800           0
     31902 TIP3     3152     TIP3     H2       HT       0.417000       1.00800           0
     31903 TIP3     3153     TIP3     OH2      OT      -0.834000       15.9994           0
     31904 TIP3     3153     TIP3     H1       HT       0.417000       1.00800           0
     31905 TIP3     3153     TIP3     H2       HT       0.417000       1.00800           0
     31906 TIP3     3154     TIP3     OH2      OT      -0.834000       15.9994           0
     31907 TIP3     3154     TIP3     H1       HT       0.417000       1.00800           0
     31908 TIP3     3154     TIP3     H2       HT       0.417000       1.00800           0
     31909 TIP3     3155     TIP3     OH2      OT      -0.834000       15.9994           0
     31910 TIP3     3155     TIP3     H1       HT       0.417000       1.00800           0
     31911 TIP3     3155     TIP3     H2       HT       0.417000       1.00800           0
     31912 TIP3     3156     TIP3     OH2      OT      -0.834000       15.9994           0
     31913 TIP3     3156     TIP3     H1       HT       0.417000       1.00800           0
     31914 TIP3     3156     TIP3     H2       HT       0.417000       1.00800           0
     31915 TIP3     3157     TIP3     OH2      OT      -0.834000       15.9994           0
     31916 TIP3     3157     TIP3     H1       HT       0.417000       1.00800           0
     31917 TIP3     3157     TIP3     H2       HT       0.417000       1.00800           0
     31918 TIP3     3158     TIP3     OH2      OT      -0.834000       15.9994           0
     31919 TIP3     3158     TIP3     H1       HT       0.417000       1.00800           0
     31920 TIP3     3158     TIP3     H2       HT       0.417000       1.00800           0
     31921 TIP3     3159     TIP3     OH2      OT      -0.834000       15.9994           0
     31922 TIP3     3159     TIP3     H1       HT       0.417000       1.00800           0
     31923 TIP3     3159     TIP3     H2       HT       0.417000       1.00800           0
     31924 TIP3     3160     TIP3     OH2      OT      -0.834000       15.9994           0
     31925 TIP3     3160     TIP3     H1       HT       0.417000       1.00800           0
     31926 TIP3     3160     TIP3     H2       HT       0.417000       1.00800           0
     31927 TIP3     3161     TIP3     OH2      OT      -0.834000       15.9994           0
     31928 TIP3     3161     TIP3     H1       HT       0.417000       1.00800           0
     31929 TIP3     3161     TIP3     H2       HT       0.417000       1.00800           0
     31930 TIP3     3162     TIP3     OH2      OT      -0.834000       15.9994           0
     31931 TIP3     3162     TIP3     H1       HT       0.417000       1.00800           0
     31932 TIP3     3162     TIP3     H2       HT       0.417000       1.00800           0
     31933 TIP3     3163     TIP3     OH2      OT      -0.834000       15.9994           0
     31934 TIP3     3163     TIP3     H1       HT       0.417000       1.00800           0
     31935 TIP3     3163     TIP3     H2       HT       0.417000       1.00800           0
     31936 TIP3     3164     TIP3     OH2      OT      -0.834000       15.9994           0
     31937 TIP3     3164     TIP3     H1       HT       0.417000       1.00800           0
     31938 TIP3     3164     TIP3     H2       HT       0.417000       1.00800           0
     31939 TIP3     3165     TIP3     OH2      OT      -0.834000       15.9994           0
     31940 TIP3     3165     TIP3     H1       HT       0.417000       1.00800           0
     31941 TIP3     3165     TIP3     H2       HT       0.417000       1.00800           0
     31942 TIP3     3166     TIP3     OH2      OT      -0.834000       15.9994           0
     31943 TIP3     3166     TIP3     H1       HT       0.417000       1.00800           0
     31944 TIP3     3166     TIP3     H2       HT       0.417000       1.00800           0
     31945 TIP3     3167     TIP3     OH2      OT      -0.834000       15.9994           0
     31946 TIP3     3167     TIP3     H1       HT       0.417000       1.00800           0
     31947 TIP3     3167     TIP3     H2       HT       0.417000       1.00800           0
     31948 TIP3     3168     TIP3     OH2      OT      -0.834000       15.9994           0
     31949 TIP3     3168     TIP3     H1       HT       0.417000       1.00800           0
     31950 TIP3     3168     TIP3     H2       HT       0.417000       1.00800           0
     31951 TIP3     3169     TIP3     OH2      OT      -0.834000       15.9994           0
     31952 TIP3     3169     TIP3     H1       HT       0.417000       1.00800           0
     31953 TIP3     3169     TIP3     H2       HT       0.417000       1.00800           0
     31954 TIP3     3170     TIP3     OH2      OT      -0.834000       15.9994           0
     31955 TIP3     3170     TIP3     H1       HT       0.417000       1.00800           0
     31956 TIP3     3170     TIP3     H2       HT       0.417000       1.00800           0
     31957 TIP3     3171     TIP3     OH2      OT      -0.834000       15.9994           0
     31958 TIP3     3171     TIP3     H1       HT       0.417000       1.00800           0
     31959 TIP3     3171     TIP3     H2       HT       0.417000       1.00800           0
     31960 TIP3     3172     TIP3     OH2      OT      -0.834000       15.9994           0
     31961 TIP3     3172     TIP3     H1       HT       0.417000       1.00800           0
     31962 TIP3     3172     TIP3     H2       HT       0.417000       1.00800           0
     31963 TIP3     3173     TIP3     OH2      OT      -0.834000       15.9994           0
     31964 TIP3     3173     TIP3     H1       HT       0.417000       1.00800           0
     31965 TIP3     3173     TIP3     H2       HT       0.417000       1.00800           0
     31966 TIP3     3174     TIP3     OH2      OT      -0.834000       15.9994           0
     31967 TIP3     3174     TIP3     H1       HT       0.417000       1.00800           0
     31968 TIP3     3174     TIP3     H2       HT       0.417000       1.00800           0
     31969 TIP3     3175     TIP3     OH2      OT      -0.834000       15.9994           0
     31970 TIP3     3175     TIP3     H1       HT       0.417000       1.00800           0
     31971 TIP3     3175     TIP3     H2       HT       0.417000       1.00800           0
     31972 TIP3     3176     TIP3     OH2      OT      -0.834000       15.9994           0
     31973 TIP3     3176     TIP3     H1       HT       0.417000       1.00800           0
     31974 TIP3     3176     TIP3     H2       HT       0.417000       1.00800           0
     31975 TIP3     3177     TIP3     OH2      OT      -0.834000       15.9994           0
     31976 TIP3     3177     TIP3     H1       HT       0.417000       1.00800           0
     31977 TIP3     3177     TIP3     H2       HT       0.417000       1.00800           0
     31978 TIP3     3178     TIP3     OH2      OT      -0.834000       15.9994           0
     31979 TIP3     3178     TIP3     H1       HT       0.417000       1.00800           0
     31980 TIP3     3178     TIP3     H2       HT       0.417000       1.00800           0
     31981 TIP3     3179     TIP3     OH2      OT      -0.834000       15.9994           0
     31982 TIP3     3179     TIP3     H1       HT       0.417000       1.00800           0
     31983 TIP3     3179     TIP3     H2       HT       0.417000       1.00800           0
     31984 TIP3     3180     TIP3     OH2      OT      -0.834000       15.9994           0
     31985 TIP3     3180     TIP3     H1       HT       0.417000       1.00800           0
     31986 TIP3     3180     TIP3     H2       HT       0.417000       1.00800           0
     31987 TIP3     3181     TIP3     OH2      OT      -0.834000       15.9994           0
     31988 TIP3     3181     TIP3     H1       HT       0.417000       1.00800           0
     31989 TIP3     3181     TIP3     H2       HT       0.417000       1.00800           0
     31990 TIP3     3182     TIP3     OH2      OT      -0.834000       15.9994           0
     31991 TIP3     3182     TIP3     H1       HT       0.417000       1.00800           0
     31992 TIP3     3182     TIP3     H2       HT       0.417000       1.00800           0
     31993 TIP3     3183     TIP3     OH2      OT      -0.834000       15.9994           0
     31994 TIP3     3183     TIP3     H1       HT       0.417000       1.00800           0
     31995 TIP3     3183     TIP3     H2       HT       0.417000       1.00800           0
     31996 TIP3     3184     TIP3     OH2      OT      -0.834000       15.9994           0
     31997 TIP3     3184     TIP3     H1       HT       0.417000       1.00800           0
     31998 TIP3     3184     TIP3     H2       HT       0.417000       1.00800           0
     31999 TIP3     3185     TIP3     OH2      OT      -0.834000       15.9994           0
     32000 TIP3     3185     TIP3     H1       HT       0.417000       1.00800           0
     32001 TIP3     3185     TIP3     H2       HT       0.417000       1.00800           0
     32002 TIP3     3186     TIP3     OH2      OT      -0.834000       15.9994           0
     32003 TIP3     3186     TIP3     H1       HT       0.417000       1.00800           0
     32004 TIP3     3186     TIP3     H2       HT       0.417000       1.00800           0
     32005 TIP3     3187     TIP3     OH2      OT      -0.834000       15.9994           0
     32006 TIP3     3187     TIP3     H1       HT       0.417000       1.00800           0
     32007 TIP3     3187     TIP3     H2       HT       0.417000       1.00800           0
     32008 TIP3     3188     TIP3     OH2      OT      -0.834000       15.9994           0
     32009 TIP3     3188     TIP3     H1       HT       0.417000       1.00800           0
     32010 TIP3     3188     TIP3     H2       HT       0.417000       1.00800           0
     32011 TIP3     3189     TIP3     OH2      OT      -0.834000       15.9994           0
     32012 TIP3     3189     TIP3     H1       HT       0.417000       1.00800           0
     32013 TIP3     3189     TIP3     H2       HT       0.417000       1.00800           0
     32014 TIP3     3190     TIP3     OH2      OT      -0.834000       15.9994           0
     32015 TIP3     3190     TIP3     H1       HT       0.417000       1.00800           0
     32016 TIP3     3190     TIP3     H2       HT       0.417000       1.00800           0
     32017 TIP3     3191     TIP3     OH2      OT      -0.834000       15.9994           0
     32018 TIP3     3191     TIP3     H1       HT       0.417000       1.00800           0
     32019 TIP3     3191     TIP3     H2       HT       0.417000       1.00800           0
     32020 TIP3     3192     TIP3     OH2      OT      -0.834000       15.9994           0
     32021 TIP3     3192     TIP3     H1       HT       0.417000       1.00800           0
     32022 TIP3     3192     TIP3     H2       HT       0.417000       1.00800           0
     32023 TIP3     3193     TIP3     OH2      OT      -0.834000       15.9994           0
     32024 TIP3     3193     TIP3     H1       HT       0.417000       1.00800           0
     32025 TIP3     3193     TIP3     H2       HT       0.417000       1.00800           0
     32026 TIP3     3194     TIP3     OH2      OT      -0.834000       15.9994           0
     32027 TIP3     3194     TIP3     H1       HT       0.417000       1.00800           0
     32028 TIP3     3194     TIP3     H2       HT       0.417000       1.00800           0
     32029 TIP3     3195     TIP3     OH2      OT      -0.834000       15.9994           0
     32030 TIP3     3195     TIP3     H1       HT       0.417000       1.00800           0
     32031 TIP3     3195     TIP3     H2       HT       0.417000       1.00800           0
     32032 TIP3     3196     TIP3     OH2      OT      -0.834000       15.9994           0
     32033 TIP3     3196     TIP3     H1       HT       0.417000       1.00800           0
     32034 TIP3     3196     TIP3     H2       HT       0.417000       1.00800           0
     32035 TIP3     3197     TIP3     OH2      OT      -0.834000       15.9994           0
     32036 TIP3     3197     TIP3     H1       HT       0.417000       1.00800           0
     32037 TIP3     3197     TIP3     H2       HT       0.417000       1.00800           0
     32038 TIP3     3198     TIP3     OH2      OT      -0.834000       15.9994           0
     32039 TIP3     3198     TIP3     H1       HT       0.417000       1.00800           0
     32040 TIP3     3198     TIP3     H2       HT       0.417000       1.00800           0
     32041 TIP3     3199     TIP3     OH2      OT      -0.834000       15.9994           0
     32042 TIP3     3199     TIP3     H1       HT       0.417000       1.00800           0
     32043 TIP3     3199     TIP3     H2       HT       0.417000       1.00800           0
     32044 TIP3     3200     TIP3     OH2      OT      -0.834000       15.9994           0
     32045 TIP3     3200     TIP3     H1       HT       0.417000       1.00800           0
     32046 TIP3     3200     TIP3     H2       HT       0.417000       1.00800           0
     32047 TIP3     3201     TIP3     OH2      OT      -0.834000       15.9994           0
     32048 TIP3     3201     TIP3     H1       HT       0.417000       1.00800           0
     32049 TIP3     3201     TIP3     H2       HT       0.417000       1.00800           0
     32050 TIP3     3202     TIP3     OH2      OT      -0.834000       15.9994           0
     32051 TIP3     3202     TIP3     H1       HT       0.417000       1.00800           0
     32052 TIP3     3202     TIP3     H2       HT       0.417000       1.00800           0
     32053 TIP3     3203     TIP3     OH2      OT      -0.834000       15.9994           0
     32054 TIP3     3203     TIP3     H1       HT       0.417000       1.00800           0
     32055 TIP3     3203     TIP3     H2       HT       0.417000       1.00800           0
     32056 TIP3     3204     TIP3     OH2      OT      -0.834000       15.9994           0
     32057 TIP3     3204     TIP3     H1       HT       0.417000       1.00800           0
     32058 TIP3     3204     TIP3     H2       HT       0.417000       1.00800           0
     32059 TIP3     3205     TIP3     OH2      OT      -0.834000       15.9994           0
     32060 TIP3     3205     TIP3     H1       HT       0.417000       1.00800           0
     32061 TIP3     3205     TIP3     H2       HT       0.417000       1.00800           0
     32062 TIP3     3206     TIP3     OH2      OT      -0.834000       15.9994           0
     32063 TIP3     3206     TIP3     H1       HT       0.417000       1.00800           0
     32064 TIP3     3206     TIP3     H2       HT       0.417000       1.00800           0
     32065 TIP3     3207     TIP3     OH2      OT      -0.834000       15.9994           0
     32066 TIP3     3207     TIP3     H1       HT       0.417000       1.00800           0
     32067 TIP3     3207     TIP3     H2       HT       0.417000       1.00800           0
     32068 TIP3     3208     TIP3     OH2      OT      -0.834000       15.9994           0
     32069 TIP3     3208     TIP3     H1       HT       0.417000       1.00800           0
     32070 TIP3     3208     TIP3     H2       HT       0.417000       1.00800           0
     32071 TIP3     3209     TIP3     OH2      OT      -0.834000       15.9994           0
     32072 TIP3     3209     TIP3     H1       HT       0.417000       1.00800           0
     32073 TIP3     3209     TIP3     H2       HT       0.417000       1.00800           0
     32074 TIP3     3210     TIP3     OH2      OT      -0.834000       15.9994           0
     32075 TIP3     3210     TIP3     H1       HT       0.417000       1.00800           0
     32076 TIP3     3210     TIP3     H2       HT       0.417000       1.00800           0
     32077 TIP3     3211     TIP3     OH2      OT      -0.834000       15.9994           0
     32078 TIP3     3211     TIP3     H1       HT       0.417000       1.00800           0
     32079 TIP3     3211     TIP3     H2       HT       0.417000       1.00800           0
     32080 TIP3     3212     TIP3     OH2      OT      -0.834000       15.9994           0
     32081 TIP3     3212     TIP3     H1       HT       0.417000       1.00800           0
     32082 TIP3     3212     TIP3     H2       HT       0.417000       1.00800           0
     32083 TIP3     3213     TIP3     OH2      OT      -0.834000       15.9994           0
     32084 TIP3     3213     TIP3     H1       HT       0.417000       1.00800           0
     32085 TIP3     3213     TIP3     H2       HT       0.417000       1.00800           0
     32086 TIP3     3214     TIP3     OH2      OT      -0.834000       15.9994           0
     32087 TIP3     3214     TIP3     H1       HT       0.417000       1.00800           0
     32088 TIP3     3214     TIP3     H2       HT       0.417000       1.00800           0
     32089 TIP3     3215     TIP3     OH2      OT      -0.834000       15.9994           0
     32090 TIP3     3215     TIP3     H1       HT       0.417000       1.00800           0
     32091 TIP3     3215     TIP3     H2       HT       0.417000       1.00800           0
     32092 TIP3     3216     TIP3     OH2      OT      -0.834000       15.9994           0
     32093 TIP3     3216     TIP3     H1       HT       0.417000       1.00800           0
     32094 TIP3     3216     TIP3     H2       HT       0.417000       1.00800           0
     32095 TIP3     3217     TIP3     OH2      OT      -0.834000       15.9994           0
     32096 TIP3     3217     TIP3     H1       HT       0.417000       1.00800           0
     32097 TIP3     3217     TIP3     H2       HT       0.417000       1.00800           0
     32098 TIP3     3218     TIP3     OH2      OT      -0.834000       15.9994           0
     32099 TIP3     3218     TIP3     H1       HT       0.417000       1.00800           0
     32100 TIP3     3218     TIP3     H2       HT       0.417000       1.00800           0
     32101 TIP3     3219     TIP3     OH2      OT      -0.834000       15.9994           0
     32102 TIP3     3219     TIP3     H1       HT       0.417000       1.00800           0
     32103 TIP3     3219     TIP3     H2       HT       0.417000       1.00800           0
     32104 TIP3     3220     TIP3     OH2      OT      -0.834000       15.9994           0
     32105 TIP3     3220     TIP3     H1       HT       0.417000       1.00800           0
     32106 TIP3     3220     TIP3     H2       HT       0.417000       1.00800           0
     32107 TIP3     3221     TIP3     OH2      OT      -0.834000       15.9994           0
     32108 TIP3     3221     TIP3     H1       HT       0.417000       1.00800           0
     32109 TIP3     3221     TIP3     H2       HT       0.417000       1.00800           0
     32110 TIP3     3222     TIP3     OH2      OT      -0.834000       15.9994           0
     32111 TIP3     3222     TIP3     H1       HT       0.417000       1.00800           0
     32112 TIP3     3222     TIP3     H2       HT       0.417000       1.00800           0
     32113 TIP3     3223     TIP3     OH2      OT      -0.834000       15.9994           0
     32114 TIP3     3223     TIP3     H1       HT       0.417000       1.00800           0
     32115 TIP3     3223     TIP3     H2       HT       0.417000       1.00800           0
     32116 TIP3     3224     TIP3     OH2      OT      -0.834000       15.9994           0
     32117 TIP3     3224     TIP3     H1       HT       0.417000       1.00800           0
     32118 TIP3     3224     TIP3     H2       HT       0.417000       1.00800           0
     32119 TIP3     3225     TIP3     OH2      OT      -0.834000       15.9994           0
     32120 TIP3     3225     TIP3     H1       HT       0.417000       1.00800           0
     32121 TIP3     3225     TIP3     H2       HT       0.417000       1.00800           0
     32122 TIP3     3226     TIP3     OH2      OT      -0.834000       15.9994           0
     32123 TIP3     3226     TIP3     H1       HT       0.417000       1.00800           0
     32124 TIP3     3226     TIP3     H2       HT       0.417000       1.00800           0
     32125 TIP3     3227     TIP3     OH2      OT      -0.834000       15.9994           0
     32126 TIP3     3227     TIP3     H1       HT       0.417000       1.00800           0
     32127 TIP3     3227     TIP3     H2       HT       0.417000       1.00800           0
     32128 TIP3     3228     TIP3     OH2      OT      -0.834000       15.9994           0
     32129 TIP3     3228     TIP3     H1       HT       0.417000       1.00800           0
     32130 TIP3     3228     TIP3     H2       HT       0.417000       1.00800           0
     32131 TIP3     3229     TIP3     OH2      OT      -0.834000       15.9994           0
     32132 TIP3     3229     TIP3     H1       HT       0.417000       1.00800           0
     32133 TIP3     3229     TIP3     H2       HT       0.417000       1.00800           0
     32134 TIP3     3230     TIP3     OH2      OT      -0.834000       15.9994           0
     32135 TIP3     3230     TIP3     H1       HT       0.417000       1.00800           0
     32136 TIP3     3230     TIP3     H2       HT       0.417000       1.00800           0
     32137 TIP3     3231     TIP3     OH2      OT      -0.834000       15.9994           0
     32138 TIP3     3231     TIP3     H1       HT       0.417000       1.00800           0
     32139 TIP3     3231     TIP3     H2       HT       0.417000       1.00800           0
     32140 TIP3     3232     TIP3     OH2      OT      -0.834000       15.9994           0
     32141 TIP3     3232     TIP3     H1       HT       0.417000       1.00800           0
     32142 TIP3     3232     TIP3     H2       HT       0.417000       1.00800           0
     32143 TIP3     3233     TIP3     OH2      OT      -0.834000       15.9994           0
     32144 TIP3     3233     TIP3     H1       HT       0.417000       1.00800           0
     32145 TIP3     3233     TIP3     H2       HT       0.417000       1.00800           0
     32146 TIP3     3234     TIP3     OH2      OT      -0.834000       15.9994           0
     32147 TIP3     3234     TIP3     H1       HT       0.417000       1.00800           0
     32148 TIP3     3234     TIP3     H2       HT       0.417000       1.00800           0
     32149 TIP3     3235     TIP3     OH2      OT      -0.834000       15.9994           0
     32150 TIP3     3235     TIP3     H1       HT       0.417000       1.00800           0
     32151 TIP3     3235     TIP3     H2       HT       0.417000       1.00800           0
     32152 TIP3     3236     TIP3     OH2      OT      -0.834000       15.9994           0
     32153 TIP3     3236     TIP3     H1       HT       0.417000       1.00800           0
     32154 TIP3     3236     TIP3     H2       HT       0.417000       1.00800           0
     32155 TIP3     3237     TIP3     OH2      OT      -0.834000       15.9994           0
     32156 TIP3     3237     TIP3     H1       HT       0.417000       1.00800           0
     32157 TIP3     3237     TIP3     H2       HT       0.417000       1.00800           0
     32158 TIP3     3238     TIP3     OH2      OT      -0.834000       15.9994           0
     32159 TIP3     3238     TIP3     H1       HT       0.417000       1.00800           0
     32160 TIP3     3238     TIP3     H2       HT       0.417000       1.00800           0
     32161 TIP3     3239     TIP3     OH2      OT      -0.834000       15.9994           0
     32162 TIP3     3239     TIP3     H1       HT       0.417000       1.00800           0
     32163 TIP3     3239     TIP3     H2       HT       0.417000       1.00800           0
     32164 TIP3     3240     TIP3     OH2      OT      -0.834000       15.9994           0
     32165 TIP3     3240     TIP3     H1       HT       0.417000       1.00800           0
     32166 TIP3     3240     TIP3     H2       HT       0.417000       1.00800           0
     32167 TIP3     3241     TIP3     OH2      OT      -0.834000       15.9994           0
     32168 TIP3     3241     TIP3     H1       HT       0.417000       1.00800           0
     32169 TIP3     3241     TIP3     H2       HT       0.417000       1.00800           0
     32170 TIP3     3242     TIP3     OH2      OT      -0.834000       15.9994           0
     32171 TIP3     3242     TIP3     H1       HT       0.417000       1.00800           0
     32172 TIP3     3242     TIP3     H2       HT       0.417000       1.00800           0
     32173 TIP3     3243     TIP3     OH2      OT      -0.834000       15.9994           0
     32174 TIP3     3243     TIP3     H1       HT       0.417000       1.00800           0
     32175 TIP3     3243     TIP3     H2       HT       0.417000       1.00800           0
     32176 TIP3     3244     TIP3     OH2      OT      -0.834000       15.9994           0
     32177 TIP3     3244     TIP3     H1       HT       0.417000       1.00800           0
     32178 TIP3     3244     TIP3     H2       HT       0.417000       1.00800           0
     32179 TIP3     3245     TIP3     OH2      OT      -0.834000       15.9994           0
     32180 TIP3     3245     TIP3     H1       HT       0.417000       1.00800           0
     32181 TIP3     3245     TIP3     H2       HT       0.417000       1.00800           0
     32182 TIP3     3246     TIP3     OH2      OT      -0.834000       15.9994           0
     32183 TIP3     3246     TIP3     H1       HT       0.417000       1.00800           0
     32184 TIP3     3246     TIP3     H2       HT       0.417000       1.00800           0
     32185 TIP3     3247     TIP3     OH2      OT      -0.834000       15.9994           0
     32186 TIP3     3247     TIP3     H1       HT       0.417000       1.00800           0
     32187 TIP3     3247     TIP3     H2       HT       0.417000       1.00800           0
     32188 TIP3     3248     TIP3     OH2      OT      -0.834000       15.9994           0
     32189 TIP3     3248     TIP3     H1       HT       0.417000       1.00800           0
     32190 TIP3     3248     TIP3     H2       HT       0.417000       1.00800           0
     32191 TIP3     3249     TIP3     OH2      OT      -0.834000       15.9994           0
     32192 TIP3     3249     TIP3     H1       HT       0.417000       1.00800           0
     32193 TIP3     3249     TIP3     H2       HT       0.417000       1.00800           0
     32194 TIP3     3250     TIP3     OH2      OT      -0.834000       15.9994           0
     32195 TIP3     3250     TIP3     H1       HT       0.417000       1.00800           0
     32196 TIP3     3250     TIP3     H2       HT       0.417000       1.00800           0
     32197 TIP3     3251     TIP3     OH2      OT      -0.834000       15.9994           0
     32198 TIP3     3251     TIP3     H1       HT       0.417000       1.00800           0
     32199 TIP3     3251     TIP3     H2       HT       0.417000       1.00800           0
     32200 TIP3     3252     TIP3     OH2      OT      -0.834000       15.9994           0
     32201 TIP3     3252     TIP3     H1       HT       0.417000       1.00800           0
     32202 TIP3     3252     TIP3     H2       HT       0.417000       1.00800           0
     32203 TIP3     3253     TIP3     OH2      OT      -0.834000       15.9994           0
     32204 TIP3     3253     TIP3     H1       HT       0.417000       1.00800           0
     32205 TIP3     3253     TIP3     H2       HT       0.417000       1.00800           0
     32206 TIP3     3254     TIP3     OH2      OT      -0.834000       15.9994           0
     32207 TIP3     3254     TIP3     H1       HT       0.417000       1.00800           0
     32208 TIP3     3254     TIP3     H2       HT       0.417000       1.00800           0
     32209 TIP3     3255     TIP3     OH2      OT      -0.834000       15.9994           0
     32210 TIP3     3255     TIP3     H1       HT       0.417000       1.00800           0
     32211 TIP3     3255     TIP3     H2       HT       0.417000       1.00800           0
     32212 TIP3     3256     TIP3     OH2      OT      -0.834000       15.9994           0
     32213 TIP3     3256     TIP3     H1       HT       0.417000       1.00800           0
     32214 TIP3     3256     TIP3     H2       HT       0.417000       1.00800           0
     32215 TIP3     3257     TIP3     OH2      OT      -0.834000       15.9994           0
     32216 TIP3     3257     TIP3     H1       HT       0.417000       1.00800           0
     32217 TIP3     3257     TIP3     H2       HT       0.417000       1.00800           0
     32218 TIP3     3258     TIP3     OH2      OT      -0.834000       15.9994           0
     32219 TIP3     3258     TIP3     H1       HT       0.417000       1.00800           0
     32220 TIP3     3258     TIP3     H2       HT       0.417000       1.00800           0
     32221 TIP3     3259     TIP3     OH2      OT      -0.834000       15.9994           0
     32222 TIP3     3259     TIP3     H1       HT       0.417000       1.00800           0
     32223 TIP3     3259     TIP3     H2       HT       0.417000       1.00800           0
     32224 TIP3     3260     TIP3     OH2      OT      -0.834000       15.9994           0
     32225 TIP3     3260     TIP3     H1       HT       0.417000       1.00800           0
     32226 TIP3     3260     TIP3     H2       HT       0.417000       1.00800           0
     32227 TIP3     3261     TIP3     OH2      OT      -0.834000       15.9994           0
     32228 TIP3     3261     TIP3     H1       HT       0.417000       1.00800           0
     32229 TIP3     3261     TIP3     H2       HT       0.417000       1.00800           0
     32230 TIP3     3262     TIP3     OH2      OT      -0.834000       15.9994           0
     32231 TIP3     3262     TIP3     H1       HT       0.417000       1.00800           0
     32232 TIP3     3262     TIP3     H2       HT       0.417000       1.00800           0
     32233 TIP3     3263     TIP3     OH2      OT      -0.834000       15.9994           0
     32234 TIP3     3263     TIP3     H1       HT       0.417000       1.00800           0
     32235 TIP3     3263     TIP3     H2       HT       0.417000       1.00800           0
     32236 TIP3     3264     TIP3     OH2      OT      -0.834000       15.9994           0
     32237 TIP3     3264     TIP3     H1       HT       0.417000       1.00800           0
     32238 TIP3     3264     TIP3     H2       HT       0.417000       1.00800           0
     32239 TIP3     3265     TIP3     OH2      OT      -0.834000       15.9994           0
     32240 TIP3     3265     TIP3     H1       HT       0.417000       1.00800           0
     32241 TIP3     3265     TIP3     H2       HT       0.417000       1.00800           0
     32242 TIP3     3266     TIP3     OH2      OT      -0.834000       15.9994           0
     32243 TIP3     3266     TIP3     H1       HT       0.417000       1.00800           0
     32244 TIP3     3266     TIP3     H2       HT       0.417000       1.00800           0
     32245 TIP3     3267     TIP3     OH2      OT      -0.834000       15.9994           0
     32246 TIP3     3267     TIP3     H1       HT       0.417000       1.00800           0
     32247 TIP3     3267     TIP3     H2       HT       0.417000       1.00800           0
     32248 TIP3     3268     TIP3     OH2      OT      -0.834000       15.9994           0
     32249 TIP3     3268     TIP3     H1       HT       0.417000       1.00800           0
     32250 TIP3     3268     TIP3     H2       HT       0.417000       1.00800           0
     32251 TIP3     3269     TIP3     OH2      OT      -0.834000       15.9994           0
     32252 TIP3     3269     TIP3     H1       HT       0.417000       1.00800           0
     32253 TIP3     3269     TIP3     H2       HT       0.417000       1.00800           0
     32254 TIP3     3270     TIP3     OH2      OT      -0.834000       15.9994           0
     32255 TIP3     3270     TIP3     H1       HT       0.417000       1.00800           0
     32256 TIP3     3270     TIP3     H2       HT       0.417000       1.00800           0
     32257 TIP3     3271     TIP3     OH2      OT      -0.834000       15.9994           0
     32258 TIP3     3271     TIP3     H1       HT       0.417000       1.00800           0
     32259 TIP3     3271     TIP3     H2       HT       0.417000       1.00800           0
     32260 TIP3     3272     TIP3     OH2      OT      -0.834000       15.9994           0
     32261 TIP3     3272     TIP3     H1       HT       0.417000       1.00800           0
     32262 TIP3     3272     TIP3     H2       HT       0.417000       1.00800           0
     32263 TIP3     3273     TIP3     OH2      OT      -0.834000       15.9994           0
     32264 TIP3     3273     TIP3     H1       HT       0.417000       1.00800           0
     32265 TIP3     3273     TIP3     H2       HT       0.417000       1.00800           0
     32266 TIP3     3274     TIP3     OH2      OT      -0.834000       15.9994           0
     32267 TIP3     3274     TIP3     H1       HT       0.417000       1.00800           0
     32268 TIP3     3274     TIP3     H2       HT       0.417000       1.00800           0
     32269 TIP3     3275     TIP3     OH2      OT      -0.834000       15.9994           0
     32270 TIP3     3275     TIP3     H1       HT       0.417000       1.00800           0
     32271 TIP3     3275     TIP3     H2       HT       0.417000       1.00800           0
     32272 TIP3     3276     TIP3     OH2      OT      -0.834000       15.9994           0
     32273 TIP3     3276     TIP3     H1       HT       0.417000       1.00800           0
     32274 TIP3     3276     TIP3     H2       HT       0.417000       1.00800           0
     32275 TIP3     3277     TIP3     OH2      OT      -0.834000       15.9994           0
     32276 TIP3     3277     TIP3     H1       HT       0.417000       1.00800           0
     32277 TIP3     3277     TIP3     H2       HT       0.417000       1.00800           0
     32278 TIP3     3278     TIP3     OH2      OT      -0.834000       15.9994           0
     32279 TIP3     3278     TIP3     H1       HT       0.417000       1.00800           0
     32280 TIP3     3278     TIP3     H2       HT       0.417000       1.00800           0
     32281 TIP3     3279     TIP3     OH2      OT      -0.834000       15.9994           0
     32282 TIP3     3279     TIP3     H1       HT       0.417000       1.00800           0
     32283 TIP3     3279     TIP3     H2       HT       0.417000       1.00800           0
     32284 TIP3     3280     TIP3     OH2      OT      -0.834000       15.9994           0
     32285 TIP3     3280     TIP3     H1       HT       0.417000       1.00800           0
     32286 TIP3     3280     TIP3     H2       HT       0.417000       1.00800           0
     32287 TIP3     3281     TIP3     OH2      OT      -0.834000       15.9994           0
     32288 TIP3     3281     TIP3     H1       HT       0.417000       1.00800           0
     32289 TIP3     3281     TIP3     H2       HT       0.417000       1.00800           0
     32290 TIP3     3282     TIP3     OH2      OT      -0.834000       15.9994           0
     32291 TIP3     3282     TIP3     H1       HT       0.417000       1.00800           0
     32292 TIP3     3282     TIP3     H2       HT       0.417000       1.00800           0
     32293 TIP3     3283     TIP3     OH2      OT      -0.834000       15.9994           0
     32294 TIP3     3283     TIP3     H1       HT       0.417000       1.00800           0
     32295 TIP3     3283     TIP3     H2       HT       0.417000       1.00800           0
     32296 TIP3     3284     TIP3     OH2      OT      -0.834000       15.9994           0
     32297 TIP3     3284     TIP3     H1       HT       0.417000       1.00800           0
     32298 TIP3     3284     TIP3     H2       HT       0.417000       1.00800           0
     32299 TIP3     3285     TIP3     OH2      OT      -0.834000       15.9994           0
     32300 TIP3     3285     TIP3     H1       HT       0.417000       1.00800           0
     32301 TIP3     3285     TIP3     H2       HT       0.417000       1.00800           0
     32302 TIP3     3286     TIP3     OH2      OT      -0.834000       15.9994           0
     32303 TIP3     3286     TIP3     H1       HT       0.417000       1.00800           0
     32304 TIP3     3286     TIP3     H2       HT       0.417000       1.00800           0
     32305 TIP3     3287     TIP3     OH2      OT      -0.834000       15.9994           0
     32306 TIP3     3287     TIP3     H1       HT       0.417000       1.00800           0
     32307 TIP3     3287     TIP3     H2       HT       0.417000       1.00800           0
     32308 TIP3     3288     TIP3     OH2      OT      -0.834000       15.9994           0
     32309 TIP3     3288     TIP3     H1       HT       0.417000       1.00800           0
     32310 TIP3     3288     TIP3     H2       HT       0.417000       1.00800           0
     32311 TIP3     3289     TIP3     OH2      OT      -0.834000       15.9994           0
     32312 TIP3     3289     TIP3     H1       HT       0.417000       1.00800           0
     32313 TIP3     3289     TIP3     H2       HT       0.417000       1.00800           0
     32314 TIP3     3290     TIP3     OH2      OT      -0.834000       15.9994           0
     32315 TIP3     3290     TIP3     H1       HT       0.417000       1.00800           0
     32316 TIP3     3290     TIP3     H2       HT       0.417000       1.00800           0
     32317 TIP3     3291     TIP3     OH2      OT      -0.834000       15.9994           0
     32318 TIP3     3291     TIP3     H1       HT       0.417000       1.00800           0
     32319 TIP3     3291     TIP3     H2       HT       0.417000       1.00800           0
     32320 TIP3     3292     TIP3     OH2      OT      -0.834000       15.9994           0
     32321 TIP3     3292     TIP3     H1       HT       0.417000       1.00800           0
     32322 TIP3     3292     TIP3     H2       HT       0.417000       1.00800           0
     32323 TIP3     3293     TIP3     OH2      OT      -0.834000       15.9994           0
     32324 TIP3     3293     TIP3     H1       HT       0.417000       1.00800           0
     32325 TIP3     3293     TIP3     H2       HT       0.417000       1.00800           0
     32326 TIP3     3294     TIP3     OH2      OT      -0.834000       15.9994           0
     32327 TIP3     3294     TIP3     H1       HT       0.417000       1.00800           0
     32328 TIP3     3294     TIP3     H2       HT       0.417000       1.00800           0
     32329 TIP3     3295     TIP3     OH2      OT      -0.834000       15.9994           0
     32330 TIP3     3295     TIP3     H1       HT       0.417000       1.00800           0
     32331 TIP3     3295     TIP3     H2       HT       0.417000       1.00800           0
     32332 TIP3     3296     TIP3     OH2      OT      -0.834000       15.9994           0
     32333 TIP3     3296     TIP3     H1       HT       0.417000       1.00800           0
     32334 TIP3     3296     TIP3     H2       HT       0.417000       1.00800           0
     32335 TIP3     3297     TIP3     OH2      OT      -0.834000       15.9994           0
     32336 TIP3     3297     TIP3     H1       HT       0.417000       1.00800           0
     32337 TIP3     3297     TIP3     H2       HT       0.417000       1.00800           0
     32338 TIP3     3298     TIP3     OH2      OT      -0.834000       15.9994           0
     32339 TIP3     3298     TIP3     H1       HT       0.417000       1.00800           0
     32340 TIP3     3298     TIP3     H2       HT       0.417000       1.00800           0
     32341 TIP3     3299     TIP3     OH2      OT      -0.834000       15.9994           0
     32342 TIP3     3299     TIP3     H1       HT       0.417000       1.00800           0
     32343 TIP3     3299     TIP3     H2       HT       0.417000       1.00800           0
     32344 TIP3     3300     TIP3     OH2      OT      -0.834000       15.9994           0
     32345 TIP3     3300     TIP3     H1       HT       0.417000       1.00800           0
     32346 TIP3     3300     TIP3     H2       HT       0.417000       1.00800           0
     32347 TIP3     3301     TIP3     OH2      OT      -0.834000       15.9994           0
     32348 TIP3     3301     TIP3     H1       HT       0.417000       1.00800           0
     32349 TIP3     3301     TIP3     H2       HT       0.417000       1.00800           0
     32350 TIP3     3302     TIP3     OH2      OT      -0.834000       15.9994           0
     32351 TIP3     3302     TIP3     H1       HT       0.417000       1.00800           0
     32352 TIP3     3302     TIP3     H2       HT       0.417000       1.00800           0
     32353 TIP3     3303     TIP3     OH2      OT      -0.834000       15.9994           0
     32354 TIP3     3303     TIP3     H1       HT       0.417000       1.00800           0
     32355 TIP3     3303     TIP3     H2       HT       0.417000       1.00800           0
     32356 TIP3     3304     TIP3     OH2      OT      -0.834000       15.9994           0
     32357 TIP3     3304     TIP3     H1       HT       0.417000       1.00800           0
     32358 TIP3     3304     TIP3     H2       HT       0.417000       1.00800           0
     32359 TIP3     3305     TIP3     OH2      OT      -0.834000       15.9994           0
     32360 TIP3     3305     TIP3     H1       HT       0.417000       1.00800           0
     32361 TIP3     3305     TIP3     H2       HT       0.417000       1.00800           0
     32362 TIP3     3306     TIP3     OH2      OT      -0.834000       15.9994           0
     32363 TIP3     3306     TIP3     H1       HT       0.417000       1.00800           0
     32364 TIP3     3306     TIP3     H2       HT       0.417000       1.00800           0
     32365 TIP3     3307     TIP3     OH2      OT      -0.834000       15.9994           0
     32366 TIP3     3307     TIP3     H1       HT       0.417000       1.00800           0
     32367 TIP3     3307     TIP3     H2       HT       0.417000       1.00800           0
     32368 TIP3     3308     TIP3     OH2      OT      -0.834000       15.9994           0
     32369 TIP3     3308     TIP3     H1       HT       0.417000       1.00800           0
     32370 TIP3     3308     TIP3     H2       HT       0.417000       1.00800           0
     32371 TIP3     3309     TIP3     OH2      OT      -0.834000       15.9994           0
     32372 TIP3     3309     TIP3     H1       HT       0.417000       1.00800           0
     32373 TIP3     3309     TIP3     H2       HT       0.417000       1.00800           0
     32374 TIP3     3310     TIP3     OH2      OT      -0.834000       15.9994           0
     32375 TIP3     3310     TIP3     H1       HT       0.417000       1.00800           0
     32376 TIP3     3310     TIP3     H2       HT       0.417000       1.00800           0
     32377 TIP3     3311     TIP3     OH2      OT      -0.834000       15.9994           0
     32378 TIP3     3311     TIP3     H1       HT       0.417000       1.00800           0
     32379 TIP3     3311     TIP3     H2       HT       0.417000       1.00800           0
     32380 TIP3     3312     TIP3     OH2      OT      -0.834000       15.9994           0
     32381 TIP3     3312     TIP3     H1       HT       0.417000       1.00800           0
     32382 TIP3     3312     TIP3     H2       HT       0.417000       1.00800           0
     32383 TIP3     3313     TIP3     OH2      OT      -0.834000       15.9994           0
     32384 TIP3     3313     TIP3     H1       HT       0.417000       1.00800           0
     32385 TIP3     3313     TIP3     H2       HT       0.417000       1.00800           0
     32386 TIP3     3314     TIP3     OH2      OT      -0.834000       15.9994           0
     32387 TIP3     3314     TIP3     H1       HT       0.417000       1.00800           0
     32388 TIP3     3314     TIP3     H2       HT       0.417000       1.00800           0
     32389 TIP3     3315     TIP3     OH2      OT      -0.834000       15.9994           0
     32390 TIP3     3315     TIP3     H1       HT       0.417000       1.00800           0
     32391 TIP3     3315     TIP3     H2       HT       0.417000       1.00800           0
     32392 TIP3     3316     TIP3     OH2      OT      -0.834000       15.9994           0
     32393 TIP3     3316     TIP3     H1       HT       0.417000       1.00800           0
     32394 TIP3     3316     TIP3     H2       HT       0.417000       1.00800           0
     32395 TIP3     3317     TIP3     OH2      OT      -0.834000       15.9994           0
     32396 TIP3     3317     TIP3     H1       HT       0.417000       1.00800           0
     32397 TIP3     3317     TIP3     H2       HT       0.417000       1.00800           0
     32398 TIP3     3318     TIP3     OH2      OT      -0.834000       15.9994           0
     32399 TIP3     3318     TIP3     H1       HT       0.417000       1.00800           0
     32400 TIP3     3318     TIP3     H2       HT       0.417000       1.00800           0
     32401 TIP3     3319     TIP3     OH2      OT      -0.834000       15.9994           0
     32402 TIP3     3319     TIP3     H1       HT       0.417000       1.00800           0
     32403 TIP3     3319     TIP3     H2       HT       0.417000       1.00800           0
     32404 TIP3     3320     TIP3     OH2      OT      -0.834000       15.9994           0
     32405 TIP3     3320     TIP3     H1       HT       0.417000       1.00800           0
     32406 TIP3     3320     TIP3     H2       HT       0.417000       1.00800           0
     32407 TIP3     3321     TIP3     OH2      OT      -0.834000       15.9994           0
     32408 TIP3     3321     TIP3     H1       HT       0.417000       1.00800           0
     32409 TIP3     3321     TIP3     H2       HT       0.417000       1.00800           0
     32410 TIP3     3322     TIP3     OH2      OT      -0.834000       15.9994           0
     32411 TIP3     3322     TIP3     H1       HT       0.417000       1.00800           0
     32412 TIP3     3322     TIP3     H2       HT       0.417000       1.00800           0
     32413 TIP3     3323     TIP3     OH2      OT      -0.834000       15.9994           0
     32414 TIP3     3323     TIP3     H1       HT       0.417000       1.00800           0
     32415 TIP3     3323     TIP3     H2       HT       0.417000       1.00800           0
     32416 TIP3     3324     TIP3     OH2      OT      -0.834000       15.9994           0
     32417 TIP3     3324     TIP3     H1       HT       0.417000       1.00800           0
     32418 TIP3     3324     TIP3     H2       HT       0.417000       1.00800           0
     32419 TIP3     3325     TIP3     OH2      OT      -0.834000       15.9994           0
     32420 TIP3     3325     TIP3     H1       HT       0.417000       1.00800           0
     32421 TIP3     3325     TIP3     H2       HT       0.417000       1.00800           0
     32422 TIP3     3326     TIP3     OH2      OT      -0.834000       15.9994           0
     32423 TIP3     3326     TIP3     H1       HT       0.417000       1.00800           0
     32424 TIP3     3326     TIP3     H2       HT       0.417000       1.00800           0
     32425 TIP3     3327     TIP3     OH2      OT      -0.834000       15.9994           0
     32426 TIP3     3327     TIP3     H1       HT       0.417000       1.00800           0
     32427 TIP3     3327     TIP3     H2       HT       0.417000       1.00800           0
     32428 TIP3     3328     TIP3     OH2      OT      -0.834000       15.9994           0
     32429 TIP3     3328     TIP3     H1       HT       0.417000       1.00800           0
     32430 TIP3     3328     TIP3     H2       HT       0.417000       1.00800           0
     32431 TIP3     3329     TIP3     OH2      OT      -0.834000       15.9994           0
     32432 TIP3     3329     TIP3     H1       HT       0.417000       1.00800           0
     32433 TIP3     3329     TIP3     H2       HT       0.417000       1.00800           0
     32434 TIP3     3330     TIP3     OH2      OT      -0.834000       15.9994           0
     32435 TIP3     3330     TIP3     H1       HT       0.417000       1.00800           0
     32436 TIP3     3330     TIP3     H2       HT       0.417000       1.00800           0
     32437 TIP3     3331     TIP3     OH2      OT      -0.834000       15.9994           0
     32438 TIP3     3331     TIP3     H1       HT       0.417000       1.00800           0
     32439 TIP3     3331     TIP3     H2       HT       0.417000       1.00800           0
     32440 TIP3     3332     TIP3     OH2      OT      -0.834000       15.9994           0
     32441 TIP3     3332     TIP3     H1       HT       0.417000       1.00800           0
     32442 TIP3     3332     TIP3     H2       HT       0.417000       1.00800           0
     32443 TIP3     3333     TIP3     OH2      OT      -0.834000       15.9994           0
     32444 TIP3     3333     TIP3     H1       HT       0.417000       1.00800           0
     32445 TIP3     3333     TIP3     H2       HT       0.417000       1.00800           0
     32446 TIP3     3334     TIP3     OH2      OT      -0.834000       15.9994           0
     32447 TIP3     3334     TIP3     H1       HT       0.417000       1.00800           0
     32448 TIP3     3334     TIP3     H2       HT       0.417000       1.00800           0
     32449 TIP3     3335     TIP3     OH2      OT      -0.834000       15.9994           0
     32450 TIP3     3335     TIP3     H1       HT       0.417000       1.00800           0
     32451 TIP3     3335     TIP3     H2       HT       0.417000       1.00800           0
     32452 TIP3     3336     TIP3     OH2      OT      -0.834000       15.9994           0
     32453 TIP3     3336     TIP3     H1       HT       0.417000       1.00800           0
     32454 TIP3     3336     TIP3     H2       HT       0.417000       1.00800           0
     32455 TIP3     3337     TIP3     OH2      OT      -0.834000       15.9994           0
     32456 TIP3     3337     TIP3     H1       HT       0.417000       1.00800           0
     32457 TIP3     3337     TIP3     H2       HT       0.417000       1.00800           0
     32458 TIP3     3338     TIP3     OH2      OT      -0.834000       15.9994           0
     32459 TIP3     3338     TIP3     H1       HT       0.417000       1.00800           0
     32460 TIP3     3338     TIP3     H2       HT       0.417000       1.00800           0
     32461 TIP3     3339     TIP3     OH2      OT      -0.834000       15.9994           0
     32462 TIP3     3339     TIP3     H1       HT       0.417000       1.00800           0
     32463 TIP3     3339     TIP3     H2       HT       0.417000       1.00800           0
     32464 TIP3     3340     TIP3     OH2      OT      -0.834000       15.9994           0
     32465 TIP3     3340     TIP3     H1       HT       0.417000       1.00800           0
     32466 TIP3     3340     TIP3     H2       HT       0.417000       1.00800           0
     32467 TIP3     3341     TIP3     OH2      OT      -0.834000       15.9994           0
     32468 TIP3     3341     TIP3     H1       HT       0.417000       1.00800           0
     32469 TIP3     3341     TIP3     H2       HT       0.417000       1.00800           0
     32470 TIP3     3342     TIP3     OH2      OT      -0.834000       15.9994           0
     32471 TIP3     3342     TIP3     H1       HT       0.417000       1.00800           0
     32472 TIP3     3342     TIP3     H2       HT       0.417000       1.00800           0
     32473 TIP3     3343     TIP3     OH2      OT      -0.834000       15.9994           0
     32474 TIP3     3343     TIP3     H1       HT       0.417000       1.00800           0
     32475 TIP3     3343     TIP3     H2       HT       0.417000       1.00800           0
     32476 TIP3     3344     TIP3     OH2      OT      -0.834000       15.9994           0
     32477 TIP3     3344     TIP3     H1       HT       0.417000       1.00800           0
     32478 TIP3     3344     TIP3     H2       HT       0.417000       1.00800           0
     32479 TIP3     3345     TIP3     OH2      OT      -0.834000       15.9994           0
     32480 TIP3     3345     TIP3     H1       HT       0.417000       1.00800           0
     32481 TIP3     3345     TIP3     H2       HT       0.417000       1.00800           0
     32482 TIP3     3346     TIP3     OH2      OT      -0.834000       15.9994           0
     32483 TIP3     3346     TIP3     H1       HT       0.417000       1.00800           0
     32484 TIP3     3346     TIP3     H2       HT       0.417000       1.00800           0
     32485 TIP3     3347     TIP3     OH2      OT      -0.834000       15.9994           0
     32486 TIP3     3347     TIP3     H1       HT       0.417000       1.00800           0
     32487 TIP3     3347     TIP3     H2       HT       0.417000       1.00800           0
     32488 TIP3     3348     TIP3     OH2      OT      -0.834000       15.9994           0
     32489 TIP3     3348     TIP3     H1       HT       0.417000       1.00800           0
     32490 TIP3     3348     TIP3     H2       HT       0.417000       1.00800           0
     32491 TIP3     3349     TIP3     OH2      OT      -0.834000       15.9994           0
     32492 TIP3     3349     TIP3     H1       HT       0.417000       1.00800           0
     32493 TIP3     3349     TIP3     H2       HT       0.417000       1.00800           0
     32494 TIP3     3350     TIP3     OH2      OT      -0.834000       15.9994           0
     32495 TIP3     3350     TIP3     H1       HT       0.417000       1.00800           0
     32496 TIP3     3350     TIP3     H2       HT       0.417000       1.00800           0
     32497 TIP3     3351     TIP3     OH2      OT      -0.834000       15.9994           0
     32498 TIP3     3351     TIP3     H1       HT       0.417000       1.00800           0
     32499 TIP3     3351     TIP3     H2       HT       0.417000       1.00800           0
     32500 TIP3     3352     TIP3     OH2      OT      -0.834000       15.9994           0
     32501 TIP3     3352     TIP3     H1       HT       0.417000       1.00800           0
     32502 TIP3     3352     TIP3     H2       HT       0.417000       1.00800           0
     32503 TIP3     3353     TIP3     OH2      OT      -0.834000       15.9994           0
     32504 TIP3     3353     TIP3     H1       HT       0.417000       1.00800           0
     32505 TIP3     3353     TIP3     H2       HT       0.417000       1.00800           0
     32506 TIP3     3354     TIP3     OH2      OT      -0.834000       15.9994           0
     32507 TIP3     3354     TIP3     H1       HT       0.417000       1.00800           0
     32508 TIP3     3354     TIP3     H2       HT       0.417000       1.00800           0
     32509 TIP3     3355     TIP3     OH2      OT      -0.834000       15.9994           0
     32510 TIP3     3355     TIP3     H1       HT       0.417000       1.00800           0
     32511 TIP3     3355     TIP3     H2       HT       0.417000       1.00800           0
     32512 TIP3     3356     TIP3     OH2      OT      -0.834000       15.9994           0
     32513 TIP3     3356     TIP3     H1       HT       0.417000       1.00800           0
     32514 TIP3     3356     TIP3     H2       HT       0.417000       1.00800           0
     32515 TIP3     3357     TIP3     OH2      OT      -0.834000       15.9994           0
     32516 TIP3     3357     TIP3     H1       HT       0.417000       1.00800           0
     32517 TIP3     3357     TIP3     H2       HT       0.417000       1.00800           0
     32518 TIP3     3358     TIP3     OH2      OT      -0.834000       15.9994           0
     32519 TIP3     3358     TIP3     H1       HT       0.417000       1.00800           0
     32520 TIP3     3358     TIP3     H2       HT       0.417000       1.00800           0
     32521 TIP3     3359     TIP3     OH2      OT      -0.834000       15.9994           0
     32522 TIP3     3359     TIP3     H1       HT       0.417000       1.00800           0
     32523 TIP3     3359     TIP3     H2       HT       0.417000       1.00800           0
     32524 TIP3     3360     TIP3     OH2      OT      -0.834000       15.9994           0
     32525 TIP3     3360     TIP3     H1       HT       0.417000       1.00800           0
     32526 TIP3     3360     TIP3     H2       HT       0.417000       1.00800           0
     32527 TIP3     3361     TIP3     OH2      OT      -0.834000       15.9994           0
     32528 TIP3     3361     TIP3     H1       HT       0.417000       1.00800           0
     32529 TIP3     3361     TIP3     H2       HT       0.417000       1.00800           0
     32530 TIP3     3362     TIP3     OH2      OT      -0.834000       15.9994           0
     32531 TIP3     3362     TIP3     H1       HT       0.417000       1.00800           0
     32532 TIP3     3362     TIP3     H2       HT       0.417000       1.00800           0
     32533 TIP3     3363     TIP3     OH2      OT      -0.834000       15.9994           0
     32534 TIP3     3363     TIP3     H1       HT       0.417000       1.00800           0
     32535 TIP3     3363     TIP3     H2       HT       0.417000       1.00800           0
     32536 TIP3     3364     TIP3     OH2      OT      -0.834000       15.9994           0
     32537 TIP3     3364     TIP3     H1       HT       0.417000       1.00800           0
     32538 TIP3     3364     TIP3     H2       HT       0.417000       1.00800           0
     32539 TIP3     3365     TIP3     OH2      OT      -0.834000       15.9994           0
     32540 TIP3     3365     TIP3     H1       HT       0.417000       1.00800           0
     32541 TIP3     3365     TIP3     H2       HT       0.417000       1.00800           0
     32542 TIP3     3366     TIP3     OH2      OT      -0.834000       15.9994           0
     32543 TIP3     3366     TIP3     H1       HT       0.417000       1.00800           0
     32544 TIP3     3366     TIP3     H2       HT       0.417000       1.00800           0
     32545 TIP3     3367     TIP3     OH2      OT      -0.834000       15.9994           0
     32546 TIP3     3367     TIP3     H1       HT       0.417000       1.00800           0
     32547 TIP3     3367     TIP3     H2       HT       0.417000       1.00800           0
     32548 TIP3     3368     TIP3     OH2      OT      -0.834000       15.9994           0
     32549 TIP3     3368     TIP3     H1       HT       0.417000       1.00800           0
     32550 TIP3     3368     TIP3     H2       HT       0.417000       1.00800           0
     32551 TIP3     3369     TIP3     OH2      OT      -0.834000       15.9994           0
     32552 TIP3     3369     TIP3     H1       HT       0.417000       1.00800           0
     32553 TIP3     3369     TIP3     H2       HT       0.417000       1.00800           0
     32554 TIP3     3370     TIP3     OH2      OT      -0.834000       15.9994           0
     32555 TIP3     3370     TIP3     H1       HT       0.417000       1.00800           0
     32556 TIP3     3370     TIP3     H2       HT       0.417000       1.00800           0
     32557 TIP3     3371     TIP3     OH2      OT      -0.834000       15.9994           0
     32558 TIP3     3371     TIP3     H1       HT       0.417000       1.00800           0
     32559 TIP3     3371     TIP3     H2       HT       0.417000       1.00800           0
     32560 TIP3     3372     TIP3     OH2      OT      -0.834000       15.9994           0
     32561 TIP3     3372     TIP3     H1       HT       0.417000       1.00800           0
     32562 TIP3     3372     TIP3     H2       HT       0.417000       1.00800           0
     32563 TIP3     3373     TIP3     OH2      OT      -0.834000       15.9994           0
     32564 TIP3     3373     TIP3     H1       HT       0.417000       1.00800           0
     32565 TIP3     3373     TIP3     H2       HT       0.417000       1.00800           0
     32566 TIP3     3374     TIP3     OH2      OT      -0.834000       15.9994           0
     32567 TIP3     3374     TIP3     H1       HT       0.417000       1.00800           0
     32568 TIP3     3374     TIP3     H2       HT       0.417000       1.00800           0
     32569 TIP3     3375     TIP3     OH2      OT      -0.834000       15.9994           0
     32570 TIP3     3375     TIP3     H1       HT       0.417000       1.00800           0
     32571 TIP3     3375     TIP3     H2       HT       0.417000       1.00800           0
     32572 TIP3     3376     TIP3     OH2      OT      -0.834000       15.9994           0
     32573 TIP3     3376     TIP3     H1       HT       0.417000       1.00800           0
     32574 TIP3     3376     TIP3     H2       HT       0.417000       1.00800           0
     32575 TIP3     3377     TIP3     OH2      OT      -0.834000       15.9994           0
     32576 TIP3     3377     TIP3     H1       HT       0.417000       1.00800           0
     32577 TIP3     3377     TIP3     H2       HT       0.417000       1.00800           0
     32578 TIP3     3378     TIP3     OH2      OT      -0.834000       15.9994           0
     32579 TIP3     3378     TIP3     H1       HT       0.417000       1.00800           0
     32580 TIP3     3378     TIP3     H2       HT       0.417000       1.00800           0
     32581 TIP3     3379     TIP3     OH2      OT      -0.834000       15.9994           0
     32582 TIP3     3379     TIP3     H1       HT       0.417000       1.00800           0
     32583 TIP3     3379     TIP3     H2       HT       0.417000       1.00800           0
     32584 TIP3     3380     TIP3     OH2      OT      -0.834000       15.9994           0
     32585 TIP3     3380     TIP3     H1       HT       0.417000       1.00800           0
     32586 TIP3     3380     TIP3     H2       HT       0.417000       1.00800           0
     32587 TIP3     3381     TIP3     OH2      OT      -0.834000       15.9994           0
     32588 TIP3     3381     TIP3     H1       HT       0.417000       1.00800           0
     32589 TIP3     3381     TIP3     H2       HT       0.417000       1.00800           0
     32590 TIP3     3382     TIP3     OH2      OT      -0.834000       15.9994           0
     32591 TIP3     3382     TIP3     H1       HT       0.417000       1.00800           0
     32592 TIP3     3382     TIP3     H2       HT       0.417000       1.00800           0
     32593 TIP3     3383     TIP3     OH2      OT      -0.834000       15.9994           0
     32594 TIP3     3383     TIP3     H1       HT       0.417000       1.00800           0
     32595 TIP3     3383     TIP3     H2       HT       0.417000       1.00800           0
     32596 TIP3     3384     TIP3     OH2      OT      -0.834000       15.9994           0
     32597 TIP3     3384     TIP3     H1       HT       0.417000       1.00800           0
     32598 TIP3     3384     TIP3     H2       HT       0.417000       1.00800           0
     32599 TIP3     3385     TIP3     OH2      OT      -0.834000       15.9994           0
     32600 TIP3     3385     TIP3     H1       HT       0.417000       1.00800           0
     32601 TIP3     3385     TIP3     H2       HT       0.417000       1.00800           0
     32602 TIP3     3386     TIP3     OH2      OT      -0.834000       15.9994           0
     32603 TIP3     3386     TIP3     H1       HT       0.417000       1.00800           0
     32604 TIP3     3386     TIP3     H2       HT       0.417000       1.00800           0
     32605 TIP3     3387     TIP3     OH2      OT      -0.834000       15.9994           0
     32606 TIP3     3387     TIP3     H1       HT       0.417000       1.00800           0
     32607 TIP3     3387     TIP3     H2       HT       0.417000       1.00800           0
     32608 TIP3     3388     TIP3     OH2      OT      -0.834000       15.9994           0
     32609 TIP3     3388     TIP3     H1       HT       0.417000       1.00800           0
     32610 TIP3     3388     TIP3     H2       HT       0.417000       1.00800           0
     32611 TIP3     3389     TIP3     OH2      OT      -0.834000       15.9994           0
     32612 TIP3     3389     TIP3     H1       HT       0.417000       1.00800           0
     32613 TIP3     3389     TIP3     H2       HT       0.417000       1.00800           0
     32614 TIP3     3390     TIP3     OH2      OT      -0.834000       15.9994           0
     32615 TIP3     3390     TIP3     H1       HT       0.417000       1.00800           0
     32616 TIP3     3390     TIP3     H2       HT       0.417000       1.00800           0
     32617 TIP3     3391     TIP3     OH2      OT      -0.834000       15.9994           0
     32618 TIP3     3391     TIP3     H1       HT       0.417000       1.00800           0
     32619 TIP3     3391     TIP3     H2       HT       0.417000       1.00800           0
     32620 TIP3     3392     TIP3     OH2      OT      -0.834000       15.9994           0
     32621 TIP3     3392     TIP3     H1       HT       0.417000       1.00800           0
     32622 TIP3     3392     TIP3     H2       HT       0.417000       1.00800           0
     32623 TIP3     3393     TIP3     OH2      OT      -0.834000       15.9994           0
     32624 TIP3     3393     TIP3     H1       HT       0.417000       1.00800           0
     32625 TIP3     3393     TIP3     H2       HT       0.417000       1.00800           0
     32626 TIP3     3394     TIP3     OH2      OT      -0.834000       15.9994           0
     32627 TIP3     3394     TIP3     H1       HT       0.417000       1.00800           0
     32628 TIP3     3394     TIP3     H2       HT       0.417000       1.00800           0
     32629 TIP3     3395     TIP3     OH2      OT      -0.834000       15.9994           0
     32630 TIP3     3395     TIP3     H1       HT       0.417000       1.00800           0
     32631 TIP3     3395     TIP3     H2       HT       0.417000       1.00800           0
     32632 TIP3     3396     TIP3     OH2      OT      -0.834000       15.9994           0
     32633 TIP3     3396     TIP3     H1       HT       0.417000       1.00800           0
     32634 TIP3     3396     TIP3     H2       HT       0.417000       1.00800           0
     32635 TIP3     3397     TIP3     OH2      OT      -0.834000       15.9994           0
     32636 TIP3     3397     TIP3     H1       HT       0.417000       1.00800           0
     32637 TIP3     3397     TIP3     H2       HT       0.417000       1.00800           0
     32638 TIP3     3398     TIP3     OH2      OT      -0.834000       15.9994           0
     32639 TIP3     3398     TIP3     H1       HT       0.417000       1.00800           0
     32640 TIP3     3398     TIP3     H2       HT       0.417000       1.00800           0
     32641 TIP3     3399     TIP3     OH2      OT      -0.834000       15.9994           0
     32642 TIP3     3399     TIP3     H1       HT       0.417000       1.00800           0
     32643 TIP3     3399     TIP3     H2       HT       0.417000       1.00800           0
     32644 TIP3     3400     TIP3     OH2      OT      -0.834000       15.9994           0
     32645 TIP3     3400     TIP3     H1       HT       0.417000       1.00800           0
     32646 TIP3     3400     TIP3     H2       HT       0.417000       1.00800           0
     32647 TIP3     3401     TIP3     OH2      OT      -0.834000       15.9994           0
     32648 TIP3     3401     TIP3     H1       HT       0.417000       1.00800           0
     32649 TIP3     3401     TIP3     H2       HT       0.417000       1.00800           0
     32650 TIP3     3402     TIP3     OH2      OT      -0.834000       15.9994           0
     32651 TIP3     3402     TIP3     H1       HT       0.417000       1.00800           0
     32652 TIP3     3402     TIP3     H2       HT       0.417000       1.00800           0
     32653 TIP3     3403     TIP3     OH2      OT      -0.834000       15.9994           0
     32654 TIP3     3403     TIP3     H1       HT       0.417000       1.00800           0
     32655 TIP3     3403     TIP3     H2       HT       0.417000       1.00800           0
     32656 TIP3     3404     TIP3     OH2      OT      -0.834000       15.9994           0
     32657 TIP3     3404     TIP3     H1       HT       0.417000       1.00800           0
     32658 TIP3     3404     TIP3     H2       HT       0.417000       1.00800           0
     32659 TIP3     3405     TIP3     OH2      OT      -0.834000       15.9994           0
     32660 TIP3     3405     TIP3     H1       HT       0.417000       1.00800           0
     32661 TIP3     3405     TIP3     H2       HT       0.417000       1.00800           0
     32662 TIP3     3406     TIP3     OH2      OT      -0.834000       15.9994           0
     32663 TIP3     3406     TIP3     H1       HT       0.417000       1.00800           0
     32664 TIP3     3406     TIP3     H2       HT       0.417000       1.00800           0
     32665 TIP3     3407     TIP3     OH2      OT      -0.834000       15.9994           0
     32666 TIP3     3407     TIP3     H1       HT       0.417000       1.00800           0
     32667 TIP3     3407     TIP3     H2       HT       0.417000       1.00800           0
     32668 TIP3     3408     TIP3     OH2      OT      -0.834000       15.9994           0
     32669 TIP3     3408     TIP3     H1       HT       0.417000       1.00800           0
     32670 TIP3     3408     TIP3     H2       HT       0.417000       1.00800           0
     32671 TIP3     3409     TIP3     OH2      OT      -0.834000       15.9994           0
     32672 TIP3     3409     TIP3     H1       HT       0.417000       1.00800           0
     32673 TIP3     3409     TIP3     H2       HT       0.417000       1.00800           0
     32674 TIP3     3410     TIP3     OH2      OT      -0.834000       15.9994           0
     32675 TIP3     3410     TIP3     H1       HT       0.417000       1.00800           0
     32676 TIP3     3410     TIP3     H2       HT       0.417000       1.00800           0
     32677 TIP3     3411     TIP3     OH2      OT      -0.834000       15.9994           0
     32678 TIP3     3411     TIP3     H1       HT       0.417000       1.00800           0
     32679 TIP3     3411     TIP3     H2       HT       0.417000       1.00800           0
     32680 TIP3     3412     TIP3     OH2      OT      -0.834000       15.9994           0
     32681 TIP3     3412     TIP3     H1       HT       0.417000       1.00800           0
     32682 TIP3     3412     TIP3     H2       HT       0.417000       1.00800           0
     32683 TIP3     3413     TIP3     OH2      OT      -0.834000       15.9994           0
     32684 TIP3     3413     TIP3     H1       HT       0.417000       1.00800           0
     32685 TIP3     3413     TIP3     H2       HT       0.417000       1.00800           0
     32686 TIP3     3414     TIP3     OH2      OT      -0.834000       15.9994           0
     32687 TIP3     3414     TIP3     H1       HT       0.417000       1.00800           0
     32688 TIP3     3414     TIP3     H2       HT       0.417000       1.00800           0
     32689 TIP3     3415     TIP3     OH2      OT      -0.834000       15.9994           0
     32690 TIP3     3415     TIP3     H1       HT       0.417000       1.00800           0
     32691 TIP3     3415     TIP3     H2       HT       0.417000       1.00800           0
     32692 TIP3     3416     TIP3     OH2      OT      -0.834000       15.9994           0
     32693 TIP3     3416     TIP3     H1       HT       0.417000       1.00800           0
     32694 TIP3     3416     TIP3     H2       HT       0.417000       1.00800           0
     32695 TIP3     3417     TIP3     OH2      OT      -0.834000       15.9994           0
     32696 TIP3     3417     TIP3     H1       HT       0.417000       1.00800           0
     32697 TIP3     3417     TIP3     H2       HT       0.417000       1.00800           0
     32698 TIP3     3418     TIP3     OH2      OT      -0.834000       15.9994           0
     32699 TIP3     3418     TIP3     H1       HT       0.417000       1.00800           0
     32700 TIP3     3418     TIP3     H2       HT       0.417000       1.00800           0
     32701 TIP3     3419     TIP3     OH2      OT      -0.834000       15.9994           0
     32702 TIP3     3419     TIP3     H1       HT       0.417000       1.00800           0
     32703 TIP3     3419     TIP3     H2       HT       0.417000       1.00800           0
     32704 TIP3     3420     TIP3     OH2      OT      -0.834000       15.9994           0
     32705 TIP3     3420     TIP3     H1       HT       0.417000       1.00800           0
     32706 TIP3     3420     TIP3     H2       HT       0.417000       1.00800           0
     32707 TIP3     3421     TIP3     OH2      OT      -0.834000       15.9994           0
     32708 TIP3     3421     TIP3     H1       HT       0.417000       1.00800           0
     32709 TIP3     3421     TIP3     H2       HT       0.417000       1.00800           0
     32710 TIP3     3422     TIP3     OH2      OT      -0.834000       15.9994           0
     32711 TIP3     3422     TIP3     H1       HT       0.417000       1.00800           0
     32712 TIP3     3422     TIP3     H2       HT       0.417000       1.00800           0
     32713 TIP3     3423     TIP3     OH2      OT      -0.834000       15.9994           0
     32714 TIP3     3423     TIP3     H1       HT       0.417000       1.00800           0
     32715 TIP3     3423     TIP3     H2       HT       0.417000       1.00800           0
     32716 TIP3     3424     TIP3     OH2      OT      -0.834000       15.9994           0
     32717 TIP3     3424     TIP3     H1       HT       0.417000       1.00800           0
     32718 TIP3     3424     TIP3     H2       HT       0.417000       1.00800           0
     32719 TIP3     3425     TIP3     OH2      OT      -0.834000       15.9994           0
     32720 TIP3     3425     TIP3     H1       HT       0.417000       1.00800           0
     32721 TIP3     3425     TIP3     H2       HT       0.417000       1.00800           0
     32722 TIP3     3426     TIP3     OH2      OT      -0.834000       15.9994           0
     32723 TIP3     3426     TIP3     H1       HT       0.417000       1.00800           0
     32724 TIP3     3426     TIP3     H2       HT       0.417000       1.00800           0
     32725 TIP3     3427     TIP3     OH2      OT      -0.834000       15.9994           0
     32726 TIP3     3427     TIP3     H1       HT       0.417000       1.00800           0
     32727 TIP3     3427     TIP3     H2       HT       0.417000       1.00800           0
     32728 TIP3     3428     TIP3     OH2      OT      -0.834000       15.9994           0
     32729 TIP3     3428     TIP3     H1       HT       0.417000       1.00800           0
     32730 TIP3     3428     TIP3     H2       HT       0.417000       1.00800           0
     32731 TIP3     3429     TIP3     OH2      OT      -0.834000       15.9994           0
     32732 TIP3     3429     TIP3     H1       HT       0.417000       1.00800           0
     32733 TIP3     3429     TIP3     H2       HT       0.417000       1.00800           0
     32734 TIP3     3430     TIP3     OH2      OT      -0.834000       15.9994           0
     32735 TIP3     3430     TIP3     H1       HT       0.417000       1.00800           0
     32736 TIP3     3430     TIP3     H2       HT       0.417000       1.00800           0
     32737 TIP3     3431     TIP3     OH2      OT      -0.834000       15.9994           0
     32738 TIP3     3431     TIP3     H1       HT       0.417000       1.00800           0
     32739 TIP3     3431     TIP3     H2       HT       0.417000       1.00800           0
     32740 TIP3     3432     TIP3     OH2      OT      -0.834000       15.9994           0
     32741 TIP3     3432     TIP3     H1       HT       0.417000       1.00800           0
     32742 TIP3     3432     TIP3     H2       HT       0.417000       1.00800           0
     32743 TIP3     3433     TIP3     OH2      OT      -0.834000       15.9994           0
     32744 TIP3     3433     TIP3     H1       HT       0.417000       1.00800           0
     32745 TIP3     3433     TIP3     H2       HT       0.417000       1.00800           0
     32746 TIP3     3434     TIP3     OH2      OT      -0.834000       15.9994           0
     32747 TIP3     3434     TIP3     H1       HT       0.417000       1.00800           0
     32748 TIP3     3434     TIP3     H2       HT       0.417000       1.00800           0
     32749 TIP3     3435     TIP3     OH2      OT      -0.834000       15.9994           0
     32750 TIP3     3435     TIP3     H1       HT       0.417000       1.00800           0
     32751 TIP3     3435     TIP3     H2       HT       0.417000       1.00800           0
     32752 TIP3     3436     TIP3     OH2      OT      -0.834000       15.9994           0
     32753 TIP3     3436     TIP3     H1       HT       0.417000       1.00800           0
     32754 TIP3     3436     TIP3     H2       HT       0.417000       1.00800           0
     32755 TIP3     3437     TIP3     OH2      OT      -0.834000       15.9994           0
     32756 TIP3     3437     TIP3     H1       HT       0.417000       1.00800           0
     32757 TIP3     3437     TIP3     H2       HT       0.417000       1.00800           0
     32758 TIP3     3438     TIP3     OH2      OT      -0.834000       15.9994           0
     32759 TIP3     3438     TIP3     H1       HT       0.417000       1.00800           0
     32760 TIP3     3438     TIP3     H2       HT       0.417000       1.00800           0
     32761 TIP3     3439     TIP3     OH2      OT      -0.834000       15.9994           0
     32762 TIP3     3439     TIP3     H1       HT       0.417000       1.00800           0
     32763 TIP3     3439     TIP3     H2       HT       0.417000       1.00800           0
     32764 TIP3     3440     TIP3     OH2      OT      -0.834000       15.9994           0
     32765 TIP3     3440     TIP3     H1       HT       0.417000       1.00800           0
     32766 TIP3     3440     TIP3     H2       HT       0.417000       1.00800           0
     32767 TIP3     3441     TIP3     OH2      OT      -0.834000       15.9994           0
     32768 TIP3     3441     TIP3     H1       HT       0.417000       1.00800           0
     32769 TIP3     3441     TIP3     H2       HT       0.417000       1.00800           0
     32770 TIP3     3442     TIP3     OH2      OT      -0.834000       15.9994           0
     32771 TIP3     3442     TIP3     H1       HT       0.417000       1.00800           0
     32772 TIP3     3442     TIP3     H2       HT       0.417000       1.00800           0
     32773 TIP3     3443     TIP3     OH2      OT      -0.834000       15.9994           0
     32774 TIP3     3443     TIP3     H1       HT       0.417000       1.00800           0
     32775 TIP3     3443     TIP3     H2       HT       0.417000       1.00800           0
     32776 TIP3     3444     TIP3     OH2      OT      -0.834000       15.9994           0
     32777 TIP3     3444     TIP3     H1       HT       0.417000       1.00800           0
     32778 TIP3     3444     TIP3     H2       HT       0.417000       1.00800           0
     32779 TIP3     3445     TIP3     OH2      OT      -0.834000       15.9994           0
     32780 TIP3     3445     TIP3     H1       HT       0.417000       1.00800           0
     32781 TIP3     3445     TIP3     H2       HT       0.417000       1.00800           0
     32782 TIP3     3446     TIP3     OH2      OT      -0.834000       15.9994           0
     32783 TIP3     3446     TIP3     H1       HT       0.417000       1.00800           0
     32784 TIP3     3446     TIP3     H2       HT       0.417000       1.00800           0
     32785 TIP3     3447     TIP3     OH2      OT      -0.834000       15.9994           0
     32786 TIP3     3447     TIP3     H1       HT       0.417000       1.00800           0
     32787 TIP3     3447     TIP3     H2       HT       0.417000       1.00800           0
     32788 TIP3     3448     TIP3     OH2      OT      -0.834000       15.9994           0
     32789 TIP3     3448     TIP3     H1       HT       0.417000       1.00800           0
     32790 TIP3     3448     TIP3     H2       HT       0.417000       1.00800           0
     32791 TIP3     3449     TIP3     OH2      OT      -0.834000       15.9994           0
     32792 TIP3     3449     TIP3     H1       HT       0.417000       1.00800           0
     32793 TIP3     3449     TIP3     H2       HT       0.417000       1.00800           0
     32794 TIP3     3450     TIP3     OH2      OT      -0.834000       15.9994           0
     32795 TIP3     3450     TIP3     H1       HT       0.417000       1.00800           0
     32796 TIP3     3450     TIP3     H2       HT       0.417000       1.00800           0
     32797 TIP3     3451     TIP3     OH2      OT      -0.834000       15.9994           0
     32798 TIP3     3451     TIP3     H1       HT       0.417000       1.00800           0
     32799 TIP3     3451     TIP3     H2       HT       0.417000       1.00800           0
     32800 TIP3     3452     TIP3     OH2      OT      -0.834000       15.9994           0
     32801 TIP3     3452     TIP3     H1       HT       0.417000       1.00800           0
     32802 TIP3     3452     TIP3     H2       HT       0.417000       1.00800           0
     32803 TIP3     3453     TIP3     OH2      OT      -0.834000       15.9994           0
     32804 TIP3     3453     TIP3     H1       HT       0.417000       1.00800           0
     32805 TIP3     3453     TIP3     H2       HT       0.417000       1.00800           0
     32806 TIP3     3454     TIP3     OH2      OT      -0.834000       15.9994           0
     32807 TIP3     3454     TIP3     H1       HT       0.417000       1.00800           0
     32808 TIP3     3454     TIP3     H2       HT       0.417000       1.00800           0
     32809 TIP3     3455     TIP3     OH2      OT      -0.834000       15.9994           0
     32810 TIP3     3455     TIP3     H1       HT       0.417000       1.00800           0
     32811 TIP3     3455     TIP3     H2       HT       0.417000       1.00800           0
     32812 TIP3     3456     TIP3     OH2      OT      -0.834000       15.9994           0
     32813 TIP3     3456     TIP3     H1       HT       0.417000       1.00800           0
     32814 TIP3     3456     TIP3     H2       HT       0.417000       1.00800           0
     32815 TIP3     3457     TIP3     OH2      OT      -0.834000       15.9994           0
     32816 TIP3     3457     TIP3     H1       HT       0.417000       1.00800           0
     32817 TIP3     3457     TIP3     H2       HT       0.417000       1.00800           0
     32818 TIP3     3458     TIP3     OH2      OT      -0.834000       15.9994           0
     32819 TIP3     3458     TIP3     H1       HT       0.417000       1.00800           0
     32820 TIP3     3458     TIP3     H2       HT       0.417000       1.00800           0
     32821 TIP3     3459     TIP3     OH2      OT      -0.834000       15.9994           0
     32822 TIP3     3459     TIP3     H1       HT       0.417000       1.00800           0
     32823 TIP3     3459     TIP3     H2       HT       0.417000       1.00800           0
     32824 TIP3     3460     TIP3     OH2      OT      -0.834000       15.9994           0
     32825 TIP3     3460     TIP3     H1       HT       0.417000       1.00800           0
     32826 TIP3     3460     TIP3     H2       HT       0.417000       1.00800           0
     32827 TIP3     3461     TIP3     OH2      OT      -0.834000       15.9994           0
     32828 TIP3     3461     TIP3     H1       HT       0.417000       1.00800           0
     32829 TIP3     3461     TIP3     H2       HT       0.417000       1.00800           0
     32830 TIP3     3462     TIP3     OH2      OT      -0.834000       15.9994           0
     32831 TIP3     3462     TIP3     H1       HT       0.417000       1.00800           0
     32832 TIP3     3462     TIP3     H2       HT       0.417000       1.00800           0
     32833 TIP3     3463     TIP3     OH2      OT      -0.834000       15.9994           0
     32834 TIP3     3463     TIP3     H1       HT       0.417000       1.00800           0
     32835 TIP3     3463     TIP3     H2       HT       0.417000       1.00800           0
     32836 TIP3     3464     TIP3     OH2      OT      -0.834000       15.9994           0
     32837 TIP3     3464     TIP3     H1       HT       0.417000       1.00800           0
     32838 TIP3     3464     TIP3     H2       HT       0.417000       1.00800           0
     32839 TIP3     3465     TIP3     OH2      OT      -0.834000       15.9994           0
     32840 TIP3     3465     TIP3     H1       HT       0.417000       1.00800           0
     32841 TIP3     3465     TIP3     H2       HT       0.417000       1.00800           0
     32842 TIP3     3466     TIP3     OH2      OT      -0.834000       15.9994           0
     32843 TIP3     3466     TIP3     H1       HT       0.417000       1.00800           0
     32844 TIP3     3466     TIP3     H2       HT       0.417000       1.00800           0
     32845 TIP3     3467     TIP3     OH2      OT      -0.834000       15.9994           0
     32846 TIP3     3467     TIP3     H1       HT       0.417000       1.00800           0
     32847 TIP3     3467     TIP3     H2       HT       0.417000       1.00800           0
     32848 TIP3     3468     TIP3     OH2      OT      -0.834000       15.9994           0
     32849 TIP3     3468     TIP3     H1       HT       0.417000       1.00800           0
     32850 TIP3     3468     TIP3     H2       HT       0.417000       1.00800           0
     32851 TIP3     3469     TIP3     OH2      OT      -0.834000       15.9994           0
     32852 TIP3     3469     TIP3     H1       HT       0.417000       1.00800           0
     32853 TIP3     3469     TIP3     H2       HT       0.417000       1.00800           0
     32854 TIP3     3470     TIP3     OH2      OT      -0.834000       15.9994           0
     32855 TIP3     3470     TIP3     H1       HT       0.417000       1.00800           0
     32856 TIP3     3470     TIP3     H2       HT       0.417000       1.00800           0
     32857 TIP3     3471     TIP3     OH2      OT      -0.834000       15.9994           0
     32858 TIP3     3471     TIP3     H1       HT       0.417000       1.00800           0
     32859 TIP3     3471     TIP3     H2       HT       0.417000       1.00800           0
     32860 TIP3     3472     TIP3     OH2      OT      -0.834000       15.9994           0
     32861 TIP3     3472     TIP3     H1       HT       0.417000       1.00800           0
     32862 TIP3     3472     TIP3     H2       HT       0.417000       1.00800           0
     32863 TIP3     3473     TIP3     OH2      OT      -0.834000       15.9994           0
     32864 TIP3     3473     TIP3     H1       HT       0.417000       1.00800           0
     32865 TIP3     3473     TIP3     H2       HT       0.417000       1.00800           0
     32866 TIP3     3474     TIP3     OH2      OT      -0.834000       15.9994           0
     32867 TIP3     3474     TIP3     H1       HT       0.417000       1.00800           0
     32868 TIP3     3474     TIP3     H2       HT       0.417000       1.00800           0
     32869 TIP3     3475     TIP3     OH2      OT      -0.834000       15.9994           0
     32870 TIP3     3475     TIP3     H1       HT       0.417000       1.00800           0
     32871 TIP3     3475     TIP3     H2       HT       0.417000       1.00800           0
     32872 TIP3     3476     TIP3     OH2      OT      -0.834000       15.9994           0
     32873 TIP3     3476     TIP3     H1       HT       0.417000       1.00800           0
     32874 TIP3     3476     TIP3     H2       HT       0.417000       1.00800           0
     32875 TIP3     3477     TIP3     OH2      OT      -0.834000       15.9994           0
     32876 TIP3     3477     TIP3     H1       HT       0.417000       1.00800           0
     32877 TIP3     3477     TIP3     H2       HT       0.417000       1.00800           0
     32878 TIP3     3478     TIP3     OH2      OT      -0.834000       15.9994           0
     32879 TIP3     3478     TIP3     H1       HT       0.417000       1.00800           0
     32880 TIP3     3478     TIP3     H2       HT       0.417000       1.00800           0
     32881 TIP3     3479     TIP3     OH2      OT      -0.834000       15.9994           0
     32882 TIP3     3479     TIP3     H1       HT       0.417000       1.00800           0
     32883 TIP3     3479     TIP3     H2       HT       0.417000       1.00800           0
     32884 TIP3     3480     TIP3     OH2      OT      -0.834000       15.9994           0
     32885 TIP3     3480     TIP3     H1       HT       0.417000       1.00800           0
     32886 TIP3     3480     TIP3     H2       HT       0.417000       1.00800           0
     32887 TIP3     3481     TIP3     OH2      OT      -0.834000       15.9994           0
     32888 TIP3     3481     TIP3     H1       HT       0.417000       1.00800           0
     32889 TIP3     3481     TIP3     H2       HT       0.417000       1.00800           0
     32890 TIP3     3482     TIP3     OH2      OT      -0.834000       15.9994           0
     32891 TIP3     3482     TIP3     H1       HT       0.417000       1.00800           0
     32892 TIP3     3482     TIP3     H2       HT       0.417000       1.00800           0
     32893 TIP3     3483     TIP3     OH2      OT      -0.834000       15.9994           0
     32894 TIP3     3483     TIP3     H1       HT       0.417000       1.00800           0
     32895 TIP3     3483     TIP3     H2       HT       0.417000       1.00800           0
     32896 TIP3     3484     TIP3     OH2      OT      -0.834000       15.9994           0
     32897 TIP3     3484     TIP3     H1       HT       0.417000       1.00800           0
     32898 TIP3     3484     TIP3     H2       HT       0.417000       1.00800           0
     32899 TIP3     3485     TIP3     OH2      OT      -0.834000       15.9994           0
     32900 TIP3     3485     TIP3     H1       HT       0.417000       1.00800           0
     32901 TIP3     3485     TIP3     H2       HT       0.417000       1.00800           0
     32902 TIP3     3486     TIP3     OH2      OT      -0.834000       15.9994           0
     32903 TIP3     3486     TIP3     H1       HT       0.417000       1.00800           0
     32904 TIP3     3486     TIP3     H2       HT       0.417000       1.00800           0
     32905 TIP3     3487     TIP3     OH2      OT      -0.834000       15.9994           0
     32906 TIP3     3487     TIP3     H1       HT       0.417000       1.00800           0
     32907 TIP3     3487     TIP3     H2       HT       0.417000       1.00800           0
     32908 TIP3     3488     TIP3     OH2      OT      -0.834000       15.9994           0
     32909 TIP3     3488     TIP3     H1       HT       0.417000       1.00800           0
     32910 TIP3     3488     TIP3     H2       HT       0.417000       1.00800           0
     32911 TIP3     3489     TIP3     OH2      OT      -0.834000       15.9994           0
     32912 TIP3     3489     TIP3     H1       HT       0.417000       1.00800           0
     32913 TIP3     3489     TIP3     H2       HT       0.417000       1.00800           0
     32914 TIP3     3490     TIP3     OH2      OT      -0.834000       15.9994           0
     32915 TIP3     3490     TIP3     H1       HT       0.417000       1.00800           0
     32916 TIP3     3490     TIP3     H2       HT       0.417000       1.00800           0
     32917 TIP3     3491     TIP3     OH2      OT      -0.834000       15.9994           0
     32918 TIP3     3491     TIP3     H1       HT       0.417000       1.00800           0
     32919 TIP3     3491     TIP3     H2       HT       0.417000       1.00800           0
     32920 TIP3     3492     TIP3     OH2      OT      -0.834000       15.9994           0
     32921 TIP3     3492     TIP3     H1       HT       0.417000       1.00800           0
     32922 TIP3     3492     TIP3     H2       HT       0.417000       1.00800           0
     32923 TIP3     3493     TIP3     OH2      OT      -0.834000       15.9994           0
     32924 TIP3     3493     TIP3     H1       HT       0.417000       1.00800           0
     32925 TIP3     3493     TIP3     H2       HT       0.417000       1.00800           0
     32926 TIP3     3494     TIP3     OH2      OT      -0.834000       15.9994           0
     32927 TIP3     3494     TIP3     H1       HT       0.417000       1.00800           0
     32928 TIP3     3494     TIP3     H2       HT       0.417000       1.00800           0
     32929 TIP3     3495     TIP3     OH2      OT      -0.834000       15.9994           0
     32930 TIP3     3495     TIP3     H1       HT       0.417000       1.00800           0
     32931 TIP3     3495     TIP3     H2       HT       0.417000       1.00800           0
     32932 TIP3     3496     TIP3     OH2      OT      -0.834000       15.9994           0
     32933 TIP3     3496     TIP3     H1       HT       0.417000       1.00800           0
     32934 TIP3     3496     TIP3     H2       HT       0.417000       1.00800           0
     32935 TIP3     3497     TIP3     OH2      OT      -0.834000       15.9994           0
     32936 TIP3     3497     TIP3     H1       HT       0.417000       1.00800           0
     32937 TIP3     3497     TIP3     H2       HT       0.417000       1.00800           0
     32938 TIP3     3498     TIP3     OH2      OT      -0.834000       15.9994           0
     32939 TIP3     3498     TIP3     H1       HT       0.417000       1.00800           0
     32940 TIP3     3498     TIP3     H2       HT       0.417000       1.00800           0
     32941 TIP3     3499     TIP3     OH2      OT      -0.834000       15.9994           0
     32942 TIP3     3499     TIP3     H1       HT       0.417000       1.00800           0
     32943 TIP3     3499     TIP3     H2       HT       0.417000       1.00800           0
     32944 TIP3     3500     TIP3     OH2      OT      -0.834000       15.9994           0
     32945 TIP3     3500     TIP3     H1       HT       0.417000       1.00800           0
     32946 TIP3     3500     TIP3     H2       HT       0.417000       1.00800           0
     32947 TIP3     3501     TIP3     OH2      OT      -0.834000       15.9994           0
     32948 TIP3     3501     TIP3     H1       HT       0.417000       1.00800           0
     32949 TIP3     3501     TIP3     H2       HT       0.417000       1.00800           0
     32950 TIP3     3502     TIP3     OH2      OT      -0.834000       15.9994           0
     32951 TIP3     3502     TIP3     H1       HT       0.417000       1.00800           0
     32952 TIP3     3502     TIP3     H2       HT       0.417000       1.00800           0
     32953 TIP3     3503     TIP3     OH2      OT      -0.834000       15.9994           0
     32954 TIP3     3503     TIP3     H1       HT       0.417000       1.00800           0
     32955 TIP3     3503     TIP3     H2       HT       0.417000       1.00800           0
     32956 TIP3     3504     TIP3     OH2      OT      -0.834000       15.9994           0
     32957 TIP3     3504     TIP3     H1       HT       0.417000       1.00800           0
     32958 TIP3     3504     TIP3     H2       HT       0.417000       1.00800           0
     32959 TIP3     3505     TIP3     OH2      OT      -0.834000       15.9994           0
     32960 TIP3     3505     TIP3     H1       HT       0.417000       1.00800           0
     32961 TIP3     3505     TIP3     H2       HT       0.417000       1.00800           0
     32962 TIP3     3506     TIP3     OH2      OT      -0.834000       15.9994           0
     32963 TIP3     3506     TIP3     H1       HT       0.417000       1.00800           0
     32964 TIP3     3506     TIP3     H2       HT       0.417000       1.00800           0
     32965 TIP3     3507     TIP3     OH2      OT      -0.834000       15.9994           0
     32966 TIP3     3507     TIP3     H1       HT       0.417000       1.00800           0
     32967 TIP3     3507     TIP3     H2       HT       0.417000       1.00800           0
     32968 TIP3     3508     TIP3     OH2      OT      -0.834000       15.9994           0
     32969 TIP3     3508     TIP3     H1       HT       0.417000       1.00800           0
     32970 TIP3     3508     TIP3     H2       HT       0.417000       1.00800           0
     32971 TIP3     3509     TIP3     OH2      OT      -0.834000       15.9994           0
     32972 TIP3     3509     TIP3     H1       HT       0.417000       1.00800           0
     32973 TIP3     3509     TIP3     H2       HT       0.417000       1.00800           0
     32974 TIP3     3510     TIP3     OH2      OT      -0.834000       15.9994           0
     32975 TIP3     3510     TIP3     H1       HT       0.417000       1.00800           0
     32976 TIP3     3510     TIP3     H2       HT       0.417000       1.00800           0
     32977 TIP3     3511     TIP3     OH2      OT      -0.834000       15.9994           0
     32978 TIP3     3511     TIP3     H1       HT       0.417000       1.00800           0
     32979 TIP3     3511     TIP3     H2       HT       0.417000       1.00800           0
     32980 TIP3     3512     TIP3     OH2      OT      -0.834000       15.9994           0
     32981 TIP3     3512     TIP3     H1       HT       0.417000       1.00800           0
     32982 TIP3     3512     TIP3     H2       HT       0.417000       1.00800           0
     32983 TIP3     3513     TIP3     OH2      OT      -0.834000       15.9994           0
     32984 TIP3     3513     TIP3     H1       HT       0.417000       1.00800           0
     32985 TIP3     3513     TIP3     H2       HT       0.417000       1.00800           0
     32986 TIP3     3514     TIP3     OH2      OT      -0.834000       15.9994           0
     32987 TIP3     3514     TIP3     H1       HT       0.417000       1.00800           0
     32988 TIP3     3514     TIP3     H2       HT       0.417000       1.00800           0
     32989 TIP3     3515     TIP3     OH2      OT      -0.834000       15.9994           0
     32990 TIP3     3515     TIP3     H1       HT       0.417000       1.00800           0
     32991 TIP3     3515     TIP3     H2       HT       0.417000       1.00800           0
     32992 TIP3     3516     TIP3     OH2      OT      -0.834000       15.9994           0
     32993 TIP3     3516     TIP3     H1       HT       0.417000       1.00800           0
     32994 TIP3     3516     TIP3     H2       HT       0.417000       1.00800           0
     32995 TIP3     3517     TIP3     OH2      OT      -0.834000       15.9994           0
     32996 TIP3     3517     TIP3     H1       HT       0.417000       1.00800           0
     32997 TIP3     3517     TIP3     H2       HT       0.417000       1.00800           0
     32998 TIP3     3518     TIP3     OH2      OT      -0.834000       15.9994           0
     32999 TIP3     3518     TIP3     H1       HT       0.417000       1.00800           0
     33000 TIP3     3518     TIP3     H2       HT       0.417000       1.00800           0
     33001 TIP3     3519     TIP3     OH2      OT      -0.834000       15.9994           0
     33002 TIP3     3519     TIP3     H1       HT       0.417000       1.00800           0
     33003 TIP3     3519     TIP3     H2       HT       0.417000       1.00800           0
     33004 TIP3     3520     TIP3     OH2      OT      -0.834000       15.9994           0
     33005 TIP3     3520     TIP3     H1       HT       0.417000       1.00800           0
     33006 TIP3     3520     TIP3     H2       HT       0.417000       1.00800           0
     33007 TIP3     3521     TIP3     OH2      OT      -0.834000       15.9994           0
     33008 TIP3     3521     TIP3     H1       HT       0.417000       1.00800           0
     33009 TIP3     3521     TIP3     H2       HT       0.417000       1.00800           0
     33010 TIP3     3522     TIP3     OH2      OT      -0.834000       15.9994           0
     33011 TIP3     3522     TIP3     H1       HT       0.417000       1.00800           0
     33012 TIP3     3522     TIP3     H2       HT       0.417000       1.00800           0
     33013 TIP3     3523     TIP3     OH2      OT      -0.834000       15.9994           0
     33014 TIP3     3523     TIP3     H1       HT       0.417000       1.00800           0
     33015 TIP3     3523     TIP3     H2       HT       0.417000       1.00800           0
     33016 TIP3     3524     TIP3     OH2      OT      -0.834000       15.9994           0
     33017 TIP3     3524     TIP3     H1       HT       0.417000       1.00800           0
     33018 TIP3     3524     TIP3     H2       HT       0.417000       1.00800           0
     33019 TIP3     3525     TIP3     OH2      OT      -0.834000       15.9994           0
     33020 TIP3     3525     TIP3     H1       HT       0.417000       1.00800           0
     33021 TIP3     3525     TIP3     H2       HT       0.417000       1.00800           0
     33022 TIP3     3526     TIP3     OH2      OT      -0.834000       15.9994           0
     33023 TIP3     3526     TIP3     H1       HT       0.417000       1.00800           0
     33024 TIP3     3526     TIP3     H2       HT       0.417000       1.00800           0
     33025 TIP3     3527     TIP3     OH2      OT      -0.834000       15.9994           0
     33026 TIP3     3527     TIP3     H1       HT       0.417000       1.00800           0
     33027 TIP3     3527     TIP3     H2       HT       0.417000       1.00800           0
     33028 TIP3     3528     TIP3     OH2      OT      -0.834000       15.9994           0
     33029 TIP3     3528     TIP3     H1       HT       0.417000       1.00800           0
     33030 TIP3     3528     TIP3     H2       HT       0.417000       1.00800           0
     33031 TIP3     3529     TIP3     OH2      OT      -0.834000       15.9994           0
     33032 TIP3     3529     TIP3     H1       HT       0.417000       1.00800           0
     33033 TIP3     3529     TIP3     H2       HT       0.417000       1.00800           0
     33034 TIP3     3530     TIP3     OH2      OT      -0.834000       15.9994           0
     33035 TIP3     3530     TIP3     H1       HT       0.417000       1.00800           0
     33036 TIP3     3530     TIP3     H2       HT       0.417000       1.00800           0
     33037 TIP3     3531     TIP3     OH2      OT      -0.834000       15.9994           0
     33038 TIP3     3531     TIP3     H1       HT       0.417000       1.00800           0
     33039 TIP3     3531     TIP3     H2       HT       0.417000       1.00800           0
     33040 TIP3     3532     TIP3     OH2      OT      -0.834000       15.9994           0
     33041 TIP3     3532     TIP3     H1       HT       0.417000       1.00800           0
     33042 TIP3     3532     TIP3     H2       HT       0.417000       1.00800           0
     33043 TIP3     3533     TIP3     OH2      OT      -0.834000       15.9994           0
     33044 TIP3     3533     TIP3     H1       HT       0.417000       1.00800           0
     33045 TIP3     3533     TIP3     H2       HT       0.417000       1.00800           0
     33046 TIP3     3534     TIP3     OH2      OT      -0.834000       15.9994           0
     33047 TIP3     3534     TIP3     H1       HT       0.417000       1.00800           0
     33048 TIP3     3534     TIP3     H2       HT       0.417000       1.00800           0
     33049 TIP3     3535     TIP3     OH2      OT      -0.834000       15.9994           0
     33050 TIP3     3535     TIP3     H1       HT       0.417000       1.00800           0
     33051 TIP3     3535     TIP3     H2       HT       0.417000       1.00800           0
     33052 TIP3     3536     TIP3     OH2      OT      -0.834000       15.9994           0
     33053 TIP3     3536     TIP3     H1       HT       0.417000       1.00800           0
     33054 TIP3     3536     TIP3     H2       HT       0.417000       1.00800           0
     33055 TIP3     3537     TIP3     OH2      OT      -0.834000       15.9994           0
     33056 TIP3     3537     TIP3     H1       HT       0.417000       1.00800           0
     33057 TIP3     3537     TIP3     H2       HT       0.417000       1.00800           0
     33058 TIP3     3538     TIP3     OH2      OT      -0.834000       15.9994           0
     33059 TIP3     3538     TIP3     H1       HT       0.417000       1.00800           0
     33060 TIP3     3538     TIP3     H2       HT       0.417000       1.00800           0
     33061 TIP3     3539     TIP3     OH2      OT      -0.834000       15.9994           0
     33062 TIP3     3539     TIP3     H1       HT       0.417000       1.00800           0
     33063 TIP3     3539     TIP3     H2       HT       0.417000       1.00800           0
     33064 TIP3     3540     TIP3     OH2      OT      -0.834000       15.9994           0
     33065 TIP3     3540     TIP3     H1       HT       0.417000       1.00800           0
     33066 TIP3     3540     TIP3     H2       HT       0.417000       1.00800           0
     33067 TIP3     3541     TIP3     OH2      OT      -0.834000       15.9994           0
     33068 TIP3     3541     TIP3     H1       HT       0.417000       1.00800           0
     33069 TIP3     3541     TIP3     H2       HT       0.417000       1.00800           0
     33070 TIP3     3542     TIP3     OH2      OT      -0.834000       15.9994           0
     33071 TIP3     3542     TIP3     H1       HT       0.417000       1.00800           0
     33072 TIP3     3542     TIP3     H2       HT       0.417000       1.00800           0
     33073 TIP3     3543     TIP3     OH2      OT      -0.834000       15.9994           0
     33074 TIP3     3543     TIP3     H1       HT       0.417000       1.00800           0
     33075 TIP3     3543     TIP3     H2       HT       0.417000       1.00800           0
     33076 TIP3     3544     TIP3     OH2      OT      -0.834000       15.9994           0
     33077 TIP3     3544     TIP3     H1       HT       0.417000       1.00800           0
     33078 TIP3     3544     TIP3     H2       HT       0.417000       1.00800           0
     33079 TIP3     3545     TIP3     OH2      OT      -0.834000       15.9994           0
     33080 TIP3     3545     TIP3     H1       HT       0.417000       1.00800           0
     33081 TIP3     3545     TIP3     H2       HT       0.417000       1.00800           0
     33082 TIP3     3546     TIP3     OH2      OT      -0.834000       15.9994           0
     33083 TIP3     3546     TIP3     H1       HT       0.417000       1.00800           0
     33084 TIP3     3546     TIP3     H2       HT       0.417000       1.00800           0
     33085 TIP3     3547     TIP3     OH2      OT      -0.834000       15.9994           0
     33086 TIP3     3547     TIP3     H1       HT       0.417000       1.00800           0
     33087 TIP3     3547     TIP3     H2       HT       0.417000       1.00800           0
     33088 TIP3     3548     TIP3     OH2      OT      -0.834000       15.9994           0
     33089 TIP3     3548     TIP3     H1       HT       0.417000       1.00800           0
     33090 TIP3     3548     TIP3     H2       HT       0.417000       1.00800           0
     33091 TIP3     3549     TIP3     OH2      OT      -0.834000       15.9994           0
     33092 TIP3     3549     TIP3     H1       HT       0.417000       1.00800           0
     33093 TIP3     3549     TIP3     H2       HT       0.417000       1.00800           0
     33094 TIP3     3550     TIP3     OH2      OT      -0.834000       15.9994           0
     33095 TIP3     3550     TIP3     H1       HT       0.417000       1.00800           0
     33096 TIP3     3550     TIP3     H2       HT       0.417000       1.00800           0
     33097 TIP3     3551     TIP3     OH2      OT      -0.834000       15.9994           0
     33098 TIP3     3551     TIP3     H1       HT       0.417000       1.00800           0
     33099 TIP3     3551     TIP3     H2       HT       0.417000       1.00800           0
     33100 TIP3     3552     TIP3     OH2      OT      -0.834000       15.9994           0
     33101 TIP3     3552     TIP3     H1       HT       0.417000       1.00800           0
     33102 TIP3     3552     TIP3     H2       HT       0.417000       1.00800           0
     33103 TIP3     3553     TIP3     OH2      OT      -0.834000       15.9994           0
     33104 TIP3     3553     TIP3     H1       HT       0.417000       1.00800           0
     33105 TIP3     3553     TIP3     H2       HT       0.417000       1.00800           0
     33106 TIP3     3554     TIP3     OH2      OT      -0.834000       15.9994           0
     33107 TIP3     3554     TIP3     H1       HT       0.417000       1.00800           0
     33108 TIP3     3554     TIP3     H2       HT       0.417000       1.00800           0
     33109 TIP3     3555     TIP3     OH2      OT      -0.834000       15.9994           0
     33110 TIP3     3555     TIP3     H1       HT       0.417000       1.00800           0
     33111 TIP3     3555     TIP3     H2       HT       0.417000       1.00800           0
     33112 TIP3     3556     TIP3     OH2      OT      -0.834000       15.9994           0
     33113 TIP3     3556     TIP3     H1       HT       0.417000       1.00800           0
     33114 TIP3     3556     TIP3     H2       HT       0.417000       1.00800           0
     33115 TIP3     3557     TIP3     OH2      OT      -0.834000       15.9994           0
     33116 TIP3     3557     TIP3     H1       HT       0.417000       1.00800           0
     33117 TIP3     3557     TIP3     H2       HT       0.417000       1.00800           0
     33118 TIP3     3558     TIP3     OH2      OT      -0.834000       15.9994           0
     33119 TIP3     3558     TIP3     H1       HT       0.417000       1.00800           0
     33120 TIP3     3558     TIP3     H2       HT       0.417000       1.00800           0
     33121 TIP3     3559     TIP3     OH2      OT      -0.834000       15.9994           0
     33122 TIP3     3559     TIP3     H1       HT       0.417000       1.00800           0
     33123 TIP3     3559     TIP3     H2       HT       0.417000       1.00800           0
     33124 TIP3     3560     TIP3     OH2      OT      -0.834000       15.9994           0
     33125 TIP3     3560     TIP3     H1       HT       0.417000       1.00800           0
     33126 TIP3     3560     TIP3     H2       HT       0.417000       1.00800           0
     33127 TIP3     3561     TIP3     OH2      OT      -0.834000       15.9994           0
     33128 TIP3     3561     TIP3     H1       HT       0.417000       1.00800           0
     33129 TIP3     3561     TIP3     H2       HT       0.417000       1.00800           0
     33130 TIP3     3562     TIP3     OH2      OT      -0.834000       15.9994           0
     33131 TIP3     3562     TIP3     H1       HT       0.417000       1.00800           0
     33132 TIP3     3562     TIP3     H2       HT       0.417000       1.00800           0
     33133 TIP3     3563     TIP3     OH2      OT      -0.834000       15.9994           0
     33134 TIP3     3563     TIP3     H1       HT       0.417000       1.00800           0
     33135 TIP3     3563     TIP3     H2       HT       0.417000       1.00800           0
     33136 TIP3     3564     TIP3     OH2      OT      -0.834000       15.9994           0
     33137 TIP3     3564     TIP3     H1       HT       0.417000       1.00800           0
     33138 TIP3     3564     TIP3     H2       HT       0.417000       1.00800           0
     33139 TIP3     3565     TIP3     OH2      OT      -0.834000       15.9994           0
     33140 TIP3     3565     TIP3     H1       HT       0.417000       1.00800           0
     33141 TIP3     3565     TIP3     H2       HT       0.417000       1.00800           0
     33142 TIP3     3566     TIP3     OH2      OT      -0.834000       15.9994           0
     33143 TIP3     3566     TIP3     H1       HT       0.417000       1.00800           0
     33144 TIP3     3566     TIP3     H2       HT       0.417000       1.00800           0
     33145 TIP3     3567     TIP3     OH2      OT      -0.834000       15.9994           0
     33146 TIP3     3567     TIP3     H1       HT       0.417000       1.00800           0
     33147 TIP3     3567     TIP3     H2       HT       0.417000       1.00800           0
     33148 TIP3     3568     TIP3     OH2      OT      -0.834000       15.9994           0
     33149 TIP3     3568     TIP3     H1       HT       0.417000       1.00800           0
     33150 TIP3     3568     TIP3     H2       HT       0.417000       1.00800           0
     33151 TIP3     3569     TIP3     OH2      OT      -0.834000       15.9994           0
     33152 TIP3     3569     TIP3     H1       HT       0.417000       1.00800           0
     33153 TIP3     3569     TIP3     H2       HT       0.417000       1.00800           0
     33154 TIP3     3570     TIP3     OH2      OT      -0.834000       15.9994           0
     33155 TIP3     3570     TIP3     H1       HT       0.417000       1.00800           0
     33156 TIP3     3570     TIP3     H2       HT       0.417000       1.00800           0
     33157 TIP3     3571     TIP3     OH2      OT      -0.834000       15.9994           0
     33158 TIP3     3571     TIP3     H1       HT       0.417000       1.00800           0
     33159 TIP3     3571     TIP3     H2       HT       0.417000       1.00800           0
     33160 TIP3     3572     TIP3     OH2      OT      -0.834000       15.9994           0
     33161 TIP3     3572     TIP3     H1       HT       0.417000       1.00800           0
     33162 TIP3     3572     TIP3     H2       HT       0.417000       1.00800           0
     33163 TIP3     3573     TIP3     OH2      OT      -0.834000       15.9994           0
     33164 TIP3     3573     TIP3     H1       HT       0.417000       1.00800           0
     33165 TIP3     3573     TIP3     H2       HT       0.417000       1.00800           0
     33166 TIP3     3574     TIP3     OH2      OT      -0.834000       15.9994           0
     33167 TIP3     3574     TIP3     H1       HT       0.417000       1.00800           0
     33168 TIP3     3574     TIP3     H2       HT       0.417000       1.00800           0
     33169 TIP3     3575     TIP3     OH2      OT      -0.834000       15.9994           0
     33170 TIP3     3575     TIP3     H1       HT       0.417000       1.00800           0
     33171 TIP3     3575     TIP3     H2       HT       0.417000       1.00800           0
     33172 TIP3     3576     TIP3     OH2      OT      -0.834000       15.9994           0
     33173 TIP3     3576     TIP3     H1       HT       0.417000       1.00800           0
     33174 TIP3     3576     TIP3     H2       HT       0.417000       1.00800           0
     33175 TIP3     3577     TIP3     OH2      OT      -0.834000       15.9994           0
     33176 TIP3     3577     TIP3     H1       HT       0.417000       1.00800           0
     33177 TIP3     3577     TIP3     H2       HT       0.417000       1.00800           0
     33178 TIP3     3578     TIP3     OH2      OT      -0.834000       15.9994           0
     33179 TIP3     3578     TIP3     H1       HT       0.417000       1.00800           0
     33180 TIP3     3578     TIP3     H2       HT       0.417000       1.00800           0
     33181 TIP3     3579     TIP3     OH2      OT      -0.834000       15.9994           0
     33182 TIP3     3579     TIP3     H1       HT       0.417000       1.00800           0
     33183 TIP3     3579     TIP3     H2       HT       0.417000       1.00800           0
     33184 TIP3     3580     TIP3     OH2      OT      -0.834000       15.9994           0
     33185 TIP3     3580     TIP3     H1       HT       0.417000       1.00800           0
     33186 TIP3     3580     TIP3     H2       HT       0.417000       1.00800           0
     33187 TIP3     3581     TIP3     OH2      OT      -0.834000       15.9994           0
     33188 TIP3     3581     TIP3     H1       HT       0.417000       1.00800           0
     33189 TIP3     3581     TIP3     H2       HT       0.417000       1.00800           0
     33190 TIP3     3582     TIP3     OH2      OT      -0.834000       15.9994           0
     33191 TIP3     3582     TIP3     H1       HT       0.417000       1.00800           0
     33192 TIP3     3582     TIP3     H2       HT       0.417000       1.00800           0
     33193 TIP3     3583     TIP3     OH2      OT      -0.834000       15.9994           0
     33194 TIP3     3583     TIP3     H1       HT       0.417000       1.00800           0
     33195 TIP3     3583     TIP3     H2       HT       0.417000       1.00800           0
     33196 TIP3     3584     TIP3     OH2      OT      -0.834000       15.9994           0
     33197 TIP3     3584     TIP3     H1       HT       0.417000       1.00800           0
     33198 TIP3     3584     TIP3     H2       HT       0.417000       1.00800           0
     33199 TIP3     3585     TIP3     OH2      OT      -0.834000       15.9994           0
     33200 TIP3     3585     TIP3     H1       HT       0.417000       1.00800           0
     33201 TIP3     3585     TIP3     H2       HT       0.417000       1.00800           0
     33202 TIP3     3586     TIP3     OH2      OT      -0.834000       15.9994           0
     33203 TIP3     3586     TIP3     H1       HT       0.417000       1.00800           0
     33204 TIP3     3586     TIP3     H2       HT       0.417000       1.00800           0
     33205 TIP3     3587     TIP3     OH2      OT      -0.834000       15.9994           0
     33206 TIP3     3587     TIP3     H1       HT       0.417000       1.00800           0
     33207 TIP3     3587     TIP3     H2       HT       0.417000       1.00800           0
     33208 TIP3     3588     TIP3     OH2      OT      -0.834000       15.9994           0
     33209 TIP3     3588     TIP3     H1       HT       0.417000       1.00800           0
     33210 TIP3     3588     TIP3     H2       HT       0.417000       1.00800           0
     33211 TIP3     3589     TIP3     OH2      OT      -0.834000       15.9994           0
     33212 TIP3     3589     TIP3     H1       HT       0.417000       1.00800           0
     33213 TIP3     3589     TIP3     H2       HT       0.417000       1.00800           0
     33214 TIP3     3590     TIP3     OH2      OT      -0.834000       15.9994           0
     33215 TIP3     3590     TIP3     H1       HT       0.417000       1.00800           0
     33216 TIP3     3590     TIP3     H2       HT       0.417000       1.00800           0
     33217 TIP3     3591     TIP3     OH2      OT      -0.834000       15.9994           0
     33218 TIP3     3591     TIP3     H1       HT       0.417000       1.00800           0
     33219 TIP3     3591     TIP3     H2       HT       0.417000       1.00800           0
     33220 TIP3     3592     TIP3     OH2      OT      -0.834000       15.9994           0
     33221 TIP3     3592     TIP3     H1       HT       0.417000       1.00800           0
     33222 TIP3     3592     TIP3     H2       HT       0.417000       1.00800           0
     33223 TIP3     3593     TIP3     OH2      OT      -0.834000       15.9994           0
     33224 TIP3     3593     TIP3     H1       HT       0.417000       1.00800           0
     33225 TIP3     3593     TIP3     H2       HT       0.417000       1.00800           0
     33226 TIP3     3594     TIP3     OH2      OT      -0.834000       15.9994           0
     33227 TIP3     3594     TIP3     H1       HT       0.417000       1.00800           0
     33228 TIP3     3594     TIP3     H2       HT       0.417000       1.00800           0
     33229 TIP3     3595     TIP3     OH2      OT      -0.834000       15.9994           0
     33230 TIP3     3595     TIP3     H1       HT       0.417000       1.00800           0
     33231 TIP3     3595     TIP3     H2       HT       0.417000       1.00800           0
     33232 TIP3     3596     TIP3     OH2      OT      -0.834000       15.9994           0
     33233 TIP3     3596     TIP3     H1       HT       0.417000       1.00800           0
     33234 TIP3     3596     TIP3     H2       HT       0.417000       1.00800           0
     33235 TIP3     3597     TIP3     OH2      OT      -0.834000       15.9994           0
     33236 TIP3     3597     TIP3     H1       HT       0.417000       1.00800           0
     33237 TIP3     3597     TIP3     H2       HT       0.417000       1.00800           0
     33238 TIP3     3598     TIP3     OH2      OT      -0.834000       15.9994           0
     33239 TIP3     3598     TIP3     H1       HT       0.417000       1.00800           0
     33240 TIP3     3598     TIP3     H2       HT       0.417000       1.00800           0
     33241 TIP3     3599     TIP3     OH2      OT      -0.834000       15.9994           0
     33242 TIP3     3599     TIP3     H1       HT       0.417000       1.00800           0
     33243 TIP3     3599     TIP3     H2       HT       0.417000       1.00800           0
     33244 TIP3     3600     TIP3     OH2      OT      -0.834000       15.9994           0
     33245 TIP3     3600     TIP3     H1       HT       0.417000       1.00800           0
     33246 TIP3     3600     TIP3     H2       HT       0.417000       1.00800           0
     33247 TIP3     3601     TIP3     OH2      OT      -0.834000       15.9994           0
     33248 TIP3     3601     TIP3     H1       HT       0.417000       1.00800           0
     33249 TIP3     3601     TIP3     H2       HT       0.417000       1.00800           0
     33250 TIP3     3602     TIP3     OH2      OT      -0.834000       15.9994           0
     33251 TIP3     3602     TIP3     H1       HT       0.417000       1.00800           0
     33252 TIP3     3602     TIP3     H2       HT       0.417000       1.00800           0
     33253 TIP3     3603     TIP3     OH2      OT      -0.834000       15.9994           0
     33254 TIP3     3603     TIP3     H1       HT       0.417000       1.00800           0
     33255 TIP3     3603     TIP3     H2       HT       0.417000       1.00800           0
     33256 TIP3     3604     TIP3     OH2      OT      -0.834000       15.9994           0
     33257 TIP3     3604     TIP3     H1       HT       0.417000       1.00800           0
     33258 TIP3     3604     TIP3     H2       HT       0.417000       1.00800           0
     33259 TIP3     3605     TIP3     OH2      OT      -0.834000       15.9994           0
     33260 TIP3     3605     TIP3     H1       HT       0.417000       1.00800           0
     33261 TIP3     3605     TIP3     H2       HT       0.417000       1.00800           0
     33262 TIP3     3606     TIP3     OH2      OT      -0.834000       15.9994           0
     33263 TIP3     3606     TIP3     H1       HT       0.417000       1.00800           0
     33264 TIP3     3606     TIP3     H2       HT       0.417000       1.00800           0
     33265 TIP3     3607     TIP3     OH2      OT      -0.834000       15.9994           0
     33266 TIP3     3607     TIP3     H1       HT       0.417000       1.00800           0
     33267 TIP3     3607     TIP3     H2       HT       0.417000       1.00800           0
     33268 TIP3     3608     TIP3     OH2      OT      -0.834000       15.9994           0
     33269 TIP3     3608     TIP3     H1       HT       0.417000       1.00800           0
     33270 TIP3     3608     TIP3     H2       HT       0.417000       1.00800           0
     33271 TIP3     3609     TIP3     OH2      OT      -0.834000       15.9994           0
     33272 TIP3     3609     TIP3     H1       HT       0.417000       1.00800           0
     33273 TIP3     3609     TIP3     H2       HT       0.417000       1.00800           0
     33274 TIP3     3610     TIP3     OH2      OT      -0.834000       15.9994           0
     33275 TIP3     3610     TIP3     H1       HT       0.417000       1.00800           0
     33276 TIP3     3610     TIP3     H2       HT       0.417000       1.00800           0
     33277 TIP3     3611     TIP3     OH2      OT      -0.834000       15.9994           0
     33278 TIP3     3611     TIP3     H1       HT       0.417000       1.00800           0
     33279 TIP3     3611     TIP3     H2       HT       0.417000       1.00800           0
     33280 TIP3     3612     TIP3     OH2      OT      -0.834000       15.9994           0
     33281 TIP3     3612     TIP3     H1       HT       0.417000       1.00800           0
     33282 TIP3     3612     TIP3     H2       HT       0.417000       1.00800           0
     33283 TIP3     3613     TIP3     OH2      OT      -0.834000       15.9994           0
     33284 TIP3     3613     TIP3     H1       HT       0.417000       1.00800           0
     33285 TIP3     3613     TIP3     H2       HT       0.417000       1.00800           0
     33286 TIP3     3614     TIP3     OH2      OT      -0.834000       15.9994           0
     33287 TIP3     3614     TIP3     H1       HT       0.417000       1.00800           0
     33288 TIP3     3614     TIP3     H2       HT       0.417000       1.00800           0
     33289 TIP3     3615     TIP3     OH2      OT      -0.834000       15.9994           0
     33290 TIP3     3615     TIP3     H1       HT       0.417000       1.00800           0
     33291 TIP3     3615     TIP3     H2       HT       0.417000       1.00800           0
     33292 TIP3     3616     TIP3     OH2      OT      -0.834000       15.9994           0
     33293 TIP3     3616     TIP3     H1       HT       0.417000       1.00800           0
     33294 TIP3     3616     TIP3     H2       HT       0.417000       1.00800           0
     33295 TIP3     3617     TIP3     OH2      OT      -0.834000       15.9994           0
     33296 TIP3     3617     TIP3     H1       HT       0.417000       1.00800           0
     33297 TIP3     3617     TIP3     H2       HT       0.417000       1.00800           0
     33298 TIP3     3618     TIP3     OH2      OT      -0.834000       15.9994           0
     33299 TIP3     3618     TIP3     H1       HT       0.417000       1.00800           0
     33300 TIP3     3618     TIP3     H2       HT       0.417000       1.00800           0
     33301 TIP3     3619     TIP3     OH2      OT      -0.834000       15.9994           0
     33302 TIP3     3619     TIP3     H1       HT       0.417000       1.00800           0
     33303 TIP3     3619     TIP3     H2       HT       0.417000       1.00800           0
     33304 TIP3     3620     TIP3     OH2      OT      -0.834000       15.9994           0
     33305 TIP3     3620     TIP3     H1       HT       0.417000       1.00800           0
     33306 TIP3     3620     TIP3     H2       HT       0.417000       1.00800           0
     33307 TIP3     3621     TIP3     OH2      OT      -0.834000       15.9994           0
     33308 TIP3     3621     TIP3     H1       HT       0.417000       1.00800           0
     33309 TIP3     3621     TIP3     H2       HT       0.417000       1.00800           0
     33310 TIP3     3622     TIP3     OH2      OT      -0.834000       15.9994           0
     33311 TIP3     3622     TIP3     H1       HT       0.417000       1.00800           0
     33312 TIP3     3622     TIP3     H2       HT       0.417000       1.00800           0
     33313 TIP3     3623     TIP3     OH2      OT      -0.834000       15.9994           0
     33314 TIP3     3623     TIP3     H1       HT       0.417000       1.00800           0
     33315 TIP3     3623     TIP3     H2       HT       0.417000       1.00800           0
     33316 TIP3     3624     TIP3     OH2      OT      -0.834000       15.9994           0
     33317 TIP3     3624     TIP3     H1       HT       0.417000       1.00800           0
     33318 TIP3     3624     TIP3     H2       HT       0.417000       1.00800           0
     33319 TIP3     3625     TIP3     OH2      OT      -0.834000       15.9994           0
     33320 TIP3     3625     TIP3     H1       HT       0.417000       1.00800           0
     33321 TIP3     3625     TIP3     H2       HT       0.417000       1.00800           0
     33322 TIP3     3626     TIP3     OH2      OT      -0.834000       15.9994           0
     33323 TIP3     3626     TIP3     H1       HT       0.417000       1.00800           0
     33324 TIP3     3626     TIP3     H2       HT       0.417000       1.00800           0
     33325 TIP3     3627     TIP3     OH2      OT      -0.834000       15.9994           0
     33326 TIP3     3627     TIP3     H1       HT       0.417000       1.00800           0
     33327 TIP3     3627     TIP3     H2       HT       0.417000       1.00800           0
     33328 TIP3     3628     TIP3     OH2      OT      -0.834000       15.9994           0
     33329 TIP3     3628     TIP3     H1       HT       0.417000       1.00800           0
     33330 TIP3     3628     TIP3     H2       HT       0.417000       1.00800           0
     33331 TIP3     3629     TIP3     OH2      OT      -0.834000       15.9994           0
     33332 TIP3     3629     TIP3     H1       HT       0.417000       1.00800           0
     33333 TIP3     3629     TIP3     H2       HT       0.417000       1.00800           0
     33334 TIP3     3630     TIP3     OH2      OT      -0.834000       15.9994           0
     33335 TIP3     3630     TIP3     H1       HT       0.417000       1.00800           0
     33336 TIP3     3630     TIP3     H2       HT       0.417000       1.00800           0
     33337 TIP3     3631     TIP3     OH2      OT      -0.834000       15.9994           0
     33338 TIP3     3631     TIP3     H1       HT       0.417000       1.00800           0
     33339 TIP3     3631     TIP3     H2       HT       0.417000       1.00800           0
     33340 TIP3     3632     TIP3     OH2      OT      -0.834000       15.9994           0
     33341 TIP3     3632     TIP3     H1       HT       0.417000       1.00800           0
     33342 TIP3     3632     TIP3     H2       HT       0.417000       1.00800           0
     33343 TIP3     3633     TIP3     OH2      OT      -0.834000       15.9994           0
     33344 TIP3     3633     TIP3     H1       HT       0.417000       1.00800           0
     33345 TIP3     3633     TIP3     H2       HT       0.417000       1.00800           0
     33346 TIP3     3634     TIP3     OH2      OT      -0.834000       15.9994           0
     33347 TIP3     3634     TIP3     H1       HT       0.417000       1.00800           0
     33348 TIP3     3634     TIP3     H2       HT       0.417000       1.00800           0
     33349 TIP3     3635     TIP3     OH2      OT      -0.834000       15.9994           0
     33350 TIP3     3635     TIP3     H1       HT       0.417000       1.00800           0
     33351 TIP3     3635     TIP3     H2       HT       0.417000       1.00800           0
     33352 TIP3     3636     TIP3     OH2      OT      -0.834000       15.9994           0
     33353 TIP3     3636     TIP3     H1       HT       0.417000       1.00800           0
     33354 TIP3     3636     TIP3     H2       HT       0.417000       1.00800           0
     33355 TIP3     3637     TIP3     OH2      OT      -0.834000       15.9994           0
     33356 TIP3     3637     TIP3     H1       HT       0.417000       1.00800           0
     33357 TIP3     3637     TIP3     H2       HT       0.417000       1.00800           0
     33358 TIP3     3638     TIP3     OH2      OT      -0.834000       15.9994           0
     33359 TIP3     3638     TIP3     H1       HT       0.417000       1.00800           0
     33360 TIP3     3638     TIP3     H2       HT       0.417000       1.00800           0
     33361 TIP3     3639     TIP3     OH2      OT      -0.834000       15.9994           0
     33362 TIP3     3639     TIP3     H1       HT       0.417000       1.00800           0
     33363 TIP3     3639     TIP3     H2       HT       0.417000       1.00800           0
     33364 TIP3     3640     TIP3     OH2      OT      -0.834000       15.9994           0
     33365 TIP3     3640     TIP3     H1       HT       0.417000       1.00800           0
     33366 TIP3     3640     TIP3     H2       HT       0.417000       1.00800           0
     33367 TIP3     3641     TIP3     OH2      OT      -0.834000       15.9994           0
     33368 TIP3     3641     TIP3     H1       HT       0.417000       1.00800           0
     33369 TIP3     3641     TIP3     H2       HT       0.417000       1.00800           0
     33370 TIP3     3642     TIP3     OH2      OT      -0.834000       15.9994           0
     33371 TIP3     3642     TIP3     H1       HT       0.417000       1.00800           0
     33372 TIP3     3642     TIP3     H2       HT       0.417000       1.00800           0
     33373 TIP3     3643     TIP3     OH2      OT      -0.834000       15.9994           0
     33374 TIP3     3643     TIP3     H1       HT       0.417000       1.00800           0
     33375 TIP3     3643     TIP3     H2       HT       0.417000       1.00800           0
     33376 TIP3     3644     TIP3     OH2      OT      -0.834000       15.9994           0
     33377 TIP3     3644     TIP3     H1       HT       0.417000       1.00800           0
     33378 TIP3     3644     TIP3     H2       HT       0.417000       1.00800           0
     33379 TIP3     3645     TIP3     OH2      OT      -0.834000       15.9994           0
     33380 TIP3     3645     TIP3     H1       HT       0.417000       1.00800           0
     33381 TIP3     3645     TIP3     H2       HT       0.417000       1.00800           0
     33382 TIP3     3646     TIP3     OH2      OT      -0.834000       15.9994           0
     33383 TIP3     3646     TIP3     H1       HT       0.417000       1.00800           0
     33384 TIP3     3646     TIP3     H2       HT       0.417000       1.00800           0
     33385 TIP3     3647     TIP3     OH2      OT      -0.834000       15.9994           0
     33386 TIP3     3647     TIP3     H1       HT       0.417000       1.00800           0
     33387 TIP3     3647     TIP3     H2       HT       0.417000       1.00800           0
     33388 TIP3     3648     TIP3     OH2      OT      -0.834000       15.9994           0
     33389 TIP3     3648     TIP3     H1       HT       0.417000       1.00800           0
     33390 TIP3     3648     TIP3     H2       HT       0.417000       1.00800           0
     33391 TIP3     3649     TIP3     OH2      OT      -0.834000       15.9994           0
     33392 TIP3     3649     TIP3     H1       HT       0.417000       1.00800           0
     33393 TIP3     3649     TIP3     H2       HT       0.417000       1.00800           0
     33394 TIP3     3650     TIP3     OH2      OT      -0.834000       15.9994           0
     33395 TIP3     3650     TIP3     H1       HT       0.417000       1.00800           0
     33396 TIP3     3650     TIP3     H2       HT       0.417000       1.00800           0
     33397 TIP3     3651     TIP3     OH2      OT      -0.834000       15.9994           0
     33398 TIP3     3651     TIP3     H1       HT       0.417000       1.00800           0
     33399 TIP3     3651     TIP3     H2       HT       0.417000       1.00800           0
     33400 TIP3     3652     TIP3     OH2      OT      -0.834000       15.9994           0
     33401 TIP3     3652     TIP3     H1       HT       0.417000       1.00800           0
     33402 TIP3     3652     TIP3     H2       HT       0.417000       1.00800           0
     33403 TIP3     3653     TIP3     OH2      OT      -0.834000       15.9994           0
     33404 TIP3     3653     TIP3     H1       HT       0.417000       1.00800           0
     33405 TIP3     3653     TIP3     H2       HT       0.417000       1.00800           0
     33406 TIP3     3654     TIP3     OH2      OT      -0.834000       15.9994           0
     33407 TIP3     3654     TIP3     H1       HT       0.417000       1.00800           0
     33408 TIP3     3654     TIP3     H2       HT       0.417000       1.00800           0
     33409 TIP3     3655     TIP3     OH2      OT      -0.834000       15.9994           0
     33410 TIP3     3655     TIP3     H1       HT       0.417000       1.00800           0
     33411 TIP3     3655     TIP3     H2       HT       0.417000       1.00800           0
     33412 TIP3     3656     TIP3     OH2      OT      -0.834000       15.9994           0
     33413 TIP3     3656     TIP3     H1       HT       0.417000       1.00800           0
     33414 TIP3     3656     TIP3     H2       HT       0.417000       1.00800           0
     33415 TIP3     3657     TIP3     OH2      OT      -0.834000       15.9994           0
     33416 TIP3     3657     TIP3     H1       HT       0.417000       1.00800           0
     33417 TIP3     3657     TIP3     H2       HT       0.417000       1.00800           0
     33418 TIP3     3658     TIP3     OH2      OT      -0.834000       15.9994           0
     33419 TIP3     3658     TIP3     H1       HT       0.417000       1.00800           0
     33420 TIP3     3658     TIP3     H2       HT       0.417000       1.00800           0
     33421 TIP3     3659     TIP3     OH2      OT      -0.834000       15.9994           0
     33422 TIP3     3659     TIP3     H1       HT       0.417000       1.00800           0
     33423 TIP3     3659     TIP3     H2       HT       0.417000       1.00800           0
     33424 TIP3     3660     TIP3     OH2      OT      -0.834000       15.9994           0
     33425 TIP3     3660     TIP3     H1       HT       0.417000       1.00800           0
     33426 TIP3     3660     TIP3     H2       HT       0.417000       1.00800           0
     33427 TIP3     3661     TIP3     OH2      OT      -0.834000       15.9994           0
     33428 TIP3     3661     TIP3     H1       HT       0.417000       1.00800           0
     33429 TIP3     3661     TIP3     H2       HT       0.417000       1.00800           0
     33430 TIP3     3662     TIP3     OH2      OT      -0.834000       15.9994           0
     33431 TIP3     3662     TIP3     H1       HT       0.417000       1.00800           0
     33432 TIP3     3662     TIP3     H2       HT       0.417000       1.00800           0
     33433 TIP3     3663     TIP3     OH2      OT      -0.834000       15.9994           0
     33434 TIP3     3663     TIP3     H1       HT       0.417000       1.00800           0
     33435 TIP3     3663     TIP3     H2       HT       0.417000       1.00800           0
     33436 TIP3     3664     TIP3     OH2      OT      -0.834000       15.9994           0
     33437 TIP3     3664     TIP3     H1       HT       0.417000       1.00800           0
     33438 TIP3     3664     TIP3     H2       HT       0.417000       1.00800           0
     33439 TIP3     3665     TIP3     OH2      OT      -0.834000       15.9994           0
     33440 TIP3     3665     TIP3     H1       HT       0.417000       1.00800           0
     33441 TIP3     3665     TIP3     H2       HT       0.417000       1.00800           0
     33442 TIP3     3666     TIP3     OH2      OT      -0.834000       15.9994           0
     33443 TIP3     3666     TIP3     H1       HT       0.417000       1.00800           0
     33444 TIP3     3666     TIP3     H2       HT       0.417000       1.00800           0
     33445 TIP3     3667     TIP3     OH2      OT      -0.834000       15.9994           0
     33446 TIP3     3667     TIP3     H1       HT       0.417000       1.00800           0
     33447 TIP3     3667     TIP3     H2       HT       0.417000       1.00800           0
     33448 TIP3     3668     TIP3     OH2      OT      -0.834000       15.9994           0
     33449 TIP3     3668     TIP3     H1       HT       0.417000       1.00800           0
     33450 TIP3     3668     TIP3     H2       HT       0.417000       1.00800           0
     33451 TIP3     3669     TIP3     OH2      OT      -0.834000       15.9994           0
     33452 TIP3     3669     TIP3     H1       HT       0.417000       1.00800           0
     33453 TIP3     3669     TIP3     H2       HT       0.417000       1.00800           0
     33454 TIP3     3670     TIP3     OH2      OT      -0.834000       15.9994           0
     33455 TIP3     3670     TIP3     H1       HT       0.417000       1.00800           0
     33456 TIP3     3670     TIP3     H2       HT       0.417000       1.00800           0
     33457 TIP3     3671     TIP3     OH2      OT      -0.834000       15.9994           0
     33458 TIP3     3671     TIP3     H1       HT       0.417000       1.00800           0
     33459 TIP3     3671     TIP3     H2       HT       0.417000       1.00800           0
     33460 TIP3     3672     TIP3     OH2      OT      -0.834000       15.9994           0
     33461 TIP3     3672     TIP3     H1       HT       0.417000       1.00800           0
     33462 TIP3     3672     TIP3     H2       HT       0.417000       1.00800           0
     33463 TIP3     3673     TIP3     OH2      OT      -0.834000       15.9994           0
     33464 TIP3     3673     TIP3     H1       HT       0.417000       1.00800           0
     33465 TIP3     3673     TIP3     H2       HT       0.417000       1.00800           0
     33466 TIP3     3674     TIP3     OH2      OT      -0.834000       15.9994           0
     33467 TIP3     3674     TIP3     H1       HT       0.417000       1.00800           0
     33468 TIP3     3674     TIP3     H2       HT       0.417000       1.00800           0
     33469 TIP3     3675     TIP3     OH2      OT      -0.834000       15.9994           0
     33470 TIP3     3675     TIP3     H1       HT       0.417000       1.00800           0
     33471 TIP3     3675     TIP3     H2       HT       0.417000       1.00800           0
     33472 TIP3     3676     TIP3     OH2      OT      -0.834000       15.9994           0
     33473 TIP3     3676     TIP3     H1       HT       0.417000       1.00800           0
     33474 TIP3     3676     TIP3     H2       HT       0.417000       1.00800           0
     33475 TIP3     3677     TIP3     OH2      OT      -0.834000       15.9994           0
     33476 TIP3     3677     TIP3     H1       HT       0.417000       1.00800           0
     33477 TIP3     3677     TIP3     H2       HT       0.417000       1.00800           0
     33478 TIP3     3678     TIP3     OH2      OT      -0.834000       15.9994           0
     33479 TIP3     3678     TIP3     H1       HT       0.417000       1.00800           0
     33480 TIP3     3678     TIP3     H2       HT       0.417000       1.00800           0
     33481 TIP3     3679     TIP3     OH2      OT      -0.834000       15.9994           0
     33482 TIP3     3679     TIP3     H1       HT       0.417000       1.00800           0
     33483 TIP3     3679     TIP3     H2       HT       0.417000       1.00800           0
     33484 TIP3     3680     TIP3     OH2      OT      -0.834000       15.9994           0
     33485 TIP3     3680     TIP3     H1       HT       0.417000       1.00800           0
     33486 TIP3     3680     TIP3     H2       HT       0.417000       1.00800           0
     33487 TIP3     3681     TIP3     OH2      OT      -0.834000       15.9994           0
     33488 TIP3     3681     TIP3     H1       HT       0.417000       1.00800           0
     33489 TIP3     3681     TIP3     H2       HT       0.417000       1.00800           0
     33490 TIP3     3682     TIP3     OH2      OT      -0.834000       15.9994           0
     33491 TIP3     3682     TIP3     H1       HT       0.417000       1.00800           0
     33492 TIP3     3682     TIP3     H2       HT       0.417000       1.00800           0
     33493 TIP3     3683     TIP3     OH2      OT      -0.834000       15.9994           0
     33494 TIP3     3683     TIP3     H1       HT       0.417000       1.00800           0
     33495 TIP3     3683     TIP3     H2       HT       0.417000       1.00800           0
     33496 TIP3     3684     TIP3     OH2      OT      -0.834000       15.9994           0
     33497 TIP3     3684     TIP3     H1       HT       0.417000       1.00800           0
     33498 TIP3     3684     TIP3     H2       HT       0.417000       1.00800           0
     33499 TIP3     3685     TIP3     OH2      OT      -0.834000       15.9994           0
     33500 TIP3     3685     TIP3     H1       HT       0.417000       1.00800           0
     33501 TIP3     3685     TIP3     H2       HT       0.417000       1.00800           0
     33502 TIP3     3686     TIP3     OH2      OT      -0.834000       15.9994           0
     33503 TIP3     3686     TIP3     H1       HT       0.417000       1.00800           0
     33504 TIP3     3686     TIP3     H2       HT       0.417000       1.00800           0
     33505 TIP3     3687     TIP3     OH2      OT      -0.834000       15.9994           0
     33506 TIP3     3687     TIP3     H1       HT       0.417000       1.00800           0
     33507 TIP3     3687     TIP3     H2       HT       0.417000       1.00800           0
     33508 TIP3     3688     TIP3     OH2      OT      -0.834000       15.9994           0
     33509 TIP3     3688     TIP3     H1       HT       0.417000       1.00800           0
     33510 TIP3     3688     TIP3     H2       HT       0.417000       1.00800           0
     33511 TIP3     3689     TIP3     OH2      OT      -0.834000       15.9994           0
     33512 TIP3     3689     TIP3     H1       HT       0.417000       1.00800           0
     33513 TIP3     3689     TIP3     H2       HT       0.417000       1.00800           0
     33514 TIP3     3690     TIP3     OH2      OT      -0.834000       15.9994           0
     33515 TIP3     3690     TIP3     H1       HT       0.417000       1.00800           0
     33516 TIP3     3690     TIP3     H2       HT       0.417000       1.00800           0
     33517 TIP3     3691     TIP3     OH2      OT      -0.834000       15.9994           0
     33518 TIP3     3691     TIP3     H1       HT       0.417000       1.00800           0
     33519 TIP3     3691     TIP3     H2       HT       0.417000       1.00800           0
     33520 TIP3     3692     TIP3     OH2      OT      -0.834000       15.9994           0
     33521 TIP3     3692     TIP3     H1       HT       0.417000       1.00800           0
     33522 TIP3     3692     TIP3     H2       HT       0.417000       1.00800           0
     33523 TIP3     3693     TIP3     OH2      OT      -0.834000       15.9994           0
     33524 TIP3     3693     TIP3     H1       HT       0.417000       1.00800           0
     33525 TIP3     3693     TIP3     H2       HT       0.417000       1.00800           0
     33526 TIP3     3694     TIP3     OH2      OT      -0.834000       15.9994           0
     33527 TIP3     3694     TIP3     H1       HT       0.417000       1.00800           0
     33528 TIP3     3694     TIP3     H2       HT       0.417000       1.00800           0
     33529 TIP3     3695     TIP3     OH2      OT      -0.834000       15.9994           0
     33530 TIP3     3695     TIP3     H1       HT       0.417000       1.00800           0
     33531 TIP3     3695     TIP3     H2       HT       0.417000       1.00800           0
     33532 TIP3     3696     TIP3     OH2      OT      -0.834000       15.9994           0
     33533 TIP3     3696     TIP3     H1       HT       0.417000       1.00800           0
     33534 TIP3     3696     TIP3     H2       HT       0.417000       1.00800           0
     33535 TIP3     3697     TIP3     OH2      OT      -0.834000       15.9994           0
     33536 TIP3     3697     TIP3     H1       HT       0.417000       1.00800           0
     33537 TIP3     3697     TIP3     H2       HT       0.417000       1.00800           0
     33538 TIP3     3698     TIP3     OH2      OT      -0.834000       15.9994           0
     33539 TIP3     3698     TIP3     H1       HT       0.417000       1.00800           0
     33540 TIP3     3698     TIP3     H2       HT       0.417000       1.00800           0
     33541 TIP3     3699     TIP3     OH2      OT      -0.834000       15.9994           0
     33542 TIP3     3699     TIP3     H1       HT       0.417000       1.00800           0
     33543 TIP3     3699     TIP3     H2       HT       0.417000       1.00800           0
     33544 TIP3     3700     TIP3     OH2      OT      -0.834000       15.9994           0
     33545 TIP3     3700     TIP3     H1       HT       0.417000       1.00800           0
     33546 TIP3     3700     TIP3     H2       HT       0.417000       1.00800           0
     33547 TIP3     3701     TIP3     OH2      OT      -0.834000       15.9994           0
     33548 TIP3     3701     TIP3     H1       HT       0.417000       1.00800           0
     33549 TIP3     3701     TIP3     H2       HT       0.417000       1.00800           0
     33550 TIP3     3702     TIP3     OH2      OT      -0.834000       15.9994           0
     33551 TIP3     3702     TIP3     H1       HT       0.417000       1.00800           0
     33552 TIP3     3702     TIP3     H2       HT       0.417000       1.00800           0
     33553 TIP3     3703     TIP3     OH2      OT      -0.834000       15.9994           0
     33554 TIP3     3703     TIP3     H1       HT       0.417000       1.00800           0
     33555 TIP3     3703     TIP3     H2       HT       0.417000       1.00800           0
     33556 TIP3     3704     TIP3     OH2      OT      -0.834000       15.9994           0
     33557 TIP3     3704     TIP3     H1       HT       0.417000       1.00800           0
     33558 TIP3     3704     TIP3     H2       HT       0.417000       1.00800           0
     33559 TIP3     3705     TIP3     OH2      OT      -0.834000       15.9994           0
     33560 TIP3     3705     TIP3     H1       HT       0.417000       1.00800           0
     33561 TIP3     3705     TIP3     H2       HT       0.417000       1.00800           0
     33562 TIP3     3706     TIP3     OH2      OT      -0.834000       15.9994           0
     33563 TIP3     3706     TIP3     H1       HT       0.417000       1.00800           0
     33564 TIP3     3706     TIP3     H2       HT       0.417000       1.00800           0
     33565 TIP3     3707     TIP3     OH2      OT      -0.834000       15.9994           0
     33566 TIP3     3707     TIP3     H1       HT       0.417000       1.00800           0
     33567 TIP3     3707     TIP3     H2       HT       0.417000       1.00800           0
     33568 TIP3     3708     TIP3     OH2      OT      -0.834000       15.9994           0
     33569 TIP3     3708     TIP3     H1       HT       0.417000       1.00800           0
     33570 TIP3     3708     TIP3     H2       HT       0.417000       1.00800           0
     33571 TIP3     3709     TIP3     OH2      OT      -0.834000       15.9994           0
     33572 TIP3     3709     TIP3     H1       HT       0.417000       1.00800           0
     33573 TIP3     3709     TIP3     H2       HT       0.417000       1.00800           0
     33574 TIP3     3710     TIP3     OH2      OT      -0.834000       15.9994           0
     33575 TIP3     3710     TIP3     H1       HT       0.417000       1.00800           0
     33576 TIP3     3710     TIP3     H2       HT       0.417000       1.00800           0
     33577 TIP3     3711     TIP3     OH2      OT      -0.834000       15.9994           0
     33578 TIP3     3711     TIP3     H1       HT       0.417000       1.00800           0
     33579 TIP3     3711     TIP3     H2       HT       0.417000       1.00800           0
     33580 TIP3     3712     TIP3     OH2      OT      -0.834000       15.9994           0
     33581 TIP3     3712     TIP3     H1       HT       0.417000       1.00800           0
     33582 TIP3     3712     TIP3     H2       HT       0.417000       1.00800           0
     33583 TIP3     3713     TIP3     OH2      OT      -0.834000       15.9994           0
     33584 TIP3     3713     TIP3     H1       HT       0.417000       1.00800           0
     33585 TIP3     3713     TIP3     H2       HT       0.417000       1.00800           0
     33586 TIP3     3714     TIP3     OH2      OT      -0.834000       15.9994           0
     33587 TIP3     3714     TIP3     H1       HT       0.417000       1.00800           0
     33588 TIP3     3714     TIP3     H2       HT       0.417000       1.00800           0
     33589 TIP3     3715     TIP3     OH2      OT      -0.834000       15.9994           0
     33590 TIP3     3715     TIP3     H1       HT       0.417000       1.00800           0
     33591 TIP3     3715     TIP3     H2       HT       0.417000       1.00800           0
     33592 TIP3     3716     TIP3     OH2      OT      -0.834000       15.9994           0
     33593 TIP3     3716     TIP3     H1       HT       0.417000       1.00800           0
     33594 TIP3     3716     TIP3     H2       HT       0.417000       1.00800           0
     33595 TIP3     3717     TIP3     OH2      OT      -0.834000       15.9994           0
     33596 TIP3     3717     TIP3     H1       HT       0.417000       1.00800           0
     33597 TIP3     3717     TIP3     H2       HT       0.417000       1.00800           0
     33598 TIP3     3718     TIP3     OH2      OT      -0.834000       15.9994           0
     33599 TIP3     3718     TIP3     H1       HT       0.417000       1.00800           0
     33600 TIP3     3718     TIP3     H2       HT       0.417000       1.00800           0
     33601 TIP3     3719     TIP3     OH2      OT      -0.834000       15.9994           0
     33602 TIP3     3719     TIP3     H1       HT       0.417000       1.00800           0
     33603 TIP3     3719     TIP3     H2       HT       0.417000       1.00800           0
     33604 TIP3     3720     TIP3     OH2      OT      -0.834000       15.9994           0
     33605 TIP3     3720     TIP3     H1       HT       0.417000       1.00800           0
     33606 TIP3     3720     TIP3     H2       HT       0.417000       1.00800           0
     33607 TIP3     3721     TIP3     OH2      OT      -0.834000       15.9994           0
     33608 TIP3     3721     TIP3     H1       HT       0.417000       1.00800           0
     33609 TIP3     3721     TIP3     H2       HT       0.417000       1.00800           0
     33610 TIP3     3722     TIP3     OH2      OT      -0.834000       15.9994           0
     33611 TIP3     3722     TIP3     H1       HT       0.417000       1.00800           0
     33612 TIP3     3722     TIP3     H2       HT       0.417000       1.00800           0
     33613 TIP3     3723     TIP3     OH2      OT      -0.834000       15.9994           0
     33614 TIP3     3723     TIP3     H1       HT       0.417000       1.00800           0
     33615 TIP3     3723     TIP3     H2       HT       0.417000       1.00800           0
     33616 TIP3     3724     TIP3     OH2      OT      -0.834000       15.9994           0
     33617 TIP3     3724     TIP3     H1       HT       0.417000       1.00800           0
     33618 TIP3     3724     TIP3     H2       HT       0.417000       1.00800           0
     33619 TIP3     3725     TIP3     OH2      OT      -0.834000       15.9994           0
     33620 TIP3     3725     TIP3     H1       HT       0.417000       1.00800           0
     33621 TIP3     3725     TIP3     H2       HT       0.417000       1.00800           0
     33622 TIP3     3726     TIP3     OH2      OT      -0.834000       15.9994           0
     33623 TIP3     3726     TIP3     H1       HT       0.417000       1.00800           0
     33624 TIP3     3726     TIP3     H2       HT       0.417000       1.00800           0
     33625 TIP3     3727     TIP3     OH2      OT      -0.834000       15.9994           0
     33626 TIP3     3727     TIP3     H1       HT       0.417000       1.00800           0
     33627 TIP3     3727     TIP3     H2       HT       0.417000       1.00800           0
     33628 TIP3     3728     TIP3     OH2      OT      -0.834000       15.9994           0
     33629 TIP3     3728     TIP3     H1       HT       0.417000       1.00800           0
     33630 TIP3     3728     TIP3     H2       HT       0.417000       1.00800           0
     33631 TIP3     3729     TIP3     OH2      OT      -0.834000       15.9994           0
     33632 TIP3     3729     TIP3     H1       HT       0.417000       1.00800           0
     33633 TIP3     3729     TIP3     H2       HT       0.417000       1.00800           0
     33634 TIP3     3730     TIP3     OH2      OT      -0.834000       15.9994           0
     33635 TIP3     3730     TIP3     H1       HT       0.417000       1.00800           0
     33636 TIP3     3730     TIP3     H2       HT       0.417000       1.00800           0
     33637 TIP3     3731     TIP3     OH2      OT      -0.834000       15.9994           0
     33638 TIP3     3731     TIP3     H1       HT       0.417000       1.00800           0
     33639 TIP3     3731     TIP3     H2       HT       0.417000       1.00800           0
     33640 TIP3     3732     TIP3     OH2      OT      -0.834000       15.9994           0
     33641 TIP3     3732     TIP3     H1       HT       0.417000       1.00800           0
     33642 TIP3     3732     TIP3     H2       HT       0.417000       1.00800           0
     33643 TIP3     3733     TIP3     OH2      OT      -0.834000       15.9994           0
     33644 TIP3     3733     TIP3     H1       HT       0.417000       1.00800           0
     33645 TIP3     3733     TIP3     H2       HT       0.417000       1.00800           0
     33646 TIP3     3734     TIP3     OH2      OT      -0.834000       15.9994           0
     33647 TIP3     3734     TIP3     H1       HT       0.417000       1.00800           0
     33648 TIP3     3734     TIP3     H2       HT       0.417000       1.00800           0
     33649 TIP3     3735     TIP3     OH2      OT      -0.834000       15.9994           0
     33650 TIP3     3735     TIP3     H1       HT       0.417000       1.00800           0
     33651 TIP3     3735     TIP3     H2       HT       0.417000       1.00800           0
     33652 TIP3     3736     TIP3     OH2      OT      -0.834000       15.9994           0
     33653 TIP3     3736     TIP3     H1       HT       0.417000       1.00800           0
     33654 TIP3     3736     TIP3     H2       HT       0.417000       1.00800           0
     33655 TIP3     3737     TIP3     OH2      OT      -0.834000       15.9994           0
     33656 TIP3     3737     TIP3     H1       HT       0.417000       1.00800           0
     33657 TIP3     3737     TIP3     H2       HT       0.417000       1.00800           0
     33658 TIP3     3738     TIP3     OH2      OT      -0.834000       15.9994           0
     33659 TIP3     3738     TIP3     H1       HT       0.417000       1.00800           0
     33660 TIP3     3738     TIP3     H2       HT       0.417000       1.00800           0
     33661 TIP3     3739     TIP3     OH2      OT      -0.834000       15.9994           0
     33662 TIP3     3739     TIP3     H1       HT       0.417000       1.00800           0
     33663 TIP3     3739     TIP3     H2       HT       0.417000       1.00800           0
     33664 TIP3     3740     TIP3     OH2      OT      -0.834000       15.9994           0
     33665 TIP3     3740     TIP3     H1       HT       0.417000       1.00800           0
     33666 TIP3     3740     TIP3     H2       HT       0.417000       1.00800           0
     33667 TIP3     3741     TIP3     OH2      OT      -0.834000       15.9994           0
     33668 TIP3     3741     TIP3     H1       HT       0.417000       1.00800           0
     33669 TIP3     3741     TIP3     H2       HT       0.417000       1.00800           0
     33670 TIP3     3742     TIP3     OH2      OT      -0.834000       15.9994           0
     33671 TIP3     3742     TIP3     H1       HT       0.417000       1.00800           0
     33672 TIP3     3742     TIP3     H2       HT       0.417000       1.00800           0
     33673 TIP3     3743     TIP3     OH2      OT      -0.834000       15.9994           0
     33674 TIP3     3743     TIP3     H1       HT       0.417000       1.00800           0
     33675 TIP3     3743     TIP3     H2       HT       0.417000       1.00800           0
     33676 TIP3     3744     TIP3     OH2      OT      -0.834000       15.9994           0
     33677 TIP3     3744     TIP3     H1       HT       0.417000       1.00800           0
     33678 TIP3     3744     TIP3     H2       HT       0.417000       1.00800           0
     33679 TIP3     3745     TIP3     OH2      OT      -0.834000       15.9994           0
     33680 TIP3     3745     TIP3     H1       HT       0.417000       1.00800           0
     33681 TIP3     3745     TIP3     H2       HT       0.417000       1.00800           0
     33682 TIP3     3746     TIP3     OH2      OT      -0.834000       15.9994           0
     33683 TIP3     3746     TIP3     H1       HT       0.417000       1.00800           0
     33684 TIP3     3746     TIP3     H2       HT       0.417000       1.00800           0
     33685 TIP3     3747     TIP3     OH2      OT      -0.834000       15.9994           0
     33686 TIP3     3747     TIP3     H1       HT       0.417000       1.00800           0
     33687 TIP3     3747     TIP3     H2       HT       0.417000       1.00800           0
     33688 TIP3     3748     TIP3     OH2      OT      -0.834000       15.9994           0
     33689 TIP3     3748     TIP3     H1       HT       0.417000       1.00800           0
     33690 TIP3     3748     TIP3     H2       HT       0.417000       1.00800           0
     33691 TIP3     3749     TIP3     OH2      OT      -0.834000       15.9994           0
     33692 TIP3     3749     TIP3     H1       HT       0.417000       1.00800           0
     33693 TIP3     3749     TIP3     H2       HT       0.417000       1.00800           0
     33694 TIP3     3750     TIP3     OH2      OT      -0.834000       15.9994           0
     33695 TIP3     3750     TIP3     H1       HT       0.417000       1.00800           0
     33696 TIP3     3750     TIP3     H2       HT       0.417000       1.00800           0
     33697 TIP3     3751     TIP3     OH2      OT      -0.834000       15.9994           0
     33698 TIP3     3751     TIP3     H1       HT       0.417000       1.00800           0
     33699 TIP3     3751     TIP3     H2       HT       0.417000       1.00800           0
     33700 TIP3     3752     TIP3     OH2      OT      -0.834000       15.9994           0
     33701 TIP3     3752     TIP3     H1       HT       0.417000       1.00800           0
     33702 TIP3     3752     TIP3     H2       HT       0.417000       1.00800           0
     33703 TIP3     3753     TIP3     OH2      OT      -0.834000       15.9994           0
     33704 TIP3     3753     TIP3     H1       HT       0.417000       1.00800           0
     33705 TIP3     3753     TIP3     H2       HT       0.417000       1.00800           0
     33706 TIP3     3754     TIP3     OH2      OT      -0.834000       15.9994           0
     33707 TIP3     3754     TIP3     H1       HT       0.417000       1.00800           0
     33708 TIP3     3754     TIP3     H2       HT       0.417000       1.00800           0
     33709 TIP3     3755     TIP3     OH2      OT      -0.834000       15.9994           0
     33710 TIP3     3755     TIP3     H1       HT       0.417000       1.00800           0
     33711 TIP3     3755     TIP3     H2       HT       0.417000       1.00800           0
     33712 TIP3     3756     TIP3     OH2      OT      -0.834000       15.9994           0
     33713 TIP3     3756     TIP3     H1       HT       0.417000       1.00800           0
     33714 TIP3     3756     TIP3     H2       HT       0.417000       1.00800           0
     33715 TIP3     3757     TIP3     OH2      OT      -0.834000       15.9994           0
     33716 TIP3     3757     TIP3     H1       HT       0.417000       1.00800           0
     33717 TIP3     3757     TIP3     H2       HT       0.417000       1.00800           0
     33718 TIP3     3758     TIP3     OH2      OT      -0.834000       15.9994           0
     33719 TIP3     3758     TIP3     H1       HT       0.417000       1.00800           0
     33720 TIP3     3758     TIP3     H2       HT       0.417000       1.00800           0
     33721 TIP3     3759     TIP3     OH2      OT      -0.834000       15.9994           0
     33722 TIP3     3759     TIP3     H1       HT       0.417000       1.00800           0
     33723 TIP3     3759     TIP3     H2       HT       0.417000       1.00800           0
     33724 TIP3     3760     TIP3     OH2      OT      -0.834000       15.9994           0
     33725 TIP3     3760     TIP3     H1       HT       0.417000       1.00800           0
     33726 TIP3     3760     TIP3     H2       HT       0.417000       1.00800           0
     33727 TIP3     3761     TIP3     OH2      OT      -0.834000       15.9994           0
     33728 TIP3     3761     TIP3     H1       HT       0.417000       1.00800           0
     33729 TIP3     3761     TIP3     H2       HT       0.417000       1.00800           0
     33730 TIP3     3762     TIP3     OH2      OT      -0.834000       15.9994           0
     33731 TIP3     3762     TIP3     H1       HT       0.417000       1.00800           0
     33732 TIP3     3762     TIP3     H2       HT       0.417000       1.00800           0
     33733 TIP3     3763     TIP3     OH2      OT      -0.834000       15.9994           0
     33734 TIP3     3763     TIP3     H1       HT       0.417000       1.00800           0
     33735 TIP3     3763     TIP3     H2       HT       0.417000       1.00800           0
     33736 TIP3     3764     TIP3     OH2      OT      -0.834000       15.9994           0
     33737 TIP3     3764     TIP3     H1       HT       0.417000       1.00800           0
     33738 TIP3     3764     TIP3     H2       HT       0.417000       1.00800           0
     33739 TIP3     3765     TIP3     OH2      OT      -0.834000       15.9994           0
     33740 TIP3     3765     TIP3     H1       HT       0.417000       1.00800           0
     33741 TIP3     3765     TIP3     H2       HT       0.417000       1.00800           0
     33742 TIP3     3766     TIP3     OH2      OT      -0.834000       15.9994           0
     33743 TIP3     3766     TIP3     H1       HT       0.417000       1.00800           0
     33744 TIP3     3766     TIP3     H2       HT       0.417000       1.00800           0
     33745 TIP3     3767     TIP3     OH2      OT      -0.834000       15.9994           0
     33746 TIP3     3767     TIP3     H1       HT       0.417000       1.00800           0
     33747 TIP3     3767     TIP3     H2       HT       0.417000       1.00800           0
     33748 TIP3     3768     TIP3     OH2      OT      -0.834000       15.9994           0
     33749 TIP3     3768     TIP3     H1       HT       0.417000       1.00800           0
     33750 TIP3     3768     TIP3     H2       HT       0.417000       1.00800           0
     33751 TIP3     3769     TIP3     OH2      OT      -0.834000       15.9994           0
     33752 TIP3     3769     TIP3     H1       HT       0.417000       1.00800           0
     33753 TIP3     3769     TIP3     H2       HT       0.417000       1.00800           0
     33754 TIP3     3770     TIP3     OH2      OT      -0.834000       15.9994           0
     33755 TIP3     3770     TIP3     H1       HT       0.417000       1.00800           0
     33756 TIP3     3770     TIP3     H2       HT       0.417000       1.00800           0
     33757 TIP3     3771     TIP3     OH2      OT      -0.834000       15.9994           0
     33758 TIP3     3771     TIP3     H1       HT       0.417000       1.00800           0
     33759 TIP3     3771     TIP3     H2       HT       0.417000       1.00800           0
     33760 TIP3     3772     TIP3     OH2      OT      -0.834000       15.9994           0
     33761 TIP3     3772     TIP3     H1       HT       0.417000       1.00800           0
     33762 TIP3     3772     TIP3     H2       HT       0.417000       1.00800           0
     33763 TIP3     3773     TIP3     OH2      OT      -0.834000       15.9994           0
     33764 TIP3     3773     TIP3     H1       HT       0.417000       1.00800           0
     33765 TIP3     3773     TIP3     H2       HT       0.417000       1.00800           0
     33766 TIP3     3774     TIP3     OH2      OT      -0.834000       15.9994           0
     33767 TIP3     3774     TIP3     H1       HT       0.417000       1.00800           0
     33768 TIP3     3774     TIP3     H2       HT       0.417000       1.00800           0
     33769 TIP3     3775     TIP3     OH2      OT      -0.834000       15.9994           0
     33770 TIP3     3775     TIP3     H1       HT       0.417000       1.00800           0
     33771 TIP3     3775     TIP3     H2       HT       0.417000       1.00800           0
     33772 TIP3     3776     TIP3     OH2      OT      -0.834000       15.9994           0
     33773 TIP3     3776     TIP3     H1       HT       0.417000       1.00800           0
     33774 TIP3     3776     TIP3     H2       HT       0.417000       1.00800           0
     33775 TIP3     3777     TIP3     OH2      OT      -0.834000       15.9994           0
     33776 TIP3     3777     TIP3     H1       HT       0.417000       1.00800           0
     33777 TIP3     3777     TIP3     H2       HT       0.417000       1.00800           0
     33778 TIP3     3778     TIP3     OH2      OT      -0.834000       15.9994           0
     33779 TIP3     3778     TIP3     H1       HT       0.417000       1.00800           0
     33780 TIP3     3778     TIP3     H2       HT       0.417000       1.00800           0
     33781 TIP3     3779     TIP3     OH2      OT      -0.834000       15.9994           0
     33782 TIP3     3779     TIP3     H1       HT       0.417000       1.00800           0
     33783 TIP3     3779     TIP3     H2       HT       0.417000       1.00800           0
     33784 TIP3     3780     TIP3     OH2      OT      -0.834000       15.9994           0
     33785 TIP3     3780     TIP3     H1       HT       0.417000       1.00800           0
     33786 TIP3     3780     TIP3     H2       HT       0.417000       1.00800           0
     33787 TIP3     3781     TIP3     OH2      OT      -0.834000       15.9994           0
     33788 TIP3     3781     TIP3     H1       HT       0.417000       1.00800           0
     33789 TIP3     3781     TIP3     H2       HT       0.417000       1.00800           0
     33790 TIP3     3782     TIP3     OH2      OT      -0.834000       15.9994           0
     33791 TIP3     3782     TIP3     H1       HT       0.417000       1.00800           0
     33792 TIP3     3782     TIP3     H2       HT       0.417000       1.00800           0
     33793 TIP3     3783     TIP3     OH2      OT      -0.834000       15.9994           0
     33794 TIP3     3783     TIP3     H1       HT       0.417000       1.00800           0
     33795 TIP3     3783     TIP3     H2       HT       0.417000       1.00800           0
     33796 TIP3     3784     TIP3     OH2      OT      -0.834000       15.9994           0
     33797 TIP3     3784     TIP3     H1       HT       0.417000       1.00800           0
     33798 TIP3     3784     TIP3     H2       HT       0.417000       1.00800           0
     33799 TIP3     3785     TIP3     OH2      OT      -0.834000       15.9994           0
     33800 TIP3     3785     TIP3     H1       HT       0.417000       1.00800           0
     33801 TIP3     3785     TIP3     H2       HT       0.417000       1.00800           0
     33802 TIP3     3786     TIP3     OH2      OT      -0.834000       15.9994           0
     33803 TIP3     3786     TIP3     H1       HT       0.417000       1.00800           0
     33804 TIP3     3786     TIP3     H2       HT       0.417000       1.00800           0
     33805 TIP3     3787     TIP3     OH2      OT      -0.834000       15.9994           0
     33806 TIP3     3787     TIP3     H1       HT       0.417000       1.00800           0
     33807 TIP3     3787     TIP3     H2       HT       0.417000       1.00800           0
     33808 TIP3     3788     TIP3     OH2      OT      -0.834000       15.9994           0
     33809 TIP3     3788     TIP3     H1       HT       0.417000       1.00800           0
     33810 TIP3     3788     TIP3     H2       HT       0.417000       1.00800           0
     33811 TIP3     3789     TIP3     OH2      OT      -0.834000       15.9994           0
     33812 TIP3     3789     TIP3     H1       HT       0.417000       1.00800           0
     33813 TIP3     3789     TIP3     H2       HT       0.417000       1.00800           0
     33814 TIP3     3790     TIP3     OH2      OT      -0.834000       15.9994           0
     33815 TIP3     3790     TIP3     H1       HT       0.417000       1.00800           0
     33816 TIP3     3790     TIP3     H2       HT       0.417000       1.00800           0
     33817 TIP3     3791     TIP3     OH2      OT      -0.834000       15.9994           0
     33818 TIP3     3791     TIP3     H1       HT       0.417000       1.00800           0
     33819 TIP3     3791     TIP3     H2       HT       0.417000       1.00800           0
     33820 TIP3     3792     TIP3     OH2      OT      -0.834000       15.9994           0
     33821 TIP3     3792     TIP3     H1       HT       0.417000       1.00800           0
     33822 TIP3     3792     TIP3     H2       HT       0.417000       1.00800           0
     33823 TIP3     3793     TIP3     OH2      OT      -0.834000       15.9994           0
     33824 TIP3     3793     TIP3     H1       HT       0.417000       1.00800           0
     33825 TIP3     3793     TIP3     H2       HT       0.417000       1.00800           0
     33826 TIP3     3794     TIP3     OH2      OT      -0.834000       15.9994           0
     33827 TIP3     3794     TIP3     H1       HT       0.417000       1.00800           0
     33828 TIP3     3794     TIP3     H2       HT       0.417000       1.00800           0
     33829 TIP3     3795     TIP3     OH2      OT      -0.834000       15.9994           0
     33830 TIP3     3795     TIP3     H1       HT       0.417000       1.00800           0
     33831 TIP3     3795     TIP3     H2       HT       0.417000       1.00800           0
     33832 TIP3     3796     TIP3     OH2      OT      -0.834000       15.9994           0
     33833 TIP3     3796     TIP3     H1       HT       0.417000       1.00800           0
     33834 TIP3     3796     TIP3     H2       HT       0.417000       1.00800           0
     33835 TIP3     3797     TIP3     OH2      OT      -0.834000       15.9994           0
     33836 TIP3     3797     TIP3     H1       HT       0.417000       1.00800           0
     33837 TIP3     3797     TIP3     H2       HT       0.417000       1.00800           0
     33838 TIP3     3798     TIP3     OH2      OT      -0.834000       15.9994           0
     33839 TIP3     3798     TIP3     H1       HT       0.417000       1.00800           0
     33840 TIP3     3798     TIP3     H2       HT       0.417000       1.00800           0
     33841 TIP3     3799     TIP3     OH2      OT      -0.834000       15.9994           0
     33842 TIP3     3799     TIP3     H1       HT       0.417000       1.00800           0
     33843 TIP3     3799     TIP3     H2       HT       0.417000       1.00800           0
     33844 TIP3     3800     TIP3     OH2      OT      -0.834000       15.9994           0
     33845 TIP3     3800     TIP3     H1       HT       0.417000       1.00800           0
     33846 TIP3     3800     TIP3     H2       HT       0.417000       1.00800           0
     33847 TIP3     3801     TIP3     OH2      OT      -0.834000       15.9994           0
     33848 TIP3     3801     TIP3     H1       HT       0.417000       1.00800           0
     33849 TIP3     3801     TIP3     H2       HT       0.417000       1.00800           0
     33850 TIP3     3802     TIP3     OH2      OT      -0.834000       15.9994           0
     33851 TIP3     3802     TIP3     H1       HT       0.417000       1.00800           0
     33852 TIP3     3802     TIP3     H2       HT       0.417000       1.00800           0
     33853 TIP3     3803     TIP3     OH2      OT      -0.834000       15.9994           0
     33854 TIP3     3803     TIP3     H1       HT       0.417000       1.00800           0
     33855 TIP3     3803     TIP3     H2       HT       0.417000       1.00800           0
     33856 TIP3     3804     TIP3     OH2      OT      -0.834000       15.9994           0
     33857 TIP3     3804     TIP3     H1       HT       0.417000       1.00800           0
     33858 TIP3     3804     TIP3     H2       HT       0.417000       1.00800           0
     33859 TIP3     3805     TIP3     OH2      OT      -0.834000       15.9994           0
     33860 TIP3     3805     TIP3     H1       HT       0.417000       1.00800           0
     33861 TIP3     3805     TIP3     H2       HT       0.417000       1.00800           0
     33862 TIP3     3806     TIP3     OH2      OT      -0.834000       15.9994           0
     33863 TIP3     3806     TIP3     H1       HT       0.417000       1.00800           0
     33864 TIP3     3806     TIP3     H2       HT       0.417000       1.00800           0
     33865 TIP3     3807     TIP3     OH2      OT      -0.834000       15.9994           0
     33866 TIP3     3807     TIP3     H1       HT       0.417000       1.00800           0
     33867 TIP3     3807     TIP3     H2       HT       0.417000       1.00800           0
     33868 TIP3     3808     TIP3     OH2      OT      -0.834000       15.9994           0
     33869 TIP3     3808     TIP3     H1       HT       0.417000       1.00800           0
     33870 TIP3     3808     TIP3     H2       HT       0.417000       1.00800           0
     33871 TIP3     3809     TIP3     OH2      OT      -0.834000       15.9994           0
     33872 TIP3     3809     TIP3     H1       HT       0.417000       1.00800           0
     33873 TIP3     3809     TIP3     H2       HT       0.417000       1.00800           0
     33874 TIP3     3810     TIP3     OH2      OT      -0.834000       15.9994           0
     33875 TIP3     3810     TIP3     H1       HT       0.417000       1.00800           0
     33876 TIP3     3810     TIP3     H2       HT       0.417000       1.00800           0
     33877 TIP3     3811     TIP3     OH2      OT      -0.834000       15.9994           0
     33878 TIP3     3811     TIP3     H1       HT       0.417000       1.00800           0
     33879 TIP3     3811     TIP3     H2       HT       0.417000       1.00800           0
     33880 TIP3     3812     TIP3     OH2      OT      -0.834000       15.9994           0
     33881 TIP3     3812     TIP3     H1       HT       0.417000       1.00800           0
     33882 TIP3     3812     TIP3     H2       HT       0.417000       1.00800           0
     33883 TIP3     3813     TIP3     OH2      OT      -0.834000       15.9994           0
     33884 TIP3     3813     TIP3     H1       HT       0.417000       1.00800           0
     33885 TIP3     3813     TIP3     H2       HT       0.417000       1.00800           0
     33886 TIP3     3814     TIP3     OH2      OT      -0.834000       15.9994           0
     33887 TIP3     3814     TIP3     H1       HT       0.417000       1.00800           0
     33888 TIP3     3814     TIP3     H2       HT       0.417000       1.00800           0
     33889 TIP3     3815     TIP3     OH2      OT      -0.834000       15.9994           0
     33890 TIP3     3815     TIP3     H1       HT       0.417000       1.00800           0
     33891 TIP3     3815     TIP3     H2       HT       0.417000       1.00800           0
     33892 TIP3     3816     TIP3     OH2      OT      -0.834000       15.9994           0
     33893 TIP3     3816     TIP3     H1       HT       0.417000       1.00800           0
     33894 TIP3     3816     TIP3     H2       HT       0.417000       1.00800           0
     33895 TIP3     3817     TIP3     OH2      OT      -0.834000       15.9994           0
     33896 TIP3     3817     TIP3     H1       HT       0.417000       1.00800           0
     33897 TIP3     3817     TIP3     H2       HT       0.417000       1.00800           0
     33898 TIP3     3818     TIP3     OH2      OT      -0.834000       15.9994           0
     33899 TIP3     3818     TIP3     H1       HT       0.417000       1.00800           0
     33900 TIP3     3818     TIP3     H2       HT       0.417000       1.00800           0
     33901 TIP3     3819     TIP3     OH2      OT      -0.834000       15.9994           0
     33902 TIP3     3819     TIP3     H1       HT       0.417000       1.00800           0
     33903 TIP3     3819     TIP3     H2       HT       0.417000       1.00800           0
     33904 TIP3     3820     TIP3     OH2      OT      -0.834000       15.9994           0
     33905 TIP3     3820     TIP3     H1       HT       0.417000       1.00800           0
     33906 TIP3     3820     TIP3     H2       HT       0.417000       1.00800           0
     33907 TIP3     3821     TIP3     OH2      OT      -0.834000       15.9994           0
     33908 TIP3     3821     TIP3     H1       HT       0.417000       1.00800           0
     33909 TIP3     3821     TIP3     H2       HT       0.417000       1.00800           0
     33910 TIP3     3822     TIP3     OH2      OT      -0.834000       15.9994           0
     33911 TIP3     3822     TIP3     H1       HT       0.417000       1.00800           0
     33912 TIP3     3822     TIP3     H2       HT       0.417000       1.00800           0
     33913 TIP3     3823     TIP3     OH2      OT      -0.834000       15.9994           0
     33914 TIP3     3823     TIP3     H1       HT       0.417000       1.00800           0
     33915 TIP3     3823     TIP3     H2       HT       0.417000       1.00800           0
     33916 TIP3     3824     TIP3     OH2      OT      -0.834000       15.9994           0
     33917 TIP3     3824     TIP3     H1       HT       0.417000       1.00800           0
     33918 TIP3     3824     TIP3     H2       HT       0.417000       1.00800           0
     33919 TIP3     3825     TIP3     OH2      OT      -0.834000       15.9994           0
     33920 TIP3     3825     TIP3     H1       HT       0.417000       1.00800           0
     33921 TIP3     3825     TIP3     H2       HT       0.417000       1.00800           0
     33922 TIP3     3826     TIP3     OH2      OT      -0.834000       15.9994           0
     33923 TIP3     3826     TIP3     H1       HT       0.417000       1.00800           0
     33924 TIP3     3826     TIP3     H2       HT       0.417000       1.00800           0
     33925 TIP3     3827     TIP3     OH2      OT      -0.834000       15.9994           0
     33926 TIP3     3827     TIP3     H1       HT       0.417000       1.00800           0
     33927 TIP3     3827     TIP3     H2       HT       0.417000       1.00800           0
     33928 TIP3     3828     TIP3     OH2      OT      -0.834000       15.9994           0
     33929 TIP3     3828     TIP3     H1       HT       0.417000       1.00800           0
     33930 TIP3     3828     TIP3     H2       HT       0.417000       1.00800           0
     33931 TIP3     3829     TIP3     OH2      OT      -0.834000       15.9994           0
     33932 TIP3     3829     TIP3     H1       HT       0.417000       1.00800           0
     33933 TIP3     3829     TIP3     H2       HT       0.417000       1.00800           0
     33934 TIP3     3830     TIP3     OH2      OT      -0.834000       15.9994           0
     33935 TIP3     3830     TIP3     H1       HT       0.417000       1.00800           0
     33936 TIP3     3830     TIP3     H2       HT       0.417000       1.00800           0
     33937 TIP3     3831     TIP3     OH2      OT      -0.834000       15.9994           0
     33938 TIP3     3831     TIP3     H1       HT       0.417000       1.00800           0
     33939 TIP3     3831     TIP3     H2       HT       0.417000       1.00800           0
     33940 TIP3     3832     TIP3     OH2      OT      -0.834000       15.9994           0
     33941 TIP3     3832     TIP3     H1       HT       0.417000       1.00800           0
     33942 TIP3     3832     TIP3     H2       HT       0.417000       1.00800           0
     33943 TIP3     3833     TIP3     OH2      OT      -0.834000       15.9994           0
     33944 TIP3     3833     TIP3     H1       HT       0.417000       1.00800           0
     33945 TIP3     3833     TIP3     H2       HT       0.417000       1.00800           0
     33946 TIP3     3834     TIP3     OH2      OT      -0.834000       15.9994           0
     33947 TIP3     3834     TIP3     H1       HT       0.417000       1.00800           0
     33948 TIP3     3834     TIP3     H2       HT       0.417000       1.00800           0
     33949 TIP3     3835     TIP3     OH2      OT      -0.834000       15.9994           0
     33950 TIP3     3835     TIP3     H1       HT       0.417000       1.00800           0
     33951 TIP3     3835     TIP3     H2       HT       0.417000       1.00800           0
     33952 TIP3     3836     TIP3     OH2      OT      -0.834000       15.9994           0
     33953 TIP3     3836     TIP3     H1       HT       0.417000       1.00800           0
     33954 TIP3     3836     TIP3     H2       HT       0.417000       1.00800           0
     33955 TIP3     3837     TIP3     OH2      OT      -0.834000       15.9994           0
     33956 TIP3     3837     TIP3     H1       HT       0.417000       1.00800           0
     33957 TIP3     3837     TIP3     H2       HT       0.417000       1.00800           0
     33958 TIP3     3838     TIP3     OH2      OT      -0.834000       15.9994           0
     33959 TIP3     3838     TIP3     H1       HT       0.417000       1.00800           0
     33960 TIP3     3838     TIP3     H2       HT       0.417000       1.00800           0
     33961 TIP3     3839     TIP3     OH2      OT      -0.834000       15.9994           0
     33962 TIP3     3839     TIP3     H1       HT       0.417000       1.00800           0
     33963 TIP3     3839     TIP3     H2       HT       0.417000       1.00800           0
     33964 TIP3     3840     TIP3     OH2      OT      -0.834000       15.9994           0
     33965 TIP3     3840     TIP3     H1       HT       0.417000       1.00800           0
     33966 TIP3     3840     TIP3     H2       HT       0.417000       1.00800           0
     33967 TIP3     3841     TIP3     OH2      OT      -0.834000       15.9994           0
     33968 TIP3     3841     TIP3     H1       HT       0.417000       1.00800           0
     33969 TIP3     3841     TIP3     H2       HT       0.417000       1.00800           0
     33970 TIP3     3842     TIP3     OH2      OT      -0.834000       15.9994           0
     33971 TIP3     3842     TIP3     H1       HT       0.417000       1.00800           0
     33972 TIP3     3842     TIP3     H2       HT       0.417000       1.00800           0
     33973 TIP3     3843     TIP3     OH2      OT      -0.834000       15.9994           0
     33974 TIP3     3843     TIP3     H1       HT       0.417000       1.00800           0
     33975 TIP3     3843     TIP3     H2       HT       0.417000       1.00800           0
     33976 TIP3     3844     TIP3     OH2      OT      -0.834000       15.9994           0
     33977 TIP3     3844     TIP3     H1       HT       0.417000       1.00800           0
     33978 TIP3     3844     TIP3     H2       HT       0.417000       1.00800           0
     33979 TIP3     3845     TIP3     OH2      OT      -0.834000       15.9994           0
     33980 TIP3     3845     TIP3     H1       HT       0.417000       1.00800           0
     33981 TIP3     3845     TIP3     H2       HT       0.417000       1.00800           0
     33982 TIP3     3846     TIP3     OH2      OT      -0.834000       15.9994           0
     33983 TIP3     3846     TIP3     H1       HT       0.417000       1.00800           0
     33984 TIP3     3846     TIP3     H2       HT       0.417000       1.00800           0
     33985 TIP3     3847     TIP3     OH2      OT      -0.834000       15.9994           0
     33986 TIP3     3847     TIP3     H1       HT       0.417000       1.00800           0
     33987 TIP3     3847     TIP3     H2       HT       0.417000       1.00800           0
     33988 TIP3     3848     TIP3     OH2      OT      -0.834000       15.9994           0
     33989 TIP3     3848     TIP3     H1       HT       0.417000       1.00800           0
     33990 TIP3     3848     TIP3     H2       HT       0.417000       1.00800           0
     33991 TIP3     3849     TIP3     OH2      OT      -0.834000       15.9994           0
     33992 TIP3     3849     TIP3     H1       HT       0.417000       1.00800           0
     33993 TIP3     3849     TIP3     H2       HT       0.417000       1.00800           0
     33994 TIP3     3850     TIP3     OH2      OT      -0.834000       15.9994           0
     33995 TIP3     3850     TIP3     H1       HT       0.417000       1.00800           0
     33996 TIP3     3850     TIP3     H2       HT       0.417000       1.00800           0
     33997 TIP3     3851     TIP3     OH2      OT      -0.834000       15.9994           0
     33998 TIP3     3851     TIP3     H1       HT       0.417000       1.00800           0
     33999 TIP3     3851     TIP3     H2       HT       0.417000       1.00800           0
     34000 TIP3     3852     TIP3     OH2      OT      -0.834000       15.9994           0
     34001 TIP3     3852     TIP3     H1       HT       0.417000       1.00800           0
     34002 TIP3     3852     TIP3     H2       HT       0.417000       1.00800           0
     34003 TIP3     3853     TIP3     OH2      OT      -0.834000       15.9994           0
     34004 TIP3     3853     TIP3     H1       HT       0.417000       1.00800           0
     34005 TIP3     3853     TIP3     H2       HT       0.417000       1.00800           0
     34006 TIP3     3854     TIP3     OH2      OT      -0.834000       15.9994           0
     34007 TIP3     3854     TIP3     H1       HT       0.417000       1.00800           0
     34008 TIP3     3854     TIP3     H2       HT       0.417000       1.00800           0
     34009 TIP3     3855     TIP3     OH2      OT      -0.834000       15.9994           0
     34010 TIP3     3855     TIP3     H1       HT       0.417000       1.00800           0
     34011 TIP3     3855     TIP3     H2       HT       0.417000       1.00800           0
     34012 TIP3     3856     TIP3     OH2      OT      -0.834000       15.9994           0
     34013 TIP3     3856     TIP3     H1       HT       0.417000       1.00800           0
     34014 TIP3     3856     TIP3     H2       HT       0.417000       1.00800           0
     34015 TIP3     3857     TIP3     OH2      OT      -0.834000       15.9994           0
     34016 TIP3     3857     TIP3     H1       HT       0.417000       1.00800           0
     34017 TIP3     3857     TIP3     H2       HT       0.417000       1.00800           0
     34018 TIP3     3858     TIP3     OH2      OT      -0.834000       15.9994           0
     34019 TIP3     3858     TIP3     H1       HT       0.417000       1.00800           0
     34020 TIP3     3858     TIP3     H2       HT       0.417000       1.00800           0
     34021 TIP3     3859     TIP3     OH2      OT      -0.834000       15.9994           0
     34022 TIP3     3859     TIP3     H1       HT       0.417000       1.00800           0
     34023 TIP3     3859     TIP3     H2       HT       0.417000       1.00800           0
     34024 TIP3     3860     TIP3     OH2      OT      -0.834000       15.9994           0
     34025 TIP3     3860     TIP3     H1       HT       0.417000       1.00800           0
     34026 TIP3     3860     TIP3     H2       HT       0.417000       1.00800           0
     34027 TIP3     3861     TIP3     OH2      OT      -0.834000       15.9994           0
     34028 TIP3     3861     TIP3     H1       HT       0.417000       1.00800           0
     34029 TIP3     3861     TIP3     H2       HT       0.417000       1.00800           0
     34030 TIP3     3862     TIP3     OH2      OT      -0.834000       15.9994           0
     34031 TIP3     3862     TIP3     H1       HT       0.417000       1.00800           0
     34032 TIP3     3862     TIP3     H2       HT       0.417000       1.00800           0
     34033 TIP3     3863     TIP3     OH2      OT      -0.834000       15.9994           0
     34034 TIP3     3863     TIP3     H1       HT       0.417000       1.00800           0
     34035 TIP3     3863     TIP3     H2       HT       0.417000       1.00800           0
     34036 TIP3     3864     TIP3     OH2      OT      -0.834000       15.9994           0
     34037 TIP3     3864     TIP3     H1       HT       0.417000       1.00800           0
     34038 TIP3     3864     TIP3     H2       HT       0.417000       1.00800           0
     34039 TIP3     3865     TIP3     OH2      OT      -0.834000       15.9994           0
     34040 TIP3     3865     TIP3     H1       HT       0.417000       1.00800           0
     34041 TIP3     3865     TIP3     H2       HT       0.417000       1.00800           0
     34042 TIP3     3866     TIP3     OH2      OT      -0.834000       15.9994           0
     34043 TIP3     3866     TIP3     H1       HT       0.417000       1.00800           0
     34044 TIP3     3866     TIP3     H2       HT       0.417000       1.00800           0
     34045 TIP3     3867     TIP3     OH2      OT      -0.834000       15.9994           0
     34046 TIP3     3867     TIP3     H1       HT       0.417000       1.00800           0
     34047 TIP3     3867     TIP3     H2       HT       0.417000       1.00800           0
     34048 TIP3     3868     TIP3     OH2      OT      -0.834000       15.9994           0
     34049 TIP3     3868     TIP3     H1       HT       0.417000       1.00800           0
     34050 TIP3     3868     TIP3     H2       HT       0.417000       1.00800           0
     34051 TIP3     3869     TIP3     OH2      OT      -0.834000       15.9994           0
     34052 TIP3     3869     TIP3     H1       HT       0.417000       1.00800           0
     34053 TIP3     3869     TIP3     H2       HT       0.417000       1.00800           0
     34054 TIP3     3870     TIP3     OH2      OT      -0.834000       15.9994           0
     34055 TIP3     3870     TIP3     H1       HT       0.417000       1.00800           0
     34056 TIP3     3870     TIP3     H2       HT       0.417000       1.00800           0
     34057 TIP3     3871     TIP3     OH2      OT      -0.834000       15.9994           0
     34058 TIP3     3871     TIP3     H1       HT       0.417000       1.00800           0
     34059 TIP3     3871     TIP3     H2       HT       0.417000       1.00800           0
     34060 TIP3     3872     TIP3     OH2      OT      -0.834000       15.9994           0
     34061 TIP3     3872     TIP3     H1       HT       0.417000       1.00800           0
     34062 TIP3     3872     TIP3     H2       HT       0.417000       1.00800           0
     34063 TIP3     3873     TIP3     OH2      OT      -0.834000       15.9994           0
     34064 TIP3     3873     TIP3     H1       HT       0.417000       1.00800           0
     34065 TIP3     3873     TIP3     H2       HT       0.417000       1.00800           0
     34066 TIP3     3874     TIP3     OH2      OT      -0.834000       15.9994           0
     34067 TIP3     3874     TIP3     H1       HT       0.417000       1.00800           0
     34068 TIP3     3874     TIP3     H2       HT       0.417000       1.00800           0
     34069 TIP3     3875     TIP3     OH2      OT      -0.834000       15.9994           0
     34070 TIP3     3875     TIP3     H1       HT       0.417000       1.00800           0
     34071 TIP3     3875     TIP3     H2       HT       0.417000       1.00800           0
     34072 TIP3     3876     TIP3     OH2      OT      -0.834000       15.9994           0
     34073 TIP3     3876     TIP3     H1       HT       0.417000       1.00800           0
     34074 TIP3     3876     TIP3     H2       HT       0.417000       1.00800           0
     34075 TIP3     3877     TIP3     OH2      OT      -0.834000       15.9994           0
     34076 TIP3     3877     TIP3     H1       HT       0.417000       1.00800           0
     34077 TIP3     3877     TIP3     H2       HT       0.417000       1.00800           0
     34078 TIP3     3878     TIP3     OH2      OT      -0.834000       15.9994           0
     34079 TIP3     3878     TIP3     H1       HT       0.417000       1.00800           0
     34080 TIP3     3878     TIP3     H2       HT       0.417000       1.00800           0
     34081 TIP3     3879     TIP3     OH2      OT      -0.834000       15.9994           0
     34082 TIP3     3879     TIP3     H1       HT       0.417000       1.00800           0
     34083 TIP3     3879     TIP3     H2       HT       0.417000       1.00800           0
     34084 TIP3     3880     TIP3     OH2      OT      -0.834000       15.9994           0
     34085 TIP3     3880     TIP3     H1       HT       0.417000       1.00800           0
     34086 TIP3     3880     TIP3     H2       HT       0.417000       1.00800           0
     34087 TIP3     3881     TIP3     OH2      OT      -0.834000       15.9994           0
     34088 TIP3     3881     TIP3     H1       HT       0.417000       1.00800           0
     34089 TIP3     3881     TIP3     H2       HT       0.417000       1.00800           0
     34090 TIP3     3882     TIP3     OH2      OT      -0.834000       15.9994           0
     34091 TIP3     3882     TIP3     H1       HT       0.417000       1.00800           0
     34092 TIP3     3882     TIP3     H2       HT       0.417000       1.00800           0
     34093 TIP3     3883     TIP3     OH2      OT      -0.834000       15.9994           0
     34094 TIP3     3883     TIP3     H1       HT       0.417000       1.00800           0
     34095 TIP3     3883     TIP3     H2       HT       0.417000       1.00800           0
     34096 TIP3     3884     TIP3     OH2      OT      -0.834000       15.9994           0
     34097 TIP3     3884     TIP3     H1       HT       0.417000       1.00800           0
     34098 TIP3     3884     TIP3     H2       HT       0.417000       1.00800           0
     34099 TIP3     3885     TIP3     OH2      OT      -0.834000       15.9994           0
     34100 TIP3     3885     TIP3     H1       HT       0.417000       1.00800           0
     34101 TIP3     3885     TIP3     H2       HT       0.417000       1.00800           0
     34102 TIP3     3886     TIP3     OH2      OT      -0.834000       15.9994           0
     34103 TIP3     3886     TIP3     H1       HT       0.417000       1.00800           0
     34104 TIP3     3886     TIP3     H2       HT       0.417000       1.00800           0
     34105 TIP3     3887     TIP3     OH2      OT      -0.834000       15.9994           0
     34106 TIP3     3887     TIP3     H1       HT       0.417000       1.00800           0
     34107 TIP3     3887     TIP3     H2       HT       0.417000       1.00800           0
     34108 TIP3     3888     TIP3     OH2      OT      -0.834000       15.9994           0
     34109 TIP3     3888     TIP3     H1       HT       0.417000       1.00800           0
     34110 TIP3     3888     TIP3     H2       HT       0.417000       1.00800           0
     34111 TIP3     3889     TIP3     OH2      OT      -0.834000       15.9994           0
     34112 TIP3     3889     TIP3     H1       HT       0.417000       1.00800           0
     34113 TIP3     3889     TIP3     H2       HT       0.417000       1.00800           0
     34114 TIP3     3890     TIP3     OH2      OT      -0.834000       15.9994           0
     34115 TIP3     3890     TIP3     H1       HT       0.417000       1.00800           0
     34116 TIP3     3890     TIP3     H2       HT       0.417000       1.00800           0
     34117 TIP3     3891     TIP3     OH2      OT      -0.834000       15.9994           0
     34118 TIP3     3891     TIP3     H1       HT       0.417000       1.00800           0
     34119 TIP3     3891     TIP3     H2       HT       0.417000       1.00800           0
     34120 TIP3     3892     TIP3     OH2      OT      -0.834000       15.9994           0
     34121 TIP3     3892     TIP3     H1       HT       0.417000       1.00800           0
     34122 TIP3     3892     TIP3     H2       HT       0.417000       1.00800           0
     34123 TIP3     3893     TIP3     OH2      OT      -0.834000       15.9994           0
     34124 TIP3     3893     TIP3     H1       HT       0.417000       1.00800           0
     34125 TIP3     3893     TIP3     H2       HT       0.417000       1.00800           0
     34126 TIP3     3894     TIP3     OH2      OT      -0.834000       15.9994           0
     34127 TIP3     3894     TIP3     H1       HT       0.417000       1.00800           0
     34128 TIP3     3894     TIP3     H2       HT       0.417000       1.00800           0
     34129 TIP3     3895     TIP3     OH2      OT      -0.834000       15.9994           0
     34130 TIP3     3895     TIP3     H1       HT       0.417000       1.00800           0
     34131 TIP3     3895     TIP3     H2       HT       0.417000       1.00800           0
     34132 TIP3     3896     TIP3     OH2      OT      -0.834000       15.9994           0
     34133 TIP3     3896     TIP3     H1       HT       0.417000       1.00800           0
     34134 TIP3     3896     TIP3     H2       HT       0.417000       1.00800           0
     34135 TIP3     3897     TIP3     OH2      OT      -0.834000       15.9994           0
     34136 TIP3     3897     TIP3     H1       HT       0.417000       1.00800           0
     34137 TIP3     3897     TIP3     H2       HT       0.417000       1.00800           0
     34138 TIP3     3898     TIP3     OH2      OT      -0.834000       15.9994           0
     34139 TIP3     3898     TIP3     H1       HT       0.417000       1.00800           0
     34140 TIP3     3898     TIP3     H2       HT       0.417000       1.00800           0
     34141 TIP3     3899     TIP3     OH2      OT      -0.834000       15.9994           0
     34142 TIP3     3899     TIP3     H1       HT       0.417000       1.00800           0
     34143 TIP3     3899     TIP3     H2       HT       0.417000       1.00800           0
     34144 TIP3     3900     TIP3     OH2      OT      -0.834000       15.9994           0
     34145 TIP3     3900     TIP3     H1       HT       0.417000       1.00800           0
     34146 TIP3     3900     TIP3     H2       HT       0.417000       1.00800           0
     34147 TIP3     3901     TIP3     OH2      OT      -0.834000       15.9994           0
     34148 TIP3     3901     TIP3     H1       HT       0.417000       1.00800           0
     34149 TIP3     3901     TIP3     H2       HT       0.417000       1.00800           0
     34150 TIP3     3902     TIP3     OH2      OT      -0.834000       15.9994           0
     34151 TIP3     3902     TIP3     H1       HT       0.417000       1.00800           0
     34152 TIP3     3902     TIP3     H2       HT       0.417000       1.00800           0
     34153 TIP3     3903     TIP3     OH2      OT      -0.834000       15.9994           0
     34154 TIP3     3903     TIP3     H1       HT       0.417000       1.00800           0
     34155 TIP3     3903     TIP3     H2       HT       0.417000       1.00800           0
     34156 TIP3     3904     TIP3     OH2      OT      -0.834000       15.9994           0
     34157 TIP3     3904     TIP3     H1       HT       0.417000       1.00800           0
     34158 TIP3     3904     TIP3     H2       HT       0.417000       1.00800           0
     34159 TIP3     3905     TIP3     OH2      OT      -0.834000       15.9994           0
     34160 TIP3     3905     TIP3     H1       HT       0.417000       1.00800           0
     34161 TIP3     3905     TIP3     H2       HT       0.417000       1.00800           0
     34162 TIP3     3906     TIP3     OH2      OT      -0.834000       15.9994           0
     34163 TIP3     3906     TIP3     H1       HT       0.417000       1.00800           0
     34164 TIP3     3906     TIP3     H2       HT       0.417000       1.00800           0
     34165 TIP3     3907     TIP3     OH2      OT      -0.834000       15.9994           0
     34166 TIP3     3907     TIP3     H1       HT       0.417000       1.00800           0
     34167 TIP3     3907     TIP3     H2       HT       0.417000       1.00800           0
     34168 TIP3     3908     TIP3     OH2      OT      -0.834000       15.9994           0
     34169 TIP3     3908     TIP3     H1       HT       0.417000       1.00800           0
     34170 TIP3     3908     TIP3     H2       HT       0.417000       1.00800           0
     34171 TIP3     3909     TIP3     OH2      OT      -0.834000       15.9994           0
     34172 TIP3     3909     TIP3     H1       HT       0.417000       1.00800           0
     34173 TIP3     3909     TIP3     H2       HT       0.417000       1.00800           0
     34174 TIP3     3910     TIP3     OH2      OT      -0.834000       15.9994           0
     34175 TIP3     3910     TIP3     H1       HT       0.417000       1.00800           0
     34176 TIP3     3910     TIP3     H2       HT       0.417000       1.00800           0
     34177 TIP3     3911     TIP3     OH2      OT      -0.834000       15.9994           0
     34178 TIP3     3911     TIP3     H1       HT       0.417000       1.00800           0
     34179 TIP3     3911     TIP3     H2       HT       0.417000       1.00800           0
     34180 TIP3     3912     TIP3     OH2      OT      -0.834000       15.9994           0
     34181 TIP3     3912     TIP3     H1       HT       0.417000       1.00800           0
     34182 TIP3     3912     TIP3     H2       HT       0.417000       1.00800           0
     34183 TIP3     3913     TIP3     OH2      OT      -0.834000       15.9994           0
     34184 TIP3     3913     TIP3     H1       HT       0.417000       1.00800           0
     34185 TIP3     3913     TIP3     H2       HT       0.417000       1.00800           0
     34186 TIP3     3914     TIP3     OH2      OT      -0.834000       15.9994           0
     34187 TIP3     3914     TIP3     H1       HT       0.417000       1.00800           0
     34188 TIP3     3914     TIP3     H2       HT       0.417000       1.00800           0
     34189 TIP3     3915     TIP3     OH2      OT      -0.834000       15.9994           0
     34190 TIP3     3915     TIP3     H1       HT       0.417000       1.00800           0
     34191 TIP3     3915     TIP3     H2       HT       0.417000       1.00800           0
     34192 TIP3     3916     TIP3     OH2      OT      -0.834000       15.9994           0
     34193 TIP3     3916     TIP3     H1       HT       0.417000       1.00800           0
     34194 TIP3     3916     TIP3     H2       HT       0.417000       1.00800           0
     34195 TIP3     3917     TIP3     OH2      OT      -0.834000       15.9994           0
     34196 TIP3     3917     TIP3     H1       HT       0.417000       1.00800           0
     34197 TIP3     3917     TIP3     H2       HT       0.417000       1.00800           0
     34198 TIP3     3918     TIP3     OH2      OT      -0.834000       15.9994           0
     34199 TIP3     3918     TIP3     H1       HT       0.417000       1.00800           0
     34200 TIP3     3918     TIP3     H2       HT       0.417000       1.00800           0
     34201 TIP3     3919     TIP3     OH2      OT      -0.834000       15.9994           0
     34202 TIP3     3919     TIP3     H1       HT       0.417000       1.00800           0
     34203 TIP3     3919     TIP3     H2       HT       0.417000       1.00800           0
     34204 TIP3     3920     TIP3     OH2      OT      -0.834000       15.9994           0
     34205 TIP3     3920     TIP3     H1       HT       0.417000       1.00800           0
     34206 TIP3     3920     TIP3     H2       HT       0.417000       1.00800           0
     34207 TIP3     3921     TIP3     OH2      OT      -0.834000       15.9994           0
     34208 TIP3     3921     TIP3     H1       HT       0.417000       1.00800           0
     34209 TIP3     3921     TIP3     H2       HT       0.417000       1.00800           0
     34210 TIP3     3922     TIP3     OH2      OT      -0.834000       15.9994           0
     34211 TIP3     3922     TIP3     H1       HT       0.417000       1.00800           0
     34212 TIP3     3922     TIP3     H2       HT       0.417000       1.00800           0
     34213 TIP3     3923     TIP3     OH2      OT      -0.834000       15.9994           0
     34214 TIP3     3923     TIP3     H1       HT       0.417000       1.00800           0
     34215 TIP3     3923     TIP3     H2       HT       0.417000       1.00800           0
     34216 TIP3     3924     TIP3     OH2      OT      -0.834000       15.9994           0
     34217 TIP3     3924     TIP3     H1       HT       0.417000       1.00800           0
     34218 TIP3     3924     TIP3     H2       HT       0.417000       1.00800           0
     34219 TIP3     3925     TIP3     OH2      OT      -0.834000       15.9994           0
     34220 TIP3     3925     TIP3     H1       HT       0.417000       1.00800           0
     34221 TIP3     3925     TIP3     H2       HT       0.417000       1.00800           0
     34222 TIP3     3926     TIP3     OH2      OT      -0.834000       15.9994           0
     34223 TIP3     3926     TIP3     H1       HT       0.417000       1.00800           0
     34224 TIP3     3926     TIP3     H2       HT       0.417000       1.00800           0
     34225 TIP3     3927     TIP3     OH2      OT      -0.834000       15.9994           0
     34226 TIP3     3927     TIP3     H1       HT       0.417000       1.00800           0
     34227 TIP3     3927     TIP3     H2       HT       0.417000       1.00800           0
     34228 TIP3     3928     TIP3     OH2      OT      -0.834000       15.9994           0
     34229 TIP3     3928     TIP3     H1       HT       0.417000       1.00800           0
     34230 TIP3     3928     TIP3     H2       HT       0.417000       1.00800           0
     34231 TIP3     3929     TIP3     OH2      OT      -0.834000       15.9994           0
     34232 TIP3     3929     TIP3     H1       HT       0.417000       1.00800           0
     34233 TIP3     3929     TIP3     H2       HT       0.417000       1.00800           0
     34234 TIP3     3930     TIP3     OH2      OT      -0.834000       15.9994           0
     34235 TIP3     3930     TIP3     H1       HT       0.417000       1.00800           0
     34236 TIP3     3930     TIP3     H2       HT       0.417000       1.00800           0
     34237 TIP3     3931     TIP3     OH2      OT      -0.834000       15.9994           0
     34238 TIP3     3931     TIP3     H1       HT       0.417000       1.00800           0
     34239 TIP3     3931     TIP3     H2       HT       0.417000       1.00800           0
     34240 TIP3     3932     TIP3     OH2      OT      -0.834000       15.9994           0
     34241 TIP3     3932     TIP3     H1       HT       0.417000       1.00800           0
     34242 TIP3     3932     TIP3     H2       HT       0.417000       1.00800           0
     34243 TIP3     3933     TIP3     OH2      OT      -0.834000       15.9994           0
     34244 TIP3     3933     TIP3     H1       HT       0.417000       1.00800           0
     34245 TIP3     3933     TIP3     H2       HT       0.417000       1.00800           0
     34246 TIP3     3934     TIP3     OH2      OT      -0.834000       15.9994           0
     34247 TIP3     3934     TIP3     H1       HT       0.417000       1.00800           0
     34248 TIP3     3934     TIP3     H2       HT       0.417000       1.00800           0
     34249 TIP3     3935     TIP3     OH2      OT      -0.834000       15.9994           0
     34250 TIP3     3935     TIP3     H1       HT       0.417000       1.00800           0
     34251 TIP3     3935     TIP3     H2       HT       0.417000       1.00800           0
     34252 TIP3     3936     TIP3     OH2      OT      -0.834000       15.9994           0
     34253 TIP3     3936     TIP3     H1       HT       0.417000       1.00800           0
     34254 TIP3     3936     TIP3     H2       HT       0.417000       1.00800           0
     34255 TIP3     3937     TIP3     OH2      OT      -0.834000       15.9994           0
     34256 TIP3     3937     TIP3     H1       HT       0.417000       1.00800           0
     34257 TIP3     3937     TIP3     H2       HT       0.417000       1.00800           0
     34258 TIP3     3938     TIP3     OH2      OT      -0.834000       15.9994           0
     34259 TIP3     3938     TIP3     H1       HT       0.417000       1.00800           0
     34260 TIP3     3938     TIP3     H2       HT       0.417000       1.00800           0
     34261 TIP3     3939     TIP3     OH2      OT      -0.834000       15.9994           0
     34262 TIP3     3939     TIP3     H1       HT       0.417000       1.00800           0
     34263 TIP3     3939     TIP3     H2       HT       0.417000       1.00800           0
     34264 TIP3     3940     TIP3     OH2      OT      -0.834000       15.9994           0
     34265 TIP3     3940     TIP3     H1       HT       0.417000       1.00800           0
     34266 TIP3     3940     TIP3     H2       HT       0.417000       1.00800           0
     34267 TIP3     3941     TIP3     OH2      OT      -0.834000       15.9994           0
     34268 TIP3     3941     TIP3     H1       HT       0.417000       1.00800           0
     34269 TIP3     3941     TIP3     H2       HT       0.417000       1.00800           0
     34270 TIP3     3942     TIP3     OH2      OT      -0.834000       15.9994           0
     34271 TIP3     3942     TIP3     H1       HT       0.417000       1.00800           0
     34272 TIP3     3942     TIP3     H2       HT       0.417000       1.00800           0
     34273 TIP3     3943     TIP3     OH2      OT      -0.834000       15.9994           0
     34274 TIP3     3943     TIP3     H1       HT       0.417000       1.00800           0
     34275 TIP3     3943     TIP3     H2       HT       0.417000       1.00800           0
     34276 TIP3     3944     TIP3     OH2      OT      -0.834000       15.9994           0
     34277 TIP3     3944     TIP3     H1       HT       0.417000       1.00800           0
     34278 TIP3     3944     TIP3     H2       HT       0.417000       1.00800           0
     34279 TIP3     3945     TIP3     OH2      OT      -0.834000       15.9994           0
     34280 TIP3     3945     TIP3     H1       HT       0.417000       1.00800           0
     34281 TIP3     3945     TIP3     H2       HT       0.417000       1.00800           0
     34282 TIP3     3946     TIP3     OH2      OT      -0.834000       15.9994           0
     34283 TIP3     3946     TIP3     H1       HT       0.417000       1.00800           0
     34284 TIP3     3946     TIP3     H2       HT       0.417000       1.00800           0
     34285 TIP3     3947     TIP3     OH2      OT      -0.834000       15.9994           0
     34286 TIP3     3947     TIP3     H1       HT       0.417000       1.00800           0
     34287 TIP3     3947     TIP3     H2       HT       0.417000       1.00800           0
     34288 TIP3     3948     TIP3     OH2      OT      -0.834000       15.9994           0
     34289 TIP3     3948     TIP3     H1       HT       0.417000       1.00800           0
     34290 TIP3     3948     TIP3     H2       HT       0.417000       1.00800           0
     34291 TIP3     3949     TIP3     OH2      OT      -0.834000       15.9994           0
     34292 TIP3     3949     TIP3     H1       HT       0.417000       1.00800           0
     34293 TIP3     3949     TIP3     H2       HT       0.417000       1.00800           0
     34294 TIP3     3950     TIP3     OH2      OT      -0.834000       15.9994           0
     34295 TIP3     3950     TIP3     H1       HT       0.417000       1.00800           0
     34296 TIP3     3950     TIP3     H2       HT       0.417000       1.00800           0
     34297 TIP3     3951     TIP3     OH2      OT      -0.834000       15.9994           0
     34298 TIP3     3951     TIP3     H1       HT       0.417000       1.00800           0
     34299 TIP3     3951     TIP3     H2       HT       0.417000       1.00800           0
     34300 TIP3     3952     TIP3     OH2      OT      -0.834000       15.9994           0
     34301 TIP3     3952     TIP3     H1       HT       0.417000       1.00800           0
     34302 TIP3     3952     TIP3     H2       HT       0.417000       1.00800           0
     34303 TIP3     3953     TIP3     OH2      OT      -0.834000       15.9994           0
     34304 TIP3     3953     TIP3     H1       HT       0.417000       1.00800           0
     34305 TIP3     3953     TIP3     H2       HT       0.417000       1.00800           0
     34306 TIP3     3954     TIP3     OH2      OT      -0.834000       15.9994           0
     34307 TIP3     3954     TIP3     H1       HT       0.417000       1.00800           0
     34308 TIP3     3954     TIP3     H2       HT       0.417000       1.00800           0
     34309 TIP3     3955     TIP3     OH2      OT      -0.834000       15.9994           0
     34310 TIP3     3955     TIP3     H1       HT       0.417000       1.00800           0
     34311 TIP3     3955     TIP3     H2       HT       0.417000       1.00800           0
     34312 TIP3     3956     TIP3     OH2      OT      -0.834000       15.9994           0
     34313 TIP3     3956     TIP3     H1       HT       0.417000       1.00800           0
     34314 TIP3     3956     TIP3     H2       HT       0.417000       1.00800           0
     34315 TIP3     3957     TIP3     OH2      OT      -0.834000       15.9994           0
     34316 TIP3     3957     TIP3     H1       HT       0.417000       1.00800           0
     34317 TIP3     3957     TIP3     H2       HT       0.417000       1.00800           0
     34318 TIP3     3958     TIP3     OH2      OT      -0.834000       15.9994           0
     34319 TIP3     3958     TIP3     H1       HT       0.417000       1.00800           0
     34320 TIP3     3958     TIP3     H2       HT       0.417000       1.00800           0
     34321 TIP3     3959     TIP3     OH2      OT      -0.834000       15.9994           0
     34322 TIP3     3959     TIP3     H1       HT       0.417000       1.00800           0
     34323 TIP3     3959     TIP3     H2       HT       0.417000       1.00800           0
     34324 TIP3     3960     TIP3     OH2      OT      -0.834000       15.9994           0
     34325 TIP3     3960     TIP3     H1       HT       0.417000       1.00800           0
     34326 TIP3     3960     TIP3     H2       HT       0.417000       1.00800           0
     34327 TIP3     3961     TIP3     OH2      OT      -0.834000       15.9994           0
     34328 TIP3     3961     TIP3     H1       HT       0.417000       1.00800           0
     34329 TIP3     3961     TIP3     H2       HT       0.417000       1.00800           0
     34330 TIP3     3962     TIP3     OH2      OT      -0.834000       15.9994           0
     34331 TIP3     3962     TIP3     H1       HT       0.417000       1.00800           0
     34332 TIP3     3962     TIP3     H2       HT       0.417000       1.00800           0
     34333 TIP3     3963     TIP3     OH2      OT      -0.834000       15.9994           0
     34334 TIP3     3963     TIP3     H1       HT       0.417000       1.00800           0
     34335 TIP3     3963     TIP3     H2       HT       0.417000       1.00800           0
     34336 TIP3     3964     TIP3     OH2      OT      -0.834000       15.9994           0
     34337 TIP3     3964     TIP3     H1       HT       0.417000       1.00800           0
     34338 TIP3     3964     TIP3     H2       HT       0.417000       1.00800           0
     34339 TIP3     3965     TIP3     OH2      OT      -0.834000       15.9994           0
     34340 TIP3     3965     TIP3     H1       HT       0.417000       1.00800           0
     34341 TIP3     3965     TIP3     H2       HT       0.417000       1.00800           0
     34342 TIP3     3966     TIP3     OH2      OT      -0.834000       15.9994           0
     34343 TIP3     3966     TIP3     H1       HT       0.417000       1.00800           0
     34344 TIP3     3966     TIP3     H2       HT       0.417000       1.00800           0
     34345 TIP3     3967     TIP3     OH2      OT      -0.834000       15.9994           0
     34346 TIP3     3967     TIP3     H1       HT       0.417000       1.00800           0
     34347 TIP3     3967     TIP3     H2       HT       0.417000       1.00800           0
     34348 TIP3     3968     TIP3     OH2      OT      -0.834000       15.9994           0
     34349 TIP3     3968     TIP3     H1       HT       0.417000       1.00800           0
     34350 TIP3     3968     TIP3     H2       HT       0.417000       1.00800           0
     34351 TIP3     3969     TIP3     OH2      OT      -0.834000       15.9994           0
     34352 TIP3     3969     TIP3     H1       HT       0.417000       1.00800           0
     34353 TIP3     3969     TIP3     H2       HT       0.417000       1.00800           0
     34354 TIP3     3970     TIP3     OH2      OT      -0.834000       15.9994           0
     34355 TIP3     3970     TIP3     H1       HT       0.417000       1.00800           0
     34356 TIP3     3970     TIP3     H2       HT       0.417000       1.00800           0
     34357 TIP3     3971     TIP3     OH2      OT      -0.834000       15.9994           0
     34358 TIP3     3971     TIP3     H1       HT       0.417000       1.00800           0
     34359 TIP3     3971     TIP3     H2       HT       0.417000       1.00800           0
     34360 TIP3     3972     TIP3     OH2      OT      -0.834000       15.9994           0
     34361 TIP3     3972     TIP3     H1       HT       0.417000       1.00800           0
     34362 TIP3     3972     TIP3     H2       HT       0.417000       1.00800           0
     34363 TIP3     3973     TIP3     OH2      OT      -0.834000       15.9994           0
     34364 TIP3     3973     TIP3     H1       HT       0.417000       1.00800           0
     34365 TIP3     3973     TIP3     H2       HT       0.417000       1.00800           0
     34366 TIP3     3974     TIP3     OH2      OT      -0.834000       15.9994           0
     34367 TIP3     3974     TIP3     H1       HT       0.417000       1.00800           0
     34368 TIP3     3974     TIP3     H2       HT       0.417000       1.00800           0
     34369 TIP3     3975     TIP3     OH2      OT      -0.834000       15.9994           0
     34370 TIP3     3975     TIP3     H1       HT       0.417000       1.00800           0
     34371 TIP3     3975     TIP3     H2       HT       0.417000       1.00800           0
     34372 TIP3     3976     TIP3     OH2      OT      -0.834000       15.9994           0
     34373 TIP3     3976     TIP3     H1       HT       0.417000       1.00800           0
     34374 TIP3     3976     TIP3     H2       HT       0.417000       1.00800           0
     34375 TIP3     3977     TIP3     OH2      OT      -0.834000       15.9994           0
     34376 TIP3     3977     TIP3     H1       HT       0.417000       1.00800           0
     34377 TIP3     3977     TIP3     H2       HT       0.417000       1.00800           0
     34378 TIP3     3978     TIP3     OH2      OT      -0.834000       15.9994           0
     34379 TIP3     3978     TIP3     H1       HT       0.417000       1.00800           0
     34380 TIP3     3978     TIP3     H2       HT       0.417000       1.00800           0
     34381 TIP3     3979     TIP3     OH2      OT      -0.834000       15.9994           0
     34382 TIP3     3979     TIP3     H1       HT       0.417000       1.00800           0
     34383 TIP3     3979     TIP3     H2       HT       0.417000       1.00800           0
     34384 TIP3     3980     TIP3     OH2      OT      -0.834000       15.9994           0
     34385 TIP3     3980     TIP3     H1       HT       0.417000       1.00800           0
     34386 TIP3     3980     TIP3     H2       HT       0.417000       1.00800           0
     34387 TIP3     3981     TIP3     OH2      OT      -0.834000       15.9994           0
     34388 TIP3     3981     TIP3     H1       HT       0.417000       1.00800           0
     34389 TIP3     3981     TIP3     H2       HT       0.417000       1.00800           0
     34390 TIP3     3982     TIP3     OH2      OT      -0.834000       15.9994           0
     34391 TIP3     3982     TIP3     H1       HT       0.417000       1.00800           0
     34392 TIP3     3982     TIP3     H2       HT       0.417000       1.00800           0
     34393 TIP3     3983     TIP3     OH2      OT      -0.834000       15.9994           0
     34394 TIP3     3983     TIP3     H1       HT       0.417000       1.00800           0
     34395 TIP3     3983     TIP3     H2       HT       0.417000       1.00800           0
     34396 TIP3     3984     TIP3     OH2      OT      -0.834000       15.9994           0
     34397 TIP3     3984     TIP3     H1       HT       0.417000       1.00800           0
     34398 TIP3     3984     TIP3     H2       HT       0.417000       1.00800           0
     34399 TIP3     3985     TIP3     OH2      OT      -0.834000       15.9994           0
     34400 TIP3     3985     TIP3     H1       HT       0.417000       1.00800           0
     34401 TIP3     3985     TIP3     H2       HT       0.417000       1.00800           0
     34402 TIP3     3986     TIP3     OH2      OT      -0.834000       15.9994           0
     34403 TIP3     3986     TIP3     H1       HT       0.417000       1.00800           0
     34404 TIP3     3986     TIP3     H2       HT       0.417000       1.00800           0
     34405 TIP3     3987     TIP3     OH2      OT      -0.834000       15.9994           0
     34406 TIP3     3987     TIP3     H1       HT       0.417000       1.00800           0
     34407 TIP3     3987     TIP3     H2       HT       0.417000       1.00800           0
     34408 TIP3     3988     TIP3     OH2      OT      -0.834000       15.9994           0
     34409 TIP3     3988     TIP3     H1       HT       0.417000       1.00800           0
     34410 TIP3     3988     TIP3     H2       HT       0.417000       1.00800           0
     34411 TIP3     3989     TIP3     OH2      OT      -0.834000       15.9994           0
     34412 TIP3     3989     TIP3     H1       HT       0.417000       1.00800           0
     34413 TIP3     3989     TIP3     H2       HT       0.417000       1.00800           0
     34414 TIP3     3990     TIP3     OH2      OT      -0.834000       15.9994           0
     34415 TIP3     3990     TIP3     H1       HT       0.417000       1.00800           0
     34416 TIP3     3990     TIP3     H2       HT       0.417000       1.00800           0
     34417 TIP3     3991     TIP3     OH2      OT      -0.834000       15.9994           0
     34418 TIP3     3991     TIP3     H1       HT       0.417000       1.00800           0
     34419 TIP3     3991     TIP3     H2       HT       0.417000       1.00800           0
     34420 TIP3     3992     TIP3     OH2      OT      -0.834000       15.9994           0
     34421 TIP3     3992     TIP3     H1       HT       0.417000       1.00800           0
     34422 TIP3     3992     TIP3     H2       HT       0.417000       1.00800           0
     34423 TIP3     3993     TIP3     OH2      OT      -0.834000       15.9994           0
     34424 TIP3     3993     TIP3     H1       HT       0.417000       1.00800           0
     34425 TIP3     3993     TIP3     H2       HT       0.417000       1.00800           0
     34426 TIP3     3994     TIP3     OH2      OT      -0.834000       15.9994           0
     34427 TIP3     3994     TIP3     H1       HT       0.417000       1.00800           0
     34428 TIP3     3994     TIP3     H2       HT       0.417000       1.00800           0
     34429 TIP3     3995     TIP3     OH2      OT      -0.834000       15.9994           0
     34430 TIP3     3995     TIP3     H1       HT       0.417000       1.00800           0
     34431 TIP3     3995     TIP3     H2       HT       0.417000       1.00800           0
     34432 TIP3     3996     TIP3     OH2      OT      -0.834000       15.9994           0
     34433 TIP3     3996     TIP3     H1       HT       0.417000       1.00800           0
     34434 TIP3     3996     TIP3     H2       HT       0.417000       1.00800           0
     34435 TIP3     3997     TIP3     OH2      OT      -0.834000       15.9994           0
     34436 TIP3     3997     TIP3     H1       HT       0.417000       1.00800           0
     34437 TIP3     3997     TIP3     H2       HT       0.417000       1.00800           0
     34438 TIP3     3998     TIP3     OH2      OT      -0.834000       15.9994           0
     34439 TIP3     3998     TIP3     H1       HT       0.417000       1.00800           0
     34440 TIP3     3998     TIP3     H2       HT       0.417000       1.00800           0
     34441 TIP3     3999     TIP3     OH2      OT      -0.834000       15.9994           0
     34442 TIP3     3999     TIP3     H1       HT       0.417000       1.00800           0
     34443 TIP3     3999     TIP3     H2       HT       0.417000       1.00800           0
     34444 TIP3     4000     TIP3     OH2      OT      -0.834000       15.9994           0
     34445 TIP3     4000     TIP3     H1       HT       0.417000       1.00800           0
     34446 TIP3     4000     TIP3     H2       HT       0.417000       1.00800           0
     34447 TIP3     4001     TIP3     OH2      OT      -0.834000       15.9994           0
     34448 TIP3     4001     TIP3     H1       HT       0.417000       1.00800           0
     34449 TIP3     4001     TIP3     H2       HT       0.417000       1.00800           0
     34450 TIP3     4002     TIP3     OH2      OT      -0.834000       15.9994           0
     34451 TIP3     4002     TIP3     H1       HT       0.417000       1.00800           0
     34452 TIP3     4002     TIP3     H2       HT       0.417000       1.00800           0
     34453 TIP3     4003     TIP3     OH2      OT      -0.834000       15.9994           0
     34454 TIP3     4003     TIP3     H1       HT       0.417000       1.00800           0
     34455 TIP3     4003     TIP3     H2       HT       0.417000       1.00800           0
     34456 TIP3     4004     TIP3     OH2      OT      -0.834000       15.9994           0
     34457 TIP3     4004     TIP3     H1       HT       0.417000       1.00800           0
     34458 TIP3     4004     TIP3     H2       HT       0.417000       1.00800           0
     34459 TIP3     4005     TIP3     OH2      OT      -0.834000       15.9994           0
     34460 TIP3     4005     TIP3     H1       HT       0.417000       1.00800           0
     34461 TIP3     4005     TIP3     H2       HT       0.417000       1.00800           0
     34462 TIP3     4006     TIP3     OH2      OT      -0.834000       15.9994           0
     34463 TIP3     4006     TIP3     H1       HT       0.417000       1.00800           0
     34464 TIP3     4006     TIP3     H2       HT       0.417000       1.00800           0
     34465 TIP3     4007     TIP3     OH2      OT      -0.834000       15.9994           0
     34466 TIP3     4007     TIP3     H1       HT       0.417000       1.00800           0
     34467 TIP3     4007     TIP3     H2       HT       0.417000       1.00800           0
     34468 TIP3     4008     TIP3     OH2      OT      -0.834000       15.9994           0
     34469 TIP3     4008     TIP3     H1       HT       0.417000       1.00800           0
     34470 TIP3     4008     TIP3     H2       HT       0.417000       1.00800           0
     34471 TIP3     4009     TIP3     OH2      OT      -0.834000       15.9994           0
     34472 TIP3     4009     TIP3     H1       HT       0.417000       1.00800           0
     34473 TIP3     4009     TIP3     H2       HT       0.417000       1.00800           0
     34474 TIP3     4010     TIP3     OH2      OT      -0.834000       15.9994           0
     34475 TIP3     4010     TIP3     H1       HT       0.417000       1.00800           0
     34476 TIP3     4010     TIP3     H2       HT       0.417000       1.00800           0
     34477 TIP3     4011     TIP3     OH2      OT      -0.834000       15.9994           0
     34478 TIP3     4011     TIP3     H1       HT       0.417000       1.00800           0
     34479 TIP3     4011     TIP3     H2       HT       0.417000       1.00800           0
     34480 TIP3     4012     TIP3     OH2      OT      -0.834000       15.9994           0
     34481 TIP3     4012     TIP3     H1       HT       0.417000       1.00800           0
     34482 TIP3     4012     TIP3     H2       HT       0.417000       1.00800           0
     34483 TIP3     4013     TIP3     OH2      OT      -0.834000       15.9994           0
     34484 TIP3     4013     TIP3     H1       HT       0.417000       1.00800           0
     34485 TIP3     4013     TIP3     H2       HT       0.417000       1.00800           0
     34486 TIP3     4014     TIP3     OH2      OT      -0.834000       15.9994           0
     34487 TIP3     4014     TIP3     H1       HT       0.417000       1.00800           0
     34488 TIP3     4014     TIP3     H2       HT       0.417000       1.00800           0
     34489 TIP3     4015     TIP3     OH2      OT      -0.834000       15.9994           0
     34490 TIP3     4015     TIP3     H1       HT       0.417000       1.00800           0
     34491 TIP3     4015     TIP3     H2       HT       0.417000       1.00800           0
     34492 TIP3     4016     TIP3     OH2      OT      -0.834000       15.9994           0
     34493 TIP3     4016     TIP3     H1       HT       0.417000       1.00800           0
     34494 TIP3     4016     TIP3     H2       HT       0.417000       1.00800           0
     34495 TIP3     4017     TIP3     OH2      OT      -0.834000       15.9994           0
     34496 TIP3     4017     TIP3     H1       HT       0.417000       1.00800           0
     34497 TIP3     4017     TIP3     H2       HT       0.417000       1.00800           0
     34498 TIP3     4018     TIP3     OH2      OT      -0.834000       15.9994           0
     34499 TIP3     4018     TIP3     H1       HT       0.417000       1.00800           0
     34500 TIP3     4018     TIP3     H2       HT       0.417000       1.00800           0
     34501 TIP3     4019     TIP3     OH2      OT      -0.834000       15.9994           0
     34502 TIP3     4019     TIP3     H1       HT       0.417000       1.00800           0
     34503 TIP3     4019     TIP3     H2       HT       0.417000       1.00800           0
     34504 TIP3     4020     TIP3     OH2      OT      -0.834000       15.9994           0
     34505 TIP3     4020     TIP3     H1       HT       0.417000       1.00800           0
     34506 TIP3     4020     TIP3     H2       HT       0.417000       1.00800           0
     34507 TIP3     4021     TIP3     OH2      OT      -0.834000       15.9994           0
     34508 TIP3     4021     TIP3     H1       HT       0.417000       1.00800           0
     34509 TIP3     4021     TIP3     H2       HT       0.417000       1.00800           0
     34510 TIP3     4022     TIP3     OH2      OT      -0.834000       15.9994           0
     34511 TIP3     4022     TIP3     H1       HT       0.417000       1.00800           0
     34512 TIP3     4022     TIP3     H2       HT       0.417000       1.00800           0
     34513 TIP3     4023     TIP3     OH2      OT      -0.834000       15.9994           0
     34514 TIP3     4023     TIP3     H1       HT       0.417000       1.00800           0
     34515 TIP3     4023     TIP3     H2       HT       0.417000       1.00800           0
     34516 TIP3     4024     TIP3     OH2      OT      -0.834000       15.9994           0
     34517 TIP3     4024     TIP3     H1       HT       0.417000       1.00800           0
     34518 TIP3     4024     TIP3     H2       HT       0.417000       1.00800           0
     34519 TIP3     4025     TIP3     OH2      OT      -0.834000       15.9994           0
     34520 TIP3     4025     TIP3     H1       HT       0.417000       1.00800           0
     34521 TIP3     4025     TIP3     H2       HT       0.417000       1.00800           0
     34522 TIP3     4026     TIP3     OH2      OT      -0.834000       15.9994           0
     34523 TIP3     4026     TIP3     H1       HT       0.417000       1.00800           0
     34524 TIP3     4026     TIP3     H2       HT       0.417000       1.00800           0
     34525 TIP3     4027     TIP3     OH2      OT      -0.834000       15.9994           0
     34526 TIP3     4027     TIP3     H1       HT       0.417000       1.00800           0
     34527 TIP3     4027     TIP3     H2       HT       0.417000       1.00800           0
     34528 TIP3     4028     TIP3     OH2      OT      -0.834000       15.9994           0
     34529 TIP3     4028     TIP3     H1       HT       0.417000       1.00800           0
     34530 TIP3     4028     TIP3     H2       HT       0.417000       1.00800           0
     34531 TIP3     4029     TIP3     OH2      OT      -0.834000       15.9994           0
     34532 TIP3     4029     TIP3     H1       HT       0.417000       1.00800           0
     34533 TIP3     4029     TIP3     H2       HT       0.417000       1.00800           0
     34534 TIP3     4030     TIP3     OH2      OT      -0.834000       15.9994           0
     34535 TIP3     4030     TIP3     H1       HT       0.417000       1.00800           0
     34536 TIP3     4030     TIP3     H2       HT       0.417000       1.00800           0
     34537 TIP3     4031     TIP3     OH2      OT      -0.834000       15.9994           0
     34538 TIP3     4031     TIP3     H1       HT       0.417000       1.00800           0
     34539 TIP3     4031     TIP3     H2       HT       0.417000       1.00800           0
     34540 TIP3     4032     TIP3     OH2      OT      -0.834000       15.9994           0
     34541 TIP3     4032     TIP3     H1       HT       0.417000       1.00800           0
     34542 TIP3     4032     TIP3     H2       HT       0.417000       1.00800           0
     34543 TIP3     4033     TIP3     OH2      OT      -0.834000       15.9994           0
     34544 TIP3     4033     TIP3     H1       HT       0.417000       1.00800           0
     34545 TIP3     4033     TIP3     H2       HT       0.417000       1.00800           0
     34546 TIP3     4034     TIP3     OH2      OT      -0.834000       15.9994           0
     34547 TIP3     4034     TIP3     H1       HT       0.417000       1.00800           0
     34548 TIP3     4034     TIP3     H2       HT       0.417000       1.00800           0
     34549 TIP3     4035     TIP3     OH2      OT      -0.834000       15.9994           0
     34550 TIP3     4035     TIP3     H1       HT       0.417000       1.00800           0
     34551 TIP3     4035     TIP3     H2       HT       0.417000       1.00800           0
     34552 TIP3     4036     TIP3     OH2      OT      -0.834000       15.9994           0
     34553 TIP3     4036     TIP3     H1       HT       0.417000       1.00800           0
     34554 TIP3     4036     TIP3     H2       HT       0.417000       1.00800           0
     34555 TIP3     4037     TIP3     OH2      OT      -0.834000       15.9994           0
     34556 TIP3     4037     TIP3     H1       HT       0.417000       1.00800           0
     34557 TIP3     4037     TIP3     H2       HT       0.417000       1.00800           0
     34558 TIP3     4038     TIP3     OH2      OT      -0.834000       15.9994           0
     34559 TIP3     4038     TIP3     H1       HT       0.417000       1.00800           0
     34560 TIP3     4038     TIP3     H2       HT       0.417000       1.00800           0
     34561 TIP3     4039     TIP3     OH2      OT      -0.834000       15.9994           0
     34562 TIP3     4039     TIP3     H1       HT       0.417000       1.00800           0
     34563 TIP3     4039     TIP3     H2       HT       0.417000       1.00800           0
     34564 TIP3     4040     TIP3     OH2      OT      -0.834000       15.9994           0
     34565 TIP3     4040     TIP3     H1       HT       0.417000       1.00800           0
     34566 TIP3     4040     TIP3     H2       HT       0.417000       1.00800           0
     34567 TIP3     4041     TIP3     OH2      OT      -0.834000       15.9994           0
     34568 TIP3     4041     TIP3     H1       HT       0.417000       1.00800           0
     34569 TIP3     4041     TIP3     H2       HT       0.417000       1.00800           0
     34570 TIP3     4042     TIP3     OH2      OT      -0.834000       15.9994           0
     34571 TIP3     4042     TIP3     H1       HT       0.417000       1.00800           0
     34572 TIP3     4042     TIP3     H2       HT       0.417000       1.00800           0
     34573 TIP3     4043     TIP3     OH2      OT      -0.834000       15.9994           0
     34574 TIP3     4043     TIP3     H1       HT       0.417000       1.00800           0
     34575 TIP3     4043     TIP3     H2       HT       0.417000       1.00800           0
     34576 TIP3     4044     TIP3     OH2      OT      -0.834000       15.9994           0
     34577 TIP3     4044     TIP3     H1       HT       0.417000       1.00800           0
     34578 TIP3     4044     TIP3     H2       HT       0.417000       1.00800           0
     34579 TIP3     4045     TIP3     OH2      OT      -0.834000       15.9994           0
     34580 TIP3     4045     TIP3     H1       HT       0.417000       1.00800           0
     34581 TIP3     4045     TIP3     H2       HT       0.417000       1.00800           0
     34582 TIP3     4046     TIP3     OH2      OT      -0.834000       15.9994           0
     34583 TIP3     4046     TIP3     H1       HT       0.417000       1.00800           0
     34584 TIP3     4046     TIP3     H2       HT       0.417000       1.00800           0
     34585 TIP3     4047     TIP3     OH2      OT      -0.834000       15.9994           0
     34586 TIP3     4047     TIP3     H1       HT       0.417000       1.00800           0
     34587 TIP3     4047     TIP3     H2       HT       0.417000       1.00800           0
     34588 TIP3     4048     TIP3     OH2      OT      -0.834000       15.9994           0
     34589 TIP3     4048     TIP3     H1       HT       0.417000       1.00800           0
     34590 TIP3     4048     TIP3     H2       HT       0.417000       1.00800           0
     34591 TIP3     4049     TIP3     OH2      OT      -0.834000       15.9994           0
     34592 TIP3     4049     TIP3     H1       HT       0.417000       1.00800           0
     34593 TIP3     4049     TIP3     H2       HT       0.417000       1.00800           0
     34594 TIP3     4050     TIP3     OH2      OT      -0.834000       15.9994           0
     34595 TIP3     4050     TIP3     H1       HT       0.417000       1.00800           0
     34596 TIP3     4050     TIP3     H2       HT       0.417000       1.00800           0
     34597 TIP3     4051     TIP3     OH2      OT      -0.834000       15.9994           0
     34598 TIP3     4051     TIP3     H1       HT       0.417000       1.00800           0
     34599 TIP3     4051     TIP3     H2       HT       0.417000       1.00800           0
     34600 TIP3     4052     TIP3     OH2      OT      -0.834000       15.9994           0
     34601 TIP3     4052     TIP3     H1       HT       0.417000       1.00800           0
     34602 TIP3     4052     TIP3     H2       HT       0.417000       1.00800           0
     34603 TIP3     4053     TIP3     OH2      OT      -0.834000       15.9994           0
     34604 TIP3     4053     TIP3     H1       HT       0.417000       1.00800           0
     34605 TIP3     4053     TIP3     H2       HT       0.417000       1.00800           0
     34606 TIP3     4054     TIP3     OH2      OT      -0.834000       15.9994           0
     34607 TIP3     4054     TIP3     H1       HT       0.417000       1.00800           0
     34608 TIP3     4054     TIP3     H2       HT       0.417000       1.00800           0
     34609 TIP3     4055     TIP3     OH2      OT      -0.834000       15.9994           0
     34610 TIP3     4055     TIP3     H1       HT       0.417000       1.00800           0
     34611 TIP3     4055     TIP3     H2       HT       0.417000       1.00800           0
     34612 TIP3     4056     TIP3     OH2      OT      -0.834000       15.9994           0
     34613 TIP3     4056     TIP3     H1       HT       0.417000       1.00800           0
     34614 TIP3     4056     TIP3     H2       HT       0.417000       1.00800           0
     34615 TIP3     4057     TIP3     OH2      OT      -0.834000       15.9994           0
     34616 TIP3     4057     TIP3     H1       HT       0.417000       1.00800           0
     34617 TIP3     4057     TIP3     H2       HT       0.417000       1.00800           0
     34618 TIP3     4058     TIP3     OH2      OT      -0.834000       15.9994           0
     34619 TIP3     4058     TIP3     H1       HT       0.417000       1.00800           0
     34620 TIP3     4058     TIP3     H2       HT       0.417000       1.00800           0
     34621 TIP3     4059     TIP3     OH2      OT      -0.834000       15.9994           0
     34622 TIP3     4059     TIP3     H1       HT       0.417000       1.00800           0
     34623 TIP3     4059     TIP3     H2       HT       0.417000       1.00800           0
     34624 TIP3     4060     TIP3     OH2      OT      -0.834000       15.9994           0
     34625 TIP3     4060     TIP3     H1       HT       0.417000       1.00800           0
     34626 TIP3     4060     TIP3     H2       HT       0.417000       1.00800           0
     34627 TIP3     4061     TIP3     OH2      OT      -0.834000       15.9994           0
     34628 TIP3     4061     TIP3     H1       HT       0.417000       1.00800           0
     34629 TIP3     4061     TIP3     H2       HT       0.417000       1.00800           0
     34630 TIP3     4062     TIP3     OH2      OT      -0.834000       15.9994           0
     34631 TIP3     4062     TIP3     H1       HT       0.417000       1.00800           0
     34632 TIP3     4062     TIP3     H2       HT       0.417000       1.00800           0
     34633 TIP3     4063     TIP3     OH2      OT      -0.834000       15.9994           0
     34634 TIP3     4063     TIP3     H1       HT       0.417000       1.00800           0
     34635 TIP3     4063     TIP3     H2       HT       0.417000       1.00800           0
     34636 TIP3     4064     TIP3     OH2      OT      -0.834000       15.9994           0
     34637 TIP3     4064     TIP3     H1       HT       0.417000       1.00800           0
     34638 TIP3     4064     TIP3     H2       HT       0.417000       1.00800           0
     34639 TIP3     4065     TIP3     OH2      OT      -0.834000       15.9994           0
     34640 TIP3     4065     TIP3     H1       HT       0.417000       1.00800           0
     34641 TIP3     4065     TIP3     H2       HT       0.417000       1.00800           0
     34642 TIP3     4066     TIP3     OH2      OT      -0.834000       15.9994           0
     34643 TIP3     4066     TIP3     H1       HT       0.417000       1.00800           0
     34644 TIP3     4066     TIP3     H2       HT       0.417000       1.00800           0
     34645 TIP3     4067     TIP3     OH2      OT      -0.834000       15.9994           0
     34646 TIP3     4067     TIP3     H1       HT       0.417000       1.00800           0
     34647 TIP3     4067     TIP3     H2       HT       0.417000       1.00800           0
     34648 TIP3     4068     TIP3     OH2      OT      -0.834000       15.9994           0
     34649 TIP3     4068     TIP3     H1       HT       0.417000       1.00800           0
     34650 TIP3     4068     TIP3     H2       HT       0.417000       1.00800           0
     34651 TIP3     4069     TIP3     OH2      OT      -0.834000       15.9994           0
     34652 TIP3     4069     TIP3     H1       HT       0.417000       1.00800           0
     34653 TIP3     4069     TIP3     H2       HT       0.417000       1.00800           0
     34654 TIP3     4070     TIP3     OH2      OT      -0.834000       15.9994           0
     34655 TIP3     4070     TIP3     H1       HT       0.417000       1.00800           0
     34656 TIP3     4070     TIP3     H2       HT       0.417000       1.00800           0
     34657 TIP3     4071     TIP3     OH2      OT      -0.834000       15.9994           0
     34658 TIP3     4071     TIP3     H1       HT       0.417000       1.00800           0
     34659 TIP3     4071     TIP3     H2       HT       0.417000       1.00800           0
     34660 TIP3     4072     TIP3     OH2      OT      -0.834000       15.9994           0
     34661 TIP3     4072     TIP3     H1       HT       0.417000       1.00800           0
     34662 TIP3     4072     TIP3     H2       HT       0.417000       1.00800           0
     34663 TIP3     4073     TIP3     OH2      OT      -0.834000       15.9994           0
     34664 TIP3     4073     TIP3     H1       HT       0.417000       1.00800           0
     34665 TIP3     4073     TIP3     H2       HT       0.417000       1.00800           0
     34666 TIP3     4074     TIP3     OH2      OT      -0.834000       15.9994           0
     34667 TIP3     4074     TIP3     H1       HT       0.417000       1.00800           0
     34668 TIP3     4074     TIP3     H2       HT       0.417000       1.00800           0
     34669 TIP3     4075     TIP3     OH2      OT      -0.834000       15.9994           0
     34670 TIP3     4075     TIP3     H1       HT       0.417000       1.00800           0
     34671 TIP3     4075     TIP3     H2       HT       0.417000       1.00800           0
     34672 TIP3     4076     TIP3     OH2      OT      -0.834000       15.9994           0
     34673 TIP3     4076     TIP3     H1       HT       0.417000       1.00800           0
     34674 TIP3     4076     TIP3     H2       HT       0.417000       1.00800           0
     34675 TIP3     4077     TIP3     OH2      OT      -0.834000       15.9994           0
     34676 TIP3     4077     TIP3     H1       HT       0.417000       1.00800           0
     34677 TIP3     4077     TIP3     H2       HT       0.417000       1.00800           0
     34678 TIP3     4078     TIP3     OH2      OT      -0.834000       15.9994           0
     34679 TIP3     4078     TIP3     H1       HT       0.417000       1.00800           0
     34680 TIP3     4078     TIP3     H2       HT       0.417000       1.00800           0
     34681 TIP3     4079     TIP3     OH2      OT      -0.834000       15.9994           0
     34682 TIP3     4079     TIP3     H1       HT       0.417000       1.00800           0
     34683 TIP3     4079     TIP3     H2       HT       0.417000       1.00800           0
     34684 TIP3     4080     TIP3     OH2      OT      -0.834000       15.9994           0
     34685 TIP3     4080     TIP3     H1       HT       0.417000       1.00800           0
     34686 TIP3     4080     TIP3     H2       HT       0.417000       1.00800           0
     34687 TIP3     4081     TIP3     OH2      OT      -0.834000       15.9994           0
     34688 TIP3     4081     TIP3     H1       HT       0.417000       1.00800           0
     34689 TIP3     4081     TIP3     H2       HT       0.417000       1.00800           0
     34690 TIP3     4082     TIP3     OH2      OT      -0.834000       15.9994           0
     34691 TIP3     4082     TIP3     H1       HT       0.417000       1.00800           0
     34692 TIP3     4082     TIP3     H2       HT       0.417000       1.00800           0
     34693 TIP3     4083     TIP3     OH2      OT      -0.834000       15.9994           0
     34694 TIP3     4083     TIP3     H1       HT       0.417000       1.00800           0
     34695 TIP3     4083     TIP3     H2       HT       0.417000       1.00800           0
     34696 TIP3     4084     TIP3     OH2      OT      -0.834000       15.9994           0
     34697 TIP3     4084     TIP3     H1       HT       0.417000       1.00800           0
     34698 TIP3     4084     TIP3     H2       HT       0.417000       1.00800           0
     34699 TIP3     4085     TIP3     OH2      OT      -0.834000       15.9994           0
     34700 TIP3     4085     TIP3     H1       HT       0.417000       1.00800           0
     34701 TIP3     4085     TIP3     H2       HT       0.417000       1.00800           0
     34702 TIP3     4086     TIP3     OH2      OT      -0.834000       15.9994           0
     34703 TIP3     4086     TIP3     H1       HT       0.417000       1.00800           0
     34704 TIP3     4086     TIP3     H2       HT       0.417000       1.00800           0
     34705 TIP3     4087     TIP3     OH2      OT      -0.834000       15.9994           0
     34706 TIP3     4087     TIP3     H1       HT       0.417000       1.00800           0
     34707 TIP3     4087     TIP3     H2       HT       0.417000       1.00800           0
     34708 TIP3     4088     TIP3     OH2      OT      -0.834000       15.9994           0
     34709 TIP3     4088     TIP3     H1       HT       0.417000       1.00800           0
     34710 TIP3     4088     TIP3     H2       HT       0.417000       1.00800           0
     34711 TIP3     4089     TIP3     OH2      OT      -0.834000       15.9994           0
     34712 TIP3     4089     TIP3     H1       HT       0.417000       1.00800           0
     34713 TIP3     4089     TIP3     H2       HT       0.417000       1.00800           0
     34714 TIP3     4090     TIP3     OH2      OT      -0.834000       15.9994           0
     34715 TIP3     4090     TIP3     H1       HT       0.417000       1.00800           0
     34716 TIP3     4090     TIP3     H2       HT       0.417000       1.00800           0
     34717 TIP3     4091     TIP3     OH2      OT      -0.834000       15.9994           0
     34718 TIP3     4091     TIP3     H1       HT       0.417000       1.00800           0
     34719 TIP3     4091     TIP3     H2       HT       0.417000       1.00800           0
     34720 TIP3     4092     TIP3     OH2      OT      -0.834000       15.9994           0
     34721 TIP3     4092     TIP3     H1       HT       0.417000       1.00800           0
     34722 TIP3     4092     TIP3     H2       HT       0.417000       1.00800           0
     34723 TIP3     4093     TIP3     OH2      OT      -0.834000       15.9994           0
     34724 TIP3     4093     TIP3     H1       HT       0.417000       1.00800           0
     34725 TIP3     4093     TIP3     H2       HT       0.417000       1.00800           0
     34726 TIP3     4094     TIP3     OH2      OT      -0.834000       15.9994           0
     34727 TIP3     4094     TIP3     H1       HT       0.417000       1.00800           0
     34728 TIP3     4094     TIP3     H2       HT       0.417000       1.00800           0
     34729 TIP3     4095     TIP3     OH2      OT      -0.834000       15.9994           0
     34730 TIP3     4095     TIP3     H1       HT       0.417000       1.00800           0
     34731 TIP3     4095     TIP3     H2       HT       0.417000       1.00800           0
     34732 TIP3     4096     TIP3     OH2      OT      -0.834000       15.9994           0
     34733 TIP3     4096     TIP3     H1       HT       0.417000       1.00800           0
     34734 TIP3     4096     TIP3     H2       HT       0.417000       1.00800           0
     34735 TIP3     4097     TIP3     OH2      OT      -0.834000       15.9994           0
     34736 TIP3     4097     TIP3     H1       HT       0.417000       1.00800           0
     34737 TIP3     4097     TIP3     H2       HT       0.417000       1.00800           0
     34738 TIP3     4098     TIP3     OH2      OT      -0.834000       15.9994           0
     34739 TIP3     4098     TIP3     H1       HT       0.417000       1.00800           0
     34740 TIP3     4098     TIP3     H2       HT       0.417000       1.00800           0
     34741 TIP3     4099     TIP3     OH2      OT      -0.834000       15.9994           0
     34742 TIP3     4099     TIP3     H1       HT       0.417000       1.00800           0
     34743 TIP3     4099     TIP3     H2       HT       0.417000       1.00800           0
     34744 TIP3     4100     TIP3     OH2      OT      -0.834000       15.9994           0
     34745 TIP3     4100     TIP3     H1       HT       0.417000       1.00800           0
     34746 TIP3     4100     TIP3     H2       HT       0.417000       1.00800           0
     34747 TIP3     4101     TIP3     OH2      OT      -0.834000       15.9994           0
     34748 TIP3     4101     TIP3     H1       HT       0.417000       1.00800           0
     34749 TIP3     4101     TIP3     H2       HT       0.417000       1.00800           0
     34750 TIP3     4102     TIP3     OH2      OT      -0.834000       15.9994           0
     34751 TIP3     4102     TIP3     H1       HT       0.417000       1.00800           0
     34752 TIP3     4102     TIP3     H2       HT       0.417000       1.00800           0
     34753 TIP3     4103     TIP3     OH2      OT      -0.834000       15.9994           0
     34754 TIP3     4103     TIP3     H1       HT       0.417000       1.00800           0
     34755 TIP3     4103     TIP3     H2       HT       0.417000       1.00800           0
     34756 TIP3     4104     TIP3     OH2      OT      -0.834000       15.9994           0
     34757 TIP3     4104     TIP3     H1       HT       0.417000       1.00800           0
     34758 TIP3     4104     TIP3     H2       HT       0.417000       1.00800           0
     34759 TIP3     4105     TIP3     OH2      OT      -0.834000       15.9994           0
     34760 TIP3     4105     TIP3     H1       HT       0.417000       1.00800           0
     34761 TIP3     4105     TIP3     H2       HT       0.417000       1.00800           0
     34762 TIP3     4106     TIP3     OH2      OT      -0.834000       15.9994           0
     34763 TIP3     4106     TIP3     H1       HT       0.417000       1.00800           0
     34764 TIP3     4106     TIP3     H2       HT       0.417000       1.00800           0
     34765 TIP3     4107     TIP3     OH2      OT      -0.834000       15.9994           0
     34766 TIP3     4107     TIP3     H1       HT       0.417000       1.00800           0
     34767 TIP3     4107     TIP3     H2       HT       0.417000       1.00800           0
     34768 TIP3     4108     TIP3     OH2      OT      -0.834000       15.9994           0
     34769 TIP3     4108     TIP3     H1       HT       0.417000       1.00800           0
     34770 TIP3     4108     TIP3     H2       HT       0.417000       1.00800           0
     34771 TIP3     4109     TIP3     OH2      OT      -0.834000       15.9994           0
     34772 TIP3     4109     TIP3     H1       HT       0.417000       1.00800           0
     34773 TIP3     4109     TIP3     H2       HT       0.417000       1.00800           0
     34774 TIP3     4110     TIP3     OH2      OT      -0.834000       15.9994           0
     34775 TIP3     4110     TIP3     H1       HT       0.417000       1.00800           0
     34776 TIP3     4110     TIP3     H2       HT       0.417000       1.00800           0
     34777 TIP3     4111     TIP3     OH2      OT      -0.834000       15.9994           0
     34778 TIP3     4111     TIP3     H1       HT       0.417000       1.00800           0
     34779 TIP3     4111     TIP3     H2       HT       0.417000       1.00800           0
     34780 TIP3     4112     TIP3     OH2      OT      -0.834000       15.9994           0
     34781 TIP3     4112     TIP3     H1       HT       0.417000       1.00800           0
     34782 TIP3     4112     TIP3     H2       HT       0.417000       1.00800           0
     34783 TIP3     4113     TIP3     OH2      OT      -0.834000       15.9994           0
     34784 TIP3     4113     TIP3     H1       HT       0.417000       1.00800           0
     34785 TIP3     4113     TIP3     H2       HT       0.417000       1.00800           0
     34786 TIP3     4114     TIP3     OH2      OT      -0.834000       15.9994           0
     34787 TIP3     4114     TIP3     H1       HT       0.417000       1.00800           0
     34788 TIP3     4114     TIP3     H2       HT       0.417000       1.00800           0
     34789 TIP3     4115     TIP3     OH2      OT      -0.834000       15.9994           0
     34790 TIP3     4115     TIP3     H1       HT       0.417000       1.00800           0
     34791 TIP3     4115     TIP3     H2       HT       0.417000       1.00800           0
     34792 TIP3     4116     TIP3     OH2      OT      -0.834000       15.9994           0
     34793 TIP3     4116     TIP3     H1       HT       0.417000       1.00800           0
     34794 TIP3     4116     TIP3     H2       HT       0.417000       1.00800           0
     34795 TIP3     4117     TIP3     OH2      OT      -0.834000       15.9994           0
     34796 TIP3     4117     TIP3     H1       HT       0.417000       1.00800           0
     34797 TIP3     4117     TIP3     H2       HT       0.417000       1.00800           0
     34798 TIP3     4118     TIP3     OH2      OT      -0.834000       15.9994           0
     34799 TIP3     4118     TIP3     H1       HT       0.417000       1.00800           0
     34800 TIP3     4118     TIP3     H2       HT       0.417000       1.00800           0
     34801 TIP3     4119     TIP3     OH2      OT      -0.834000       15.9994           0
     34802 TIP3     4119     TIP3     H1       HT       0.417000       1.00800           0
     34803 TIP3     4119     TIP3     H2       HT       0.417000       1.00800           0
     34804 TIP3     4120     TIP3     OH2      OT      -0.834000       15.9994           0
     34805 TIP3     4120     TIP3     H1       HT       0.417000       1.00800           0
     34806 TIP3     4120     TIP3     H2       HT       0.417000       1.00800           0
     34807 TIP3     4121     TIP3     OH2      OT      -0.834000       15.9994           0
     34808 TIP3     4121     TIP3     H1       HT       0.417000       1.00800           0
     34809 TIP3     4121     TIP3     H2       HT       0.417000       1.00800           0
     34810 TIP3     4122     TIP3     OH2      OT      -0.834000       15.9994           0
     34811 TIP3     4122     TIP3     H1       HT       0.417000       1.00800           0
     34812 TIP3     4122     TIP3     H2       HT       0.417000       1.00800           0
     34813 TIP3     4123     TIP3     OH2      OT      -0.834000       15.9994           0
     34814 TIP3     4123     TIP3     H1       HT       0.417000       1.00800           0
     34815 TIP3     4123     TIP3     H2       HT       0.417000       1.00800           0
     34816 TIP3     4124     TIP3     OH2      OT      -0.834000       15.9994           0
     34817 TIP3     4124     TIP3     H1       HT       0.417000       1.00800           0
     34818 TIP3     4124     TIP3     H2       HT       0.417000       1.00800           0
     34819 TIP3     4125     TIP3     OH2      OT      -0.834000       15.9994           0
     34820 TIP3     4125     TIP3     H1       HT       0.417000       1.00800           0
     34821 TIP3     4125     TIP3     H2       HT       0.417000       1.00800           0
     34822 TIP3     4126     TIP3     OH2      OT      -0.834000       15.9994           0
     34823 TIP3     4126     TIP3     H1       HT       0.417000       1.00800           0
     34824 TIP3     4126     TIP3     H2       HT       0.417000       1.00800           0
     34825 TIP3     4127     TIP3     OH2      OT      -0.834000       15.9994           0
     34826 TIP3     4127     TIP3     H1       HT       0.417000       1.00800           0
     34827 TIP3     4127     TIP3     H2       HT       0.417000       1.00800           0
     34828 TIP3     4128     TIP3     OH2      OT      -0.834000       15.9994           0
     34829 TIP3     4128     TIP3     H1       HT       0.417000       1.00800           0
     34830 TIP3     4128     TIP3     H2       HT       0.417000       1.00800           0
     34831 TIP3     4129     TIP3     OH2      OT      -0.834000       15.9994           0
     34832 TIP3     4129     TIP3     H1       HT       0.417000       1.00800           0
     34833 TIP3     4129     TIP3     H2       HT       0.417000       1.00800           0
     34834 TIP3     4130     TIP3     OH2      OT      -0.834000       15.9994           0
     34835 TIP3     4130     TIP3     H1       HT       0.417000       1.00800           0
     34836 TIP3     4130     TIP3     H2       HT       0.417000       1.00800           0
     34837 TIP3     4131     TIP3     OH2      OT      -0.834000       15.9994           0
     34838 TIP3     4131     TIP3     H1       HT       0.417000       1.00800           0
     34839 TIP3     4131     TIP3     H2       HT       0.417000       1.00800           0
     34840 TIP3     4132     TIP3     OH2      OT      -0.834000       15.9994           0
     34841 TIP3     4132     TIP3     H1       HT       0.417000       1.00800           0
     34842 TIP3     4132     TIP3     H2       HT       0.417000       1.00800           0
     34843 TIP3     4133     TIP3     OH2      OT      -0.834000       15.9994           0
     34844 TIP3     4133     TIP3     H1       HT       0.417000       1.00800           0
     34845 TIP3     4133     TIP3     H2       HT       0.417000       1.00800           0
     34846 TIP3     4134     TIP3     OH2      OT      -0.834000       15.9994           0
     34847 TIP3     4134     TIP3     H1       HT       0.417000       1.00800           0
     34848 TIP3     4134     TIP3     H2       HT       0.417000       1.00800           0
     34849 TIP3     4135     TIP3     OH2      OT      -0.834000       15.9994           0
     34850 TIP3     4135     TIP3     H1       HT       0.417000       1.00800           0
     34851 TIP3     4135     TIP3     H2       HT       0.417000       1.00800           0
     34852 TIP3     4136     TIP3     OH2      OT      -0.834000       15.9994           0
     34853 TIP3     4136     TIP3     H1       HT       0.417000       1.00800           0
     34854 TIP3     4136     TIP3     H2       HT       0.417000       1.00800           0
     34855 TIP3     4137     TIP3     OH2      OT      -0.834000       15.9994           0
     34856 TIP3     4137     TIP3     H1       HT       0.417000       1.00800           0
     34857 TIP3     4137     TIP3     H2       HT       0.417000       1.00800           0
     34858 TIP3     4138     TIP3     OH2      OT      -0.834000       15.9994           0
     34859 TIP3     4138     TIP3     H1       HT       0.417000       1.00800           0
     34860 TIP3     4138     TIP3     H2       HT       0.417000       1.00800           0
     34861 TIP3     4139     TIP3     OH2      OT      -0.834000       15.9994           0
     34862 TIP3     4139     TIP3     H1       HT       0.417000       1.00800           0
     34863 TIP3     4139     TIP3     H2       HT       0.417000       1.00800           0
     34864 TIP3     4140     TIP3     OH2      OT      -0.834000       15.9994           0
     34865 TIP3     4140     TIP3     H1       HT       0.417000       1.00800           0
     34866 TIP3     4140     TIP3     H2       HT       0.417000       1.00800           0
     34867 TIP3     4141     TIP3     OH2      OT      -0.834000       15.9994           0
     34868 TIP3     4141     TIP3     H1       HT       0.417000       1.00800           0
     34869 TIP3     4141     TIP3     H2       HT       0.417000       1.00800           0
     34870 TIP3     4142     TIP3     OH2      OT      -0.834000       15.9994           0
     34871 TIP3     4142     TIP3     H1       HT       0.417000       1.00800           0
     34872 TIP3     4142     TIP3     H2       HT       0.417000       1.00800           0
     34873 TIP3     4143     TIP3     OH2      OT      -0.834000       15.9994           0
     34874 TIP3     4143     TIP3     H1       HT       0.417000       1.00800           0
     34875 TIP3     4143     TIP3     H2       HT       0.417000       1.00800           0
     34876 TIP3     4144     TIP3     OH2      OT      -0.834000       15.9994           0
     34877 TIP3     4144     TIP3     H1       HT       0.417000       1.00800           0
     34878 TIP3     4144     TIP3     H2       HT       0.417000       1.00800           0
     34879 TIP3     4145     TIP3     OH2      OT      -0.834000       15.9994           0
     34880 TIP3     4145     TIP3     H1       HT       0.417000       1.00800           0
     34881 TIP3     4145     TIP3     H2       HT       0.417000       1.00800           0
     34882 TIP3     4146     TIP3     OH2      OT      -0.834000       15.9994           0
     34883 TIP3     4146     TIP3     H1       HT       0.417000       1.00800           0
     34884 TIP3     4146     TIP3     H2       HT       0.417000       1.00800           0
     34885 TIP3     4147     TIP3     OH2      OT      -0.834000       15.9994           0
     34886 TIP3     4147     TIP3     H1       HT       0.417000       1.00800           0
     34887 TIP3     4147     TIP3     H2       HT       0.417000       1.00800           0
     34888 TIP3     4148     TIP3     OH2      OT      -0.834000       15.9994           0
     34889 TIP3     4148     TIP3     H1       HT       0.417000       1.00800           0
     34890 TIP3     4148     TIP3     H2       HT       0.417000       1.00800           0
     34891 TIP3     4149     TIP3     OH2      OT      -0.834000       15.9994           0
     34892 TIP3     4149     TIP3     H1       HT       0.417000       1.00800           0
     34893 TIP3     4149     TIP3     H2       HT       0.417000       1.00800           0
     34894 TIP3     4150     TIP3     OH2      OT      -0.834000       15.9994           0
     34895 TIP3     4150     TIP3     H1       HT       0.417000       1.00800           0
     34896 TIP3     4150     TIP3     H2       HT       0.417000       1.00800           0
     34897 TIP3     4151     TIP3     OH2      OT      -0.834000       15.9994           0
     34898 TIP3     4151     TIP3     H1       HT       0.417000       1.00800           0
     34899 TIP3     4151     TIP3     H2       HT       0.417000       1.00800           0
     34900 TIP3     4152     TIP3     OH2      OT      -0.834000       15.9994           0
     34901 TIP3     4152     TIP3     H1       HT       0.417000       1.00800           0
     34902 TIP3     4152     TIP3     H2       HT       0.417000       1.00800           0
     34903 TIP3     4153     TIP3     OH2      OT      -0.834000       15.9994           0
     34904 TIP3     4153     TIP3     H1       HT       0.417000       1.00800           0
     34905 TIP3     4153     TIP3     H2       HT       0.417000       1.00800           0
     34906 TIP3     4154     TIP3     OH2      OT      -0.834000       15.9994           0
     34907 TIP3     4154     TIP3     H1       HT       0.417000       1.00800           0
     34908 TIP3     4154     TIP3     H2       HT       0.417000       1.00800           0
     34909 TIP3     4155     TIP3     OH2      OT      -0.834000       15.9994           0
     34910 TIP3     4155     TIP3     H1       HT       0.417000       1.00800           0
     34911 TIP3     4155     TIP3     H2       HT       0.417000       1.00800           0
     34912 TIP3     4156     TIP3     OH2      OT      -0.834000       15.9994           0
     34913 TIP3     4156     TIP3     H1       HT       0.417000       1.00800           0
     34914 TIP3     4156     TIP3     H2       HT       0.417000       1.00800           0
     34915 TIP3     4157     TIP3     OH2      OT      -0.834000       15.9994           0
     34916 TIP3     4157     TIP3     H1       HT       0.417000       1.00800           0
     34917 TIP3     4157     TIP3     H2       HT       0.417000       1.00800           0
     34918 TIP3     4158     TIP3     OH2      OT      -0.834000       15.9994           0
     34919 TIP3     4158     TIP3     H1       HT       0.417000       1.00800           0
     34920 TIP3     4158     TIP3     H2       HT       0.417000       1.00800           0
     34921 TIP3     4159     TIP3     OH2      OT      -0.834000       15.9994           0
     34922 TIP3     4159     TIP3     H1       HT       0.417000       1.00800           0
     34923 TIP3     4159     TIP3     H2       HT       0.417000       1.00800           0
     34924 TIP3     4160     TIP3     OH2      OT      -0.834000       15.9994           0
     34925 TIP3     4160     TIP3     H1       HT       0.417000       1.00800           0
     34926 TIP3     4160     TIP3     H2       HT       0.417000       1.00800           0
     34927 TIP3     4161     TIP3     OH2      OT      -0.834000       15.9994           0
     34928 TIP3     4161     TIP3     H1       HT       0.417000       1.00800           0
     34929 TIP3     4161     TIP3     H2       HT       0.417000       1.00800           0
     34930 TIP3     4162     TIP3     OH2      OT      -0.834000       15.9994           0
     34931 TIP3     4162     TIP3     H1       HT       0.417000       1.00800           0
     34932 TIP3     4162     TIP3     H2       HT       0.417000       1.00800           0
     34933 TIP3     4163     TIP3     OH2      OT      -0.834000       15.9994           0
     34934 TIP3     4163     TIP3     H1       HT       0.417000       1.00800           0
     34935 TIP3     4163     TIP3     H2       HT       0.417000       1.00800           0
     34936 TIP3     4164     TIP3     OH2      OT      -0.834000       15.9994           0
     34937 TIP3     4164     TIP3     H1       HT       0.417000       1.00800           0
     34938 TIP3     4164     TIP3     H2       HT       0.417000       1.00800           0
     34939 TIP3     4165     TIP3     OH2      OT      -0.834000       15.9994           0
     34940 TIP3     4165     TIP3     H1       HT       0.417000       1.00800           0
     34941 TIP3     4165     TIP3     H2       HT       0.417000       1.00800           0
     34942 TIP3     4166     TIP3     OH2      OT      -0.834000       15.9994           0
     34943 TIP3     4166     TIP3     H1       HT       0.417000       1.00800           0
     34944 TIP3     4166     TIP3     H2       HT       0.417000       1.00800           0
     34945 TIP3     4167     TIP3     OH2      OT      -0.834000       15.9994           0
     34946 TIP3     4167     TIP3     H1       HT       0.417000       1.00800           0
     34947 TIP3     4167     TIP3     H2       HT       0.417000       1.00800           0
     34948 TIP3     4168     TIP3     OH2      OT      -0.834000       15.9994           0
     34949 TIP3     4168     TIP3     H1       HT       0.417000       1.00800           0
     34950 TIP3     4168     TIP3     H2       HT       0.417000       1.00800           0
     34951 TIP3     4169     TIP3     OH2      OT      -0.834000       15.9994           0
     34952 TIP3     4169     TIP3     H1       HT       0.417000       1.00800           0
     34953 TIP3     4169     TIP3     H2       HT       0.417000       1.00800           0
     34954 TIP3     4170     TIP3     OH2      OT      -0.834000       15.9994           0
     34955 TIP3     4170     TIP3     H1       HT       0.417000       1.00800           0
     34956 TIP3     4170     TIP3     H2       HT       0.417000       1.00800           0
     34957 TIP3     4171     TIP3     OH2      OT      -0.834000       15.9994           0
     34958 TIP3     4171     TIP3     H1       HT       0.417000       1.00800           0
     34959 TIP3     4171     TIP3     H2       HT       0.417000       1.00800           0
     34960 TIP3     4172     TIP3     OH2      OT      -0.834000       15.9994           0
     34961 TIP3     4172     TIP3     H1       HT       0.417000       1.00800           0
     34962 TIP3     4172     TIP3     H2       HT       0.417000       1.00800           0
     34963 TIP3     4173     TIP3     OH2      OT      -0.834000       15.9994           0
     34964 TIP3     4173     TIP3     H1       HT       0.417000       1.00800           0
     34965 TIP3     4173     TIP3     H2       HT       0.417000       1.00800           0
     34966 TIP3     4174     TIP3     OH2      OT      -0.834000       15.9994           0
     34967 TIP3     4174     TIP3     H1       HT       0.417000       1.00800           0
     34968 TIP3     4174     TIP3     H2       HT       0.417000       1.00800           0
     34969 TIP3     4175     TIP3     OH2      OT      -0.834000       15.9994           0
     34970 TIP3     4175     TIP3     H1       HT       0.417000       1.00800           0
     34971 TIP3     4175     TIP3     H2       HT       0.417000       1.00800           0
     34972 TIP3     4176     TIP3     OH2      OT      -0.834000       15.9994           0
     34973 TIP3     4176     TIP3     H1       HT       0.417000       1.00800           0
     34974 TIP3     4176     TIP3     H2       HT       0.417000       1.00800           0
     34975 TIP3     4177     TIP3     OH2      OT      -0.834000       15.9994           0
     34976 TIP3     4177     TIP3     H1       HT       0.417000       1.00800           0
     34977 TIP3     4177     TIP3     H2       HT       0.417000       1.00800           0
     34978 TIP3     4178     TIP3     OH2      OT      -0.834000       15.9994           0
     34979 TIP3     4178     TIP3     H1       HT       0.417000       1.00800           0
     34980 TIP3     4178     TIP3     H2       HT       0.417000       1.00800           0
     34981 TIP3     4179     TIP3     OH2      OT      -0.834000       15.9994           0
     34982 TIP3     4179     TIP3     H1       HT       0.417000       1.00800           0
     34983 TIP3     4179     TIP3     H2       HT       0.417000       1.00800           0
     34984 TIP3     4180     TIP3     OH2      OT      -0.834000       15.9994           0
     34985 TIP3     4180     TIP3     H1       HT       0.417000       1.00800           0
     34986 TIP3     4180     TIP3     H2       HT       0.417000       1.00800           0
     34987 TIP3     4181     TIP3     OH2      OT      -0.834000       15.9994           0
     34988 TIP3     4181     TIP3     H1       HT       0.417000       1.00800           0
     34989 TIP3     4181     TIP3     H2       HT       0.417000       1.00800           0
     34990 TIP3     4182     TIP3     OH2      OT      -0.834000       15.9994           0
     34991 TIP3     4182     TIP3     H1       HT       0.417000       1.00800           0
     34992 TIP3     4182     TIP3     H2       HT       0.417000       1.00800           0
     34993 TIP3     4183     TIP3     OH2      OT      -0.834000       15.9994           0
     34994 TIP3     4183     TIP3     H1       HT       0.417000       1.00800           0
     34995 TIP3     4183     TIP3     H2       HT       0.417000       1.00800           0
     34996 TIP3     4184     TIP3     OH2      OT      -0.834000       15.9994           0
     34997 TIP3     4184     TIP3     H1       HT       0.417000       1.00800           0
     34998 TIP3     4184     TIP3     H2       HT       0.417000       1.00800           0
     34999 TIP3     4185     TIP3     OH2      OT      -0.834000       15.9994           0
     35000 TIP3     4185     TIP3     H1       HT       0.417000       1.00800           0
     35001 TIP3     4185     TIP3     H2       HT       0.417000       1.00800           0
     35002 TIP3     4186     TIP3     OH2      OT      -0.834000       15.9994           0
     35003 TIP3     4186     TIP3     H1       HT       0.417000       1.00800           0
     35004 TIP3     4186     TIP3     H2       HT       0.417000       1.00800           0
     35005 TIP3     4187     TIP3     OH2      OT      -0.834000       15.9994           0
     35006 TIP3     4187     TIP3     H1       HT       0.417000       1.00800           0
     35007 TIP3     4187     TIP3     H2       HT       0.417000       1.00800           0
     35008 TIP3     4188     TIP3     OH2      OT      -0.834000       15.9994           0
     35009 TIP3     4188     TIP3     H1       HT       0.417000       1.00800           0
     35010 TIP3     4188     TIP3     H2       HT       0.417000       1.00800           0
     35011 TIP3     4189     TIP3     OH2      OT      -0.834000       15.9994           0
     35012 TIP3     4189     TIP3     H1       HT       0.417000       1.00800           0
     35013 TIP3     4189     TIP3     H2       HT       0.417000       1.00800           0
     35014 TIP3     4190     TIP3     OH2      OT      -0.834000       15.9994           0
     35015 TIP3     4190     TIP3     H1       HT       0.417000       1.00800           0
     35016 TIP3     4190     TIP3     H2       HT       0.417000       1.00800           0
     35017 TIP3     4191     TIP3     OH2      OT      -0.834000       15.9994           0
     35018 TIP3     4191     TIP3     H1       HT       0.417000       1.00800           0
     35019 TIP3     4191     TIP3     H2       HT       0.417000       1.00800           0
     35020 TIP3     4192     TIP3     OH2      OT      -0.834000       15.9994           0
     35021 TIP3     4192     TIP3     H1       HT       0.417000       1.00800           0
     35022 TIP3     4192     TIP3     H2       HT       0.417000       1.00800           0
     35023 TIP3     4193     TIP3     OH2      OT      -0.834000       15.9994           0
     35024 TIP3     4193     TIP3     H1       HT       0.417000       1.00800           0
     35025 TIP3     4193     TIP3     H2       HT       0.417000       1.00800           0
     35026 TIP3     4194     TIP3     OH2      OT      -0.834000       15.9994           0
     35027 TIP3     4194     TIP3     H1       HT       0.417000       1.00800           0
     35028 TIP3     4194     TIP3     H2       HT       0.417000       1.00800           0
     35029 TIP3     4195     TIP3     OH2      OT      -0.834000       15.9994           0
     35030 TIP3     4195     TIP3     H1       HT       0.417000       1.00800           0
     35031 TIP3     4195     TIP3     H2       HT       0.417000       1.00800           0
     35032 TIP3     4196     TIP3     OH2      OT      -0.834000       15.9994           0
     35033 TIP3     4196     TIP3     H1       HT       0.417000       1.00800           0
     35034 TIP3     4196     TIP3     H2       HT       0.417000       1.00800           0
     35035 TIP3     4197     TIP3     OH2      OT      -0.834000       15.9994           0
     35036 TIP3     4197     TIP3     H1       HT       0.417000       1.00800           0
     35037 TIP3     4197     TIP3     H2       HT       0.417000       1.00800           0
     35038 TIP3     4198     TIP3     OH2      OT      -0.834000       15.9994           0
     35039 TIP3     4198     TIP3     H1       HT       0.417000       1.00800           0
     35040 TIP3     4198     TIP3     H2       HT       0.417000       1.00800           0
     35041 TIP3     4199     TIP3     OH2      OT      -0.834000       15.9994           0
     35042 TIP3     4199     TIP3     H1       HT       0.417000       1.00800           0
     35043 TIP3     4199     TIP3     H2       HT       0.417000       1.00800           0
     35044 TIP3     4200     TIP3     OH2      OT      -0.834000       15.9994           0
     35045 TIP3     4200     TIP3     H1       HT       0.417000       1.00800           0
     35046 TIP3     4200     TIP3     H2       HT       0.417000       1.00800           0
     35047 TIP3     4201     TIP3     OH2      OT      -0.834000       15.9994           0
     35048 TIP3     4201     TIP3     H1       HT       0.417000       1.00800           0
     35049 TIP3     4201     TIP3     H2       HT       0.417000       1.00800           0
     35050 TIP3     4202     TIP3     OH2      OT      -0.834000       15.9994           0
     35051 TIP3     4202     TIP3     H1       HT       0.417000       1.00800           0
     35052 TIP3     4202     TIP3     H2       HT       0.417000       1.00800           0
     35053 TIP3     4203     TIP3     OH2      OT      -0.834000       15.9994           0
     35054 TIP3     4203     TIP3     H1       HT       0.417000       1.00800           0
     35055 TIP3     4203     TIP3     H2       HT       0.417000       1.00800           0
     35056 TIP3     4204     TIP3     OH2      OT      -0.834000       15.9994           0
     35057 TIP3     4204     TIP3     H1       HT       0.417000       1.00800           0
     35058 TIP3     4204     TIP3     H2       HT       0.417000       1.00800           0
     35059 TIP3     4205     TIP3     OH2      OT      -0.834000       15.9994           0
     35060 TIP3     4205     TIP3     H1       HT       0.417000       1.00800           0
     35061 TIP3     4205     TIP3     H2       HT       0.417000       1.00800           0
     35062 TIP3     4206     TIP3     OH2      OT      -0.834000       15.9994           0
     35063 TIP3     4206     TIP3     H1       HT       0.417000       1.00800           0
     35064 TIP3     4206     TIP3     H2       HT       0.417000       1.00800           0
     35065 TIP3     4207     TIP3     OH2      OT      -0.834000       15.9994           0
     35066 TIP3     4207     TIP3     H1       HT       0.417000       1.00800           0
     35067 TIP3     4207     TIP3     H2       HT       0.417000       1.00800           0
     35068 TIP3     4208     TIP3     OH2      OT      -0.834000       15.9994           0
     35069 TIP3     4208     TIP3     H1       HT       0.417000       1.00800           0
     35070 TIP3     4208     TIP3     H2       HT       0.417000       1.00800           0
     35071 TIP3     4209     TIP3     OH2      OT      -0.834000       15.9994           0
     35072 TIP3     4209     TIP3     H1       HT       0.417000       1.00800           0
     35073 TIP3     4209     TIP3     H2       HT       0.417000       1.00800           0
     35074 TIP3     4210     TIP3     OH2      OT      -0.834000       15.9994           0
     35075 TIP3     4210     TIP3     H1       HT       0.417000       1.00800           0
     35076 TIP3     4210     TIP3     H2       HT       0.417000       1.00800           0
     35077 TIP3     4211     TIP3     OH2      OT      -0.834000       15.9994           0
     35078 TIP3     4211     TIP3     H1       HT       0.417000       1.00800           0
     35079 TIP3     4211     TIP3     H2       HT       0.417000       1.00800           0
     35080 TIP3     4212     TIP3     OH2      OT      -0.834000       15.9994           0
     35081 TIP3     4212     TIP3     H1       HT       0.417000       1.00800           0
     35082 TIP3     4212     TIP3     H2       HT       0.417000       1.00800           0
     35083 TIP3     4213     TIP3     OH2      OT      -0.834000       15.9994           0
     35084 TIP3     4213     TIP3     H1       HT       0.417000       1.00800           0
     35085 TIP3     4213     TIP3     H2       HT       0.417000       1.00800           0
     35086 TIP3     4214     TIP3     OH2      OT      -0.834000       15.9994           0
     35087 TIP3     4214     TIP3     H1       HT       0.417000       1.00800           0
     35088 TIP3     4214     TIP3     H2       HT       0.417000       1.00800           0
     35089 TIP3     4215     TIP3     OH2      OT      -0.834000       15.9994           0
     35090 TIP3     4215     TIP3     H1       HT       0.417000       1.00800           0
     35091 TIP3     4215     TIP3     H2       HT       0.417000       1.00800           0
     35092 TIP3     4216     TIP3     OH2      OT      -0.834000       15.9994           0
     35093 TIP3     4216     TIP3     H1       HT       0.417000       1.00800           0
     35094 TIP3     4216     TIP3     H2       HT       0.417000       1.00800           0
     35095 TIP3     4217     TIP3     OH2      OT      -0.834000       15.9994           0
     35096 TIP3     4217     TIP3     H1       HT       0.417000       1.00800           0
     35097 TIP3     4217     TIP3     H2       HT       0.417000       1.00800           0
     35098 TIP3     4218     TIP3     OH2      OT      -0.834000       15.9994           0
     35099 TIP3     4218     TIP3     H1       HT       0.417000       1.00800           0
     35100 TIP3     4218     TIP3     H2       HT       0.417000       1.00800           0
     35101 TIP3     4219     TIP3     OH2      OT      -0.834000       15.9994           0
     35102 TIP3     4219     TIP3     H1       HT       0.417000       1.00800           0
     35103 TIP3     4219     TIP3     H2       HT       0.417000       1.00800           0
     35104 TIP3     4220     TIP3     OH2      OT      -0.834000       15.9994           0
     35105 TIP3     4220     TIP3     H1       HT       0.417000       1.00800           0
     35106 TIP3     4220     TIP3     H2       HT       0.417000       1.00800           0
     35107 TIP3     4221     TIP3     OH2      OT      -0.834000       15.9994           0
     35108 TIP3     4221     TIP3     H1       HT       0.417000       1.00800           0
     35109 TIP3     4221     TIP3     H2       HT       0.417000       1.00800           0
     35110 TIP3     4222     TIP3     OH2      OT      -0.834000       15.9994           0
     35111 TIP3     4222     TIP3     H1       HT       0.417000       1.00800           0
     35112 TIP3     4222     TIP3     H2       HT       0.417000       1.00800           0
     35113 TIP3     4223     TIP3     OH2      OT      -0.834000       15.9994           0
     35114 TIP3     4223     TIP3     H1       HT       0.417000       1.00800           0
     35115 TIP3     4223     TIP3     H2       HT       0.417000       1.00800           0
     35116 TIP3     4224     TIP3     OH2      OT      -0.834000       15.9994           0
     35117 TIP3     4224     TIP3     H1       HT       0.417000       1.00800           0
     35118 TIP3     4224     TIP3     H2       HT       0.417000       1.00800           0
     35119 TIP3     4225     TIP3     OH2      OT      -0.834000       15.9994           0
     35120 TIP3     4225     TIP3     H1       HT       0.417000       1.00800           0
     35121 TIP3     4225     TIP3     H2       HT       0.417000       1.00800           0
     35122 TIP3     4226     TIP3     OH2      OT      -0.834000       15.9994           0
     35123 TIP3     4226     TIP3     H1       HT       0.417000       1.00800           0
     35124 TIP3     4226     TIP3     H2       HT       0.417000       1.00800           0
     35125 TIP3     4227     TIP3     OH2      OT      -0.834000       15.9994           0
     35126 TIP3     4227     TIP3     H1       HT       0.417000       1.00800           0
     35127 TIP3     4227     TIP3     H2       HT       0.417000       1.00800           0
     35128 TIP3     4228     TIP3     OH2      OT      -0.834000       15.9994           0
     35129 TIP3     4228     TIP3     H1       HT       0.417000       1.00800           0
     35130 TIP3     4228     TIP3     H2       HT       0.417000       1.00800           0
     35131 TIP3     4229     TIP3     OH2      OT      -0.834000       15.9994           0
     35132 TIP3     4229     TIP3     H1       HT       0.417000       1.00800           0
     35133 TIP3     4229     TIP3     H2       HT       0.417000       1.00800           0
     35134 TIP3     4230     TIP3     OH2      OT      -0.834000       15.9994           0
     35135 TIP3     4230     TIP3     H1       HT       0.417000       1.00800           0
     35136 TIP3     4230     TIP3     H2       HT       0.417000       1.00800           0
     35137 TIP3     4231     TIP3     OH2      OT      -0.834000       15.9994           0
     35138 TIP3     4231     TIP3     H1       HT       0.417000       1.00800           0
     35139 TIP3     4231     TIP3     H2       HT       0.417000       1.00800           0
     35140 TIP3     4232     TIP3     OH2      OT      -0.834000       15.9994           0
     35141 TIP3     4232     TIP3     H1       HT       0.417000       1.00800           0
     35142 TIP3     4232     TIP3     H2       HT       0.417000       1.00800           0
     35143 TIP3     4233     TIP3     OH2      OT      -0.834000       15.9994           0
     35144 TIP3     4233     TIP3     H1       HT       0.417000       1.00800           0
     35145 TIP3     4233     TIP3     H2       HT       0.417000       1.00800           0
     35146 TIP3     4234     TIP3     OH2      OT      -0.834000       15.9994           0
     35147 TIP3     4234     TIP3     H1       HT       0.417000       1.00800           0
     35148 TIP3     4234     TIP3     H2       HT       0.417000       1.00800           0
     35149 TIP3     4235     TIP3     OH2      OT      -0.834000       15.9994           0
     35150 TIP3     4235     TIP3     H1       HT       0.417000       1.00800           0
     35151 TIP3     4235     TIP3     H2       HT       0.417000       1.00800           0
     35152 TIP3     4236     TIP3     OH2      OT      -0.834000       15.9994           0
     35153 TIP3     4236     TIP3     H1       HT       0.417000       1.00800           0
     35154 TIP3     4236     TIP3     H2       HT       0.417000       1.00800           0
     35155 TIP3     4237     TIP3     OH2      OT      -0.834000       15.9994           0
     35156 TIP3     4237     TIP3     H1       HT       0.417000       1.00800           0
     35157 TIP3     4237     TIP3     H2       HT       0.417000       1.00800           0
     35158 TIP3     4238     TIP3     OH2      OT      -0.834000       15.9994           0
     35159 TIP3     4238     TIP3     H1       HT       0.417000       1.00800           0
     35160 TIP3     4238     TIP3     H2       HT       0.417000       1.00800           0
     35161 TIP3     4239     TIP3     OH2      OT      -0.834000       15.9994           0
     35162 TIP3     4239     TIP3     H1       HT       0.417000       1.00800           0
     35163 TIP3     4239     TIP3     H2       HT       0.417000       1.00800           0
     35164 TIP3     4240     TIP3     OH2      OT      -0.834000       15.9994           0
     35165 TIP3     4240     TIP3     H1       HT       0.417000       1.00800           0
     35166 TIP3     4240     TIP3     H2       HT       0.417000       1.00800           0
     35167 TIP3     4241     TIP3     OH2      OT      -0.834000       15.9994           0
     35168 TIP3     4241     TIP3     H1       HT       0.417000       1.00800           0
     35169 TIP3     4241     TIP3     H2       HT       0.417000       1.00800           0
     35170 TIP3     4242     TIP3     OH2      OT      -0.834000       15.9994           0
     35171 TIP3     4242     TIP3     H1       HT       0.417000       1.00800           0
     35172 TIP3     4242     TIP3     H2       HT       0.417000       1.00800           0
     35173 TIP3     4243     TIP3     OH2      OT      -0.834000       15.9994           0
     35174 TIP3     4243     TIP3     H1       HT       0.417000       1.00800           0
     35175 TIP3     4243     TIP3     H2       HT       0.417000       1.00800           0
     35176 TIP3     4244     TIP3     OH2      OT      -0.834000       15.9994           0
     35177 TIP3     4244     TIP3     H1       HT       0.417000       1.00800           0
     35178 TIP3     4244     TIP3     H2       HT       0.417000       1.00800           0
     35179 TIP3     4245     TIP3     OH2      OT      -0.834000       15.9994           0
     35180 TIP3     4245     TIP3     H1       HT       0.417000       1.00800           0
     35181 TIP3     4245     TIP3     H2       HT       0.417000       1.00800           0
     35182 TIP3     4246     TIP3     OH2      OT      -0.834000       15.9994           0
     35183 TIP3     4246     TIP3     H1       HT       0.417000       1.00800           0
     35184 TIP3     4246     TIP3     H2       HT       0.417000       1.00800           0
     35185 TIP3     4247     TIP3     OH2      OT      -0.834000       15.9994           0
     35186 TIP3     4247     TIP3     H1       HT       0.417000       1.00800           0
     35187 TIP3     4247     TIP3     H2       HT       0.417000       1.00800           0
     35188 TIP3     4248     TIP3     OH2      OT      -0.834000       15.9994           0
     35189 TIP3     4248     TIP3     H1       HT       0.417000       1.00800           0
     35190 TIP3     4248     TIP3     H2       HT       0.417000       1.00800           0
     35191 TIP3     4249     TIP3     OH2      OT      -0.834000       15.9994           0
     35192 TIP3     4249     TIP3     H1       HT       0.417000       1.00800           0
     35193 TIP3     4249     TIP3     H2       HT       0.417000       1.00800           0
     35194 TIP3     4250     TIP3     OH2      OT      -0.834000       15.9994           0
     35195 TIP3     4250     TIP3     H1       HT       0.417000       1.00800           0
     35196 TIP3     4250     TIP3     H2       HT       0.417000       1.00800           0
     35197 TIP3     4251     TIP3     OH2      OT      -0.834000       15.9994           0
     35198 TIP3     4251     TIP3     H1       HT       0.417000       1.00800           0
     35199 TIP3     4251     TIP3     H2       HT       0.417000       1.00800           0
     35200 TIP3     4252     TIP3     OH2      OT      -0.834000       15.9994           0
     35201 TIP3     4252     TIP3     H1       HT       0.417000       1.00800           0
     35202 TIP3     4252     TIP3     H2       HT       0.417000       1.00800           0
     35203 TIP3     4253     TIP3     OH2      OT      -0.834000       15.9994           0
     35204 TIP3     4253     TIP3     H1       HT       0.417000       1.00800           0
     35205 TIP3     4253     TIP3     H2       HT       0.417000       1.00800           0
     35206 TIP3     4254     TIP3     OH2      OT      -0.834000       15.9994           0
     35207 TIP3     4254     TIP3     H1       HT       0.417000       1.00800           0
     35208 TIP3     4254     TIP3     H2       HT       0.417000       1.00800           0
     35209 TIP3     4255     TIP3     OH2      OT      -0.834000       15.9994           0
     35210 TIP3     4255     TIP3     H1       HT       0.417000       1.00800           0
     35211 TIP3     4255     TIP3     H2       HT       0.417000       1.00800           0
     35212 TIP3     4256     TIP3     OH2      OT      -0.834000       15.9994           0
     35213 TIP3     4256     TIP3     H1       HT       0.417000       1.00800           0
     35214 TIP3     4256     TIP3     H2       HT       0.417000       1.00800           0
     35215 TIP3     4257     TIP3     OH2      OT      -0.834000       15.9994           0
     35216 TIP3     4257     TIP3     H1       HT       0.417000       1.00800           0
     35217 TIP3     4257     TIP3     H2       HT       0.417000       1.00800           0
     35218 TIP3     4258     TIP3     OH2      OT      -0.834000       15.9994           0
     35219 TIP3     4258     TIP3     H1       HT       0.417000       1.00800           0
     35220 TIP3     4258     TIP3     H2       HT       0.417000       1.00800           0
     35221 TIP3     4259     TIP3     OH2      OT      -0.834000       15.9994           0
     35222 TIP3     4259     TIP3     H1       HT       0.417000       1.00800           0
     35223 TIP3     4259     TIP3     H2       HT       0.417000       1.00800           0
     35224 TIP3     4260     TIP3     OH2      OT      -0.834000       15.9994           0
     35225 TIP3     4260     TIP3     H1       HT       0.417000       1.00800           0
     35226 TIP3     4260     TIP3     H2       HT       0.417000       1.00800           0
     35227 TIP3     4261     TIP3     OH2      OT      -0.834000       15.9994           0
     35228 TIP3     4261     TIP3     H1       HT       0.417000       1.00800           0
     35229 TIP3     4261     TIP3     H2       HT       0.417000       1.00800           0
     35230 TIP3     4262     TIP3     OH2      OT      -0.834000       15.9994           0
     35231 TIP3     4262     TIP3     H1       HT       0.417000       1.00800           0
     35232 TIP3     4262     TIP3     H2       HT       0.417000       1.00800           0
     35233 TIP3     4263     TIP3     OH2      OT      -0.834000       15.9994           0
     35234 TIP3     4263     TIP3     H1       HT       0.417000       1.00800           0
     35235 TIP3     4263     TIP3     H2       HT       0.417000       1.00800           0
     35236 TIP3     4264     TIP3     OH2      OT      -0.834000       15.9994           0
     35237 TIP3     4264     TIP3     H1       HT       0.417000       1.00800           0
     35238 TIP3     4264     TIP3     H2       HT       0.417000       1.00800           0
     35239 TIP3     4265     TIP3     OH2      OT      -0.834000       15.9994           0
     35240 TIP3     4265     TIP3     H1       HT       0.417000       1.00800           0
     35241 TIP3     4265     TIP3     H2       HT       0.417000       1.00800           0
     35242 TIP3     4266     TIP3     OH2      OT      -0.834000       15.9994           0
     35243 TIP3     4266     TIP3     H1       HT       0.417000       1.00800           0
     35244 TIP3     4266     TIP3     H2       HT       0.417000       1.00800           0
     35245 TIP3     4267     TIP3     OH2      OT      -0.834000       15.9994           0
     35246 TIP3     4267     TIP3     H1       HT       0.417000       1.00800           0
     35247 TIP3     4267     TIP3     H2       HT       0.417000       1.00800           0
     35248 TIP3     4268     TIP3     OH2      OT      -0.834000       15.9994           0
     35249 TIP3     4268     TIP3     H1       HT       0.417000       1.00800           0
     35250 TIP3     4268     TIP3     H2       HT       0.417000       1.00800           0
     35251 TIP3     4269     TIP3     OH2      OT      -0.834000       15.9994           0
     35252 TIP3     4269     TIP3     H1       HT       0.417000       1.00800           0
     35253 TIP3     4269     TIP3     H2       HT       0.417000       1.00800           0
     35254 TIP3     4270     TIP3     OH2      OT      -0.834000       15.9994           0
     35255 TIP3     4270     TIP3     H1       HT       0.417000       1.00800           0
     35256 TIP3     4270     TIP3     H2       HT       0.417000       1.00800           0
     35257 TIP3     4271     TIP3     OH2      OT      -0.834000       15.9994           0
     35258 TIP3     4271     TIP3     H1       HT       0.417000       1.00800           0
     35259 TIP3     4271     TIP3     H2       HT       0.417000       1.00800           0
     35260 TIP3     4272     TIP3     OH2      OT      -0.834000       15.9994           0
     35261 TIP3     4272     TIP3     H1       HT       0.417000       1.00800           0
     35262 TIP3     4272     TIP3     H2       HT       0.417000       1.00800           0
     35263 TIP3     4273     TIP3     OH2      OT      -0.834000       15.9994           0
     35264 TIP3     4273     TIP3     H1       HT       0.417000       1.00800           0
     35265 TIP3     4273     TIP3     H2       HT       0.417000       1.00800           0
     35266 TIP3     4274     TIP3     OH2      OT      -0.834000       15.9994           0
     35267 TIP3     4274     TIP3     H1       HT       0.417000       1.00800           0
     35268 TIP3     4274     TIP3     H2       HT       0.417000       1.00800           0
     35269 TIP3     4275     TIP3     OH2      OT      -0.834000       15.9994           0
     35270 TIP3     4275     TIP3     H1       HT       0.417000       1.00800           0
     35271 TIP3     4275     TIP3     H2       HT       0.417000       1.00800           0
     35272 TIP3     4276     TIP3     OH2      OT      -0.834000       15.9994           0
     35273 TIP3     4276     TIP3     H1       HT       0.417000       1.00800           0
     35274 TIP3     4276     TIP3     H2       HT       0.417000       1.00800           0
     35275 TIP3     4277     TIP3     OH2      OT      -0.834000       15.9994           0
     35276 TIP3     4277     TIP3     H1       HT       0.417000       1.00800           0
     35277 TIP3     4277     TIP3     H2       HT       0.417000       1.00800           0
     35278 TIP3     4278     TIP3     OH2      OT      -0.834000       15.9994           0
     35279 TIP3     4278     TIP3     H1       HT       0.417000       1.00800           0
     35280 TIP3     4278     TIP3     H2       HT       0.417000       1.00800           0
     35281 TIP3     4279     TIP3     OH2      OT      -0.834000       15.9994           0
     35282 TIP3     4279     TIP3     H1       HT       0.417000       1.00800           0
     35283 TIP3     4279     TIP3     H2       HT       0.417000       1.00800           0
     35284 TIP3     4280     TIP3     OH2      OT      -0.834000       15.9994           0
     35285 TIP3     4280     TIP3     H1       HT       0.417000       1.00800           0
     35286 TIP3     4280     TIP3     H2       HT       0.417000       1.00800           0
     35287 TIP3     4281     TIP3     OH2      OT      -0.834000       15.9994           0
     35288 TIP3     4281     TIP3     H1       HT       0.417000       1.00800           0
     35289 TIP3     4281     TIP3     H2       HT       0.417000       1.00800           0
     35290 TIP3     4282     TIP3     OH2      OT      -0.834000       15.9994           0
     35291 TIP3     4282     TIP3     H1       HT       0.417000       1.00800           0
     35292 TIP3     4282     TIP3     H2       HT       0.417000       1.00800           0
     35293 TIP3     4283     TIP3     OH2      OT      -0.834000       15.9994           0
     35294 TIP3     4283     TIP3     H1       HT       0.417000       1.00800           0
     35295 TIP3     4283     TIP3     H2       HT       0.417000       1.00800           0
     35296 TIP3     4284     TIP3     OH2      OT      -0.834000       15.9994           0
     35297 TIP3     4284     TIP3     H1       HT       0.417000       1.00800           0
     35298 TIP3     4284     TIP3     H2       HT       0.417000       1.00800           0
     35299 TIP3     4285     TIP3     OH2      OT      -0.834000       15.9994           0
     35300 TIP3     4285     TIP3     H1       HT       0.417000       1.00800           0
     35301 TIP3     4285     TIP3     H2       HT       0.417000       1.00800           0
     35302 TIP3     4286     TIP3     OH2      OT      -0.834000       15.9994           0
     35303 TIP3     4286     TIP3     H1       HT       0.417000       1.00800           0
     35304 TIP3     4286     TIP3     H2       HT       0.417000       1.00800           0
     35305 TIP3     4287     TIP3     OH2      OT      -0.834000       15.9994           0
     35306 TIP3     4287     TIP3     H1       HT       0.417000       1.00800           0
     35307 TIP3     4287     TIP3     H2       HT       0.417000       1.00800           0
     35308 TIP3     4288     TIP3     OH2      OT      -0.834000       15.9994           0
     35309 TIP3     4288     TIP3     H1       HT       0.417000       1.00800           0
     35310 TIP3     4288     TIP3     H2       HT       0.417000       1.00800           0
     35311 TIP3     4289     TIP3     OH2      OT      -0.834000       15.9994           0
     35312 TIP3     4289     TIP3     H1       HT       0.417000       1.00800           0
     35313 TIP3     4289     TIP3     H2       HT       0.417000       1.00800           0
     35314 TIP3     4290     TIP3     OH2      OT      -0.834000       15.9994           0
     35315 TIP3     4290     TIP3     H1       HT       0.417000       1.00800           0
     35316 TIP3     4290     TIP3     H2       HT       0.417000       1.00800           0
     35317 TIP3     4291     TIP3     OH2      OT      -0.834000       15.9994           0
     35318 TIP3     4291     TIP3     H1       HT       0.417000       1.00800           0
     35319 TIP3     4291     TIP3     H2       HT       0.417000       1.00800           0
     35320 TIP3     4292     TIP3     OH2      OT      -0.834000       15.9994           0
     35321 TIP3     4292     TIP3     H1       HT       0.417000       1.00800           0
     35322 TIP3     4292     TIP3     H2       HT       0.417000       1.00800           0
     35323 TIP3     4293     TIP3     OH2      OT      -0.834000       15.9994           0
     35324 TIP3     4293     TIP3     H1       HT       0.417000       1.00800           0
     35325 TIP3     4293     TIP3     H2       HT       0.417000       1.00800           0
     35326 TIP3     4294     TIP3     OH2      OT      -0.834000       15.9994           0
     35327 TIP3     4294     TIP3     H1       HT       0.417000       1.00800           0
     35328 TIP3     4294     TIP3     H2       HT       0.417000       1.00800           0
     35329 TIP3     4295     TIP3     OH2      OT      -0.834000       15.9994           0
     35330 TIP3     4295     TIP3     H1       HT       0.417000       1.00800           0
     35331 TIP3     4295     TIP3     H2       HT       0.417000       1.00800           0
     35332 TIP3     4296     TIP3     OH2      OT      -0.834000       15.9994           0
     35333 TIP3     4296     TIP3     H1       HT       0.417000       1.00800           0
     35334 TIP3     4296     TIP3     H2       HT       0.417000       1.00800           0
     35335 TIP3     4297     TIP3     OH2      OT      -0.834000       15.9994           0
     35336 TIP3     4297     TIP3     H1       HT       0.417000       1.00800           0
     35337 TIP3     4297     TIP3     H2       HT       0.417000       1.00800           0
     35338 TIP3     4298     TIP3     OH2      OT      -0.834000       15.9994           0
     35339 TIP3     4298     TIP3     H1       HT       0.417000       1.00800           0
     35340 TIP3     4298     TIP3     H2       HT       0.417000       1.00800           0
     35341 TIP3     4299     TIP3     OH2      OT      -0.834000       15.9994           0
     35342 TIP3     4299     TIP3     H1       HT       0.417000       1.00800           0
     35343 TIP3     4299     TIP3     H2       HT       0.417000       1.00800           0
     35344 TIP3     4300     TIP3     OH2      OT      -0.834000       15.9994           0
     35345 TIP3     4300     TIP3     H1       HT       0.417000       1.00800           0
     35346 TIP3     4300     TIP3     H2       HT       0.417000       1.00800           0
     35347 TIP3     4301     TIP3     OH2      OT      -0.834000       15.9994           0
     35348 TIP3     4301     TIP3     H1       HT       0.417000       1.00800           0
     35349 TIP3     4301     TIP3     H2       HT       0.417000       1.00800           0
     35350 TIP3     4302     TIP3     OH2      OT      -0.834000       15.9994           0
     35351 TIP3     4302     TIP3     H1       HT       0.417000       1.00800           0
     35352 TIP3     4302     TIP3     H2       HT       0.417000       1.00800           0
     35353 TIP3     4303     TIP3     OH2      OT      -0.834000       15.9994           0
     35354 TIP3     4303     TIP3     H1       HT       0.417000       1.00800           0
     35355 TIP3     4303     TIP3     H2       HT       0.417000       1.00800           0
     35356 TIP3     4304     TIP3     OH2      OT      -0.834000       15.9994           0
     35357 TIP3     4304     TIP3     H1       HT       0.417000       1.00800           0
     35358 TIP3     4304     TIP3     H2       HT       0.417000       1.00800           0
     35359 TIP3     4305     TIP3     OH2      OT      -0.834000       15.9994           0
     35360 TIP3     4305     TIP3     H1       HT       0.417000       1.00800           0
     35361 TIP3     4305     TIP3     H2       HT       0.417000       1.00800           0
     35362 TIP3     4306     TIP3     OH2      OT      -0.834000       15.9994           0
     35363 TIP3     4306     TIP3     H1       HT       0.417000       1.00800           0
     35364 TIP3     4306     TIP3     H2       HT       0.417000       1.00800           0
     35365 TIP3     4307     TIP3     OH2      OT      -0.834000       15.9994           0
     35366 TIP3     4307     TIP3     H1       HT       0.417000       1.00800           0
     35367 TIP3     4307     TIP3     H2       HT       0.417000       1.00800           0
     35368 TIP3     4308     TIP3     OH2      OT      -0.834000       15.9994           0
     35369 TIP3     4308     TIP3     H1       HT       0.417000       1.00800           0
     35370 TIP3     4308     TIP3     H2       HT       0.417000       1.00800           0
     35371 TIP3     4309     TIP3     OH2      OT      -0.834000       15.9994           0
     35372 TIP3     4309     TIP3     H1       HT       0.417000       1.00800           0
     35373 TIP3     4309     TIP3     H2       HT       0.417000       1.00800           0
     35374 TIP3     4310     TIP3     OH2      OT      -0.834000       15.9994           0
     35375 TIP3     4310     TIP3     H1       HT       0.417000       1.00800           0
     35376 TIP3     4310     TIP3     H2       HT       0.417000       1.00800           0
     35377 TIP3     4311     TIP3     OH2      OT      -0.834000       15.9994           0
     35378 TIP3     4311     TIP3     H1       HT       0.417000       1.00800           0
     35379 TIP3     4311     TIP3     H2       HT       0.417000       1.00800           0
     35380 TIP3     4312     TIP3     OH2      OT      -0.834000       15.9994           0
     35381 TIP3     4312     TIP3     H1       HT       0.417000       1.00800           0
     35382 TIP3     4312     TIP3     H2       HT       0.417000       1.00800           0
     35383 TIP3     4313     TIP3     OH2      OT      -0.834000       15.9994           0
     35384 TIP3     4313     TIP3     H1       HT       0.417000       1.00800           0
     35385 TIP3     4313     TIP3     H2       HT       0.417000       1.00800           0
     35386 TIP3     4314     TIP3     OH2      OT      -0.834000       15.9994           0
     35387 TIP3     4314     TIP3     H1       HT       0.417000       1.00800           0
     35388 TIP3     4314     TIP3     H2       HT       0.417000       1.00800           0
     35389 TIP3     4315     TIP3     OH2      OT      -0.834000       15.9994           0
     35390 TIP3     4315     TIP3     H1       HT       0.417000       1.00800           0
     35391 TIP3     4315     TIP3     H2       HT       0.417000       1.00800           0
     35392 TIP3     4316     TIP3     OH2      OT      -0.834000       15.9994           0
     35393 TIP3     4316     TIP3     H1       HT       0.417000       1.00800           0
     35394 TIP3     4316     TIP3     H2       HT       0.417000       1.00800           0
     35395 TIP3     4317     TIP3     OH2      OT      -0.834000       15.9994           0
     35396 TIP3     4317     TIP3     H1       HT       0.417000       1.00800           0
     35397 TIP3     4317     TIP3     H2       HT       0.417000       1.00800           0
     35398 TIP3     4318     TIP3     OH2      OT      -0.834000       15.9994           0
     35399 TIP3     4318     TIP3     H1       HT       0.417000       1.00800           0
     35400 TIP3     4318     TIP3     H2       HT       0.417000       1.00800           0
     35401 TIP3     4319     TIP3     OH2      OT      -0.834000       15.9994           0
     35402 TIP3     4319     TIP3     H1       HT       0.417000       1.00800           0
     35403 TIP3     4319     TIP3     H2       HT       0.417000       1.00800           0
     35404 TIP3     4320     TIP3     OH2      OT      -0.834000       15.9994           0
     35405 TIP3     4320     TIP3     H1       HT       0.417000       1.00800           0
     35406 TIP3     4320     TIP3     H2       HT       0.417000       1.00800           0
     35407 TIP3     4321     TIP3     OH2      OT      -0.834000       15.9994           0
     35408 TIP3     4321     TIP3     H1       HT       0.417000       1.00800           0
     35409 TIP3     4321     TIP3     H2       HT       0.417000       1.00800           0
     35410 TIP3     4322     TIP3     OH2      OT      -0.834000       15.9994           0
     35411 TIP3     4322     TIP3     H1       HT       0.417000       1.00800           0
     35412 TIP3     4322     TIP3     H2       HT       0.417000       1.00800           0
     35413 TIP3     4323     TIP3     OH2      OT      -0.834000       15.9994           0
     35414 TIP3     4323     TIP3     H1       HT       0.417000       1.00800           0
     35415 TIP3     4323     TIP3     H2       HT       0.417000       1.00800           0
     35416 TIP3     4324     TIP3     OH2      OT      -0.834000       15.9994           0
     35417 TIP3     4324     TIP3     H1       HT       0.417000       1.00800           0
     35418 TIP3     4324     TIP3     H2       HT       0.417000       1.00800           0
     35419 TIP3     4325     TIP3     OH2      OT      -0.834000       15.9994           0
     35420 TIP3     4325     TIP3     H1       HT       0.417000       1.00800           0
     35421 TIP3     4325     TIP3     H2       HT       0.417000       1.00800           0
     35422 TIP3     4326     TIP3     OH2      OT      -0.834000       15.9994           0
     35423 TIP3     4326     TIP3     H1       HT       0.417000       1.00800           0
     35424 TIP3     4326     TIP3     H2       HT       0.417000       1.00800           0
     35425 TIP3     4327     TIP3     OH2      OT      -0.834000       15.9994           0
     35426 TIP3     4327     TIP3     H1       HT       0.417000       1.00800           0
     35427 TIP3     4327     TIP3     H2       HT       0.417000       1.00800           0
     35428 TIP3     4328     TIP3     OH2      OT      -0.834000       15.9994           0
     35429 TIP3     4328     TIP3     H1       HT       0.417000       1.00800           0
     35430 TIP3     4328     TIP3     H2       HT       0.417000       1.00800           0
     35431 TIP3     4329     TIP3     OH2      OT      -0.834000       15.9994           0
     35432 TIP3     4329     TIP3     H1       HT       0.417000       1.00800           0
     35433 TIP3     4329     TIP3     H2       HT       0.417000       1.00800           0
     35434 TIP3     4330     TIP3     OH2      OT      -0.834000       15.9994           0
     35435 TIP3     4330     TIP3     H1       HT       0.417000       1.00800           0
     35436 TIP3     4330     TIP3     H2       HT       0.417000       1.00800           0
     35437 TIP3     4331     TIP3     OH2      OT      -0.834000       15.9994           0
     35438 TIP3     4331     TIP3     H1       HT       0.417000       1.00800           0
     35439 TIP3     4331     TIP3     H2       HT       0.417000       1.00800           0
     35440 TIP3     4332     TIP3     OH2      OT      -0.834000       15.9994           0
     35441 TIP3     4332     TIP3     H1       HT       0.417000       1.00800           0
     35442 TIP3     4332     TIP3     H2       HT       0.417000       1.00800           0
     35443 TIP3     4333     TIP3     OH2      OT      -0.834000       15.9994           0
     35444 TIP3     4333     TIP3     H1       HT       0.417000       1.00800           0
     35445 TIP3     4333     TIP3     H2       HT       0.417000       1.00800           0
     35446 TIP3     4334     TIP3     OH2      OT      -0.834000       15.9994           0
     35447 TIP3     4334     TIP3     H1       HT       0.417000       1.00800           0
     35448 TIP3     4334     TIP3     H2       HT       0.417000       1.00800           0
     35449 TIP3     4335     TIP3     OH2      OT      -0.834000       15.9994           0
     35450 TIP3     4335     TIP3     H1       HT       0.417000       1.00800           0
     35451 TIP3     4335     TIP3     H2       HT       0.417000       1.00800           0
     35452 TIP3     4336     TIP3     OH2      OT      -0.834000       15.9994           0
     35453 TIP3     4336     TIP3     H1       HT       0.417000       1.00800           0
     35454 TIP3     4336     TIP3     H2       HT       0.417000       1.00800           0
     35455 TIP3     4337     TIP3     OH2      OT      -0.834000       15.9994           0
     35456 TIP3     4337     TIP3     H1       HT       0.417000       1.00800           0
     35457 TIP3     4337     TIP3     H2       HT       0.417000       1.00800           0
     35458 TIP3     4338     TIP3     OH2      OT      -0.834000       15.9994           0
     35459 TIP3     4338     TIP3     H1       HT       0.417000       1.00800           0
     35460 TIP3     4338     TIP3     H2       HT       0.417000       1.00800           0
     35461 TIP3     4339     TIP3     OH2      OT      -0.834000       15.9994           0
     35462 TIP3     4339     TIP3     H1       HT       0.417000       1.00800           0
     35463 TIP3     4339     TIP3     H2       HT       0.417000       1.00800           0
     35464 TIP3     4340     TIP3     OH2      OT      -0.834000       15.9994           0
     35465 TIP3     4340     TIP3     H1       HT       0.417000       1.00800           0
     35466 TIP3     4340     TIP3     H2       HT       0.417000       1.00800           0
     35467 TIP3     4341     TIP3     OH2      OT      -0.834000       15.9994           0
     35468 TIP3     4341     TIP3     H1       HT       0.417000       1.00800           0
     35469 TIP3     4341     TIP3     H2       HT       0.417000       1.00800           0
     35470 TIP3     4342     TIP3     OH2      OT      -0.834000       15.9994           0
     35471 TIP3     4342     TIP3     H1       HT       0.417000       1.00800           0
     35472 TIP3     4342     TIP3     H2       HT       0.417000       1.00800           0
     35473 TIP3     4343     TIP3     OH2      OT      -0.834000       15.9994           0
     35474 TIP3     4343     TIP3     H1       HT       0.417000       1.00800           0
     35475 TIP3     4343     TIP3     H2       HT       0.417000       1.00800           0
     35476 TIP3     4344     TIP3     OH2      OT      -0.834000       15.9994           0
     35477 TIP3     4344     TIP3     H1       HT       0.417000       1.00800           0
     35478 TIP3     4344     TIP3     H2       HT       0.417000       1.00800           0
     35479 TIP3     4345     TIP3     OH2      OT      -0.834000       15.9994           0
     35480 TIP3     4345     TIP3     H1       HT       0.417000       1.00800           0
     35481 TIP3     4345     TIP3     H2       HT       0.417000       1.00800           0
     35482 TIP3     4346     TIP3     OH2      OT      -0.834000       15.9994           0
     35483 TIP3     4346     TIP3     H1       HT       0.417000       1.00800           0
     35484 TIP3     4346     TIP3     H2       HT       0.417000       1.00800           0
     35485 TIP3     4347     TIP3     OH2      OT      -0.834000       15.9994           0
     35486 TIP3     4347     TIP3     H1       HT       0.417000       1.00800           0
     35487 TIP3     4347     TIP3     H2       HT       0.417000       1.00800           0
     35488 TIP3     4348     TIP3     OH2      OT      -0.834000       15.9994           0
     35489 TIP3     4348     TIP3     H1       HT       0.417000       1.00800           0
     35490 TIP3     4348     TIP3     H2       HT       0.417000       1.00800           0
     35491 TIP3     4349     TIP3     OH2      OT      -0.834000       15.9994           0
     35492 TIP3     4349     TIP3     H1       HT       0.417000       1.00800           0
     35493 TIP3     4349     TIP3     H2       HT       0.417000       1.00800           0
     35494 TIP3     4350     TIP3     OH2      OT      -0.834000       15.9994           0
     35495 TIP3     4350     TIP3     H1       HT       0.417000       1.00800           0
     35496 TIP3     4350     TIP3     H2       HT       0.417000       1.00800           0
     35497 TIP3     4351     TIP3     OH2      OT      -0.834000       15.9994           0
     35498 TIP3     4351     TIP3     H1       HT       0.417000       1.00800           0
     35499 TIP3     4351     TIP3     H2       HT       0.417000       1.00800           0
     35500 TIP3     4352     TIP3     OH2      OT      -0.834000       15.9994           0
     35501 TIP3     4352     TIP3     H1       HT       0.417000       1.00800           0
     35502 TIP3     4352     TIP3     H2       HT       0.417000       1.00800           0
     35503 TIP3     4353     TIP3     OH2      OT      -0.834000       15.9994           0
     35504 TIP3     4353     TIP3     H1       HT       0.417000       1.00800           0
     35505 TIP3     4353     TIP3     H2       HT       0.417000       1.00800           0
     35506 TIP3     4354     TIP3     OH2      OT      -0.834000       15.9994           0
     35507 TIP3     4354     TIP3     H1       HT       0.417000       1.00800           0
     35508 TIP3     4354     TIP3     H2       HT       0.417000       1.00800           0
     35509 TIP3     4355     TIP3     OH2      OT      -0.834000       15.9994           0
     35510 TIP3     4355     TIP3     H1       HT       0.417000       1.00800           0
     35511 TIP3     4355     TIP3     H2       HT       0.417000       1.00800           0
     35512 TIP3     4356     TIP3     OH2      OT      -0.834000       15.9994           0
     35513 TIP3     4356     TIP3     H1       HT       0.417000       1.00800           0
     35514 TIP3     4356     TIP3     H2       HT       0.417000       1.00800           0
     35515 TIP3     4357     TIP3     OH2      OT      -0.834000       15.9994           0
     35516 TIP3     4357     TIP3     H1       HT       0.417000       1.00800           0
     35517 TIP3     4357     TIP3     H2       HT       0.417000       1.00800           0
     35518 TIP3     4358     TIP3     OH2      OT      -0.834000       15.9994           0
     35519 TIP3     4358     TIP3     H1       HT       0.417000       1.00800           0
     35520 TIP3     4358     TIP3     H2       HT       0.417000       1.00800           0
     35521 TIP3     4359     TIP3     OH2      OT      -0.834000       15.9994           0
     35522 TIP3     4359     TIP3     H1       HT       0.417000       1.00800           0
     35523 TIP3     4359     TIP3     H2       HT       0.417000       1.00800           0
     35524 TIP3     4360     TIP3     OH2      OT      -0.834000       15.9994           0
     35525 TIP3     4360     TIP3     H1       HT       0.417000       1.00800           0
     35526 TIP3     4360     TIP3     H2       HT       0.417000       1.00800           0
     35527 TIP3     4361     TIP3     OH2      OT      -0.834000       15.9994           0
     35528 TIP3     4361     TIP3     H1       HT       0.417000       1.00800           0
     35529 TIP3     4361     TIP3     H2       HT       0.417000       1.00800           0
     35530 TIP3     4362     TIP3     OH2      OT      -0.834000       15.9994           0
     35531 TIP3     4362     TIP3     H1       HT       0.417000       1.00800           0
     35532 TIP3     4362     TIP3     H2       HT       0.417000       1.00800           0
     35533 TIP3     4363     TIP3     OH2      OT      -0.834000       15.9994           0
     35534 TIP3     4363     TIP3     H1       HT       0.417000       1.00800           0
     35535 TIP3     4363     TIP3     H2       HT       0.417000       1.00800           0
     35536 TIP3     4364     TIP3     OH2      OT      -0.834000       15.9994           0
     35537 TIP3     4364     TIP3     H1       HT       0.417000       1.00800           0
     35538 TIP3     4364     TIP3     H2       HT       0.417000       1.00800           0
     35539 TIP3     4365     TIP3     OH2      OT      -0.834000       15.9994           0
     35540 TIP3     4365     TIP3     H1       HT       0.417000       1.00800           0
     35541 TIP3     4365     TIP3     H2       HT       0.417000       1.00800           0
     35542 TIP3     4366     TIP3     OH2      OT      -0.834000       15.9994           0
     35543 TIP3     4366     TIP3     H1       HT       0.417000       1.00800           0
     35544 TIP3     4366     TIP3     H2       HT       0.417000       1.00800           0
     35545 TIP3     4367     TIP3     OH2      OT      -0.834000       15.9994           0
     35546 TIP3     4367     TIP3     H1       HT       0.417000       1.00800           0
     35547 TIP3     4367     TIP3     H2       HT       0.417000       1.00800           0
     35548 TIP3     4368     TIP3     OH2      OT      -0.834000       15.9994           0
     35549 TIP3     4368     TIP3     H1       HT       0.417000       1.00800           0
     35550 TIP3     4368     TIP3     H2       HT       0.417000       1.00800           0
     35551 TIP3     4369     TIP3     OH2      OT      -0.834000       15.9994           0
     35552 TIP3     4369     TIP3     H1       HT       0.417000       1.00800           0
     35553 TIP3     4369     TIP3     H2       HT       0.417000       1.00800           0
     35554 TIP3     4370     TIP3     OH2      OT      -0.834000       15.9994           0
     35555 TIP3     4370     TIP3     H1       HT       0.417000       1.00800           0
     35556 TIP3     4370     TIP3     H2       HT       0.417000       1.00800           0
     35557 TIP3     4371     TIP3     OH2      OT      -0.834000       15.9994           0
     35558 TIP3     4371     TIP3     H1       HT       0.417000       1.00800           0
     35559 TIP3     4371     TIP3     H2       HT       0.417000       1.00800           0
     35560 TIP3     4372     TIP3     OH2      OT      -0.834000       15.9994           0
     35561 TIP3     4372     TIP3     H1       HT       0.417000       1.00800           0
     35562 TIP3     4372     TIP3     H2       HT       0.417000       1.00800           0
     35563 TIP3     4373     TIP3     OH2      OT      -0.834000       15.9994           0
     35564 TIP3     4373     TIP3     H1       HT       0.417000       1.00800           0
     35565 TIP3     4373     TIP3     H2       HT       0.417000       1.00800           0
     35566 TIP3     4374     TIP3     OH2      OT      -0.834000       15.9994           0
     35567 TIP3     4374     TIP3     H1       HT       0.417000       1.00800           0
     35568 TIP3     4374     TIP3     H2       HT       0.417000       1.00800           0
     35569 TIP3     4375     TIP3     OH2      OT      -0.834000       15.9994           0
     35570 TIP3     4375     TIP3     H1       HT       0.417000       1.00800           0
     35571 TIP3     4375     TIP3     H2       HT       0.417000       1.00800           0
     35572 TIP3     4376     TIP3     OH2      OT      -0.834000       15.9994           0
     35573 TIP3     4376     TIP3     H1       HT       0.417000       1.00800           0
     35574 TIP3     4376     TIP3     H2       HT       0.417000       1.00800           0
     35575 TIP3     4377     TIP3     OH2      OT      -0.834000       15.9994           0
     35576 TIP3     4377     TIP3     H1       HT       0.417000       1.00800           0
     35577 TIP3     4377     TIP3     H2       HT       0.417000       1.00800           0
     35578 TIP3     4378     TIP3     OH2      OT      -0.834000       15.9994           0
     35579 TIP3     4378     TIP3     H1       HT       0.417000       1.00800           0
     35580 TIP3     4378     TIP3     H2       HT       0.417000       1.00800           0
     35581 TIP3     4379     TIP3     OH2      OT      -0.834000       15.9994           0
     35582 TIP3     4379     TIP3     H1       HT       0.417000       1.00800           0
     35583 TIP3     4379     TIP3     H2       HT       0.417000       1.00800           0
     35584 TIP3     4380     TIP3     OH2      OT      -0.834000       15.9994           0
     35585 TIP3     4380     TIP3     H1       HT       0.417000       1.00800           0
     35586 TIP3     4380     TIP3     H2       HT       0.417000       1.00800           0
     35587 TIP3     4381     TIP3     OH2      OT      -0.834000       15.9994           0
     35588 TIP3     4381     TIP3     H1       HT       0.417000       1.00800           0
     35589 TIP3     4381     TIP3     H2       HT       0.417000       1.00800           0
     35590 TIP3     4382     TIP3     OH2      OT      -0.834000       15.9994           0
     35591 TIP3     4382     TIP3     H1       HT       0.417000       1.00800           0
     35592 TIP3     4382     TIP3     H2       HT       0.417000       1.00800           0
     35593 TIP3     4383     TIP3     OH2      OT      -0.834000       15.9994           0
     35594 TIP3     4383     TIP3     H1       HT       0.417000       1.00800           0
     35595 TIP3     4383     TIP3     H2       HT       0.417000       1.00800           0
     35596 TIP3     4384     TIP3     OH2      OT      -0.834000       15.9994           0
     35597 TIP3     4384     TIP3     H1       HT       0.417000       1.00800           0
     35598 TIP3     4384     TIP3     H2       HT       0.417000       1.00800           0
     35599 TIP3     4385     TIP3     OH2      OT      -0.834000       15.9994           0
     35600 TIP3     4385     TIP3     H1       HT       0.417000       1.00800           0
     35601 TIP3     4385     TIP3     H2       HT       0.417000       1.00800           0
     35602 TIP3     4386     TIP3     OH2      OT      -0.834000       15.9994           0
     35603 TIP3     4386     TIP3     H1       HT       0.417000       1.00800           0
     35604 TIP3     4386     TIP3     H2       HT       0.417000       1.00800           0
     35605 TIP3     4387     TIP3     OH2      OT      -0.834000       15.9994           0
     35606 TIP3     4387     TIP3     H1       HT       0.417000       1.00800           0
     35607 TIP3     4387     TIP3     H2       HT       0.417000       1.00800           0
     35608 TIP3     4388     TIP3     OH2      OT      -0.834000       15.9994           0
     35609 TIP3     4388     TIP3     H1       HT       0.417000       1.00800           0
     35610 TIP3     4388     TIP3     H2       HT       0.417000       1.00800           0
     35611 TIP3     4389     TIP3     OH2      OT      -0.834000       15.9994           0
     35612 TIP3     4389     TIP3     H1       HT       0.417000       1.00800           0
     35613 TIP3     4389     TIP3     H2       HT       0.417000       1.00800           0
     35614 TIP3     4390     TIP3     OH2      OT      -0.834000       15.9994           0
     35615 TIP3     4390     TIP3     H1       HT       0.417000       1.00800           0
     35616 TIP3     4390     TIP3     H2       HT       0.417000       1.00800           0
     35617 TIP3     4391     TIP3     OH2      OT      -0.834000       15.9994           0
     35618 TIP3     4391     TIP3     H1       HT       0.417000       1.00800           0
     35619 TIP3     4391     TIP3     H2       HT       0.417000       1.00800           0
     35620 TIP3     4392     TIP3     OH2      OT      -0.834000       15.9994           0
     35621 TIP3     4392     TIP3     H1       HT       0.417000       1.00800           0
     35622 TIP3     4392     TIP3     H2       HT       0.417000       1.00800           0
     35623 TIP3     4393     TIP3     OH2      OT      -0.834000       15.9994           0
     35624 TIP3     4393     TIP3     H1       HT       0.417000       1.00800           0
     35625 TIP3     4393     TIP3     H2       HT       0.417000       1.00800           0
     35626 TIP3     4394     TIP3     OH2      OT      -0.834000       15.9994           0
     35627 TIP3     4394     TIP3     H1       HT       0.417000       1.00800           0
     35628 TIP3     4394     TIP3     H2       HT       0.417000       1.00800           0
     35629 TIP3     4395     TIP3     OH2      OT      -0.834000       15.9994           0
     35630 TIP3     4395     TIP3     H1       HT       0.417000       1.00800           0
     35631 TIP3     4395     TIP3     H2       HT       0.417000       1.00800           0
     35632 TIP3     4396     TIP3     OH2      OT      -0.834000       15.9994           0
     35633 TIP3     4396     TIP3     H1       HT       0.417000       1.00800           0
     35634 TIP3     4396     TIP3     H2       HT       0.417000       1.00800           0
     35635 TIP3     4397     TIP3     OH2      OT      -0.834000       15.9994           0
     35636 TIP3     4397     TIP3     H1       HT       0.417000       1.00800           0
     35637 TIP3     4397     TIP3     H2       HT       0.417000       1.00800           0
     35638 TIP3     4398     TIP3     OH2      OT      -0.834000       15.9994           0
     35639 TIP3     4398     TIP3     H1       HT       0.417000       1.00800           0
     35640 TIP3     4398     TIP3     H2       HT       0.417000       1.00800           0
     35641 TIP3     4399     TIP3     OH2      OT      -0.834000       15.9994           0
     35642 TIP3     4399     TIP3     H1       HT       0.417000       1.00800           0
     35643 TIP3     4399     TIP3     H2       HT       0.417000       1.00800           0
     35644 TIP3     4400     TIP3     OH2      OT      -0.834000       15.9994           0
     35645 TIP3     4400     TIP3     H1       HT       0.417000       1.00800           0
     35646 TIP3     4400     TIP3     H2       HT       0.417000       1.00800           0
     35647 TIP3     4401     TIP3     OH2      OT      -0.834000       15.9994           0
     35648 TIP3     4401     TIP3     H1       HT       0.417000       1.00800           0
     35649 TIP3     4401     TIP3     H2       HT       0.417000       1.00800           0
     35650 TIP3     4402     TIP3     OH2      OT      -0.834000       15.9994           0
     35651 TIP3     4402     TIP3     H1       HT       0.417000       1.00800           0
     35652 TIP3     4402     TIP3     H2       HT       0.417000       1.00800           0
     35653 TIP3     4403     TIP3     OH2      OT      -0.834000       15.9994           0
     35654 TIP3     4403     TIP3     H1       HT       0.417000       1.00800           0
     35655 TIP3     4403     TIP3     H2       HT       0.417000       1.00800           0
     35656 TIP3     4404     TIP3     OH2      OT      -0.834000       15.9994           0
     35657 TIP3     4404     TIP3     H1       HT       0.417000       1.00800           0
     35658 TIP3     4404     TIP3     H2       HT       0.417000       1.00800           0
     35659 TIP3     4405     TIP3     OH2      OT      -0.834000       15.9994           0
     35660 TIP3     4405     TIP3     H1       HT       0.417000       1.00800           0
     35661 TIP3     4405     TIP3     H2       HT       0.417000       1.00800           0
     35662 TIP3     4406     TIP3     OH2      OT      -0.834000       15.9994           0
     35663 TIP3     4406     TIP3     H1       HT       0.417000       1.00800           0
     35664 TIP3     4406     TIP3     H2       HT       0.417000       1.00800           0
     35665 TIP3     4407     TIP3     OH2      OT      -0.834000       15.9994           0
     35666 TIP3     4407     TIP3     H1       HT       0.417000       1.00800           0
     35667 TIP3     4407     TIP3     H2       HT       0.417000       1.00800           0
     35668 TIP3     4408     TIP3     OH2      OT      -0.834000       15.9994           0
     35669 TIP3     4408     TIP3     H1       HT       0.417000       1.00800           0
     35670 TIP3     4408     TIP3     H2       HT       0.417000       1.00800           0
     35671 TIP3     4409     TIP3     OH2      OT      -0.834000       15.9994           0
     35672 TIP3     4409     TIP3     H1       HT       0.417000       1.00800           0
     35673 TIP3     4409     TIP3     H2       HT       0.417000       1.00800           0
     35674 TIP3     4410     TIP3     OH2      OT      -0.834000       15.9994           0
     35675 TIP3     4410     TIP3     H1       HT       0.417000       1.00800           0
     35676 TIP3     4410     TIP3     H2       HT       0.417000       1.00800           0
     35677 TIP3     4411     TIP3     OH2      OT      -0.834000       15.9994           0
     35678 TIP3     4411     TIP3     H1       HT       0.417000       1.00800           0
     35679 TIP3     4411     TIP3     H2       HT       0.417000       1.00800           0
     35680 TIP3     4412     TIP3     OH2      OT      -0.834000       15.9994           0
     35681 TIP3     4412     TIP3     H1       HT       0.417000       1.00800           0
     35682 TIP3     4412     TIP3     H2       HT       0.417000       1.00800           0
     35683 TIP3     4413     TIP3     OH2      OT      -0.834000       15.9994           0
     35684 TIP3     4413     TIP3     H1       HT       0.417000       1.00800           0
     35685 TIP3     4413     TIP3     H2       HT       0.417000       1.00800           0
     35686 TIP3     4414     TIP3     OH2      OT      -0.834000       15.9994           0
     35687 TIP3     4414     TIP3     H1       HT       0.417000       1.00800           0
     35688 TIP3     4414     TIP3     H2       HT       0.417000       1.00800           0
     35689 TIP3     4415     TIP3     OH2      OT      -0.834000       15.9994           0
     35690 TIP3     4415     TIP3     H1       HT       0.417000       1.00800           0
     35691 TIP3     4415     TIP3     H2       HT       0.417000       1.00800           0
     35692 TIP3     4416     TIP3     OH2      OT      -0.834000       15.9994           0
     35693 TIP3     4416     TIP3     H1       HT       0.417000       1.00800           0
     35694 TIP3     4416     TIP3     H2       HT       0.417000       1.00800           0
     35695 TIP3     4417     TIP3     OH2      OT      -0.834000       15.9994           0
     35696 TIP3     4417     TIP3     H1       HT       0.417000       1.00800           0
     35697 TIP3     4417     TIP3     H2       HT       0.417000       1.00800           0
     35698 TIP3     4418     TIP3     OH2      OT      -0.834000       15.9994           0
     35699 TIP3     4418     TIP3     H1       HT       0.417000       1.00800           0
     35700 TIP3     4418     TIP3     H2       HT       0.417000       1.00800           0
     35701 TIP3     4419     TIP3     OH2      OT      -0.834000       15.9994           0
     35702 TIP3     4419     TIP3     H1       HT       0.417000       1.00800           0
     35703 TIP3     4419     TIP3     H2       HT       0.417000       1.00800           0
     35704 TIP3     4420     TIP3     OH2      OT      -0.834000       15.9994           0
     35705 TIP3     4420     TIP3     H1       HT       0.417000       1.00800           0
     35706 TIP3     4420     TIP3     H2       HT       0.417000       1.00800           0
     35707 TIP3     4421     TIP3     OH2      OT      -0.834000       15.9994           0
     35708 TIP3     4421     TIP3     H1       HT       0.417000       1.00800           0
     35709 TIP3     4421     TIP3     H2       HT       0.417000       1.00800           0
     35710 TIP3     4422     TIP3     OH2      OT      -0.834000       15.9994           0
     35711 TIP3     4422     TIP3     H1       HT       0.417000       1.00800           0
     35712 TIP3     4422     TIP3     H2       HT       0.417000       1.00800           0
     35713 TIP3     4423     TIP3     OH2      OT      -0.834000       15.9994           0
     35714 TIP3     4423     TIP3     H1       HT       0.417000       1.00800           0
     35715 TIP3     4423     TIP3     H2       HT       0.417000       1.00800           0
     35716 TIP3     4424     TIP3     OH2      OT      -0.834000       15.9994           0
     35717 TIP3     4424     TIP3     H1       HT       0.417000       1.00800           0
     35718 TIP3     4424     TIP3     H2       HT       0.417000       1.00800           0
     35719 TIP3     4425     TIP3     OH2      OT      -0.834000       15.9994           0
     35720 TIP3     4425     TIP3     H1       HT       0.417000       1.00800           0
     35721 TIP3     4425     TIP3     H2       HT       0.417000       1.00800           0
     35722 TIP3     4426     TIP3     OH2      OT      -0.834000       15.9994           0
     35723 TIP3     4426     TIP3     H1       HT       0.417000       1.00800           0
     35724 TIP3     4426     TIP3     H2       HT       0.417000       1.00800           0
     35725 TIP3     4427     TIP3     OH2      OT      -0.834000       15.9994           0
     35726 TIP3     4427     TIP3     H1       HT       0.417000       1.00800           0
     35727 TIP3     4427     TIP3     H2       HT       0.417000       1.00800           0
     35728 TIP3     4428     TIP3     OH2      OT      -0.834000       15.9994           0
     35729 TIP3     4428     TIP3     H1       HT       0.417000       1.00800           0
     35730 TIP3     4428     TIP3     H2       HT       0.417000       1.00800           0
     35731 TIP3     4429     TIP3     OH2      OT      -0.834000       15.9994           0
     35732 TIP3     4429     TIP3     H1       HT       0.417000       1.00800           0
     35733 TIP3     4429     TIP3     H2       HT       0.417000       1.00800           0
     35734 TIP3     4430     TIP3     OH2      OT      -0.834000       15.9994           0
     35735 TIP3     4430     TIP3     H1       HT       0.417000       1.00800           0
     35736 TIP3     4430     TIP3     H2       HT       0.417000       1.00800           0
     35737 TIP3     4431     TIP3     OH2      OT      -0.834000       15.9994           0
     35738 TIP3     4431     TIP3     H1       HT       0.417000       1.00800           0
     35739 TIP3     4431     TIP3     H2       HT       0.417000       1.00800           0
     35740 TIP3     4432     TIP3     OH2      OT      -0.834000       15.9994           0
     35741 TIP3     4432     TIP3     H1       HT       0.417000       1.00800           0
     35742 TIP3     4432     TIP3     H2       HT       0.417000       1.00800           0
     35743 TIP3     4433     TIP3     OH2      OT      -0.834000       15.9994           0
     35744 TIP3     4433     TIP3     H1       HT       0.417000       1.00800           0
     35745 TIP3     4433     TIP3     H2       HT       0.417000       1.00800           0
     35746 TIP3     4434     TIP3     OH2      OT      -0.834000       15.9994           0
     35747 TIP3     4434     TIP3     H1       HT       0.417000       1.00800           0
     35748 TIP3     4434     TIP3     H2       HT       0.417000       1.00800           0
     35749 TIP3     4435     TIP3     OH2      OT      -0.834000       15.9994           0
     35750 TIP3     4435     TIP3     H1       HT       0.417000       1.00800           0
     35751 TIP3     4435     TIP3     H2       HT       0.417000       1.00800           0
     35752 TIP3     4436     TIP3     OH2      OT      -0.834000       15.9994           0
     35753 TIP3     4436     TIP3     H1       HT       0.417000       1.00800           0
     35754 TIP3     4436     TIP3     H2       HT       0.417000       1.00800           0
     35755 TIP3     4437     TIP3     OH2      OT      -0.834000       15.9994           0
     35756 TIP3     4437     TIP3     H1       HT       0.417000       1.00800           0
     35757 TIP3     4437     TIP3     H2       HT       0.417000       1.00800           0
     35758 TIP3     4438     TIP3     OH2      OT      -0.834000       15.9994           0
     35759 TIP3     4438     TIP3     H1       HT       0.417000       1.00800           0
     35760 TIP3     4438     TIP3     H2       HT       0.417000       1.00800           0
     35761 TIP3     4439     TIP3     OH2      OT      -0.834000       15.9994           0
     35762 TIP3     4439     TIP3     H1       HT       0.417000       1.00800           0
     35763 TIP3     4439     TIP3     H2       HT       0.417000       1.00800           0
     35764 TIP3     4440     TIP3     OH2      OT      -0.834000       15.9994           0
     35765 TIP3     4440     TIP3     H1       HT       0.417000       1.00800           0
     35766 TIP3     4440     TIP3     H2       HT       0.417000       1.00800           0
     35767 TIP3     4441     TIP3     OH2      OT      -0.834000       15.9994           0
     35768 TIP3     4441     TIP3     H1       HT       0.417000       1.00800           0
     35769 TIP3     4441     TIP3     H2       HT       0.417000       1.00800           0
     35770 TIP3     4442     TIP3     OH2      OT      -0.834000       15.9994           0
     35771 TIP3     4442     TIP3     H1       HT       0.417000       1.00800           0
     35772 TIP3     4442     TIP3     H2       HT       0.417000       1.00800           0
     35773 TIP3     4443     TIP3     OH2      OT      -0.834000       15.9994           0
     35774 TIP3     4443     TIP3     H1       HT       0.417000       1.00800           0
     35775 TIP3     4443     TIP3     H2       HT       0.417000       1.00800           0
     35776 TIP3     4444     TIP3     OH2      OT      -0.834000       15.9994           0
     35777 TIP3     4444     TIP3     H1       HT       0.417000       1.00800           0
     35778 TIP3     4444     TIP3     H2       HT       0.417000       1.00800           0
     35779 TIP3     4445     TIP3     OH2      OT      -0.834000       15.9994           0
     35780 TIP3     4445     TIP3     H1       HT       0.417000       1.00800           0
     35781 TIP3     4445     TIP3     H2       HT       0.417000       1.00800           0
     35782 TIP3     4446     TIP3     OH2      OT      -0.834000       15.9994           0
     35783 TIP3     4446     TIP3     H1       HT       0.417000       1.00800           0
     35784 TIP3     4446     TIP3     H2       HT       0.417000       1.00800           0
     35785 TIP3     4447     TIP3     OH2      OT      -0.834000       15.9994           0
     35786 TIP3     4447     TIP3     H1       HT       0.417000       1.00800           0
     35787 TIP3     4447     TIP3     H2       HT       0.417000       1.00800           0
     35788 TIP3     4448     TIP3     OH2      OT      -0.834000       15.9994           0
     35789 TIP3     4448     TIP3     H1       HT       0.417000       1.00800           0
     35790 TIP3     4448     TIP3     H2       HT       0.417000       1.00800           0
     35791 TIP3     4449     TIP3     OH2      OT      -0.834000       15.9994           0
     35792 TIP3     4449     TIP3     H1       HT       0.417000       1.00800           0
     35793 TIP3     4449     TIP3     H2       HT       0.417000       1.00800           0
     35794 TIP3     4450     TIP3     OH2      OT      -0.834000       15.9994           0
     35795 TIP3     4450     TIP3     H1       HT       0.417000       1.00800           0
     35796 TIP3     4450     TIP3     H2       HT       0.417000       1.00800           0
     35797 TIP3     4451     TIP3     OH2      OT      -0.834000       15.9994           0
     35798 TIP3     4451     TIP3     H1       HT       0.417000       1.00800           0
     35799 TIP3     4451     TIP3     H2       HT       0.417000       1.00800           0
     35800 TIP3     4452     TIP3     OH2      OT      -0.834000       15.9994           0
     35801 TIP3     4452     TIP3     H1       HT       0.417000       1.00800           0
     35802 TIP3     4452     TIP3     H2       HT       0.417000       1.00800           0
     35803 TIP3     4453     TIP3     OH2      OT      -0.834000       15.9994           0
     35804 TIP3     4453     TIP3     H1       HT       0.417000       1.00800           0
     35805 TIP3     4453     TIP3     H2       HT       0.417000       1.00800           0
     35806 TIP3     4454     TIP3     OH2      OT      -0.834000       15.9994           0
     35807 TIP3     4454     TIP3     H1       HT       0.417000       1.00800           0
     35808 TIP3     4454     TIP3     H2       HT       0.417000       1.00800           0
     35809 TIP3     4455     TIP3     OH2      OT      -0.834000       15.9994           0
     35810 TIP3     4455     TIP3     H1       HT       0.417000       1.00800           0
     35811 TIP3     4455     TIP3     H2       HT       0.417000       1.00800           0
     35812 TIP3     4456     TIP3     OH2      OT      -0.834000       15.9994           0
     35813 TIP3     4456     TIP3     H1       HT       0.417000       1.00800           0
     35814 TIP3     4456     TIP3     H2       HT       0.417000       1.00800           0
     35815 TIP3     4457     TIP3     OH2      OT      -0.834000       15.9994           0
     35816 TIP3     4457     TIP3     H1       HT       0.417000       1.00800           0
     35817 TIP3     4457     TIP3     H2       HT       0.417000       1.00800           0
     35818 TIP3     4458     TIP3     OH2      OT      -0.834000       15.9994           0
     35819 TIP3     4458     TIP3     H1       HT       0.417000       1.00800           0
     35820 TIP3     4458     TIP3     H2       HT       0.417000       1.00800           0
     35821 TIP3     4459     TIP3     OH2      OT      -0.834000       15.9994           0
     35822 TIP3     4459     TIP3     H1       HT       0.417000       1.00800           0
     35823 TIP3     4459     TIP3     H2       HT       0.417000       1.00800           0
     35824 TIP3     4460     TIP3     OH2      OT      -0.834000       15.9994           0
     35825 TIP3     4460     TIP3     H1       HT       0.417000       1.00800           0
     35826 TIP3     4460     TIP3     H2       HT       0.417000       1.00800           0
     35827 TIP3     4461     TIP3     OH2      OT      -0.834000       15.9994           0
     35828 TIP3     4461     TIP3     H1       HT       0.417000       1.00800           0
     35829 TIP3     4461     TIP3     H2       HT       0.417000       1.00800           0
     35830 TIP3     4462     TIP3     OH2      OT      -0.834000       15.9994           0
     35831 TIP3     4462     TIP3     H1       HT       0.417000       1.00800           0
     35832 TIP3     4462     TIP3     H2       HT       0.417000       1.00800           0
     35833 TIP3     4463     TIP3     OH2      OT      -0.834000       15.9994           0
     35834 TIP3     4463     TIP3     H1       HT       0.417000       1.00800           0
     35835 TIP3     4463     TIP3     H2       HT       0.417000       1.00800           0
     35836 TIP3     4464     TIP3     OH2      OT      -0.834000       15.9994           0
     35837 TIP3     4464     TIP3     H1       HT       0.417000       1.00800           0
     35838 TIP3     4464     TIP3     H2       HT       0.417000       1.00800           0
     35839 TIP3     4465     TIP3     OH2      OT      -0.834000       15.9994           0
     35840 TIP3     4465     TIP3     H1       HT       0.417000       1.00800           0
     35841 TIP3     4465     TIP3     H2       HT       0.417000       1.00800           0
     35842 TIP3     4466     TIP3     OH2      OT      -0.834000       15.9994           0
     35843 TIP3     4466     TIP3     H1       HT       0.417000       1.00800           0
     35844 TIP3     4466     TIP3     H2       HT       0.417000       1.00800           0
     35845 TIP3     4467     TIP3     OH2      OT      -0.834000       15.9994           0
     35846 TIP3     4467     TIP3     H1       HT       0.417000       1.00800           0
     35847 TIP3     4467     TIP3     H2       HT       0.417000       1.00800           0
     35848 TIP3     4468     TIP3     OH2      OT      -0.834000       15.9994           0
     35849 TIP3     4468     TIP3     H1       HT       0.417000       1.00800           0
     35850 TIP3     4468     TIP3     H2       HT       0.417000       1.00800           0
     35851 TIP3     4469     TIP3     OH2      OT      -0.834000       15.9994           0
     35852 TIP3     4469     TIP3     H1       HT       0.417000       1.00800           0
     35853 TIP3     4469     TIP3     H2       HT       0.417000       1.00800           0
     35854 TIP3     4470     TIP3     OH2      OT      -0.834000       15.9994           0
     35855 TIP3     4470     TIP3     H1       HT       0.417000       1.00800           0
     35856 TIP3     4470     TIP3     H2       HT       0.417000       1.00800           0
     35857 TIP3     4471     TIP3     OH2      OT      -0.834000       15.9994           0
     35858 TIP3     4471     TIP3     H1       HT       0.417000       1.00800           0
     35859 TIP3     4471     TIP3     H2       HT       0.417000       1.00800           0
     35860 TIP3     4472     TIP3     OH2      OT      -0.834000       15.9994           0
     35861 TIP3     4472     TIP3     H1       HT       0.417000       1.00800           0
     35862 TIP3     4472     TIP3     H2       HT       0.417000       1.00800           0
     35863 TIP3     4473     TIP3     OH2      OT      -0.834000       15.9994           0
     35864 TIP3     4473     TIP3     H1       HT       0.417000       1.00800           0
     35865 TIP3     4473     TIP3     H2       HT       0.417000       1.00800           0
     35866 TIP3     4474     TIP3     OH2      OT      -0.834000       15.9994           0
     35867 TIP3     4474     TIP3     H1       HT       0.417000       1.00800           0
     35868 TIP3     4474     TIP3     H2       HT       0.417000       1.00800           0
     35869 TIP3     4475     TIP3     OH2      OT      -0.834000       15.9994           0
     35870 TIP3     4475     TIP3     H1       HT       0.417000       1.00800           0
     35871 TIP3     4475     TIP3     H2       HT       0.417000       1.00800           0
     35872 TIP3     4476     TIP3     OH2      OT      -0.834000       15.9994           0
     35873 TIP3     4476     TIP3     H1       HT       0.417000       1.00800           0
     35874 TIP3     4476     TIP3     H2       HT       0.417000       1.00800           0
     35875 TIP3     4477     TIP3     OH2      OT      -0.834000       15.9994           0
     35876 TIP3     4477     TIP3     H1       HT       0.417000       1.00800           0
     35877 TIP3     4477     TIP3     H2       HT       0.417000       1.00800           0
     35878 TIP3     4478     TIP3     OH2      OT      -0.834000       15.9994           0
     35879 TIP3     4478     TIP3     H1       HT       0.417000       1.00800           0
     35880 TIP3     4478     TIP3     H2       HT       0.417000       1.00800           0
     35881 TIP3     4479     TIP3     OH2      OT      -0.834000       15.9994           0
     35882 TIP3     4479     TIP3     H1       HT       0.417000       1.00800           0
     35883 TIP3     4479     TIP3     H2       HT       0.417000       1.00800           0
     35884 TIP3     4480     TIP3     OH2      OT      -0.834000       15.9994           0
     35885 TIP3     4480     TIP3     H1       HT       0.417000       1.00800           0
     35886 TIP3     4480     TIP3     H2       HT       0.417000       1.00800           0
     35887 TIP3     4481     TIP3     OH2      OT      -0.834000       15.9994           0
     35888 TIP3     4481     TIP3     H1       HT       0.417000       1.00800           0
     35889 TIP3     4481     TIP3     H2       HT       0.417000       1.00800           0
     35890 TIP3     4482     TIP3     OH2      OT      -0.834000       15.9994           0
     35891 TIP3     4482     TIP3     H1       HT       0.417000       1.00800           0
     35892 TIP3     4482     TIP3     H2       HT       0.417000       1.00800           0
     35893 TIP3     4483     TIP3     OH2      OT      -0.834000       15.9994           0
     35894 TIP3     4483     TIP3     H1       HT       0.417000       1.00800           0
     35895 TIP3     4483     TIP3     H2       HT       0.417000       1.00800           0
     35896 TIP3     4484     TIP3     OH2      OT      -0.834000       15.9994           0
     35897 TIP3     4484     TIP3     H1       HT       0.417000       1.00800           0
     35898 TIP3     4484     TIP3     H2       HT       0.417000       1.00800           0
     35899 TIP3     4485     TIP3     OH2      OT      -0.834000       15.9994           0
     35900 TIP3     4485     TIP3     H1       HT       0.417000       1.00800           0
     35901 TIP3     4485     TIP3     H2       HT       0.417000       1.00800           0
     35902 TIP3     4486     TIP3     OH2      OT      -0.834000       15.9994           0
     35903 TIP3     4486     TIP3     H1       HT       0.417000       1.00800           0
     35904 TIP3     4486     TIP3     H2       HT       0.417000       1.00800           0
     35905 TIP3     4487     TIP3     OH2      OT      -0.834000       15.9994           0
     35906 TIP3     4487     TIP3     H1       HT       0.417000       1.00800           0
     35907 TIP3     4487     TIP3     H2       HT       0.417000       1.00800           0
     35908 TIP3     4488     TIP3     OH2      OT      -0.834000       15.9994           0
     35909 TIP3     4488     TIP3     H1       HT       0.417000       1.00800           0
     35910 TIP3     4488     TIP3     H2       HT       0.417000       1.00800           0
     35911 TIP3     4489     TIP3     OH2      OT      -0.834000       15.9994           0
     35912 TIP3     4489     TIP3     H1       HT       0.417000       1.00800           0
     35913 TIP3     4489     TIP3     H2       HT       0.417000       1.00800           0
     35914 TIP3     4490     TIP3     OH2      OT      -0.834000       15.9994           0
     35915 TIP3     4490     TIP3     H1       HT       0.417000       1.00800           0
     35916 TIP3     4490     TIP3     H2       HT       0.417000       1.00800           0
     35917 TIP3     4491     TIP3     OH2      OT      -0.834000       15.9994           0
     35918 TIP3     4491     TIP3     H1       HT       0.417000       1.00800           0
     35919 TIP3     4491     TIP3     H2       HT       0.417000       1.00800           0
     35920 TIP3     4492     TIP3     OH2      OT      -0.834000       15.9994           0
     35921 TIP3     4492     TIP3     H1       HT       0.417000       1.00800           0
     35922 TIP3     4492     TIP3     H2       HT       0.417000       1.00800           0
     35923 TIP3     4493     TIP3     OH2      OT      -0.834000       15.9994           0
     35924 TIP3     4493     TIP3     H1       HT       0.417000       1.00800           0
     35925 TIP3     4493     TIP3     H2       HT       0.417000       1.00800           0
     35926 TIP3     4494     TIP3     OH2      OT      -0.834000       15.9994           0
     35927 TIP3     4494     TIP3     H1       HT       0.417000       1.00800           0
     35928 TIP3     4494     TIP3     H2       HT       0.417000       1.00800           0
     35929 TIP3     4495     TIP3     OH2      OT      -0.834000       15.9994           0
     35930 TIP3     4495     TIP3     H1       HT       0.417000       1.00800           0
     35931 TIP3     4495     TIP3     H2       HT       0.417000       1.00800           0
     35932 TIP3     4496     TIP3     OH2      OT      -0.834000       15.9994           0
     35933 TIP3     4496     TIP3     H1       HT       0.417000       1.00800           0
     35934 TIP3     4496     TIP3     H2       HT       0.417000       1.00800           0
     35935 TIP3     4497     TIP3     OH2      OT      -0.834000       15.9994           0
     35936 TIP3     4497     TIP3     H1       HT       0.417000       1.00800           0
     35937 TIP3     4497     TIP3     H2       HT       0.417000       1.00800           0
     35938 TIP3     4498     TIP3     OH2      OT      -0.834000       15.9994           0
     35939 TIP3     4498     TIP3     H1       HT       0.417000       1.00800           0
     35940 TIP3     4498     TIP3     H2       HT       0.417000       1.00800           0
     35941 TIP3     4499     TIP3     OH2      OT      -0.834000       15.9994           0
     35942 TIP3     4499     TIP3     H1       HT       0.417000       1.00800           0
     35943 TIP3     4499     TIP3     H2       HT       0.417000       1.00800           0
     35944 TIP3     4500     TIP3     OH2      OT      -0.834000       15.9994           0
     35945 TIP3     4500     TIP3     H1       HT       0.417000       1.00800           0
     35946 TIP3     4500     TIP3     H2       HT       0.417000       1.00800           0
     35947 TIP3     4501     TIP3     OH2      OT      -0.834000       15.9994           0
     35948 TIP3     4501     TIP3     H1       HT       0.417000       1.00800           0
     35949 TIP3     4501     TIP3     H2       HT       0.417000       1.00800           0
     35950 TIP3     4502     TIP3     OH2      OT      -0.834000       15.9994           0
     35951 TIP3     4502     TIP3     H1       HT       0.417000       1.00800           0
     35952 TIP3     4502     TIP3     H2       HT       0.417000       1.00800           0
     35953 TIP3     4503     TIP3     OH2      OT      -0.834000       15.9994           0
     35954 TIP3     4503     TIP3     H1       HT       0.417000       1.00800           0
     35955 TIP3     4503     TIP3     H2       HT       0.417000       1.00800           0
     35956 TIP3     4504     TIP3     OH2      OT      -0.834000       15.9994           0
     35957 TIP3     4504     TIP3     H1       HT       0.417000       1.00800           0
     35958 TIP3     4504     TIP3     H2       HT       0.417000       1.00800           0
     35959 TIP3     4505     TIP3     OH2      OT      -0.834000       15.9994           0
     35960 TIP3     4505     TIP3     H1       HT       0.417000       1.00800           0
     35961 TIP3     4505     TIP3     H2       HT       0.417000       1.00800           0
     35962 TIP3     4506     TIP3     OH2      OT      -0.834000       15.9994           0
     35963 TIP3     4506     TIP3     H1       HT       0.417000       1.00800           0
     35964 TIP3     4506     TIP3     H2       HT       0.417000       1.00800           0
     35965 TIP3     4507     TIP3     OH2      OT      -0.834000       15.9994           0
     35966 TIP3     4507     TIP3     H1       HT       0.417000       1.00800           0
     35967 TIP3     4507     TIP3     H2       HT       0.417000       1.00800           0
     35968 TIP3     4508     TIP3     OH2      OT      -0.834000       15.9994           0
     35969 TIP3     4508     TIP3     H1       HT       0.417000       1.00800           0
     35970 TIP3     4508     TIP3     H2       HT       0.417000       1.00800           0
     35971 TIP3     4509     TIP3     OH2      OT      -0.834000       15.9994           0
     35972 TIP3     4509     TIP3     H1       HT       0.417000       1.00800           0
     35973 TIP3     4509     TIP3     H2       HT       0.417000       1.00800           0
     35974 TIP3     4510     TIP3     OH2      OT      -0.834000       15.9994           0
     35975 TIP3     4510     TIP3     H1       HT       0.417000       1.00800           0
     35976 TIP3     4510     TIP3     H2       HT       0.417000       1.00800           0
     35977 TIP3     4511     TIP3     OH2      OT      -0.834000       15.9994           0
     35978 TIP3     4511     TIP3     H1       HT       0.417000       1.00800           0
     35979 TIP3     4511     TIP3     H2       HT       0.417000       1.00800           0
     35980 TIP3     4512     TIP3     OH2      OT      -0.834000       15.9994           0
     35981 TIP3     4512     TIP3     H1       HT       0.417000       1.00800           0
     35982 TIP3     4512     TIP3     H2       HT       0.417000       1.00800           0
     35983 TIP3     4513     TIP3     OH2      OT      -0.834000       15.9994           0
     35984 TIP3     4513     TIP3     H1       HT       0.417000       1.00800           0
     35985 TIP3     4513     TIP3     H2       HT       0.417000       1.00800           0
     35986 TIP3     4514     TIP3     OH2      OT      -0.834000       15.9994           0
     35987 TIP3     4514     TIP3     H1       HT       0.417000       1.00800           0
     35988 TIP3     4514     TIP3     H2       HT       0.417000       1.00800           0
     35989 TIP3     4515     TIP3     OH2      OT      -0.834000       15.9994           0
     35990 TIP3     4515     TIP3     H1       HT       0.417000       1.00800           0
     35991 TIP3     4515     TIP3     H2       HT       0.417000       1.00800           0
     35992 TIP3     4516     TIP3     OH2      OT      -0.834000       15.9994           0
     35993 TIP3     4516     TIP3     H1       HT       0.417000       1.00800           0
     35994 TIP3     4516     TIP3     H2       HT       0.417000       1.00800           0
     35995 TIP3     4517     TIP3     OH2      OT      -0.834000       15.9994           0
     35996 TIP3     4517     TIP3     H1       HT       0.417000       1.00800           0
     35997 TIP3     4517     TIP3     H2       HT       0.417000       1.00800           0
     35998 TIP3     4518     TIP3     OH2      OT      -0.834000       15.9994           0
     35999 TIP3     4518     TIP3     H1       HT       0.417000       1.00800           0
     36000 TIP3     4518     TIP3     H2       HT       0.417000       1.00800           0
     36001 TIP3     4519     TIP3     OH2      OT      -0.834000       15.9994           0
     36002 TIP3     4519     TIP3     H1       HT       0.417000       1.00800           0
     36003 TIP3     4519     TIP3     H2       HT       0.417000       1.00800           0
     36004 TIP3     4520     TIP3     OH2      OT      -0.834000       15.9994           0
     36005 TIP3     4520     TIP3     H1       HT       0.417000       1.00800           0
     36006 TIP3     4520     TIP3     H2       HT       0.417000       1.00800           0
     36007 TIP3     4521     TIP3     OH2      OT      -0.834000       15.9994           0
     36008 TIP3     4521     TIP3     H1       HT       0.417000       1.00800           0
     36009 TIP3     4521     TIP3     H2       HT       0.417000       1.00800           0
     36010 TIP3     4522     TIP3     OH2      OT      -0.834000       15.9994           0
     36011 TIP3     4522     TIP3     H1       HT       0.417000       1.00800           0
     36012 TIP3     4522     TIP3     H2       HT       0.417000       1.00800           0
     36013 TIP3     4523     TIP3     OH2      OT      -0.834000       15.9994           0
     36014 TIP3     4523     TIP3     H1       HT       0.417000       1.00800           0
     36015 TIP3     4523     TIP3     H2       HT       0.417000       1.00800           0
     36016 TIP3     4524     TIP3     OH2      OT      -0.834000       15.9994           0
     36017 TIP3     4524     TIP3     H1       HT       0.417000       1.00800           0
     36018 TIP3     4524     TIP3     H2       HT       0.417000       1.00800           0
     36019 TIP3     4525     TIP3     OH2      OT      -0.834000       15.9994           0
     36020 TIP3     4525     TIP3     H1       HT       0.417000       1.00800           0
     36021 TIP3     4525     TIP3     H2       HT       0.417000       1.00800           0
     36022 TIP3     4526     TIP3     OH2      OT      -0.834000       15.9994           0
     36023 TIP3     4526     TIP3     H1       HT       0.417000       1.00800           0
     36024 TIP3     4526     TIP3     H2       HT       0.417000       1.00800           0
     36025 TIP3     4527     TIP3     OH2      OT      -0.834000       15.9994           0
     36026 TIP3     4527     TIP3     H1       HT       0.417000       1.00800           0
     36027 TIP3     4527     TIP3     H2       HT       0.417000       1.00800           0
     36028 TIP3     4528     TIP3     OH2      OT      -0.834000       15.9994           0
     36029 TIP3     4528     TIP3     H1       HT       0.417000       1.00800           0
     36030 TIP3     4528     TIP3     H2       HT       0.417000       1.00800           0
     36031 TIP3     4529     TIP3     OH2      OT      -0.834000       15.9994           0
     36032 TIP3     4529     TIP3     H1       HT       0.417000       1.00800           0
     36033 TIP3     4529     TIP3     H2       HT       0.417000       1.00800           0
     36034 TIP3     4530     TIP3     OH2      OT      -0.834000       15.9994           0
     36035 TIP3     4530     TIP3     H1       HT       0.417000       1.00800           0
     36036 TIP3     4530     TIP3     H2       HT       0.417000       1.00800           0
     36037 TIP3     4531     TIP3     OH2      OT      -0.834000       15.9994           0
     36038 TIP3     4531     TIP3     H1       HT       0.417000       1.00800           0
     36039 TIP3     4531     TIP3     H2       HT       0.417000       1.00800           0
     36040 TIP3     4532     TIP3     OH2      OT      -0.834000       15.9994           0
     36041 TIP3     4532     TIP3     H1       HT       0.417000       1.00800           0
     36042 TIP3     4532     TIP3     H2       HT       0.417000       1.00800           0
     36043 TIP3     4533     TIP3     OH2      OT      -0.834000       15.9994           0
     36044 TIP3     4533     TIP3     H1       HT       0.417000       1.00800           0
     36045 TIP3     4533     TIP3     H2       HT       0.417000       1.00800           0
     36046 TIP3     4534     TIP3     OH2      OT      -0.834000       15.9994           0
     36047 TIP3     4534     TIP3     H1       HT       0.417000       1.00800           0
     36048 TIP3     4534     TIP3     H2       HT       0.417000       1.00800           0
     36049 TIP3     4535     TIP3     OH2      OT      -0.834000       15.9994           0
     36050 TIP3     4535     TIP3     H1       HT       0.417000       1.00800           0
     36051 TIP3     4535     TIP3     H2       HT       0.417000       1.00800           0
     36052 TIP3     4536     TIP3     OH2      OT      -0.834000       15.9994           0
     36053 TIP3     4536     TIP3     H1       HT       0.417000       1.00800           0
     36054 TIP3     4536     TIP3     H2       HT       0.417000       1.00800           0
     36055 TIP3     4537     TIP3     OH2      OT      -0.834000       15.9994           0
     36056 TIP3     4537     TIP3     H1       HT       0.417000       1.00800           0
     36057 TIP3     4537     TIP3     H2       HT       0.417000       1.00800           0
     36058 TIP3     4538     TIP3     OH2      OT      -0.834000       15.9994           0
     36059 TIP3     4538     TIP3     H1       HT       0.417000       1.00800           0
     36060 TIP3     4538     TIP3     H2       HT       0.417000       1.00800           0
     36061 TIP3     4539     TIP3     OH2      OT      -0.834000       15.9994           0
     36062 TIP3     4539     TIP3     H1       HT       0.417000       1.00800           0
     36063 TIP3     4539     TIP3     H2       HT       0.417000       1.00800           0
     36064 TIP3     4540     TIP3     OH2      OT      -0.834000       15.9994           0
     36065 TIP3     4540     TIP3     H1       HT       0.417000       1.00800           0
     36066 TIP3     4540     TIP3     H2       HT       0.417000       1.00800           0
     36067 TIP3     4541     TIP3     OH2      OT      -0.834000       15.9994           0
     36068 TIP3     4541     TIP3     H1       HT       0.417000       1.00800           0
     36069 TIP3     4541     TIP3     H2       HT       0.417000       1.00800           0
     36070 TIP3     4542     TIP3     OH2      OT      -0.834000       15.9994           0
     36071 TIP3     4542     TIP3     H1       HT       0.417000       1.00800           0
     36072 TIP3     4542     TIP3     H2       HT       0.417000       1.00800           0
     36073 TIP3     4543     TIP3     OH2      OT      -0.834000       15.9994           0
     36074 TIP3     4543     TIP3     H1       HT       0.417000       1.00800           0
     36075 TIP3     4543     TIP3     H2       HT       0.417000       1.00800           0
     36076 TIP3     4544     TIP3     OH2      OT      -0.834000       15.9994           0
     36077 TIP3     4544     TIP3     H1       HT       0.417000       1.00800           0
     36078 TIP3     4544     TIP3     H2       HT       0.417000       1.00800           0
     36079 TIP3     4545     TIP3     OH2      OT      -0.834000       15.9994           0
     36080 TIP3     4545     TIP3     H1       HT       0.417000       1.00800           0
     36081 TIP3     4545     TIP3     H2       HT       0.417000       1.00800           0
     36082 TIP3     4546     TIP3     OH2      OT      -0.834000       15.9994           0
     36083 TIP3     4546     TIP3     H1       HT       0.417000       1.00800           0
     36084 TIP3     4546     TIP3     H2       HT       0.417000       1.00800           0
     36085 TIP3     4547     TIP3     OH2      OT      -0.834000       15.9994           0
     36086 TIP3     4547     TIP3     H1       HT       0.417000       1.00800           0
     36087 TIP3     4547     TIP3     H2       HT       0.417000       1.00800           0
     36088 TIP3     4548     TIP3     OH2      OT      -0.834000       15.9994           0
     36089 TIP3     4548     TIP3     H1       HT       0.417000       1.00800           0
     36090 TIP3     4548     TIP3     H2       HT       0.417000       1.00800           0
     36091 TIP3     4549     TIP3     OH2      OT      -0.834000       15.9994           0
     36092 TIP3     4549     TIP3     H1       HT       0.417000       1.00800           0
     36093 TIP3     4549     TIP3     H2       HT       0.417000       1.00800           0
     36094 TIP3     4550     TIP3     OH2      OT      -0.834000       15.9994           0
     36095 TIP3     4550     TIP3     H1       HT       0.417000       1.00800           0
     36096 TIP3     4550     TIP3     H2       HT       0.417000       1.00800           0
     36097 TIP3     4551     TIP3     OH2      OT      -0.834000       15.9994           0
     36098 TIP3     4551     TIP3     H1       HT       0.417000       1.00800           0
     36099 TIP3     4551     TIP3     H2       HT       0.417000       1.00800           0
     36100 TIP3     4552     TIP3     OH2      OT      -0.834000       15.9994           0
     36101 TIP3     4552     TIP3     H1       HT       0.417000       1.00800           0
     36102 TIP3     4552     TIP3     H2       HT       0.417000       1.00800           0
     36103 TIP3     4553     TIP3     OH2      OT      -0.834000       15.9994           0
     36104 TIP3     4553     TIP3     H1       HT       0.417000       1.00800           0
     36105 TIP3     4553     TIP3     H2       HT       0.417000       1.00800           0
     36106 TIP3     4554     TIP3     OH2      OT      -0.834000       15.9994           0
     36107 TIP3     4554     TIP3     H1       HT       0.417000       1.00800           0
     36108 TIP3     4554     TIP3     H2       HT       0.417000       1.00800           0
     36109 TIP3     4555     TIP3     OH2      OT      -0.834000       15.9994           0
     36110 TIP3     4555     TIP3     H1       HT       0.417000       1.00800           0
     36111 TIP3     4555     TIP3     H2       HT       0.417000       1.00800           0
     36112 TIP3     4556     TIP3     OH2      OT      -0.834000       15.9994           0
     36113 TIP3     4556     TIP3     H1       HT       0.417000       1.00800           0
     36114 TIP3     4556     TIP3     H2       HT       0.417000       1.00800           0
     36115 TIP3     4557     TIP3     OH2      OT      -0.834000       15.9994           0
     36116 TIP3     4557     TIP3     H1       HT       0.417000       1.00800           0
     36117 TIP3     4557     TIP3     H2       HT       0.417000       1.00800           0
     36118 TIP3     4558     TIP3     OH2      OT      -0.834000       15.9994           0
     36119 TIP3     4558     TIP3     H1       HT       0.417000       1.00800           0
     36120 TIP3     4558     TIP3     H2       HT       0.417000       1.00800           0
     36121 TIP3     4559     TIP3     OH2      OT      -0.834000       15.9994           0
     36122 TIP3     4559     TIP3     H1       HT       0.417000       1.00800           0
     36123 TIP3     4559     TIP3     H2       HT       0.417000       1.00800           0
     36124 TIP3     4560     TIP3     OH2      OT      -0.834000       15.9994           0
     36125 TIP3     4560     TIP3     H1       HT       0.417000       1.00800           0
     36126 TIP3     4560     TIP3     H2       HT       0.417000       1.00800           0
     36127 TIP3     4561     TIP3     OH2      OT      -0.834000       15.9994           0
     36128 TIP3     4561     TIP3     H1       HT       0.417000       1.00800           0
     36129 TIP3     4561     TIP3     H2       HT       0.417000       1.00800           0
     36130 TIP3     4562     TIP3     OH2      OT      -0.834000       15.9994           0
     36131 TIP3     4562     TIP3     H1       HT       0.417000       1.00800           0
     36132 TIP3     4562     TIP3     H2       HT       0.417000       1.00800           0
     36133 TIP3     4563     TIP3     OH2      OT      -0.834000       15.9994           0
     36134 TIP3     4563     TIP3     H1       HT       0.417000       1.00800           0
     36135 TIP3     4563     TIP3     H2       HT       0.417000       1.00800           0
     36136 TIP3     4564     TIP3     OH2      OT      -0.834000       15.9994           0
     36137 TIP3     4564     TIP3     H1       HT       0.417000       1.00800           0
     36138 TIP3     4564     TIP3     H2       HT       0.417000       1.00800           0
     36139 TIP3     4565     TIP3     OH2      OT      -0.834000       15.9994           0
     36140 TIP3     4565     TIP3     H1       HT       0.417000       1.00800           0
     36141 TIP3     4565     TIP3     H2       HT       0.417000       1.00800           0
     36142 TIP3     4566     TIP3     OH2      OT      -0.834000       15.9994           0
     36143 TIP3     4566     TIP3     H1       HT       0.417000       1.00800           0
     36144 TIP3     4566     TIP3     H2       HT       0.417000       1.00800           0
     36145 TIP3     4567     TIP3     OH2      OT      -0.834000       15.9994           0
     36146 TIP3     4567     TIP3     H1       HT       0.417000       1.00800           0
     36147 TIP3     4567     TIP3     H2       HT       0.417000       1.00800           0
     36148 TIP3     4568     TIP3     OH2      OT      -0.834000       15.9994           0
     36149 TIP3     4568     TIP3     H1       HT       0.417000       1.00800           0
     36150 TIP3     4568     TIP3     H2       HT       0.417000       1.00800           0
     36151 TIP3     4569     TIP3     OH2      OT      -0.834000       15.9994           0
     36152 TIP3     4569     TIP3     H1       HT       0.417000       1.00800           0
     36153 TIP3     4569     TIP3     H2       HT       0.417000       1.00800           0
     36154 TIP3     4570     TIP3     OH2      OT      -0.834000       15.9994           0
     36155 TIP3     4570     TIP3     H1       HT       0.417000       1.00800           0
     36156 TIP3     4570     TIP3     H2       HT       0.417000       1.00800           0
     36157 TIP3     4571     TIP3     OH2      OT      -0.834000       15.9994           0
     36158 TIP3     4571     TIP3     H1       HT       0.417000       1.00800           0
     36159 TIP3     4571     TIP3     H2       HT       0.417000       1.00800           0
     36160 TIP3     4572     TIP3     OH2      OT      -0.834000       15.9994           0
     36161 TIP3     4572     TIP3     H1       HT       0.417000       1.00800           0
     36162 TIP3     4572     TIP3     H2       HT       0.417000       1.00800           0
     36163 TIP3     4573     TIP3     OH2      OT      -0.834000       15.9994           0
     36164 TIP3     4573     TIP3     H1       HT       0.417000       1.00800           0
     36165 TIP3     4573     TIP3     H2       HT       0.417000       1.00800           0
     36166 TIP3     4574     TIP3     OH2      OT      -0.834000       15.9994           0
     36167 TIP3     4574     TIP3     H1       HT       0.417000       1.00800           0
     36168 TIP3     4574     TIP3     H2       HT       0.417000       1.00800           0
     36169 TIP3     4575     TIP3     OH2      OT      -0.834000       15.9994           0
     36170 TIP3     4575     TIP3     H1       HT       0.417000       1.00800           0
     36171 TIP3     4575     TIP3     H2       HT       0.417000       1.00800           0
     36172 TIP3     4576     TIP3     OH2      OT      -0.834000       15.9994           0
     36173 TIP3     4576     TIP3     H1       HT       0.417000       1.00800           0
     36174 TIP3     4576     TIP3     H2       HT       0.417000       1.00800           0
     36175 TIP3     4577     TIP3     OH2      OT      -0.834000       15.9994           0
     36176 TIP3     4577     TIP3     H1       HT       0.417000       1.00800           0
     36177 TIP3     4577     TIP3     H2       HT       0.417000       1.00800           0
     36178 TIP3     4578     TIP3     OH2      OT      -0.834000       15.9994           0
     36179 TIP3     4578     TIP3     H1       HT       0.417000       1.00800           0
     36180 TIP3     4578     TIP3     H2       HT       0.417000       1.00800           0
     36181 TIP3     4579     TIP3     OH2      OT      -0.834000       15.9994           0
     36182 TIP3     4579     TIP3     H1       HT       0.417000       1.00800           0
     36183 TIP3     4579     TIP3     H2       HT       0.417000       1.00800           0
     36184 TIP3     4580     TIP3     OH2      OT      -0.834000       15.9994           0
     36185 TIP3     4580     TIP3     H1       HT       0.417000       1.00800           0
     36186 TIP3     4580     TIP3     H2       HT       0.417000       1.00800           0
     36187 TIP3     4581     TIP3     OH2      OT      -0.834000       15.9994           0
     36188 TIP3     4581     TIP3     H1       HT       0.417000       1.00800           0
     36189 TIP3     4581     TIP3     H2       HT       0.417000       1.00800           0
     36190 TIP3     4582     TIP3     OH2      OT      -0.834000       15.9994           0
     36191 TIP3     4582     TIP3     H1       HT       0.417000       1.00800           0
     36192 TIP3     4582     TIP3     H2       HT       0.417000       1.00800           0
     36193 TIP3     4583     TIP3     OH2      OT      -0.834000       15.9994           0
     36194 TIP3     4583     TIP3     H1       HT       0.417000       1.00800           0
     36195 TIP3     4583     TIP3     H2       HT       0.417000       1.00800           0
     36196 TIP3     4584     TIP3     OH2      OT      -0.834000       15.9994           0
     36197 TIP3     4584     TIP3     H1       HT       0.417000       1.00800           0
     36198 TIP3     4584     TIP3     H2       HT       0.417000       1.00800           0
     36199 TIP3     4585     TIP3     OH2      OT      -0.834000       15.9994           0
     36200 TIP3     4585     TIP3     H1       HT       0.417000       1.00800           0
     36201 TIP3     4585     TIP3     H2       HT       0.417000       1.00800           0
     36202 TIP3     4586     TIP3     OH2      OT      -0.834000       15.9994           0
     36203 TIP3     4586     TIP3     H1       HT       0.417000       1.00800           0
     36204 TIP3     4586     TIP3     H2       HT       0.417000       1.00800           0
     36205 TIP3     4587     TIP3     OH2      OT      -0.834000       15.9994           0
     36206 TIP3     4587     TIP3     H1       HT       0.417000       1.00800           0
     36207 TIP3     4587     TIP3     H2       HT       0.417000       1.00800           0
     36208 TIP3     4588     TIP3     OH2      OT      -0.834000       15.9994           0
     36209 TIP3     4588     TIP3     H1       HT       0.417000       1.00800           0
     36210 TIP3     4588     TIP3     H2       HT       0.417000       1.00800           0
     36211 TIP3     4589     TIP3     OH2      OT      -0.834000       15.9994           0
     36212 TIP3     4589     TIP3     H1       HT       0.417000       1.00800           0
     36213 TIP3     4589     TIP3     H2       HT       0.417000       1.00800           0
     36214 TIP3     4590     TIP3     OH2      OT      -0.834000       15.9994           0
     36215 TIP3     4590     TIP3     H1       HT       0.417000       1.00800           0
     36216 TIP3     4590     TIP3     H2       HT       0.417000       1.00800           0
     36217 TIP3     4591     TIP3     OH2      OT      -0.834000       15.9994           0
     36218 TIP3     4591     TIP3     H1       HT       0.417000       1.00800           0
     36219 TIP3     4591     TIP3     H2       HT       0.417000       1.00800           0
     36220 TIP3     4592     TIP3     OH2      OT      -0.834000       15.9994           0
     36221 TIP3     4592     TIP3     H1       HT       0.417000       1.00800           0
     36222 TIP3     4592     TIP3     H2       HT       0.417000       1.00800           0
     36223 TIP3     4593     TIP3     OH2      OT      -0.834000       15.9994           0
     36224 TIP3     4593     TIP3     H1       HT       0.417000       1.00800           0
     36225 TIP3     4593     TIP3     H2       HT       0.417000       1.00800           0
     36226 TIP3     4594     TIP3     OH2      OT      -0.834000       15.9994           0
     36227 TIP3     4594     TIP3     H1       HT       0.417000       1.00800           0
     36228 TIP3     4594     TIP3     H2       HT       0.417000       1.00800           0
     36229 TIP3     4595     TIP3     OH2      OT      -0.834000       15.9994           0
     36230 TIP3     4595     TIP3     H1       HT       0.417000       1.00800           0
     36231 TIP3     4595     TIP3     H2       HT       0.417000       1.00800           0
     36232 TIP3     4596     TIP3     OH2      OT      -0.834000       15.9994           0
     36233 TIP3     4596     TIP3     H1       HT       0.417000       1.00800           0
     36234 TIP3     4596     TIP3     H2       HT       0.417000       1.00800           0
     36235 TIP3     4597     TIP3     OH2      OT      -0.834000       15.9994           0
     36236 TIP3     4597     TIP3     H1       HT       0.417000       1.00800           0
     36237 TIP3     4597     TIP3     H2       HT       0.417000       1.00800           0
     36238 TIP3     4598     TIP3     OH2      OT      -0.834000       15.9994           0
     36239 TIP3     4598     TIP3     H1       HT       0.417000       1.00800           0
     36240 TIP3     4598     TIP3     H2       HT       0.417000       1.00800           0
     36241 TIP3     4599     TIP3     OH2      OT      -0.834000       15.9994           0
     36242 TIP3     4599     TIP3     H1       HT       0.417000       1.00800           0
     36243 TIP3     4599     TIP3     H2       HT       0.417000       1.00800           0
     36244 TIP3     4600     TIP3     OH2      OT      -0.834000       15.9994           0
     36245 TIP3     4600     TIP3     H1       HT       0.417000       1.00800           0
     36246 TIP3     4600     TIP3     H2       HT       0.417000       1.00800           0
     36247 TIP3     4601     TIP3     OH2      OT      -0.834000       15.9994           0
     36248 TIP3     4601     TIP3     H1       HT       0.417000       1.00800           0
     36249 TIP3     4601     TIP3     H2       HT       0.417000       1.00800           0
     36250 TIP3     4602     TIP3     OH2      OT      -0.834000       15.9994           0
     36251 TIP3     4602     TIP3     H1       HT       0.417000       1.00800           0
     36252 TIP3     4602     TIP3     H2       HT       0.417000       1.00800           0
     36253 TIP3     4603     TIP3     OH2      OT      -0.834000       15.9994           0
     36254 TIP3     4603     TIP3     H1       HT       0.417000       1.00800           0
     36255 TIP3     4603     TIP3     H2       HT       0.417000       1.00800           0
     36256 TIP3     4604     TIP3     OH2      OT      -0.834000       15.9994           0
     36257 TIP3     4604     TIP3     H1       HT       0.417000       1.00800           0
     36258 TIP3     4604     TIP3     H2       HT       0.417000       1.00800           0
     36259 TIP3     4605     TIP3     OH2      OT      -0.834000       15.9994           0
     36260 TIP3     4605     TIP3     H1       HT       0.417000       1.00800           0
     36261 TIP3     4605     TIP3     H2       HT       0.417000       1.00800           0
     36262 TIP3     4606     TIP3     OH2      OT      -0.834000       15.9994           0
     36263 TIP3     4606     TIP3     H1       HT       0.417000       1.00800           0
     36264 TIP3     4606     TIP3     H2       HT       0.417000       1.00800           0
     36265 TIP3     4607     TIP3     OH2      OT      -0.834000       15.9994           0
     36266 TIP3     4607     TIP3     H1       HT       0.417000       1.00800           0
     36267 TIP3     4607     TIP3     H2       HT       0.417000       1.00800           0
     36268 TIP3     4608     TIP3     OH2      OT      -0.834000       15.9994           0
     36269 TIP3     4608     TIP3     H1       HT       0.417000       1.00800           0
     36270 TIP3     4608     TIP3     H2       HT       0.417000       1.00800           0
     36271 TIP3     4609     TIP3     OH2      OT      -0.834000       15.9994           0
     36272 TIP3     4609     TIP3     H1       HT       0.417000       1.00800           0
     36273 TIP3     4609     TIP3     H2       HT       0.417000       1.00800           0
     36274 TIP3     4610     TIP3     OH2      OT      -0.834000       15.9994           0
     36275 TIP3     4610     TIP3     H1       HT       0.417000       1.00800           0
     36276 TIP3     4610     TIP3     H2       HT       0.417000       1.00800           0
     36277 TIP3     4611     TIP3     OH2      OT      -0.834000       15.9994           0
     36278 TIP3     4611     TIP3     H1       HT       0.417000       1.00800           0
     36279 TIP3     4611     TIP3     H2       HT       0.417000       1.00800           0
     36280 TIP3     4612     TIP3     OH2      OT      -0.834000       15.9994           0
     36281 TIP3     4612     TIP3     H1       HT       0.417000       1.00800           0
     36282 TIP3     4612     TIP3     H2       HT       0.417000       1.00800           0
     36283 TIP3     4613     TIP3     OH2      OT      -0.834000       15.9994           0
     36284 TIP3     4613     TIP3     H1       HT       0.417000       1.00800           0
     36285 TIP3     4613     TIP3     H2       HT       0.417000       1.00800           0
     36286 TIP3     4614     TIP3     OH2      OT      -0.834000       15.9994           0
     36287 TIP3     4614     TIP3     H1       HT       0.417000       1.00800           0
     36288 TIP3     4614     TIP3     H2       HT       0.417000       1.00800           0
     36289 TIP3     4615     TIP3     OH2      OT      -0.834000       15.9994           0
     36290 TIP3     4615     TIP3     H1       HT       0.417000       1.00800           0
     36291 TIP3     4615     TIP3     H2       HT       0.417000       1.00800           0
     36292 TIP3     4616     TIP3     OH2      OT      -0.834000       15.9994           0
     36293 TIP3     4616     TIP3     H1       HT       0.417000       1.00800           0
     36294 TIP3     4616     TIP3     H2       HT       0.417000       1.00800           0
     36295 TIP3     4617     TIP3     OH2      OT      -0.834000       15.9994           0
     36296 TIP3     4617     TIP3     H1       HT       0.417000       1.00800           0
     36297 TIP3     4617     TIP3     H2       HT       0.417000       1.00800           0
     36298 TIP3     4618     TIP3     OH2      OT      -0.834000       15.9994           0
     36299 TIP3     4618     TIP3     H1       HT       0.417000       1.00800           0
     36300 TIP3     4618     TIP3     H2       HT       0.417000       1.00800           0
     36301 TIP3     4619     TIP3     OH2      OT      -0.834000       15.9994           0
     36302 TIP3     4619     TIP3     H1       HT       0.417000       1.00800           0
     36303 TIP3     4619     TIP3     H2       HT       0.417000       1.00800           0
     36304 TIP3     4620     TIP3     OH2      OT      -0.834000       15.9994           0
     36305 TIP3     4620     TIP3     H1       HT       0.417000       1.00800           0
     36306 TIP3     4620     TIP3     H2       HT       0.417000       1.00800           0
     36307 TIP3     4621     TIP3     OH2      OT      -0.834000       15.9994           0
     36308 TIP3     4621     TIP3     H1       HT       0.417000       1.00800           0
     36309 TIP3     4621     TIP3     H2       HT       0.417000       1.00800           0
     36310 TIP3     4622     TIP3     OH2      OT      -0.834000       15.9994           0
     36311 TIP3     4622     TIP3     H1       HT       0.417000       1.00800           0
     36312 TIP3     4622     TIP3     H2       HT       0.417000       1.00800           0
     36313 TIP3     4623     TIP3     OH2      OT      -0.834000       15.9994           0
     36314 TIP3     4623     TIP3     H1       HT       0.417000       1.00800           0
     36315 TIP3     4623     TIP3     H2       HT       0.417000       1.00800           0
     36316 TIP3     4624     TIP3     OH2      OT      -0.834000       15.9994           0
     36317 TIP3     4624     TIP3     H1       HT       0.417000       1.00800           0
     36318 TIP3     4624     TIP3     H2       HT       0.417000       1.00800           0
     36319 TIP3     4625     TIP3     OH2      OT      -0.834000       15.9994           0
     36320 TIP3     4625     TIP3     H1       HT       0.417000       1.00800           0
     36321 TIP3     4625     TIP3     H2       HT       0.417000       1.00800           0
     36322 TIP3     4626     TIP3     OH2      OT      -0.834000       15.9994           0
     36323 TIP3     4626     TIP3     H1       HT       0.417000       1.00800           0
     36324 TIP3     4626     TIP3     H2       HT       0.417000       1.00800           0
     36325 TIP3     4627     TIP3     OH2      OT      -0.834000       15.9994           0
     36326 TIP3     4627     TIP3     H1       HT       0.417000       1.00800           0
     36327 TIP3     4627     TIP3     H2       HT       0.417000       1.00800           0
     36328 TIP3     4628     TIP3     OH2      OT      -0.834000       15.9994           0
     36329 TIP3     4628     TIP3     H1       HT       0.417000       1.00800           0
     36330 TIP3     4628     TIP3     H2       HT       0.417000       1.00800           0
     36331 TIP3     4629     TIP3     OH2      OT      -0.834000       15.9994           0
     36332 TIP3     4629     TIP3     H1       HT       0.417000       1.00800           0
     36333 TIP3     4629     TIP3     H2       HT       0.417000       1.00800           0
     36334 TIP3     4630     TIP3     OH2      OT      -0.834000       15.9994           0
     36335 TIP3     4630     TIP3     H1       HT       0.417000       1.00800           0
     36336 TIP3     4630     TIP3     H2       HT       0.417000       1.00800           0
     36337 TIP3     4631     TIP3     OH2      OT      -0.834000       15.9994           0
     36338 TIP3     4631     TIP3     H1       HT       0.417000       1.00800           0
     36339 TIP3     4631     TIP3     H2       HT       0.417000       1.00800           0
     36340 TIP3     4632     TIP3     OH2      OT      -0.834000       15.9994           0
     36341 TIP3     4632     TIP3     H1       HT       0.417000       1.00800           0
     36342 TIP3     4632     TIP3     H2       HT       0.417000       1.00800           0
     36343 TIP3     4633     TIP3     OH2      OT      -0.834000       15.9994           0
     36344 TIP3     4633     TIP3     H1       HT       0.417000       1.00800           0
     36345 TIP3     4633     TIP3     H2       HT       0.417000       1.00800           0
     36346 TIP3     4634     TIP3     OH2      OT      -0.834000       15.9994           0
     36347 TIP3     4634     TIP3     H1       HT       0.417000       1.00800           0
     36348 TIP3     4634     TIP3     H2       HT       0.417000       1.00800           0
     36349 TIP3     4635     TIP3     OH2      OT      -0.834000       15.9994           0
     36350 TIP3     4635     TIP3     H1       HT       0.417000       1.00800           0
     36351 TIP3     4635     TIP3     H2       HT       0.417000       1.00800           0
     36352 TIP3     4636     TIP3     OH2      OT      -0.834000       15.9994           0
     36353 TIP3     4636     TIP3     H1       HT       0.417000       1.00800           0
     36354 TIP3     4636     TIP3     H2       HT       0.417000       1.00800           0
     36355 TIP3     4637     TIP3     OH2      OT      -0.834000       15.9994           0
     36356 TIP3     4637     TIP3     H1       HT       0.417000       1.00800           0
     36357 TIP3     4637     TIP3     H2       HT       0.417000       1.00800           0
     36358 TIP3     4638     TIP3     OH2      OT      -0.834000       15.9994           0
     36359 TIP3     4638     TIP3     H1       HT       0.417000       1.00800           0
     36360 TIP3     4638     TIP3     H2       HT       0.417000       1.00800           0
     36361 TIP3     4639     TIP3     OH2      OT      -0.834000       15.9994           0
     36362 TIP3     4639     TIP3     H1       HT       0.417000       1.00800           0
     36363 TIP3     4639     TIP3     H2       HT       0.417000       1.00800           0
     36364 TIP3     4640     TIP3     OH2      OT      -0.834000       15.9994           0
     36365 TIP3     4640     TIP3     H1       HT       0.417000       1.00800           0
     36366 TIP3     4640     TIP3     H2       HT       0.417000       1.00800           0
     36367 TIP3     4641     TIP3     OH2      OT      -0.834000       15.9994           0
     36368 TIP3     4641     TIP3     H1       HT       0.417000       1.00800           0
     36369 TIP3     4641     TIP3     H2       HT       0.417000       1.00800           0
     36370 TIP3     4642     TIP3     OH2      OT      -0.834000       15.9994           0
     36371 TIP3     4642     TIP3     H1       HT       0.417000       1.00800           0
     36372 TIP3     4642     TIP3     H2       HT       0.417000       1.00800           0
     36373 TIP3     4643     TIP3     OH2      OT      -0.834000       15.9994           0
     36374 TIP3     4643     TIP3     H1       HT       0.417000       1.00800           0
     36375 TIP3     4643     TIP3     H2       HT       0.417000       1.00800           0
     36376 TIP3     4644     TIP3     OH2      OT      -0.834000       15.9994           0
     36377 TIP3     4644     TIP3     H1       HT       0.417000       1.00800           0
     36378 TIP3     4644     TIP3     H2       HT       0.417000       1.00800           0
     36379 TIP3     4645     TIP3     OH2      OT      -0.834000       15.9994           0
     36380 TIP3     4645     TIP3     H1       HT       0.417000       1.00800           0
     36381 TIP3     4645     TIP3     H2       HT       0.417000       1.00800           0
     36382 TIP3     4646     TIP3     OH2      OT      -0.834000       15.9994           0
     36383 TIP3     4646     TIP3     H1       HT       0.417000       1.00800           0
     36384 TIP3     4646     TIP3     H2       HT       0.417000       1.00800           0
     36385 TIP3     4647     TIP3     OH2      OT      -0.834000       15.9994           0
     36386 TIP3     4647     TIP3     H1       HT       0.417000       1.00800           0
     36387 TIP3     4647     TIP3     H2       HT       0.417000       1.00800           0
     36388 TIP3     4648     TIP3     OH2      OT      -0.834000       15.9994           0
     36389 TIP3     4648     TIP3     H1       HT       0.417000       1.00800           0
     36390 TIP3     4648     TIP3     H2       HT       0.417000       1.00800           0
     36391 TIP3     4649     TIP3     OH2      OT      -0.834000       15.9994           0
     36392 TIP3     4649     TIP3     H1       HT       0.417000       1.00800           0
     36393 TIP3     4649     TIP3     H2       HT       0.417000       1.00800           0
     36394 TIP3     4650     TIP3     OH2      OT      -0.834000       15.9994           0
     36395 TIP3     4650     TIP3     H1       HT       0.417000       1.00800           0
     36396 TIP3     4650     TIP3     H2       HT       0.417000       1.00800           0
     36397 TIP3     4651     TIP3     OH2      OT      -0.834000       15.9994           0
     36398 TIP3     4651     TIP3     H1       HT       0.417000       1.00800           0
     36399 TIP3     4651     TIP3     H2       HT       0.417000       1.00800           0
     36400 TIP3     4652     TIP3     OH2      OT      -0.834000       15.9994           0
     36401 TIP3     4652     TIP3     H1       HT       0.417000       1.00800           0
     36402 TIP3     4652     TIP3     H2       HT       0.417000       1.00800           0
     36403 TIP3     4653     TIP3     OH2      OT      -0.834000       15.9994           0
     36404 TIP3     4653     TIP3     H1       HT       0.417000       1.00800           0
     36405 TIP3     4653     TIP3     H2       HT       0.417000       1.00800           0
     36406 TIP3     4654     TIP3     OH2      OT      -0.834000       15.9994           0
     36407 TIP3     4654     TIP3     H1       HT       0.417000       1.00800           0
     36408 TIP3     4654     TIP3     H2       HT       0.417000       1.00800           0
     36409 TIP3     4655     TIP3     OH2      OT      -0.834000       15.9994           0
     36410 TIP3     4655     TIP3     H1       HT       0.417000       1.00800           0
     36411 TIP3     4655     TIP3     H2       HT       0.417000       1.00800           0
     36412 TIP3     4656     TIP3     OH2      OT      -0.834000       15.9994           0
     36413 TIP3     4656     TIP3     H1       HT       0.417000       1.00800           0
     36414 TIP3     4656     TIP3     H2       HT       0.417000       1.00800           0
     36415 TIP3     4657     TIP3     OH2      OT      -0.834000       15.9994           0
     36416 TIP3     4657     TIP3     H1       HT       0.417000       1.00800           0
     36417 TIP3     4657     TIP3     H2       HT       0.417000       1.00800           0
     36418 TIP3     4658     TIP3     OH2      OT      -0.834000       15.9994           0
     36419 TIP3     4658     TIP3     H1       HT       0.417000       1.00800           0
     36420 TIP3     4658     TIP3     H2       HT       0.417000       1.00800           0
     36421 TIP3     4659     TIP3     OH2      OT      -0.834000       15.9994           0
     36422 TIP3     4659     TIP3     H1       HT       0.417000       1.00800           0
     36423 TIP3     4659     TIP3     H2       HT       0.417000       1.00800           0
     36424 TIP3     4660     TIP3     OH2      OT      -0.834000       15.9994           0
     36425 TIP3     4660     TIP3     H1       HT       0.417000       1.00800           0
     36426 TIP3     4660     TIP3     H2       HT       0.417000       1.00800           0
     36427 TIP3     4661     TIP3     OH2      OT      -0.834000       15.9994           0
     36428 TIP3     4661     TIP3     H1       HT       0.417000       1.00800           0
     36429 TIP3     4661     TIP3     H2       HT       0.417000       1.00800           0
     36430 TIP3     4662     TIP3     OH2      OT      -0.834000       15.9994           0
     36431 TIP3     4662     TIP3     H1       HT       0.417000       1.00800           0
     36432 TIP3     4662     TIP3     H2       HT       0.417000       1.00800           0
     36433 TIP3     4663     TIP3     OH2      OT      -0.834000       15.9994           0
     36434 TIP3     4663     TIP3     H1       HT       0.417000       1.00800           0
     36435 TIP3     4663     TIP3     H2       HT       0.417000       1.00800           0
     36436 TIP3     4664     TIP3     OH2      OT      -0.834000       15.9994           0
     36437 TIP3     4664     TIP3     H1       HT       0.417000       1.00800           0
     36438 TIP3     4664     TIP3     H2       HT       0.417000       1.00800           0
     36439 TIP3     4665     TIP3     OH2      OT      -0.834000       15.9994           0
     36440 TIP3     4665     TIP3     H1       HT       0.417000       1.00800           0
     36441 TIP3     4665     TIP3     H2       HT       0.417000       1.00800           0
     36442 TIP3     4666     TIP3     OH2      OT      -0.834000       15.9994           0
     36443 TIP3     4666     TIP3     H1       HT       0.417000       1.00800           0
     36444 TIP3     4666     TIP3     H2       HT       0.417000       1.00800           0
     36445 TIP3     4667     TIP3     OH2      OT      -0.834000       15.9994           0
     36446 TIP3     4667     TIP3     H1       HT       0.417000       1.00800           0
     36447 TIP3     4667     TIP3     H2       HT       0.417000       1.00800           0
     36448 TIP3     4668     TIP3     OH2      OT      -0.834000       15.9994           0
     36449 TIP3     4668     TIP3     H1       HT       0.417000       1.00800           0
     36450 TIP3     4668     TIP3     H2       HT       0.417000       1.00800           0
     36451 TIP3     4669     TIP3     OH2      OT      -0.834000       15.9994           0
     36452 TIP3     4669     TIP3     H1       HT       0.417000       1.00800           0
     36453 TIP3     4669     TIP3     H2       HT       0.417000       1.00800           0
     36454 TIP3     4670     TIP3     OH2      OT      -0.834000       15.9994           0
     36455 TIP3     4670     TIP3     H1       HT       0.417000       1.00800           0
     36456 TIP3     4670     TIP3     H2       HT       0.417000       1.00800           0
     36457 TIP3     4671     TIP3     OH2      OT      -0.834000       15.9994           0
     36458 TIP3     4671     TIP3     H1       HT       0.417000       1.00800           0
     36459 TIP3     4671     TIP3     H2       HT       0.417000       1.00800           0
     36460 TIP3     4672     TIP3     OH2      OT      -0.834000       15.9994           0
     36461 TIP3     4672     TIP3     H1       HT       0.417000       1.00800           0
     36462 TIP3     4672     TIP3     H2       HT       0.417000       1.00800           0
     36463 TIP3     4673     TIP3     OH2      OT      -0.834000       15.9994           0
     36464 TIP3     4673     TIP3     H1       HT       0.417000       1.00800           0
     36465 TIP3     4673     TIP3     H2       HT       0.417000       1.00800           0
     36466 TIP3     4674     TIP3     OH2      OT      -0.834000       15.9994           0
     36467 TIP3     4674     TIP3     H1       HT       0.417000       1.00800           0
     36468 TIP3     4674     TIP3     H2       HT       0.417000       1.00800           0
     36469 TIP3     4675     TIP3     OH2      OT      -0.834000       15.9994           0
     36470 TIP3     4675     TIP3     H1       HT       0.417000       1.00800           0
     36471 TIP3     4675     TIP3     H2       HT       0.417000       1.00800           0
     36472 TIP3     4676     TIP3     OH2      OT      -0.834000       15.9994           0
     36473 TIP3     4676     TIP3     H1       HT       0.417000       1.00800           0
     36474 TIP3     4676     TIP3     H2       HT       0.417000       1.00800           0
     36475 TIP3     4677     TIP3     OH2      OT      -0.834000       15.9994           0
     36476 TIP3     4677     TIP3     H1       HT       0.417000       1.00800           0
     36477 TIP3     4677     TIP3     H2       HT       0.417000       1.00800           0
     36478 TIP3     4678     TIP3     OH2      OT      -0.834000       15.9994           0
     36479 TIP3     4678     TIP3     H1       HT       0.417000       1.00800           0
     36480 TIP3     4678     TIP3     H2       HT       0.417000       1.00800           0
     36481 TIP3     4679     TIP3     OH2      OT      -0.834000       15.9994           0
     36482 TIP3     4679     TIP3     H1       HT       0.417000       1.00800           0
     36483 TIP3     4679     TIP3     H2       HT       0.417000       1.00800           0
     36484 TIP3     4680     TIP3     OH2      OT      -0.834000       15.9994           0
     36485 TIP3     4680     TIP3     H1       HT       0.417000       1.00800           0
     36486 TIP3     4680     TIP3     H2       HT       0.417000       1.00800           0
     36487 TIP3     4681     TIP3     OH2      OT      -0.834000       15.9994           0
     36488 TIP3     4681     TIP3     H1       HT       0.417000       1.00800           0
     36489 TIP3     4681     TIP3     H2       HT       0.417000       1.00800           0
     36490 TIP3     4682     TIP3     OH2      OT      -0.834000       15.9994           0
     36491 TIP3     4682     TIP3     H1       HT       0.417000       1.00800           0
     36492 TIP3     4682     TIP3     H2       HT       0.417000       1.00800           0
     36493 TIP3     4683     TIP3     OH2      OT      -0.834000       15.9994           0
     36494 TIP3     4683     TIP3     H1       HT       0.417000       1.00800           0
     36495 TIP3     4683     TIP3     H2       HT       0.417000       1.00800           0
     36496 TIP3     4684     TIP3     OH2      OT      -0.834000       15.9994           0
     36497 TIP3     4684     TIP3     H1       HT       0.417000       1.00800           0
     36498 TIP3     4684     TIP3     H2       HT       0.417000       1.00800           0
     36499 TIP3     4685     TIP3     OH2      OT      -0.834000       15.9994           0
     36500 TIP3     4685     TIP3     H1       HT       0.417000       1.00800           0
     36501 TIP3     4685     TIP3     H2       HT       0.417000       1.00800           0
     36502 TIP3     4686     TIP3     OH2      OT      -0.834000       15.9994           0
     36503 TIP3     4686     TIP3     H1       HT       0.417000       1.00800           0
     36504 TIP3     4686     TIP3     H2       HT       0.417000       1.00800           0
     36505 TIP3     4687     TIP3     OH2      OT      -0.834000       15.9994           0
     36506 TIP3     4687     TIP3     H1       HT       0.417000       1.00800           0
     36507 TIP3     4687     TIP3     H2       HT       0.417000       1.00800           0
     36508 TIP3     4688     TIP3     OH2      OT      -0.834000       15.9994           0
     36509 TIP3     4688     TIP3     H1       HT       0.417000       1.00800           0
     36510 TIP3     4688     TIP3     H2       HT       0.417000       1.00800           0
     36511 TIP3     4689     TIP3     OH2      OT      -0.834000       15.9994           0
     36512 TIP3     4689     TIP3     H1       HT       0.417000       1.00800           0
     36513 TIP3     4689     TIP3     H2       HT       0.417000       1.00800           0
     36514 TIP3     4690     TIP3     OH2      OT      -0.834000       15.9994           0
     36515 TIP3     4690     TIP3     H1       HT       0.417000       1.00800           0
     36516 TIP3     4690     TIP3     H2       HT       0.417000       1.00800           0
     36517 TIP3     4691     TIP3     OH2      OT      -0.834000       15.9994           0
     36518 TIP3     4691     TIP3     H1       HT       0.417000       1.00800           0
     36519 TIP3     4691     TIP3     H2       HT       0.417000       1.00800           0
     36520 TIP3     4692     TIP3     OH2      OT      -0.834000       15.9994           0
     36521 TIP3     4692     TIP3     H1       HT       0.417000       1.00800           0
     36522 TIP3     4692     TIP3     H2       HT       0.417000       1.00800           0
     36523 TIP3     4693     TIP3     OH2      OT      -0.834000       15.9994           0
     36524 TIP3     4693     TIP3     H1       HT       0.417000       1.00800           0
     36525 TIP3     4693     TIP3     H2       HT       0.417000       1.00800           0
     36526 TIP3     4694     TIP3     OH2      OT      -0.834000       15.9994           0
     36527 TIP3     4694     TIP3     H1       HT       0.417000       1.00800           0
     36528 TIP3     4694     TIP3     H2       HT       0.417000       1.00800           0
     36529 TIP3     4695     TIP3     OH2      OT      -0.834000       15.9994           0
     36530 TIP3     4695     TIP3     H1       HT       0.417000       1.00800           0
     36531 TIP3     4695     TIP3     H2       HT       0.417000       1.00800           0
     36532 TIP3     4696     TIP3     OH2      OT      -0.834000       15.9994           0
     36533 TIP3     4696     TIP3     H1       HT       0.417000       1.00800           0
     36534 TIP3     4696     TIP3     H2       HT       0.417000       1.00800           0
     36535 TIP3     4697     TIP3     OH2      OT      -0.834000       15.9994           0
     36536 TIP3     4697     TIP3     H1       HT       0.417000       1.00800           0
     36537 TIP3     4697     TIP3     H2       HT       0.417000       1.00800           0
     36538 TIP3     4698     TIP3     OH2      OT      -0.834000       15.9994           0
     36539 TIP3     4698     TIP3     H1       HT       0.417000       1.00800           0
     36540 TIP3     4698     TIP3     H2       HT       0.417000       1.00800           0
     36541 TIP3     4699     TIP3     OH2      OT      -0.834000       15.9994           0
     36542 TIP3     4699     TIP3     H1       HT       0.417000       1.00800           0
     36543 TIP3     4699     TIP3     H2       HT       0.417000       1.00800           0
     36544 TIP3     4700     TIP3     OH2      OT      -0.834000       15.9994           0
     36545 TIP3     4700     TIP3     H1       HT       0.417000       1.00800           0
     36546 TIP3     4700     TIP3     H2       HT       0.417000       1.00800           0
     36547 TIP3     4701     TIP3     OH2      OT      -0.834000       15.9994           0
     36548 TIP3     4701     TIP3     H1       HT       0.417000       1.00800           0
     36549 TIP3     4701     TIP3     H2       HT       0.417000       1.00800           0
     36550 TIP3     4702     TIP3     OH2      OT      -0.834000       15.9994           0
     36551 TIP3     4702     TIP3     H1       HT       0.417000       1.00800           0
     36552 TIP3     4702     TIP3     H2       HT       0.417000       1.00800           0
     36553 TIP3     4703     TIP3     OH2      OT      -0.834000       15.9994           0
     36554 TIP3     4703     TIP3     H1       HT       0.417000       1.00800           0
     36555 TIP3     4703     TIP3     H2       HT       0.417000       1.00800           0
     36556 TIP3     4704     TIP3     OH2      OT      -0.834000       15.9994           0
     36557 TIP3     4704     TIP3     H1       HT       0.417000       1.00800           0
     36558 TIP3     4704     TIP3     H2       HT       0.417000       1.00800           0
     36559 TIP3     4705     TIP3     OH2      OT      -0.834000       15.9994           0
     36560 TIP3     4705     TIP3     H1       HT       0.417000       1.00800           0
     36561 TIP3     4705     TIP3     H2       HT       0.417000       1.00800           0
     36562 TIP3     4706     TIP3     OH2      OT      -0.834000       15.9994           0
     36563 TIP3     4706     TIP3     H1       HT       0.417000       1.00800           0
     36564 TIP3     4706     TIP3     H2       HT       0.417000       1.00800           0
     36565 TIP3     4707     TIP3     OH2      OT      -0.834000       15.9994           0
     36566 TIP3     4707     TIP3     H1       HT       0.417000       1.00800           0
     36567 TIP3     4707     TIP3     H2       HT       0.417000       1.00800           0
     36568 TIP3     4708     TIP3     OH2      OT      -0.834000       15.9994           0
     36569 TIP3     4708     TIP3     H1       HT       0.417000       1.00800           0
     36570 TIP3     4708     TIP3     H2       HT       0.417000       1.00800           0
     36571 TIP3     4709     TIP3     OH2      OT      -0.834000       15.9994           0
     36572 TIP3     4709     TIP3     H1       HT       0.417000       1.00800           0
     36573 TIP3     4709     TIP3     H2       HT       0.417000       1.00800           0
     36574 TIP3     4710     TIP3     OH2      OT      -0.834000       15.9994           0
     36575 TIP3     4710     TIP3     H1       HT       0.417000       1.00800           0
     36576 TIP3     4710     TIP3     H2       HT       0.417000       1.00800           0
     36577 TIP3     4711     TIP3     OH2      OT      -0.834000       15.9994           0
     36578 TIP3     4711     TIP3     H1       HT       0.417000       1.00800           0
     36579 TIP3     4711     TIP3     H2       HT       0.417000       1.00800           0
     36580 TIP3     4712     TIP3     OH2      OT      -0.834000       15.9994           0
     36581 TIP3     4712     TIP3     H1       HT       0.417000       1.00800           0
     36582 TIP3     4712     TIP3     H2       HT       0.417000       1.00800           0
     36583 TIP3     4713     TIP3     OH2      OT      -0.834000       15.9994           0
     36584 TIP3     4713     TIP3     H1       HT       0.417000       1.00800           0
     36585 TIP3     4713     TIP3     H2       HT       0.417000       1.00800           0
     36586 TIP3     4714     TIP3     OH2      OT      -0.834000       15.9994           0
     36587 TIP3     4714     TIP3     H1       HT       0.417000       1.00800           0
     36588 TIP3     4714     TIP3     H2       HT       0.417000       1.00800           0
     36589 TIP3     4715     TIP3     OH2      OT      -0.834000       15.9994           0
     36590 TIP3     4715     TIP3     H1       HT       0.417000       1.00800           0
     36591 TIP3     4715     TIP3     H2       HT       0.417000       1.00800           0
     36592 TIP3     4716     TIP3     OH2      OT      -0.834000       15.9994           0
     36593 TIP3     4716     TIP3     H1       HT       0.417000       1.00800           0
     36594 TIP3     4716     TIP3     H2       HT       0.417000       1.00800           0
     36595 TIP3     4717     TIP3     OH2      OT      -0.834000       15.9994           0
     36596 TIP3     4717     TIP3     H1       HT       0.417000       1.00800           0
     36597 TIP3     4717     TIP3     H2       HT       0.417000       1.00800           0
     36598 TIP3     4718     TIP3     OH2      OT      -0.834000       15.9994           0
     36599 TIP3     4718     TIP3     H1       HT       0.417000       1.00800           0
     36600 TIP3     4718     TIP3     H2       HT       0.417000       1.00800           0
     36601 TIP3     4719     TIP3     OH2      OT      -0.834000       15.9994           0
     36602 TIP3     4719     TIP3     H1       HT       0.417000       1.00800           0
     36603 TIP3     4719     TIP3     H2       HT       0.417000       1.00800           0
     36604 TIP3     4720     TIP3     OH2      OT      -0.834000       15.9994           0
     36605 TIP3     4720     TIP3     H1       HT       0.417000       1.00800           0
     36606 TIP3     4720     TIP3     H2       HT       0.417000       1.00800           0
     36607 TIP3     4721     TIP3     OH2      OT      -0.834000       15.9994           0
     36608 TIP3     4721     TIP3     H1       HT       0.417000       1.00800           0
     36609 TIP3     4721     TIP3     H2       HT       0.417000       1.00800           0
     36610 TIP3     4722     TIP3     OH2      OT      -0.834000       15.9994           0
     36611 TIP3     4722     TIP3     H1       HT       0.417000       1.00800           0
     36612 TIP3     4722     TIP3     H2       HT       0.417000       1.00800           0
     36613 TIP3     4723     TIP3     OH2      OT      -0.834000       15.9994           0
     36614 TIP3     4723     TIP3     H1       HT       0.417000       1.00800           0
     36615 TIP3     4723     TIP3     H2       HT       0.417000       1.00800           0
     36616 TIP3     4724     TIP3     OH2      OT      -0.834000       15.9994           0
     36617 TIP3     4724     TIP3     H1       HT       0.417000       1.00800           0
     36618 TIP3     4724     TIP3     H2       HT       0.417000       1.00800           0
     36619 TIP3     4725     TIP3     OH2      OT      -0.834000       15.9994           0
     36620 TIP3     4725     TIP3     H1       HT       0.417000       1.00800           0
     36621 TIP3     4725     TIP3     H2       HT       0.417000       1.00800           0
     36622 TIP3     4726     TIP3     OH2      OT      -0.834000       15.9994           0
     36623 TIP3     4726     TIP3     H1       HT       0.417000       1.00800           0
     36624 TIP3     4726     TIP3     H2       HT       0.417000       1.00800           0
     36625 TIP3     4727     TIP3     OH2      OT      -0.834000       15.9994           0
     36626 TIP3     4727     TIP3     H1       HT       0.417000       1.00800           0
     36627 TIP3     4727     TIP3     H2       HT       0.417000       1.00800           0
     36628 TIP3     4728     TIP3     OH2      OT      -0.834000       15.9994           0
     36629 TIP3     4728     TIP3     H1       HT       0.417000       1.00800           0
     36630 TIP3     4728     TIP3     H2       HT       0.417000       1.00800           0
     36631 TIP3     4729     TIP3     OH2      OT      -0.834000       15.9994           0
     36632 TIP3     4729     TIP3     H1       HT       0.417000       1.00800           0
     36633 TIP3     4729     TIP3     H2       HT       0.417000       1.00800           0
     36634 TIP3     4730     TIP3     OH2      OT      -0.834000       15.9994           0
     36635 TIP3     4730     TIP3     H1       HT       0.417000       1.00800           0
     36636 TIP3     4730     TIP3     H2       HT       0.417000       1.00800           0
     36637 TIP3     4731     TIP3     OH2      OT      -0.834000       15.9994           0
     36638 TIP3     4731     TIP3     H1       HT       0.417000       1.00800           0
     36639 TIP3     4731     TIP3     H2       HT       0.417000       1.00800           0
     36640 TIP3     4732     TIP3     OH2      OT      -0.834000       15.9994           0
     36641 TIP3     4732     TIP3     H1       HT       0.417000       1.00800           0
     36642 TIP3     4732     TIP3     H2       HT       0.417000       1.00800           0
     36643 TIP3     4733     TIP3     OH2      OT      -0.834000       15.9994           0
     36644 TIP3     4733     TIP3     H1       HT       0.417000       1.00800           0
     36645 TIP3     4733     TIP3     H2       HT       0.417000       1.00800           0
     36646 TIP3     4734     TIP3     OH2      OT      -0.834000       15.9994           0
     36647 TIP3     4734     TIP3     H1       HT       0.417000       1.00800           0
     36648 TIP3     4734     TIP3     H2       HT       0.417000       1.00800           0
     36649 TIP3     4735     TIP3     OH2      OT      -0.834000       15.9994           0
     36650 TIP3     4735     TIP3     H1       HT       0.417000       1.00800           0
     36651 TIP3     4735     TIP3     H2       HT       0.417000       1.00800           0
     36652 TIP3     4736     TIP3     OH2      OT      -0.834000       15.9994           0
     36653 TIP3     4736     TIP3     H1       HT       0.417000       1.00800           0
     36654 TIP3     4736     TIP3     H2       HT       0.417000       1.00800           0
     36655 TIP3     4737     TIP3     OH2      OT      -0.834000       15.9994           0
     36656 TIP3     4737     TIP3     H1       HT       0.417000       1.00800           0
     36657 TIP3     4737     TIP3     H2       HT       0.417000       1.00800           0
     36658 TIP3     4738     TIP3     OH2      OT      -0.834000       15.9994           0
     36659 TIP3     4738     TIP3     H1       HT       0.417000       1.00800           0
     36660 TIP3     4738     TIP3     H2       HT       0.417000       1.00800           0
     36661 TIP3     4739     TIP3     OH2      OT      -0.834000       15.9994           0
     36662 TIP3     4739     TIP3     H1       HT       0.417000       1.00800           0
     36663 TIP3     4739     TIP3     H2       HT       0.417000       1.00800           0
     36664 TIP3     4740     TIP3     OH2      OT      -0.834000       15.9994           0
     36665 TIP3     4740     TIP3     H1       HT       0.417000       1.00800           0
     36666 TIP3     4740     TIP3     H2       HT       0.417000       1.00800           0
     36667 TIP3     4741     TIP3     OH2      OT      -0.834000       15.9994           0
     36668 TIP3     4741     TIP3     H1       HT       0.417000       1.00800           0
     36669 TIP3     4741     TIP3     H2       HT       0.417000       1.00800           0
     36670 TIP3     4742     TIP3     OH2      OT      -0.834000       15.9994           0
     36671 TIP3     4742     TIP3     H1       HT       0.417000       1.00800           0
     36672 TIP3     4742     TIP3     H2       HT       0.417000       1.00800           0
     36673 TIP3     4743     TIP3     OH2      OT      -0.834000       15.9994           0
     36674 TIP3     4743     TIP3     H1       HT       0.417000       1.00800           0
     36675 TIP3     4743     TIP3     H2       HT       0.417000       1.00800           0
     36676 TIP3     4744     TIP3     OH2      OT      -0.834000       15.9994           0
     36677 TIP3     4744     TIP3     H1       HT       0.417000       1.00800           0
     36678 TIP3     4744     TIP3     H2       HT       0.417000       1.00800           0
     36679 TIP3     4745     TIP3     OH2      OT      -0.834000       15.9994           0
     36680 TIP3     4745     TIP3     H1       HT       0.417000       1.00800           0
     36681 TIP3     4745     TIP3     H2       HT       0.417000       1.00800           0
     36682 TIP3     4746     TIP3     OH2      OT      -0.834000       15.9994           0
     36683 TIP3     4746     TIP3     H1       HT       0.417000       1.00800           0
     36684 TIP3     4746     TIP3     H2       HT       0.417000       1.00800           0
     36685 TIP3     4747     TIP3     OH2      OT      -0.834000       15.9994           0
     36686 TIP3     4747     TIP3     H1       HT       0.417000       1.00800           0
     36687 TIP3     4747     TIP3     H2       HT       0.417000       1.00800           0
     36688 TIP3     4748     TIP3     OH2      OT      -0.834000       15.9994           0
     36689 TIP3     4748     TIP3     H1       HT       0.417000       1.00800           0
     36690 TIP3     4748     TIP3     H2       HT       0.417000       1.00800           0
     36691 TIP3     4749     TIP3     OH2      OT      -0.834000       15.9994           0
     36692 TIP3     4749     TIP3     H1       HT       0.417000       1.00800           0
     36693 TIP3     4749     TIP3     H2       HT       0.417000       1.00800           0
     36694 TIP3     4750     TIP3     OH2      OT      -0.834000       15.9994           0
     36695 TIP3     4750     TIP3     H1       HT       0.417000       1.00800           0
     36696 TIP3     4750     TIP3     H2       HT       0.417000       1.00800           0
     36697 TIP3     4751     TIP3     OH2      OT      -0.834000       15.9994           0
     36698 TIP3     4751     TIP3     H1       HT       0.417000       1.00800           0
     36699 TIP3     4751     TIP3     H2       HT       0.417000       1.00800           0
     36700 TIP3     4752     TIP3     OH2      OT      -0.834000       15.9994           0
     36701 TIP3     4752     TIP3     H1       HT       0.417000       1.00800           0
     36702 TIP3     4752     TIP3     H2       HT       0.417000       1.00800           0
     36703 TIP3     4753     TIP3     OH2      OT      -0.834000       15.9994           0
     36704 TIP3     4753     TIP3     H1       HT       0.417000       1.00800           0
     36705 TIP3     4753     TIP3     H2       HT       0.417000       1.00800           0
     36706 TIP3     4754     TIP3     OH2      OT      -0.834000       15.9994           0
     36707 TIP3     4754     TIP3     H1       HT       0.417000       1.00800           0
     36708 TIP3     4754     TIP3     H2       HT       0.417000       1.00800           0
     36709 TIP3     4755     TIP3     OH2      OT      -0.834000       15.9994           0
     36710 TIP3     4755     TIP3     H1       HT       0.417000       1.00800           0
     36711 TIP3     4755     TIP3     H2       HT       0.417000       1.00800           0
     36712 TIP3     4756     TIP3     OH2      OT      -0.834000       15.9994           0
     36713 TIP3     4756     TIP3     H1       HT       0.417000       1.00800           0
     36714 TIP3     4756     TIP3     H2       HT       0.417000       1.00800           0
     36715 TIP3     4757     TIP3     OH2      OT      -0.834000       15.9994           0
     36716 TIP3     4757     TIP3     H1       HT       0.417000       1.00800           0
     36717 TIP3     4757     TIP3     H2       HT       0.417000       1.00800           0
     36718 TIP3     4758     TIP3     OH2      OT      -0.834000       15.9994           0
     36719 TIP3     4758     TIP3     H1       HT       0.417000       1.00800           0
     36720 TIP3     4758     TIP3     H2       HT       0.417000       1.00800           0
     36721 TIP3     4759     TIP3     OH2      OT      -0.834000       15.9994           0
     36722 TIP3     4759     TIP3     H1       HT       0.417000       1.00800           0
     36723 TIP3     4759     TIP3     H2       HT       0.417000       1.00800           0
     36724 TIP3     4760     TIP3     OH2      OT      -0.834000       15.9994           0
     36725 TIP3     4760     TIP3     H1       HT       0.417000       1.00800           0
     36726 TIP3     4760     TIP3     H2       HT       0.417000       1.00800           0
     36727 TIP3     4761     TIP3     OH2      OT      -0.834000       15.9994           0
     36728 TIP3     4761     TIP3     H1       HT       0.417000       1.00800           0
     36729 TIP3     4761     TIP3     H2       HT       0.417000       1.00800           0
     36730 TIP3     4762     TIP3     OH2      OT      -0.834000       15.9994           0
     36731 TIP3     4762     TIP3     H1       HT       0.417000       1.00800           0
     36732 TIP3     4762     TIP3     H2       HT       0.417000       1.00800           0
     36733 TIP3     4763     TIP3     OH2      OT      -0.834000       15.9994           0
     36734 TIP3     4763     TIP3     H1       HT       0.417000       1.00800           0
     36735 TIP3     4763     TIP3     H2       HT       0.417000       1.00800           0
     36736 TIP3     4764     TIP3     OH2      OT      -0.834000       15.9994           0
     36737 TIP3     4764     TIP3     H1       HT       0.417000       1.00800           0
     36738 TIP3     4764     TIP3     H2       HT       0.417000       1.00800           0
     36739 TIP3     4765     TIP3     OH2      OT      -0.834000       15.9994           0
     36740 TIP3     4765     TIP3     H1       HT       0.417000       1.00800           0
     36741 TIP3     4765     TIP3     H2       HT       0.417000       1.00800           0
     36742 TIP3     4766     TIP3     OH2      OT      -0.834000       15.9994           0
     36743 TIP3     4766     TIP3     H1       HT       0.417000       1.00800           0
     36744 TIP3     4766     TIP3     H2       HT       0.417000       1.00800           0
     36745 TIP3     4767     TIP3     OH2      OT      -0.834000       15.9994           0
     36746 TIP3     4767     TIP3     H1       HT       0.417000       1.00800           0
     36747 TIP3     4767     TIP3     H2       HT       0.417000       1.00800           0
     36748 TIP3     4768     TIP3     OH2      OT      -0.834000       15.9994           0
     36749 TIP3     4768     TIP3     H1       HT       0.417000       1.00800           0
     36750 TIP3     4768     TIP3     H2       HT       0.417000       1.00800           0
     36751 TIP3     4769     TIP3     OH2      OT      -0.834000       15.9994           0
     36752 TIP3     4769     TIP3     H1       HT       0.417000       1.00800           0
     36753 TIP3     4769     TIP3     H2       HT       0.417000       1.00800           0
     36754 TIP3     4770     TIP3     OH2      OT      -0.834000       15.9994           0
     36755 TIP3     4770     TIP3     H1       HT       0.417000       1.00800           0
     36756 TIP3     4770     TIP3     H2       HT       0.417000       1.00800           0
     36757 TIP3     4771     TIP3     OH2      OT      -0.834000       15.9994           0
     36758 TIP3     4771     TIP3     H1       HT       0.417000       1.00800           0
     36759 TIP3     4771     TIP3     H2       HT       0.417000       1.00800           0
     36760 TIP3     4772     TIP3     OH2      OT      -0.834000       15.9994           0
     36761 TIP3     4772     TIP3     H1       HT       0.417000       1.00800           0
     36762 TIP3     4772     TIP3     H2       HT       0.417000       1.00800           0
     36763 TIP3     4773     TIP3     OH2      OT      -0.834000       15.9994           0
     36764 TIP3     4773     TIP3     H1       HT       0.417000       1.00800           0
     36765 TIP3     4773     TIP3     H2       HT       0.417000       1.00800           0
     36766 TIP3     4774     TIP3     OH2      OT      -0.834000       15.9994           0
     36767 TIP3     4774     TIP3     H1       HT       0.417000       1.00800           0
     36768 TIP3     4774     TIP3     H2       HT       0.417000       1.00800           0
     36769 TIP3     4775     TIP3     OH2      OT      -0.834000       15.9994           0
     36770 TIP3     4775     TIP3     H1       HT       0.417000       1.00800           0
     36771 TIP3     4775     TIP3     H2       HT       0.417000       1.00800           0
     36772 TIP3     4776     TIP3     OH2      OT      -0.834000       15.9994           0
     36773 TIP3     4776     TIP3     H1       HT       0.417000       1.00800           0
     36774 TIP3     4776     TIP3     H2       HT       0.417000       1.00800           0
     36775 TIP3     4777     TIP3     OH2      OT      -0.834000       15.9994           0
     36776 TIP3     4777     TIP3     H1       HT       0.417000       1.00800           0
     36777 TIP3     4777     TIP3     H2       HT       0.417000       1.00800           0
     36778 TIP3     4778     TIP3     OH2      OT      -0.834000       15.9994           0
     36779 TIP3     4778     TIP3     H1       HT       0.417000       1.00800           0
     36780 TIP3     4778     TIP3     H2       HT       0.417000       1.00800           0
     36781 TIP3     4779     TIP3     OH2      OT      -0.834000       15.9994           0
     36782 TIP3     4779     TIP3     H1       HT       0.417000       1.00800           0
     36783 TIP3     4779     TIP3     H2       HT       0.417000       1.00800           0
     36784 TIP3     4780     TIP3     OH2      OT      -0.834000       15.9994           0
     36785 TIP3     4780     TIP3     H1       HT       0.417000       1.00800           0
     36786 TIP3     4780     TIP3     H2       HT       0.417000       1.00800           0
     36787 TIP3     4781     TIP3     OH2      OT      -0.834000       15.9994           0
     36788 TIP3     4781     TIP3     H1       HT       0.417000       1.00800           0
     36789 TIP3     4781     TIP3     H2       HT       0.417000       1.00800           0
     36790 TIP3     4782     TIP3     OH2      OT      -0.834000       15.9994           0
     36791 TIP3     4782     TIP3     H1       HT       0.417000       1.00800           0
     36792 TIP3     4782     TIP3     H2       HT       0.417000       1.00800           0
     36793 TIP3     4783     TIP3     OH2      OT      -0.834000       15.9994           0
     36794 TIP3     4783     TIP3     H1       HT       0.417000       1.00800           0
     36795 TIP3     4783     TIP3     H2       HT       0.417000       1.00800           0
     36796 TIP3     4784     TIP3     OH2      OT      -0.834000       15.9994           0
     36797 TIP3     4784     TIP3     H1       HT       0.417000       1.00800           0
     36798 TIP3     4784     TIP3     H2       HT       0.417000       1.00800           0
     36799 TIP3     4785     TIP3     OH2      OT      -0.834000       15.9994           0
     36800 TIP3     4785     TIP3     H1       HT       0.417000       1.00800           0
     36801 TIP3     4785     TIP3     H2       HT       0.417000       1.00800           0
     36802 TIP3     4786     TIP3     OH2      OT      -0.834000       15.9994           0
     36803 TIP3     4786     TIP3     H1       HT       0.417000       1.00800           0
     36804 TIP3     4786     TIP3     H2       HT       0.417000       1.00800           0
     36805 TIP3     4787     TIP3     OH2      OT      -0.834000       15.9994           0
     36806 TIP3     4787     TIP3     H1       HT       0.417000       1.00800           0
     36807 TIP3     4787     TIP3     H2       HT       0.417000       1.00800           0
     36808 TIP3     4788     TIP3     OH2      OT      -0.834000       15.9994           0
     36809 TIP3     4788     TIP3     H1       HT       0.417000       1.00800           0
     36810 TIP3     4788     TIP3     H2       HT       0.417000       1.00800           0
     36811 TIP3     4789     TIP3     OH2      OT      -0.834000       15.9994           0
     36812 TIP3     4789     TIP3     H1       HT       0.417000       1.00800           0
     36813 TIP3     4789     TIP3     H2       HT       0.417000       1.00800           0
     36814 TIP3     4790     TIP3     OH2      OT      -0.834000       15.9994           0
     36815 TIP3     4790     TIP3     H1       HT       0.417000       1.00800           0
     36816 TIP3     4790     TIP3     H2       HT       0.417000       1.00800           0
     36817 TIP3     4791     TIP3     OH2      OT      -0.834000       15.9994           0
     36818 TIP3     4791     TIP3     H1       HT       0.417000       1.00800           0
     36819 TIP3     4791     TIP3     H2       HT       0.417000       1.00800           0
     36820 TIP3     4792     TIP3     OH2      OT      -0.834000       15.9994           0
     36821 TIP3     4792     TIP3     H1       HT       0.417000       1.00800           0
     36822 TIP3     4792     TIP3     H2       HT       0.417000       1.00800           0
     36823 TIP3     4793     TIP3     OH2      OT      -0.834000       15.9994           0
     36824 TIP3     4793     TIP3     H1       HT       0.417000       1.00800           0
     36825 TIP3     4793     TIP3     H2       HT       0.417000       1.00800           0
     36826 TIP3     4794     TIP3     OH2      OT      -0.834000       15.9994           0
     36827 TIP3     4794     TIP3     H1       HT       0.417000       1.00800           0
     36828 TIP3     4794     TIP3     H2       HT       0.417000       1.00800           0
     36829 TIP3     4795     TIP3     OH2      OT      -0.834000       15.9994           0
     36830 TIP3     4795     TIP3     H1       HT       0.417000       1.00800           0
     36831 TIP3     4795     TIP3     H2       HT       0.417000       1.00800           0
     36832 TIP3     4796     TIP3     OH2      OT      -0.834000       15.9994           0
     36833 TIP3     4796     TIP3     H1       HT       0.417000       1.00800           0
     36834 TIP3     4796     TIP3     H2       HT       0.417000       1.00800           0
     36835 TIP3     4797     TIP3     OH2      OT      -0.834000       15.9994           0
     36836 TIP3     4797     TIP3     H1       HT       0.417000       1.00800           0
     36837 TIP3     4797     TIP3     H2       HT       0.417000       1.00800           0
     36838 TIP3     4798     TIP3     OH2      OT      -0.834000       15.9994           0
     36839 TIP3     4798     TIP3     H1       HT       0.417000       1.00800           0
     36840 TIP3     4798     TIP3     H2       HT       0.417000       1.00800           0
     36841 TIP3     4799     TIP3     OH2      OT      -0.834000       15.9994           0
     36842 TIP3     4799     TIP3     H1       HT       0.417000       1.00800           0
     36843 TIP3     4799     TIP3     H2       HT       0.417000       1.00800           0
     36844 TIP3     4800     TIP3     OH2      OT      -0.834000       15.9994           0
     36845 TIP3     4800     TIP3     H1       HT       0.417000       1.00800           0
     36846 TIP3     4800     TIP3     H2       HT       0.417000       1.00800           0
     36847 TIP3     4801     TIP3     OH2      OT      -0.834000       15.9994           0
     36848 TIP3     4801     TIP3     H1       HT       0.417000       1.00800           0
     36849 TIP3     4801     TIP3     H2       HT       0.417000       1.00800           0
     36850 TIP3     4802     TIP3     OH2      OT      -0.834000       15.9994           0
     36851 TIP3     4802     TIP3     H1       HT       0.417000       1.00800           0
     36852 TIP3     4802     TIP3     H2       HT       0.417000       1.00800           0
     36853 TIP3     4803     TIP3     OH2      OT      -0.834000       15.9994           0
     36854 TIP3     4803     TIP3     H1       HT       0.417000       1.00800           0
     36855 TIP3     4803     TIP3     H2       HT       0.417000       1.00800           0
     36856 TIP3     4804     TIP3     OH2      OT      -0.834000       15.9994           0
     36857 TIP3     4804     TIP3     H1       HT       0.417000       1.00800           0
     36858 TIP3     4804     TIP3     H2       HT       0.417000       1.00800           0
     36859 TIP3     4805     TIP3     OH2      OT      -0.834000       15.9994           0
     36860 TIP3     4805     TIP3     H1       HT       0.417000       1.00800           0
     36861 TIP3     4805     TIP3     H2       HT       0.417000       1.00800           0
     36862 TIP3     4806     TIP3     OH2      OT      -0.834000       15.9994           0
     36863 TIP3     4806     TIP3     H1       HT       0.417000       1.00800           0
     36864 TIP3     4806     TIP3     H2       HT       0.417000       1.00800           0
     36865 TIP3     4807     TIP3     OH2      OT      -0.834000       15.9994           0
     36866 TIP3     4807     TIP3     H1       HT       0.417000       1.00800           0
     36867 TIP3     4807     TIP3     H2       HT       0.417000       1.00800           0
     36868 TIP3     4808     TIP3     OH2      OT      -0.834000       15.9994           0
     36869 TIP3     4808     TIP3     H1       HT       0.417000       1.00800           0
     36870 TIP3     4808     TIP3     H2       HT       0.417000       1.00800           0
     36871 TIP3     4809     TIP3     OH2      OT      -0.834000       15.9994           0
     36872 TIP3     4809     TIP3     H1       HT       0.417000       1.00800           0
     36873 TIP3     4809     TIP3     H2       HT       0.417000       1.00800           0
     36874 TIP3     4810     TIP3     OH2      OT      -0.834000       15.9994           0
     36875 TIP3     4810     TIP3     H1       HT       0.417000       1.00800           0
     36876 TIP3     4810     TIP3     H2       HT       0.417000       1.00800           0
     36877 TIP3     4811     TIP3     OH2      OT      -0.834000       15.9994           0
     36878 TIP3     4811     TIP3     H1       HT       0.417000       1.00800           0
     36879 TIP3     4811     TIP3     H2       HT       0.417000       1.00800           0
     36880 TIP3     4812     TIP3     OH2      OT      -0.834000       15.9994           0
     36881 TIP3     4812     TIP3     H1       HT       0.417000       1.00800           0
     36882 TIP3     4812     TIP3     H2       HT       0.417000       1.00800           0
     36883 TIP3     4813     TIP3     OH2      OT      -0.834000       15.9994           0
     36884 TIP3     4813     TIP3     H1       HT       0.417000       1.00800           0
     36885 TIP3     4813     TIP3     H2       HT       0.417000       1.00800           0
     36886 TIP3     4814     TIP3     OH2      OT      -0.834000       15.9994           0
     36887 TIP3     4814     TIP3     H1       HT       0.417000       1.00800           0
     36888 TIP3     4814     TIP3     H2       HT       0.417000       1.00800           0
     36889 TIP3     4815     TIP3     OH2      OT      -0.834000       15.9994           0
     36890 TIP3     4815     TIP3     H1       HT       0.417000       1.00800           0
     36891 TIP3     4815     TIP3     H2       HT       0.417000       1.00800           0
     36892 TIP3     4816     TIP3     OH2      OT      -0.834000       15.9994           0
     36893 TIP3     4816     TIP3     H1       HT       0.417000       1.00800           0
     36894 TIP3     4816     TIP3     H2       HT       0.417000       1.00800           0
     36895 TIP3     4817     TIP3     OH2      OT      -0.834000       15.9994           0
     36896 TIP3     4817     TIP3     H1       HT       0.417000       1.00800           0
     36897 TIP3     4817     TIP3     H2       HT       0.417000       1.00800           0
     36898 TIP3     4818     TIP3     OH2      OT      -0.834000       15.9994           0
     36899 TIP3     4818     TIP3     H1       HT       0.417000       1.00800           0
     36900 TIP3     4818     TIP3     H2       HT       0.417000       1.00800           0
     36901 TIP3     4819     TIP3     OH2      OT      -0.834000       15.9994           0
     36902 TIP3     4819     TIP3     H1       HT       0.417000       1.00800           0
     36903 TIP3     4819     TIP3     H2       HT       0.417000       1.00800           0
     36904 TIP3     4820     TIP3     OH2      OT      -0.834000       15.9994           0
     36905 TIP3     4820     TIP3     H1       HT       0.417000       1.00800           0
     36906 TIP3     4820     TIP3     H2       HT       0.417000       1.00800           0
     36907 TIP3     4821     TIP3     OH2      OT      -0.834000       15.9994           0
     36908 TIP3     4821     TIP3     H1       HT       0.417000       1.00800           0
     36909 TIP3     4821     TIP3     H2       HT       0.417000       1.00800           0
     36910 TIP3     4822     TIP3     OH2      OT      -0.834000       15.9994           0
     36911 TIP3     4822     TIP3     H1       HT       0.417000       1.00800           0
     36912 TIP3     4822     TIP3     H2       HT       0.417000       1.00800           0
     36913 TIP3     4823     TIP3     OH2      OT      -0.834000       15.9994           0
     36914 TIP3     4823     TIP3     H1       HT       0.417000       1.00800           0
     36915 TIP3     4823     TIP3     H2       HT       0.417000       1.00800           0
     36916 TIP3     4824     TIP3     OH2      OT      -0.834000       15.9994           0
     36917 TIP3     4824     TIP3     H1       HT       0.417000       1.00800           0
     36918 TIP3     4824     TIP3     H2       HT       0.417000       1.00800           0
     36919 TIP3     4825     TIP3     OH2      OT      -0.834000       15.9994           0
     36920 TIP3     4825     TIP3     H1       HT       0.417000       1.00800           0
     36921 TIP3     4825     TIP3     H2       HT       0.417000       1.00800           0
     36922 TIP3     4826     TIP3     OH2      OT      -0.834000       15.9994           0
     36923 TIP3     4826     TIP3     H1       HT       0.417000       1.00800           0
     36924 TIP3     4826     TIP3     H2       HT       0.417000       1.00800           0
     36925 TIP3     4827     TIP3     OH2      OT      -0.834000       15.9994           0
     36926 TIP3     4827     TIP3     H1       HT       0.417000       1.00800           0
     36927 TIP3     4827     TIP3     H2       HT       0.417000       1.00800           0
     36928 TIP3     4828     TIP3     OH2      OT      -0.834000       15.9994           0
     36929 TIP3     4828     TIP3     H1       HT       0.417000       1.00800           0
     36930 TIP3     4828     TIP3     H2       HT       0.417000       1.00800           0
     36931 TIP3     4829     TIP3     OH2      OT      -0.834000       15.9994           0
     36932 TIP3     4829     TIP3     H1       HT       0.417000       1.00800           0
     36933 TIP3     4829     TIP3     H2       HT       0.417000       1.00800           0
     36934 TIP3     4830     TIP3     OH2      OT      -0.834000       15.9994           0
     36935 TIP3     4830     TIP3     H1       HT       0.417000       1.00800           0
     36936 TIP3     4830     TIP3     H2       HT       0.417000       1.00800           0
     36937 TIP3     4831     TIP3     OH2      OT      -0.834000       15.9994           0
     36938 TIP3     4831     TIP3     H1       HT       0.417000       1.00800           0
     36939 TIP3     4831     TIP3     H2       HT       0.417000       1.00800           0
     36940 TIP3     4832     TIP3     OH2      OT      -0.834000       15.9994           0
     36941 TIP3     4832     TIP3     H1       HT       0.417000       1.00800           0
     36942 TIP3     4832     TIP3     H2       HT       0.417000       1.00800           0
     36943 TIP3     4833     TIP3     OH2      OT      -0.834000       15.9994           0
     36944 TIP3     4833     TIP3     H1       HT       0.417000       1.00800           0
     36945 TIP3     4833     TIP3     H2       HT       0.417000       1.00800           0
     36946 TIP3     4834     TIP3     OH2      OT      -0.834000       15.9994           0
     36947 TIP3     4834     TIP3     H1       HT       0.417000       1.00800           0
     36948 TIP3     4834     TIP3     H2       HT       0.417000       1.00800           0
     36949 TIP3     4835     TIP3     OH2      OT      -0.834000       15.9994           0
     36950 TIP3     4835     TIP3     H1       HT       0.417000       1.00800           0
     36951 TIP3     4835     TIP3     H2       HT       0.417000       1.00800           0
     36952 TIP3     4836     TIP3     OH2      OT      -0.834000       15.9994           0
     36953 TIP3     4836     TIP3     H1       HT       0.417000       1.00800           0
     36954 TIP3     4836     TIP3     H2       HT       0.417000       1.00800           0
     36955 TIP3     4837     TIP3     OH2      OT      -0.834000       15.9994           0
     36956 TIP3     4837     TIP3     H1       HT       0.417000       1.00800           0
     36957 TIP3     4837     TIP3     H2       HT       0.417000       1.00800           0
     36958 TIP3     4838     TIP3     OH2      OT      -0.834000       15.9994           0
     36959 TIP3     4838     TIP3     H1       HT       0.417000       1.00800           0
     36960 TIP3     4838     TIP3     H2       HT       0.417000       1.00800           0
     36961 TIP3     4839     TIP3     OH2      OT      -0.834000       15.9994           0
     36962 TIP3     4839     TIP3     H1       HT       0.417000       1.00800           0
     36963 TIP3     4839     TIP3     H2       HT       0.417000       1.00800           0
     36964 TIP3     4840     TIP3     OH2      OT      -0.834000       15.9994           0
     36965 TIP3     4840     TIP3     H1       HT       0.417000       1.00800           0
     36966 TIP3     4840     TIP3     H2       HT       0.417000       1.00800           0
     36967 TIP3     4841     TIP3     OH2      OT      -0.834000       15.9994           0
     36968 TIP3     4841     TIP3     H1       HT       0.417000       1.00800           0
     36969 TIP3     4841     TIP3     H2       HT       0.417000       1.00800           0
     36970 TIP3     4842     TIP3     OH2      OT      -0.834000       15.9994           0
     36971 TIP3     4842     TIP3     H1       HT       0.417000       1.00800           0
     36972 TIP3     4842     TIP3     H2       HT       0.417000       1.00800           0
     36973 TIP3     4843     TIP3     OH2      OT      -0.834000       15.9994           0
     36974 TIP3     4843     TIP3     H1       HT       0.417000       1.00800           0
     36975 TIP3     4843     TIP3     H2       HT       0.417000       1.00800           0
     36976 TIP3     4844     TIP3     OH2      OT      -0.834000       15.9994           0
     36977 TIP3     4844     TIP3     H1       HT       0.417000       1.00800           0
     36978 TIP3     4844     TIP3     H2       HT       0.417000       1.00800           0
     36979 TIP3     4845     TIP3     OH2      OT      -0.834000       15.9994           0
     36980 TIP3     4845     TIP3     H1       HT       0.417000       1.00800           0
     36981 TIP3     4845     TIP3     H2       HT       0.417000       1.00800           0
     36982 TIP3     4846     TIP3     OH2      OT      -0.834000       15.9994           0
     36983 TIP3     4846     TIP3     H1       HT       0.417000       1.00800           0
     36984 TIP3     4846     TIP3     H2       HT       0.417000       1.00800           0
     36985 TIP3     4847     TIP3     OH2      OT      -0.834000       15.9994           0
     36986 TIP3     4847     TIP3     H1       HT       0.417000       1.00800           0
     36987 TIP3     4847     TIP3     H2       HT       0.417000       1.00800           0
     36988 TIP3     4848     TIP3     OH2      OT      -0.834000       15.9994           0
     36989 TIP3     4848     TIP3     H1       HT       0.417000       1.00800           0
     36990 TIP3     4848     TIP3     H2       HT       0.417000       1.00800           0
     36991 TIP3     4849     TIP3     OH2      OT      -0.834000       15.9994           0
     36992 TIP3     4849     TIP3     H1       HT       0.417000       1.00800           0
     36993 TIP3     4849     TIP3     H2       HT       0.417000       1.00800           0
     36994 TIP3     4850     TIP3     OH2      OT      -0.834000       15.9994           0
     36995 TIP3     4850     TIP3     H1       HT       0.417000       1.00800           0
     36996 TIP3     4850     TIP3     H2       HT       0.417000       1.00800           0
     36997 TIP3     4851     TIP3     OH2      OT      -0.834000       15.9994           0
     36998 TIP3     4851     TIP3     H1       HT       0.417000       1.00800           0
     36999 TIP3     4851     TIP3     H2       HT       0.417000       1.00800           0
     37000 TIP3     4852     TIP3     OH2      OT      -0.834000       15.9994           0
     37001 TIP3     4852     TIP3     H1       HT       0.417000       1.00800           0
     37002 TIP3     4852     TIP3     H2       HT       0.417000       1.00800           0
     37003 TIP3     4853     TIP3     OH2      OT      -0.834000       15.9994           0
     37004 TIP3     4853     TIP3     H1       HT       0.417000       1.00800           0
     37005 TIP3     4853     TIP3     H2       HT       0.417000       1.00800           0
     37006 TIP3     4854     TIP3     OH2      OT      -0.834000       15.9994           0
     37007 TIP3     4854     TIP3     H1       HT       0.417000       1.00800           0
     37008 TIP3     4854     TIP3     H2       HT       0.417000       1.00800           0
     37009 TIP3     4855     TIP3     OH2      OT      -0.834000       15.9994           0
     37010 TIP3     4855     TIP3     H1       HT       0.417000       1.00800           0
     37011 TIP3     4855     TIP3     H2       HT       0.417000       1.00800           0
     37012 TIP3     4856     TIP3     OH2      OT      -0.834000       15.9994           0
     37013 TIP3     4856     TIP3     H1       HT       0.417000       1.00800           0
     37014 TIP3     4856     TIP3     H2       HT       0.417000       1.00800           0
     37015 TIP3     4857     TIP3     OH2      OT      -0.834000       15.9994           0
     37016 TIP3     4857     TIP3     H1       HT       0.417000       1.00800           0
     37017 TIP3     4857     TIP3     H2       HT       0.417000       1.00800           0
     37018 TIP3     4858     TIP3     OH2      OT      -0.834000       15.9994           0
     37019 TIP3     4858     TIP3     H1       HT       0.417000       1.00800           0
     37020 TIP3     4858     TIP3     H2       HT       0.417000       1.00800           0
     37021 TIP3     4859     TIP3     OH2      OT      -0.834000       15.9994           0
     37022 TIP3     4859     TIP3     H1       HT       0.417000       1.00800           0
     37023 TIP3     4859     TIP3     H2       HT       0.417000       1.00800           0
     37024 TIP3     4860     TIP3     OH2      OT      -0.834000       15.9994           0
     37025 TIP3     4860     TIP3     H1       HT       0.417000       1.00800           0
     37026 TIP3     4860     TIP3     H2       HT       0.417000       1.00800           0
     37027 TIP3     4861     TIP3     OH2      OT      -0.834000       15.9994           0
     37028 TIP3     4861     TIP3     H1       HT       0.417000       1.00800           0
     37029 TIP3     4861     TIP3     H2       HT       0.417000       1.00800           0
     37030 TIP3     4862     TIP3     OH2      OT      -0.834000       15.9994           0
     37031 TIP3     4862     TIP3     H1       HT       0.417000       1.00800           0
     37032 TIP3     4862     TIP3     H2       HT       0.417000       1.00800           0
     37033 TIP3     4863     TIP3     OH2      OT      -0.834000       15.9994           0
     37034 TIP3     4863     TIP3     H1       HT       0.417000       1.00800           0
     37035 TIP3     4863     TIP3     H2       HT       0.417000       1.00800           0
     37036 TIP3     4864     TIP3     OH2      OT      -0.834000       15.9994           0
     37037 TIP3     4864     TIP3     H1       HT       0.417000       1.00800           0
     37038 TIP3     4864     TIP3     H2       HT       0.417000       1.00800           0
     37039 TIP3     4865     TIP3     OH2      OT      -0.834000       15.9994           0
     37040 TIP3     4865     TIP3     H1       HT       0.417000       1.00800           0
     37041 TIP3     4865     TIP3     H2       HT       0.417000       1.00800           0
     37042 TIP3     4866     TIP3     OH2      OT      -0.834000       15.9994           0
     37043 TIP3     4866     TIP3     H1       HT       0.417000       1.00800           0
     37044 TIP3     4866     TIP3     H2       HT       0.417000       1.00800           0
     37045 TIP3     4867     TIP3     OH2      OT      -0.834000       15.9994           0
     37046 TIP3     4867     TIP3     H1       HT       0.417000       1.00800           0
     37047 TIP3     4867     TIP3     H2       HT       0.417000       1.00800           0
     37048 TIP3     4868     TIP3     OH2      OT      -0.834000       15.9994           0
     37049 TIP3     4868     TIP3     H1       HT       0.417000       1.00800           0
     37050 TIP3     4868     TIP3     H2       HT       0.417000       1.00800           0
     37051 TIP3     4869     TIP3     OH2      OT      -0.834000       15.9994           0
     37052 TIP3     4869     TIP3     H1       HT       0.417000       1.00800           0
     37053 TIP3     4869     TIP3     H2       HT       0.417000       1.00800           0
     37054 TIP3     4870     TIP3     OH2      OT      -0.834000       15.9994           0
     37055 TIP3     4870     TIP3     H1       HT       0.417000       1.00800           0
     37056 TIP3     4870     TIP3     H2       HT       0.417000       1.00800           0
     37057 TIP3     4871     TIP3     OH2      OT      -0.834000       15.9994           0
     37058 TIP3     4871     TIP3     H1       HT       0.417000       1.00800           0
     37059 TIP3     4871     TIP3     H2       HT       0.417000       1.00800           0
     37060 TIP3     4872     TIP3     OH2      OT      -0.834000       15.9994           0
     37061 TIP3     4872     TIP3     H1       HT       0.417000       1.00800           0
     37062 TIP3     4872     TIP3     H2       HT       0.417000       1.00800           0
     37063 TIP3     4873     TIP3     OH2      OT      -0.834000       15.9994           0
     37064 TIP3     4873     TIP3     H1       HT       0.417000       1.00800           0
     37065 TIP3     4873     TIP3     H2       HT       0.417000       1.00800           0
     37066 TIP3     4874     TIP3     OH2      OT      -0.834000       15.9994           0
     37067 TIP3     4874     TIP3     H1       HT       0.417000       1.00800           0
     37068 TIP3     4874     TIP3     H2       HT       0.417000       1.00800           0
     37069 TIP3     4875     TIP3     OH2      OT      -0.834000       15.9994           0
     37070 TIP3     4875     TIP3     H1       HT       0.417000       1.00800           0
     37071 TIP3     4875     TIP3     H2       HT       0.417000       1.00800           0
     37072 TIP3     4876     TIP3     OH2      OT      -0.834000       15.9994           0
     37073 TIP3     4876     TIP3     H1       HT       0.417000       1.00800           0
     37074 TIP3     4876     TIP3     H2       HT       0.417000       1.00800           0
     37075 TIP3     4877     TIP3     OH2      OT      -0.834000       15.9994           0
     37076 TIP3     4877     TIP3     H1       HT       0.417000       1.00800           0
     37077 TIP3     4877     TIP3     H2       HT       0.417000       1.00800           0
     37078 TIP3     4878     TIP3     OH2      OT      -0.834000       15.9994           0
     37079 TIP3     4878     TIP3     H1       HT       0.417000       1.00800           0
     37080 TIP3     4878     TIP3     H2       HT       0.417000       1.00800           0
     37081 TIP3     4879     TIP3     OH2      OT      -0.834000       15.9994           0
     37082 TIP3     4879     TIP3     H1       HT       0.417000       1.00800           0
     37083 TIP3     4879     TIP3     H2       HT       0.417000       1.00800           0
     37084 TIP3     4880     TIP3     OH2      OT      -0.834000       15.9994           0
     37085 TIP3     4880     TIP3     H1       HT       0.417000       1.00800           0
     37086 TIP3     4880     TIP3     H2       HT       0.417000       1.00800           0
     37087 TIP3     4881     TIP3     OH2      OT      -0.834000       15.9994           0
     37088 TIP3     4881     TIP3     H1       HT       0.417000       1.00800           0
     37089 TIP3     4881     TIP3     H2       HT       0.417000       1.00800           0
     37090 TIP3     4882     TIP3     OH2      OT      -0.834000       15.9994           0
     37091 TIP3     4882     TIP3     H1       HT       0.417000       1.00800           0
     37092 TIP3     4882     TIP3     H2       HT       0.417000       1.00800           0
     37093 TIP3     4883     TIP3     OH2      OT      -0.834000       15.9994           0
     37094 TIP3     4883     TIP3     H1       HT       0.417000       1.00800           0
     37095 TIP3     4883     TIP3     H2       HT       0.417000       1.00800           0
     37096 TIP3     4884     TIP3     OH2      OT      -0.834000       15.9994           0
     37097 TIP3     4884     TIP3     H1       HT       0.417000       1.00800           0
     37098 TIP3     4884     TIP3     H2       HT       0.417000       1.00800           0
     37099 TIP3     4885     TIP3     OH2      OT      -0.834000       15.9994           0
     37100 TIP3     4885     TIP3     H1       HT       0.417000       1.00800           0
     37101 TIP3     4885     TIP3     H2       HT       0.417000       1.00800           0
     37102 TIP3     4886     TIP3     OH2      OT      -0.834000       15.9994           0
     37103 TIP3     4886     TIP3     H1       HT       0.417000       1.00800           0
     37104 TIP3     4886     TIP3     H2       HT       0.417000       1.00800           0
     37105 TIP3     4887     TIP3     OH2      OT      -0.834000       15.9994           0
     37106 TIP3     4887     TIP3     H1       HT       0.417000       1.00800           0
     37107 TIP3     4887     TIP3     H2       HT       0.417000       1.00800           0
     37108 TIP3     4888     TIP3     OH2      OT      -0.834000       15.9994           0
     37109 TIP3     4888     TIP3     H1       HT       0.417000       1.00800           0
     37110 TIP3     4888     TIP3     H2       HT       0.417000       1.00800           0
     37111 TIP3     4889     TIP3     OH2      OT      -0.834000       15.9994           0
     37112 TIP3     4889     TIP3     H1       HT       0.417000       1.00800           0
     37113 TIP3     4889     TIP3     H2       HT       0.417000       1.00800           0
     37114 TIP3     4890     TIP3     OH2      OT      -0.834000       15.9994           0
     37115 TIP3     4890     TIP3     H1       HT       0.417000       1.00800           0
     37116 TIP3     4890     TIP3     H2       HT       0.417000       1.00800           0
     37117 TIP3     4891     TIP3     OH2      OT      -0.834000       15.9994           0
     37118 TIP3     4891     TIP3     H1       HT       0.417000       1.00800           0
     37119 TIP3     4891     TIP3     H2       HT       0.417000       1.00800           0
     37120 TIP3     4892     TIP3     OH2      OT      -0.834000       15.9994           0
     37121 TIP3     4892     TIP3     H1       HT       0.417000       1.00800           0
     37122 TIP3     4892     TIP3     H2       HT       0.417000       1.00800           0
     37123 TIP3     4893     TIP3     OH2      OT      -0.834000       15.9994           0
     37124 TIP3     4893     TIP3     H1       HT       0.417000       1.00800           0
     37125 TIP3     4893     TIP3     H2       HT       0.417000       1.00800           0
     37126 TIP3     4894     TIP3     OH2      OT      -0.834000       15.9994           0
     37127 TIP3     4894     TIP3     H1       HT       0.417000       1.00800           0
     37128 TIP3     4894     TIP3     H2       HT       0.417000       1.00800           0
     37129 TIP3     4895     TIP3     OH2      OT      -0.834000       15.9994           0
     37130 TIP3     4895     TIP3     H1       HT       0.417000       1.00800           0
     37131 TIP3     4895     TIP3     H2       HT       0.417000       1.00800           0
     37132 TIP3     4896     TIP3     OH2      OT      -0.834000       15.9994           0
     37133 TIP3     4896     TIP3     H1       HT       0.417000       1.00800           0
     37134 TIP3     4896     TIP3     H2       HT       0.417000       1.00800           0
     37135 TIP3     4897     TIP3     OH2      OT      -0.834000       15.9994           0
     37136 TIP3     4897     TIP3     H1       HT       0.417000       1.00800           0
     37137 TIP3     4897     TIP3     H2       HT       0.417000       1.00800           0
     37138 TIP3     4898     TIP3     OH2      OT      -0.834000       15.9994           0
     37139 TIP3     4898     TIP3     H1       HT       0.417000       1.00800           0
     37140 TIP3     4898     TIP3     H2       HT       0.417000       1.00800           0
     37141 TIP3     4899     TIP3     OH2      OT      -0.834000       15.9994           0
     37142 TIP3     4899     TIP3     H1       HT       0.417000       1.00800           0
     37143 TIP3     4899     TIP3     H2       HT       0.417000       1.00800           0
     37144 TIP3     4900     TIP3     OH2      OT      -0.834000       15.9994           0
     37145 TIP3     4900     TIP3     H1       HT       0.417000       1.00800           0
     37146 TIP3     4900     TIP3     H2       HT       0.417000       1.00800           0
     37147 TIP3     4901     TIP3     OH2      OT      -0.834000       15.9994           0
     37148 TIP3     4901     TIP3     H1       HT       0.417000       1.00800           0
     37149 TIP3     4901     TIP3     H2       HT       0.417000       1.00800           0
     37150 TIP3     4902     TIP3     OH2      OT      -0.834000       15.9994           0
     37151 TIP3     4902     TIP3     H1       HT       0.417000       1.00800           0
     37152 TIP3     4902     TIP3     H2       HT       0.417000       1.00800           0
     37153 TIP3     4903     TIP3     OH2      OT      -0.834000       15.9994           0
     37154 TIP3     4903     TIP3     H1       HT       0.417000       1.00800           0
     37155 TIP3     4903     TIP3     H2       HT       0.417000       1.00800           0
     37156 TIP3     4904     TIP3     OH2      OT      -0.834000       15.9994           0
     37157 TIP3     4904     TIP3     H1       HT       0.417000       1.00800           0
     37158 TIP3     4904     TIP3     H2       HT       0.417000       1.00800           0
     37159 TIP3     4905     TIP3     OH2      OT      -0.834000       15.9994           0
     37160 TIP3     4905     TIP3     H1       HT       0.417000       1.00800           0
     37161 TIP3     4905     TIP3     H2       HT       0.417000       1.00800           0
     37162 TIP3     4906     TIP3     OH2      OT      -0.834000       15.9994           0
     37163 TIP3     4906     TIP3     H1       HT       0.417000       1.00800           0
     37164 TIP3     4906     TIP3     H2       HT       0.417000       1.00800           0
     37165 TIP3     4907     TIP3     OH2      OT      -0.834000       15.9994           0
     37166 TIP3     4907     TIP3     H1       HT       0.417000       1.00800           0
     37167 TIP3     4907     TIP3     H2       HT       0.417000       1.00800           0
     37168 TIP3     4908     TIP3     OH2      OT      -0.834000       15.9994           0
     37169 TIP3     4908     TIP3     H1       HT       0.417000       1.00800           0
     37170 TIP3     4908     TIP3     H2       HT       0.417000       1.00800           0
     37171 TIP3     4909     TIP3     OH2      OT      -0.834000       15.9994           0
     37172 TIP3     4909     TIP3     H1       HT       0.417000       1.00800           0
     37173 TIP3     4909     TIP3     H2       HT       0.417000       1.00800           0
     37174 TIP3     4910     TIP3     OH2      OT      -0.834000       15.9994           0
     37175 TIP3     4910     TIP3     H1       HT       0.417000       1.00800           0
     37176 TIP3     4910     TIP3     H2       HT       0.417000       1.00800           0
     37177 TIP3     4911     TIP3     OH2      OT      -0.834000       15.9994           0
     37178 TIP3     4911     TIP3     H1       HT       0.417000       1.00800           0
     37179 TIP3     4911     TIP3     H2       HT       0.417000       1.00800           0
     37180 TIP3     4912     TIP3     OH2      OT      -0.834000       15.9994           0
     37181 TIP3     4912     TIP3     H1       HT       0.417000       1.00800           0
     37182 TIP3     4912     TIP3     H2       HT       0.417000       1.00800           0
     37183 TIP3     4913     TIP3     OH2      OT      -0.834000       15.9994           0
     37184 TIP3     4913     TIP3     H1       HT       0.417000       1.00800           0
     37185 TIP3     4913     TIP3     H2       HT       0.417000       1.00800           0
     37186 TIP3     4914     TIP3     OH2      OT      -0.834000       15.9994           0
     37187 TIP3     4914     TIP3     H1       HT       0.417000       1.00800           0
     37188 TIP3     4914     TIP3     H2       HT       0.417000       1.00800           0
     37189 TIP3     4915     TIP3     OH2      OT      -0.834000       15.9994           0
     37190 TIP3     4915     TIP3     H1       HT       0.417000       1.00800           0
     37191 TIP3     4915     TIP3     H2       HT       0.417000       1.00800           0
     37192 TIP3     4916     TIP3     OH2      OT      -0.834000       15.9994           0
     37193 TIP3     4916     TIP3     H1       HT       0.417000       1.00800           0
     37194 TIP3     4916     TIP3     H2       HT       0.417000       1.00800           0
     37195 TIP3     4917     TIP3     OH2      OT      -0.834000       15.9994           0
     37196 TIP3     4917     TIP3     H1       HT       0.417000       1.00800           0
     37197 TIP3     4917     TIP3     H2       HT       0.417000       1.00800           0
     37198 TIP3     4918     TIP3     OH2      OT      -0.834000       15.9994           0
     37199 TIP3     4918     TIP3     H1       HT       0.417000       1.00800           0
     37200 TIP3     4918     TIP3     H2       HT       0.417000       1.00800           0
     37201 TIP3     4919     TIP3     OH2      OT      -0.834000       15.9994           0
     37202 TIP3     4919     TIP3     H1       HT       0.417000       1.00800           0
     37203 TIP3     4919     TIP3     H2       HT       0.417000       1.00800           0
     37204 TIP3     4920     TIP3     OH2      OT      -0.834000       15.9994           0
     37205 TIP3     4920     TIP3     H1       HT       0.417000       1.00800           0
     37206 TIP3     4920     TIP3     H2       HT       0.417000       1.00800           0
     37207 TIP3     4921     TIP3     OH2      OT      -0.834000       15.9994           0
     37208 TIP3     4921     TIP3     H1       HT       0.417000       1.00800           0
     37209 TIP3     4921     TIP3     H2       HT       0.417000       1.00800           0
     37210 TIP3     4922     TIP3     OH2      OT      -0.834000       15.9994           0
     37211 TIP3     4922     TIP3     H1       HT       0.417000       1.00800           0
     37212 TIP3     4922     TIP3     H2       HT       0.417000       1.00800           0
     37213 TIP3     4923     TIP3     OH2      OT      -0.834000       15.9994           0
     37214 TIP3     4923     TIP3     H1       HT       0.417000       1.00800           0
     37215 TIP3     4923     TIP3     H2       HT       0.417000       1.00800           0
     37216 TIP3     4924     TIP3     OH2      OT      -0.834000       15.9994           0
     37217 TIP3     4924     TIP3     H1       HT       0.417000       1.00800           0
     37218 TIP3     4924     TIP3     H2       HT       0.417000       1.00800           0
     37219 TIP3     4925     TIP3     OH2      OT      -0.834000       15.9994           0
     37220 TIP3     4925     TIP3     H1       HT       0.417000       1.00800           0
     37221 TIP3     4925     TIP3     H2       HT       0.417000       1.00800           0
     37222 TIP3     4926     TIP3     OH2      OT      -0.834000       15.9994           0
     37223 TIP3     4926     TIP3     H1       HT       0.417000       1.00800           0
     37224 TIP3     4926     TIP3     H2       HT       0.417000       1.00800           0
     37225 TIP3     4927     TIP3     OH2      OT      -0.834000       15.9994           0
     37226 TIP3     4927     TIP3     H1       HT       0.417000       1.00800           0
     37227 TIP3     4927     TIP3     H2       HT       0.417000       1.00800           0
     37228 TIP3     4928     TIP3     OH2      OT      -0.834000       15.9994           0
     37229 TIP3     4928     TIP3     H1       HT       0.417000       1.00800           0
     37230 TIP3     4928     TIP3     H2       HT       0.417000       1.00800           0
     37231 TIP3     4929     TIP3     OH2      OT      -0.834000       15.9994           0
     37232 TIP3     4929     TIP3     H1       HT       0.417000       1.00800           0
     37233 TIP3     4929     TIP3     H2       HT       0.417000       1.00800           0
     37234 TIP3     4930     TIP3     OH2      OT      -0.834000       15.9994           0
     37235 TIP3     4930     TIP3     H1       HT       0.417000       1.00800           0
     37236 TIP3     4930     TIP3     H2       HT       0.417000       1.00800           0
     37237 TIP3     4931     TIP3     OH2      OT      -0.834000       15.9994           0
     37238 TIP3     4931     TIP3     H1       HT       0.417000       1.00800           0
     37239 TIP3     4931     TIP3     H2       HT       0.417000       1.00800           0
     37240 TIP3     4932     TIP3     OH2      OT      -0.834000       15.9994           0
     37241 TIP3     4932     TIP3     H1       HT       0.417000       1.00800           0
     37242 TIP3     4932     TIP3     H2       HT       0.417000       1.00800           0
     37243 TIP3     4933     TIP3     OH2      OT      -0.834000       15.9994           0
     37244 TIP3     4933     TIP3     H1       HT       0.417000       1.00800           0
     37245 TIP3     4933     TIP3     H2       HT       0.417000       1.00800           0
     37246 TIP3     4934     TIP3     OH2      OT      -0.834000       15.9994           0
     37247 TIP3     4934     TIP3     H1       HT       0.417000       1.00800           0
     37248 TIP3     4934     TIP3     H2       HT       0.417000       1.00800           0
     37249 TIP3     4935     TIP3     OH2      OT      -0.834000       15.9994           0
     37250 TIP3     4935     TIP3     H1       HT       0.417000       1.00800           0
     37251 TIP3     4935     TIP3     H2       HT       0.417000       1.00800           0
     37252 TIP3     4936     TIP3     OH2      OT      -0.834000       15.9994           0
     37253 TIP3     4936     TIP3     H1       HT       0.417000       1.00800           0
     37254 TIP3     4936     TIP3     H2       HT       0.417000       1.00800           0
     37255 TIP3     4937     TIP3     OH2      OT      -0.834000       15.9994           0
     37256 TIP3     4937     TIP3     H1       HT       0.417000       1.00800           0
     37257 TIP3     4937     TIP3     H2       HT       0.417000       1.00800           0
     37258 TIP3     4938     TIP3     OH2      OT      -0.834000       15.9994           0
     37259 TIP3     4938     TIP3     H1       HT       0.417000       1.00800           0
     37260 TIP3     4938     TIP3     H2       HT       0.417000       1.00800           0
     37261 TIP3     4939     TIP3     OH2      OT      -0.834000       15.9994           0
     37262 TIP3     4939     TIP3     H1       HT       0.417000       1.00800           0
     37263 TIP3     4939     TIP3     H2       HT       0.417000       1.00800           0
     37264 TIP3     4940     TIP3     OH2      OT      -0.834000       15.9994           0
     37265 TIP3     4940     TIP3     H1       HT       0.417000       1.00800           0
     37266 TIP3     4940     TIP3     H2       HT       0.417000       1.00800           0
     37267 TIP3     4941     TIP3     OH2      OT      -0.834000       15.9994           0
     37268 TIP3     4941     TIP3     H1       HT       0.417000       1.00800           0
     37269 TIP3     4941     TIP3     H2       HT       0.417000       1.00800           0
     37270 TIP3     4942     TIP3     OH2      OT      -0.834000       15.9994           0
     37271 TIP3     4942     TIP3     H1       HT       0.417000       1.00800           0
     37272 TIP3     4942     TIP3     H2       HT       0.417000       1.00800           0
     37273 TIP3     4943     TIP3     OH2      OT      -0.834000       15.9994           0
     37274 TIP3     4943     TIP3     H1       HT       0.417000       1.00800           0
     37275 TIP3     4943     TIP3     H2       HT       0.417000       1.00800           0
     37276 TIP3     4944     TIP3     OH2      OT      -0.834000       15.9994           0
     37277 TIP3     4944     TIP3     H1       HT       0.417000       1.00800           0
     37278 TIP3     4944     TIP3     H2       HT       0.417000       1.00800           0
     37279 TIP3     4945     TIP3     OH2      OT      -0.834000       15.9994           0
     37280 TIP3     4945     TIP3     H1       HT       0.417000       1.00800           0
     37281 TIP3     4945     TIP3     H2       HT       0.417000       1.00800           0
     37282 TIP3     4946     TIP3     OH2      OT      -0.834000       15.9994           0
     37283 TIP3     4946     TIP3     H1       HT       0.417000       1.00800           0
     37284 TIP3     4946     TIP3     H2       HT       0.417000       1.00800           0
     37285 TIP3     4947     TIP3     OH2      OT      -0.834000       15.9994           0
     37286 TIP3     4947     TIP3     H1       HT       0.417000       1.00800           0
     37287 TIP3     4947     TIP3     H2       HT       0.417000       1.00800           0
     37288 TIP3     4948     TIP3     OH2      OT      -0.834000       15.9994           0
     37289 TIP3     4948     TIP3     H1       HT       0.417000       1.00800           0
     37290 TIP3     4948     TIP3     H2       HT       0.417000       1.00800           0
     37291 TIP3     4949     TIP3     OH2      OT      -0.834000       15.9994           0
     37292 TIP3     4949     TIP3     H1       HT       0.417000       1.00800           0
     37293 TIP3     4949     TIP3     H2       HT       0.417000       1.00800           0
     37294 TIP3     4950     TIP3     OH2      OT      -0.834000       15.9994           0
     37295 TIP3     4950     TIP3     H1       HT       0.417000       1.00800           0
     37296 TIP3     4950     TIP3     H2       HT       0.417000       1.00800           0
     37297 TIP3     4951     TIP3     OH2      OT      -0.834000       15.9994           0
     37298 TIP3     4951     TIP3     H1       HT       0.417000       1.00800           0
     37299 TIP3     4951     TIP3     H2       HT       0.417000       1.00800           0
     37300 TIP3     4952     TIP3     OH2      OT      -0.834000       15.9994           0
     37301 TIP3     4952     TIP3     H1       HT       0.417000       1.00800           0
     37302 TIP3     4952     TIP3     H2       HT       0.417000       1.00800           0
     37303 TIP3     4953     TIP3     OH2      OT      -0.834000       15.9994           0
     37304 TIP3     4953     TIP3     H1       HT       0.417000       1.00800           0
     37305 TIP3     4953     TIP3     H2       HT       0.417000       1.00800           0
     37306 TIP3     4954     TIP3     OH2      OT      -0.834000       15.9994           0
     37307 TIP3     4954     TIP3     H1       HT       0.417000       1.00800           0
     37308 TIP3     4954     TIP3     H2       HT       0.417000       1.00800           0
     37309 TIP3     4955     TIP3     OH2      OT      -0.834000       15.9994           0
     37310 TIP3     4955     TIP3     H1       HT       0.417000       1.00800           0
     37311 TIP3     4955     TIP3     H2       HT       0.417000       1.00800           0
     37312 TIP3     4956     TIP3     OH2      OT      -0.834000       15.9994           0
     37313 TIP3     4956     TIP3     H1       HT       0.417000       1.00800           0
     37314 TIP3     4956     TIP3     H2       HT       0.417000       1.00800           0
     37315 TIP3     4957     TIP3     OH2      OT      -0.834000       15.9994           0
     37316 TIP3     4957     TIP3     H1       HT       0.417000       1.00800           0
     37317 TIP3     4957     TIP3     H2       HT       0.417000       1.00800           0
     37318 TIP3     4958     TIP3     OH2      OT      -0.834000       15.9994           0
     37319 TIP3     4958     TIP3     H1       HT       0.417000       1.00800           0
     37320 TIP3     4958     TIP3     H2       HT       0.417000       1.00800           0
     37321 TIP3     4959     TIP3     OH2      OT      -0.834000       15.9994           0
     37322 TIP3     4959     TIP3     H1       HT       0.417000       1.00800           0
     37323 TIP3     4959     TIP3     H2       HT       0.417000       1.00800           0
     37324 TIP3     4960     TIP3     OH2      OT      -0.834000       15.9994           0
     37325 TIP3     4960     TIP3     H1       HT       0.417000       1.00800           0
     37326 TIP3     4960     TIP3     H2       HT       0.417000       1.00800           0
     37327 TIP3     4961     TIP3     OH2      OT      -0.834000       15.9994           0
     37328 TIP3     4961     TIP3     H1       HT       0.417000       1.00800           0
     37329 TIP3     4961     TIP3     H2       HT       0.417000       1.00800           0
     37330 TIP3     4962     TIP3     OH2      OT      -0.834000       15.9994           0
     37331 TIP3     4962     TIP3     H1       HT       0.417000       1.00800           0
     37332 TIP3     4962     TIP3     H2       HT       0.417000       1.00800           0
     37333 TIP3     4963     TIP3     OH2      OT      -0.834000       15.9994           0
     37334 TIP3     4963     TIP3     H1       HT       0.417000       1.00800           0
     37335 TIP3     4963     TIP3     H2       HT       0.417000       1.00800           0
     37336 TIP3     4964     TIP3     OH2      OT      -0.834000       15.9994           0
     37337 TIP3     4964     TIP3     H1       HT       0.417000       1.00800           0
     37338 TIP3     4964     TIP3     H2       HT       0.417000       1.00800           0
     37339 TIP3     4965     TIP3     OH2      OT      -0.834000       15.9994           0
     37340 TIP3     4965     TIP3     H1       HT       0.417000       1.00800           0
     37341 TIP3     4965     TIP3     H2       HT       0.417000       1.00800           0
     37342 TIP3     4966     TIP3     OH2      OT      -0.834000       15.9994           0
     37343 TIP3     4966     TIP3     H1       HT       0.417000       1.00800           0
     37344 TIP3     4966     TIP3     H2       HT       0.417000       1.00800           0
     37345 TIP3     4967     TIP3     OH2      OT      -0.834000       15.9994           0
     37346 TIP3     4967     TIP3     H1       HT       0.417000       1.00800           0
     37347 TIP3     4967     TIP3     H2       HT       0.417000       1.00800           0
     37348 TIP3     4968     TIP3     OH2      OT      -0.834000       15.9994           0
     37349 TIP3     4968     TIP3     H1       HT       0.417000       1.00800           0
     37350 TIP3     4968     TIP3     H2       HT       0.417000       1.00800           0
     37351 TIP3     4969     TIP3     OH2      OT      -0.834000       15.9994           0
     37352 TIP3     4969     TIP3     H1       HT       0.417000       1.00800           0
     37353 TIP3     4969     TIP3     H2       HT       0.417000       1.00800           0
     37354 TIP3     4970     TIP3     OH2      OT      -0.834000       15.9994           0
     37355 TIP3     4970     TIP3     H1       HT       0.417000       1.00800           0
     37356 TIP3     4970     TIP3     H2       HT       0.417000       1.00800           0
     37357 TIP3     4971     TIP3     OH2      OT      -0.834000       15.9994           0
     37358 TIP3     4971     TIP3     H1       HT       0.417000       1.00800           0
     37359 TIP3     4971     TIP3     H2       HT       0.417000       1.00800           0
     37360 TIP3     4972     TIP3     OH2      OT      -0.834000       15.9994           0
     37361 TIP3     4972     TIP3     H1       HT       0.417000       1.00800           0
     37362 TIP3     4972     TIP3     H2       HT       0.417000       1.00800           0
     37363 TIP3     4973     TIP3     OH2      OT      -0.834000       15.9994           0
     37364 TIP3     4973     TIP3     H1       HT       0.417000       1.00800           0
     37365 TIP3     4973     TIP3     H2       HT       0.417000       1.00800           0
     37366 TIP3     4974     TIP3     OH2      OT      -0.834000       15.9994           0
     37367 TIP3     4974     TIP3     H1       HT       0.417000       1.00800           0
     37368 TIP3     4974     TIP3     H2       HT       0.417000       1.00800           0
     37369 TIP3     4975     TIP3     OH2      OT      -0.834000       15.9994           0
     37370 TIP3     4975     TIP3     H1       HT       0.417000       1.00800           0
     37371 TIP3     4975     TIP3     H2       HT       0.417000       1.00800           0
     37372 TIP3     4976     TIP3     OH2      OT      -0.834000       15.9994           0
     37373 TIP3     4976     TIP3     H1       HT       0.417000       1.00800           0
     37374 TIP3     4976     TIP3     H2       HT       0.417000       1.00800           0
     37375 TIP3     4977     TIP3     OH2      OT      -0.834000       15.9994           0
     37376 TIP3     4977     TIP3     H1       HT       0.417000       1.00800           0
     37377 TIP3     4977     TIP3     H2       HT       0.417000       1.00800           0
     37378 TIP3     4978     TIP3     OH2      OT      -0.834000       15.9994           0
     37379 TIP3     4978     TIP3     H1       HT       0.417000       1.00800           0
     37380 TIP3     4978     TIP3     H2       HT       0.417000       1.00800           0
     37381 TIP3     4979     TIP3     OH2      OT      -0.834000       15.9994           0
     37382 TIP3     4979     TIP3     H1       HT       0.417000       1.00800           0
     37383 TIP3     4979     TIP3     H2       HT       0.417000       1.00800           0
     37384 TIP3     4980     TIP3     OH2      OT      -0.834000       15.9994           0
     37385 TIP3     4980     TIP3     H1       HT       0.417000       1.00800           0
     37386 TIP3     4980     TIP3     H2       HT       0.417000       1.00800           0
     37387 TIP3     4981     TIP3     OH2      OT      -0.834000       15.9994           0
     37388 TIP3     4981     TIP3     H1       HT       0.417000       1.00800           0
     37389 TIP3     4981     TIP3     H2       HT       0.417000       1.00800           0
     37390 TIP3     4982     TIP3     OH2      OT      -0.834000       15.9994           0
     37391 TIP3     4982     TIP3     H1       HT       0.417000       1.00800           0
     37392 TIP3     4982     TIP3     H2       HT       0.417000       1.00800           0
     37393 TIP3     4983     TIP3     OH2      OT      -0.834000       15.9994           0
     37394 TIP3     4983     TIP3     H1       HT       0.417000       1.00800           0
     37395 TIP3     4983     TIP3     H2       HT       0.417000       1.00800           0
     37396 TIP3     4984     TIP3     OH2      OT      -0.834000       15.9994           0
     37397 TIP3     4984     TIP3     H1       HT       0.417000       1.00800           0
     37398 TIP3     4984     TIP3     H2       HT       0.417000       1.00800           0
     37399 TIP3     4985     TIP3     OH2      OT      -0.834000       15.9994           0
     37400 TIP3     4985     TIP3     H1       HT       0.417000       1.00800           0
     37401 TIP3     4985     TIP3     H2       HT       0.417000       1.00800           0
     37402 TIP3     4986     TIP3     OH2      OT      -0.834000       15.9994           0
     37403 TIP3     4986     TIP3     H1       HT       0.417000       1.00800           0
     37404 TIP3     4986     TIP3     H2       HT       0.417000       1.00800           0
     37405 TIP3     4987     TIP3     OH2      OT      -0.834000       15.9994           0
     37406 TIP3     4987     TIP3     H1       HT       0.417000       1.00800           0
     37407 TIP3     4987     TIP3     H2       HT       0.417000       1.00800           0
     37408 TIP3     4988     TIP3     OH2      OT      -0.834000       15.9994           0
     37409 TIP3     4988     TIP3     H1       HT       0.417000       1.00800           0
     37410 TIP3     4988     TIP3     H2       HT       0.417000       1.00800           0
     37411 TIP3     4989     TIP3     OH2      OT      -0.834000       15.9994           0
     37412 TIP3     4989     TIP3     H1       HT       0.417000       1.00800           0
     37413 TIP3     4989     TIP3     H2       HT       0.417000       1.00800           0
     37414 TIP3     4990     TIP3     OH2      OT      -0.834000       15.9994           0
     37415 TIP3     4990     TIP3     H1       HT       0.417000       1.00800           0
     37416 TIP3     4990     TIP3     H2       HT       0.417000       1.00800           0
     37417 TIP3     4991     TIP3     OH2      OT      -0.834000       15.9994           0
     37418 TIP3     4991     TIP3     H1       HT       0.417000       1.00800           0
     37419 TIP3     4991     TIP3     H2       HT       0.417000       1.00800           0
     37420 TIP3     4992     TIP3     OH2      OT      -0.834000       15.9994           0
     37421 TIP3     4992     TIP3     H1       HT       0.417000       1.00800           0
     37422 TIP3     4992     TIP3     H2       HT       0.417000       1.00800           0
     37423 TIP3     4993     TIP3     OH2      OT      -0.834000       15.9994           0
     37424 TIP3     4993     TIP3     H1       HT       0.417000       1.00800           0
     37425 TIP3     4993     TIP3     H2       HT       0.417000       1.00800           0
     37426 TIP3     4994     TIP3     OH2      OT      -0.834000       15.9994           0
     37427 TIP3     4994     TIP3     H1       HT       0.417000       1.00800           0
     37428 TIP3     4994     TIP3     H2       HT       0.417000       1.00800           0
     37429 TIP3     4995     TIP3     OH2      OT      -0.834000       15.9994           0
     37430 TIP3     4995     TIP3     H1       HT       0.417000       1.00800           0
     37431 TIP3     4995     TIP3     H2       HT       0.417000       1.00800           0
     37432 TIP3     4996     TIP3     OH2      OT      -0.834000       15.9994           0
     37433 TIP3     4996     TIP3     H1       HT       0.417000       1.00800           0
     37434 TIP3     4996     TIP3     H2       HT       0.417000       1.00800           0
     37435 TIP3     4997     TIP3     OH2      OT      -0.834000       15.9994           0
     37436 TIP3     4997     TIP3     H1       HT       0.417000       1.00800           0
     37437 TIP3     4997     TIP3     H2       HT       0.417000       1.00800           0
     37438 TIP3     4998     TIP3     OH2      OT      -0.834000       15.9994           0
     37439 TIP3     4998     TIP3     H1       HT       0.417000       1.00800           0
     37440 TIP3     4998     TIP3     H2       HT       0.417000       1.00800           0
     37441 TIP3     4999     TIP3     OH2      OT      -0.834000       15.9994           0
     37442 TIP3     4999     TIP3     H1       HT       0.417000       1.00800           0
     37443 TIP3     4999     TIP3     H2       HT       0.417000       1.00800           0
     37444 TIP3     5000     TIP3     OH2      OT      -0.834000       15.9994           0
     37445 TIP3     5000     TIP3     H1       HT       0.417000       1.00800           0
     37446 TIP3     5000     TIP3     H2       HT       0.417000       1.00800           0
     37447 TIP3     5001     TIP3     OH2      OT      -0.834000       15.9994           0
     37448 TIP3     5001     TIP3     H1       HT       0.417000       1.00800           0
     37449 TIP3     5001     TIP3     H2       HT       0.417000       1.00800           0
     37450 TIP3     5002     TIP3     OH2      OT      -0.834000       15.9994           0
     37451 TIP3     5002     TIP3     H1       HT       0.417000       1.00800           0
     37452 TIP3     5002     TIP3     H2       HT       0.417000       1.00800           0
     37453 TIP3     5003     TIP3     OH2      OT      -0.834000       15.9994           0
     37454 TIP3     5003     TIP3     H1       HT       0.417000       1.00800           0
     37455 TIP3     5003     TIP3     H2       HT       0.417000       1.00800           0
     37456 TIP3     5004     TIP3     OH2      OT      -0.834000       15.9994           0
     37457 TIP3     5004     TIP3     H1       HT       0.417000       1.00800           0
     37458 TIP3     5004     TIP3     H2       HT       0.417000       1.00800           0
     37459 TIP3     5005     TIP3     OH2      OT      -0.834000       15.9994           0
     37460 TIP3     5005     TIP3     H1       HT       0.417000       1.00800           0
     37461 TIP3     5005     TIP3     H2       HT       0.417000       1.00800           0
     37462 TIP3     5006     TIP3     OH2      OT      -0.834000       15.9994           0
     37463 TIP3     5006     TIP3     H1       HT       0.417000       1.00800           0
     37464 TIP3     5006     TIP3     H2       HT       0.417000       1.00800           0
     37465 TIP3     5007     TIP3     OH2      OT      -0.834000       15.9994           0
     37466 TIP3     5007     TIP3     H1       HT       0.417000       1.00800           0
     37467 TIP3     5007     TIP3     H2       HT       0.417000       1.00800           0
     37468 TIP3     5008     TIP3     OH2      OT      -0.834000       15.9994           0
     37469 TIP3     5008     TIP3     H1       HT       0.417000       1.00800           0
     37470 TIP3     5008     TIP3     H2       HT       0.417000       1.00800           0
     37471 TIP3     5009     TIP3     OH2      OT      -0.834000       15.9994           0
     37472 TIP3     5009     TIP3     H1       HT       0.417000       1.00800           0
     37473 TIP3     5009     TIP3     H2       HT       0.417000       1.00800           0
     37474 TIP3     5010     TIP3     OH2      OT      -0.834000       15.9994           0
     37475 TIP3     5010     TIP3     H1       HT       0.417000       1.00800           0
     37476 TIP3     5010     TIP3     H2       HT       0.417000       1.00800           0
     37477 TIP3     5011     TIP3     OH2      OT      -0.834000       15.9994           0
     37478 TIP3     5011     TIP3     H1       HT       0.417000       1.00800           0
     37479 TIP3     5011     TIP3     H2       HT       0.417000       1.00800           0
     37480 TIP3     5012     TIP3     OH2      OT      -0.834000       15.9994           0
     37481 TIP3     5012     TIP3     H1       HT       0.417000       1.00800           0
     37482 TIP3     5012     TIP3     H2       HT       0.417000       1.00800           0
     37483 TIP3     5013     TIP3     OH2      OT      -0.834000       15.9994           0
     37484 TIP3     5013     TIP3     H1       HT       0.417000       1.00800           0
     37485 TIP3     5013     TIP3     H2       HT       0.417000       1.00800           0
     37486 TIP3     5014     TIP3     OH2      OT      -0.834000       15.9994           0
     37487 TIP3     5014     TIP3     H1       HT       0.417000       1.00800           0
     37488 TIP3     5014     TIP3     H2       HT       0.417000       1.00800           0
     37489 TIP3     5015     TIP3     OH2      OT      -0.834000       15.9994           0
     37490 TIP3     5015     TIP3     H1       HT       0.417000       1.00800           0
     37491 TIP3     5015     TIP3     H2       HT       0.417000       1.00800           0
     37492 TIP3     5016     TIP3     OH2      OT      -0.834000       15.9994           0
     37493 TIP3     5016     TIP3     H1       HT       0.417000       1.00800           0
     37494 TIP3     5016     TIP3     H2       HT       0.417000       1.00800           0
     37495 TIP3     5017     TIP3     OH2      OT      -0.834000       15.9994           0
     37496 TIP3     5017     TIP3     H1       HT       0.417000       1.00800           0
     37497 TIP3     5017     TIP3     H2       HT       0.417000       1.00800           0
     37498 TIP3     5018     TIP3     OH2      OT      -0.834000       15.9994           0
     37499 TIP3     5018     TIP3     H1       HT       0.417000       1.00800           0
     37500 TIP3     5018     TIP3     H2       HT       0.417000       1.00800           0
     37501 TIP3     5019     TIP3     OH2      OT      -0.834000       15.9994           0
     37502 TIP3     5019     TIP3     H1       HT       0.417000       1.00800           0
     37503 TIP3     5019     TIP3     H2       HT       0.417000       1.00800           0
     37504 TIP3     5020     TIP3     OH2      OT      -0.834000       15.9994           0
     37505 TIP3     5020     TIP3     H1       HT       0.417000       1.00800           0
     37506 TIP3     5020     TIP3     H2       HT       0.417000       1.00800           0
     37507 TIP3     5021     TIP3     OH2      OT      -0.834000       15.9994           0
     37508 TIP3     5021     TIP3     H1       HT       0.417000       1.00800           0
     37509 TIP3     5021     TIP3     H2       HT       0.417000       1.00800           0
     37510 TIP3     5022     TIP3     OH2      OT      -0.834000       15.9994           0
     37511 TIP3     5022     TIP3     H1       HT       0.417000       1.00800           0
     37512 TIP3     5022     TIP3     H2       HT       0.417000       1.00800           0
     37513 TIP3     5023     TIP3     OH2      OT      -0.834000       15.9994           0
     37514 TIP3     5023     TIP3     H1       HT       0.417000       1.00800           0
     37515 TIP3     5023     TIP3     H2       HT       0.417000       1.00800           0
     37516 TIP3     5024     TIP3     OH2      OT      -0.834000       15.9994           0
     37517 TIP3     5024     TIP3     H1       HT       0.417000       1.00800           0
     37518 TIP3     5024     TIP3     H2       HT       0.417000       1.00800           0
     37519 TIP3     5025     TIP3     OH2      OT      -0.834000       15.9994           0
     37520 TIP3     5025     TIP3     H1       HT       0.417000       1.00800           0
     37521 TIP3     5025     TIP3     H2       HT       0.417000       1.00800           0
     37522 TIP3     5026     TIP3     OH2      OT      -0.834000       15.9994           0
     37523 TIP3     5026     TIP3     H1       HT       0.417000       1.00800           0
     37524 TIP3     5026     TIP3     H2       HT       0.417000       1.00800           0
     37525 TIP3     5027     TIP3     OH2      OT      -0.834000       15.9994           0
     37526 TIP3     5027     TIP3     H1       HT       0.417000       1.00800           0
     37527 TIP3     5027     TIP3     H2       HT       0.417000       1.00800           0
     37528 TIP3     5028     TIP3     OH2      OT      -0.834000       15.9994           0
     37529 TIP3     5028     TIP3     H1       HT       0.417000       1.00800           0
     37530 TIP3     5028     TIP3     H2       HT       0.417000       1.00800           0
     37531 TIP3     5029     TIP3     OH2      OT      -0.834000       15.9994           0
     37532 TIP3     5029     TIP3     H1       HT       0.417000       1.00800           0
     37533 TIP3     5029     TIP3     H2       HT       0.417000       1.00800           0
     37534 TIP3     5030     TIP3     OH2      OT      -0.834000       15.9994           0
     37535 TIP3     5030     TIP3     H1       HT       0.417000       1.00800           0
     37536 TIP3     5030     TIP3     H2       HT       0.417000       1.00800           0
     37537 TIP3     5031     TIP3     OH2      OT      -0.834000       15.9994           0
     37538 TIP3     5031     TIP3     H1       HT       0.417000       1.00800           0
     37539 TIP3     5031     TIP3     H2       HT       0.417000       1.00800           0
     37540 TIP3     5032     TIP3     OH2      OT      -0.834000       15.9994           0
     37541 TIP3     5032     TIP3     H1       HT       0.417000       1.00800           0
     37542 TIP3     5032     TIP3     H2       HT       0.417000       1.00800           0
     37543 TIP3     5033     TIP3     OH2      OT      -0.834000       15.9994           0
     37544 TIP3     5033     TIP3     H1       HT       0.417000       1.00800           0
     37545 TIP3     5033     TIP3     H2       HT       0.417000       1.00800           0
     37546 TIP3     5034     TIP3     OH2      OT      -0.834000       15.9994           0
     37547 TIP3     5034     TIP3     H1       HT       0.417000       1.00800           0
     37548 TIP3     5034     TIP3     H2       HT       0.417000       1.00800           0
     37549 TIP3     5035     TIP3     OH2      OT      -0.834000       15.9994           0
     37550 TIP3     5035     TIP3     H1       HT       0.417000       1.00800           0
     37551 TIP3     5035     TIP3     H2       HT       0.417000       1.00800           0
     37552 TIP3     5036     TIP3     OH2      OT      -0.834000       15.9994           0
     37553 TIP3     5036     TIP3     H1       HT       0.417000       1.00800           0
     37554 TIP3     5036     TIP3     H2       HT       0.417000       1.00800           0
     37555 TIP3     5037     TIP3     OH2      OT      -0.834000       15.9994           0
     37556 TIP3     5037     TIP3     H1       HT       0.417000       1.00800           0
     37557 TIP3     5037     TIP3     H2       HT       0.417000       1.00800           0
     37558 TIP3     5038     TIP3     OH2      OT      -0.834000       15.9994           0
     37559 TIP3     5038     TIP3     H1       HT       0.417000       1.00800           0
     37560 TIP3     5038     TIP3     H2       HT       0.417000       1.00800           0
     37561 TIP3     5039     TIP3     OH2      OT      -0.834000       15.9994           0
     37562 TIP3     5039     TIP3     H1       HT       0.417000       1.00800           0
     37563 TIP3     5039     TIP3     H2       HT       0.417000       1.00800           0
     37564 TIP3     5040     TIP3     OH2      OT      -0.834000       15.9994           0
     37565 TIP3     5040     TIP3     H1       HT       0.417000       1.00800           0
     37566 TIP3     5040     TIP3     H2       HT       0.417000       1.00800           0
     37567 TIP3     5041     TIP3     OH2      OT      -0.834000       15.9994           0
     37568 TIP3     5041     TIP3     H1       HT       0.417000       1.00800           0
     37569 TIP3     5041     TIP3     H2       HT       0.417000       1.00800           0
     37570 TIP3     5042     TIP3     OH2      OT      -0.834000       15.9994           0
     37571 TIP3     5042     TIP3     H1       HT       0.417000       1.00800           0
     37572 TIP3     5042     TIP3     H2       HT       0.417000       1.00800           0
     37573 TIP3     5043     TIP3     OH2      OT      -0.834000       15.9994           0
     37574 TIP3     5043     TIP3     H1       HT       0.417000       1.00800           0
     37575 TIP3     5043     TIP3     H2       HT       0.417000       1.00800           0
     37576 TIP3     5044     TIP3     OH2      OT      -0.834000       15.9994           0
     37577 TIP3     5044     TIP3     H1       HT       0.417000       1.00800           0
     37578 TIP3     5044     TIP3     H2       HT       0.417000       1.00800           0
     37579 TIP3     5045     TIP3     OH2      OT      -0.834000       15.9994           0
     37580 TIP3     5045     TIP3     H1       HT       0.417000       1.00800           0
     37581 TIP3     5045     TIP3     H2       HT       0.417000       1.00800           0
     37582 TIP3     5046     TIP3     OH2      OT      -0.834000       15.9994           0
     37583 TIP3     5046     TIP3     H1       HT       0.417000       1.00800           0
     37584 TIP3     5046     TIP3     H2       HT       0.417000       1.00800           0
     37585 TIP3     5047     TIP3     OH2      OT      -0.834000       15.9994           0
     37586 TIP3     5047     TIP3     H1       HT       0.417000       1.00800           0
     37587 TIP3     5047     TIP3     H2       HT       0.417000       1.00800           0
     37588 TIP3     5048     TIP3     OH2      OT      -0.834000       15.9994           0
     37589 TIP3     5048     TIP3     H1       HT       0.417000       1.00800           0
     37590 TIP3     5048     TIP3     H2       HT       0.417000       1.00800           0
     37591 TIP3     5049     TIP3     OH2      OT      -0.834000       15.9994           0
     37592 TIP3     5049     TIP3     H1       HT       0.417000       1.00800           0
     37593 TIP3     5049     TIP3     H2       HT       0.417000       1.00800           0
     37594 TIP3     5050     TIP3     OH2      OT      -0.834000       15.9994           0
     37595 TIP3     5050     TIP3     H1       HT       0.417000       1.00800           0
     37596 TIP3     5050     TIP3     H2       HT       0.417000       1.00800           0
     37597 TIP3     5051     TIP3     OH2      OT      -0.834000       15.9994           0
     37598 TIP3     5051     TIP3     H1       HT       0.417000       1.00800           0
     37599 TIP3     5051     TIP3     H2       HT       0.417000       1.00800           0
     37600 TIP3     5052     TIP3     OH2      OT      -0.834000       15.9994           0
     37601 TIP3     5052     TIP3     H1       HT       0.417000       1.00800           0
     37602 TIP3     5052     TIP3     H2       HT       0.417000       1.00800           0
     37603 TIP3     5053     TIP3     OH2      OT      -0.834000       15.9994           0
     37604 TIP3     5053     TIP3     H1       HT       0.417000       1.00800           0
     37605 TIP3     5053     TIP3     H2       HT       0.417000       1.00800           0
     37606 TIP3     5054     TIP3     OH2      OT      -0.834000       15.9994           0
     37607 TIP3     5054     TIP3     H1       HT       0.417000       1.00800           0
     37608 TIP3     5054     TIP3     H2       HT       0.417000       1.00800           0
     37609 TIP3     5055     TIP3     OH2      OT      -0.834000       15.9994           0
     37610 TIP3     5055     TIP3     H1       HT       0.417000       1.00800           0
     37611 TIP3     5055     TIP3     H2       HT       0.417000       1.00800           0
     37612 TIP3     5056     TIP3     OH2      OT      -0.834000       15.9994           0
     37613 TIP3     5056     TIP3     H1       HT       0.417000       1.00800           0
     37614 TIP3     5056     TIP3     H2       HT       0.417000       1.00800           0
     37615 TIP3     5057     TIP3     OH2      OT      -0.834000       15.9994           0
     37616 TIP3     5057     TIP3     H1       HT       0.417000       1.00800           0
     37617 TIP3     5057     TIP3     H2       HT       0.417000       1.00800           0
     37618 TIP3     5058     TIP3     OH2      OT      -0.834000       15.9994           0
     37619 TIP3     5058     TIP3     H1       HT       0.417000       1.00800           0
     37620 TIP3     5058     TIP3     H2       HT       0.417000       1.00800           0
     37621 TIP3     5059     TIP3     OH2      OT      -0.834000       15.9994           0
     37622 TIP3     5059     TIP3     H1       HT       0.417000       1.00800           0
     37623 TIP3     5059     TIP3     H2       HT       0.417000       1.00800           0
     37624 TIP3     5060     TIP3     OH2      OT      -0.834000       15.9994           0
     37625 TIP3     5060     TIP3     H1       HT       0.417000       1.00800           0
     37626 TIP3     5060     TIP3     H2       HT       0.417000       1.00800           0
     37627 TIP3     5061     TIP3     OH2      OT      -0.834000       15.9994           0
     37628 TIP3     5061     TIP3     H1       HT       0.417000       1.00800           0
     37629 TIP3     5061     TIP3     H2       HT       0.417000       1.00800           0
     37630 TIP3     5062     TIP3     OH2      OT      -0.834000       15.9994           0
     37631 TIP3     5062     TIP3     H1       HT       0.417000       1.00800           0
     37632 TIP3     5062     TIP3     H2       HT       0.417000       1.00800           0
     37633 TIP3     5063     TIP3     OH2      OT      -0.834000       15.9994           0
     37634 TIP3     5063     TIP3     H1       HT       0.417000       1.00800           0
     37635 TIP3     5063     TIP3     H2       HT       0.417000       1.00800           0
     37636 TIP3     5064     TIP3     OH2      OT      -0.834000       15.9994           0
     37637 TIP3     5064     TIP3     H1       HT       0.417000       1.00800           0
     37638 TIP3     5064     TIP3     H2       HT       0.417000       1.00800           0
     37639 TIP3     5065     TIP3     OH2      OT      -0.834000       15.9994           0
     37640 TIP3     5065     TIP3     H1       HT       0.417000       1.00800           0
     37641 TIP3     5065     TIP3     H2       HT       0.417000       1.00800           0
     37642 TIP3     5066     TIP3     OH2      OT      -0.834000       15.9994           0
     37643 TIP3     5066     TIP3     H1       HT       0.417000       1.00800           0
     37644 TIP3     5066     TIP3     H2       HT       0.417000       1.00800           0
     37645 TIP3     5067     TIP3     OH2      OT      -0.834000       15.9994           0
     37646 TIP3     5067     TIP3     H1       HT       0.417000       1.00800           0
     37647 TIP3     5067     TIP3     H2       HT       0.417000       1.00800           0
     37648 TIP3     5068     TIP3     OH2      OT      -0.834000       15.9994           0
     37649 TIP3     5068     TIP3     H1       HT       0.417000       1.00800           0
     37650 TIP3     5068     TIP3     H2       HT       0.417000       1.00800           0
     37651 TIP3     5069     TIP3     OH2      OT      -0.834000       15.9994           0
     37652 TIP3     5069     TIP3     H1       HT       0.417000       1.00800           0
     37653 TIP3     5069     TIP3     H2       HT       0.417000       1.00800           0
     37654 TIP3     5070     TIP3     OH2      OT      -0.834000       15.9994           0
     37655 TIP3     5070     TIP3     H1       HT       0.417000       1.00800           0
     37656 TIP3     5070     TIP3     H2       HT       0.417000       1.00800           0
     37657 TIP3     5071     TIP3     OH2      OT      -0.834000       15.9994           0
     37658 TIP3     5071     TIP3     H1       HT       0.417000       1.00800           0
     37659 TIP3     5071     TIP3     H2       HT       0.417000       1.00800           0
     37660 TIP3     5072     TIP3     OH2      OT      -0.834000       15.9994           0
     37661 TIP3     5072     TIP3     H1       HT       0.417000       1.00800           0
     37662 TIP3     5072     TIP3     H2       HT       0.417000       1.00800           0
     37663 TIP3     5073     TIP3     OH2      OT      -0.834000       15.9994           0
     37664 TIP3     5073     TIP3     H1       HT       0.417000       1.00800           0
     37665 TIP3     5073     TIP3     H2       HT       0.417000       1.00800           0
     37666 TIP3     5074     TIP3     OH2      OT      -0.834000       15.9994           0
     37667 TIP3     5074     TIP3     H1       HT       0.417000       1.00800           0
     37668 TIP3     5074     TIP3     H2       HT       0.417000       1.00800           0
     37669 TIP3     5075     TIP3     OH2      OT      -0.834000       15.9994           0
     37670 TIP3     5075     TIP3     H1       HT       0.417000       1.00800           0
     37671 TIP3     5075     TIP3     H2       HT       0.417000       1.00800           0
     37672 TIP3     5076     TIP3     OH2      OT      -0.834000       15.9994           0
     37673 TIP3     5076     TIP3     H1       HT       0.417000       1.00800           0
     37674 TIP3     5076     TIP3     H2       HT       0.417000       1.00800           0
     37675 TIP3     5077     TIP3     OH2      OT      -0.834000       15.9994           0
     37676 TIP3     5077     TIP3     H1       HT       0.417000       1.00800           0
     37677 TIP3     5077     TIP3     H2       HT       0.417000       1.00800           0
     37678 TIP3     5078     TIP3     OH2      OT      -0.834000       15.9994           0
     37679 TIP3     5078     TIP3     H1       HT       0.417000       1.00800           0
     37680 TIP3     5078     TIP3     H2       HT       0.417000       1.00800           0
     37681 TIP3     5079     TIP3     OH2      OT      -0.834000       15.9994           0
     37682 TIP3     5079     TIP3     H1       HT       0.417000       1.00800           0
     37683 TIP3     5079     TIP3     H2       HT       0.417000       1.00800           0
     37684 TIP3     5080     TIP3     OH2      OT      -0.834000       15.9994           0
     37685 TIP3     5080     TIP3     H1       HT       0.417000       1.00800           0
     37686 TIP3     5080     TIP3     H2       HT       0.417000       1.00800           0
     37687 TIP3     5081     TIP3     OH2      OT      -0.834000       15.9994           0
     37688 TIP3     5081     TIP3     H1       HT       0.417000       1.00800           0
     37689 TIP3     5081     TIP3     H2       HT       0.417000       1.00800           0
     37690 TIP3     5082     TIP3     OH2      OT      -0.834000       15.9994           0
     37691 TIP3     5082     TIP3     H1       HT       0.417000       1.00800           0
     37692 TIP3     5082     TIP3     H2       HT       0.417000       1.00800           0
     37693 TIP3     5083     TIP3     OH2      OT      -0.834000       15.9994           0
     37694 TIP3     5083     TIP3     H1       HT       0.417000       1.00800           0
     37695 TIP3     5083     TIP3     H2       HT       0.417000       1.00800           0
     37696 TIP3     5084     TIP3     OH2      OT      -0.834000       15.9994           0
     37697 TIP3     5084     TIP3     H1       HT       0.417000       1.00800           0
     37698 TIP3     5084     TIP3     H2       HT       0.417000       1.00800           0
     37699 TIP3     5085     TIP3     OH2      OT      -0.834000       15.9994           0
     37700 TIP3     5085     TIP3     H1       HT       0.417000       1.00800           0
     37701 TIP3     5085     TIP3     H2       HT       0.417000       1.00800           0
     37702 TIP3     5086     TIP3     OH2      OT      -0.834000       15.9994           0
     37703 TIP3     5086     TIP3     H1       HT       0.417000       1.00800           0
     37704 TIP3     5086     TIP3     H2       HT       0.417000       1.00800           0
     37705 TIP3     5087     TIP3     OH2      OT      -0.834000       15.9994           0
     37706 TIP3     5087     TIP3     H1       HT       0.417000       1.00800           0
     37707 TIP3     5087     TIP3     H2       HT       0.417000       1.00800           0
     37708 TIP3     5088     TIP3     OH2      OT      -0.834000       15.9994           0
     37709 TIP3     5088     TIP3     H1       HT       0.417000       1.00800           0
     37710 TIP3     5088     TIP3     H2       HT       0.417000       1.00800           0
     37711 TIP3     5089     TIP3     OH2      OT      -0.834000       15.9994           0
     37712 TIP3     5089     TIP3     H1       HT       0.417000       1.00800           0
     37713 TIP3     5089     TIP3     H2       HT       0.417000       1.00800           0
     37714 TIP3     5090     TIP3     OH2      OT      -0.834000       15.9994           0
     37715 TIP3     5090     TIP3     H1       HT       0.417000       1.00800           0
     37716 TIP3     5090     TIP3     H2       HT       0.417000       1.00800           0
     37717 TIP3     5091     TIP3     OH2      OT      -0.834000       15.9994           0
     37718 TIP3     5091     TIP3     H1       HT       0.417000       1.00800           0
     37719 TIP3     5091     TIP3     H2       HT       0.417000       1.00800           0
     37720 TIP3     5092     TIP3     OH2      OT      -0.834000       15.9994           0
     37721 TIP3     5092     TIP3     H1       HT       0.417000       1.00800           0
     37722 TIP3     5092     TIP3     H2       HT       0.417000       1.00800           0
     37723 TIP3     5093     TIP3     OH2      OT      -0.834000       15.9994           0
     37724 TIP3     5093     TIP3     H1       HT       0.417000       1.00800           0
     37725 TIP3     5093     TIP3     H2       HT       0.417000       1.00800           0
     37726 TIP3     5094     TIP3     OH2      OT      -0.834000       15.9994           0
     37727 TIP3     5094     TIP3     H1       HT       0.417000       1.00800           0
     37728 TIP3     5094     TIP3     H2       HT       0.417000       1.00800           0
     37729 TIP3     5095     TIP3     OH2      OT      -0.834000       15.9994           0
     37730 TIP3     5095     TIP3     H1       HT       0.417000       1.00800           0
     37731 TIP3     5095     TIP3     H2       HT       0.417000       1.00800           0
     37732 TIP3     5096     TIP3     OH2      OT      -0.834000       15.9994           0
     37733 TIP3     5096     TIP3     H1       HT       0.417000       1.00800           0
     37734 TIP3     5096     TIP3     H2       HT       0.417000       1.00800           0
     37735 TIP3     5097     TIP3     OH2      OT      -0.834000       15.9994           0
     37736 TIP3     5097     TIP3     H1       HT       0.417000       1.00800           0
     37737 TIP3     5097     TIP3     H2       HT       0.417000       1.00800           0
     37738 TIP3     5098     TIP3     OH2      OT      -0.834000       15.9994           0
     37739 TIP3     5098     TIP3     H1       HT       0.417000       1.00800           0
     37740 TIP3     5098     TIP3     H2       HT       0.417000       1.00800           0
     37741 TIP3     5099     TIP3     OH2      OT      -0.834000       15.9994           0
     37742 TIP3     5099     TIP3     H1       HT       0.417000       1.00800           0
     37743 TIP3     5099     TIP3     H2       HT       0.417000       1.00800           0
     37744 TIP3     5100     TIP3     OH2      OT      -0.834000       15.9994           0
     37745 TIP3     5100     TIP3     H1       HT       0.417000       1.00800           0
     37746 TIP3     5100     TIP3     H2       HT       0.417000       1.00800           0
     37747 TIP3     5101     TIP3     OH2      OT      -0.834000       15.9994           0
     37748 TIP3     5101     TIP3     H1       HT       0.417000       1.00800           0
     37749 TIP3     5101     TIP3     H2       HT       0.417000       1.00800           0
     37750 TIP3     5102     TIP3     OH2      OT      -0.834000       15.9994           0
     37751 TIP3     5102     TIP3     H1       HT       0.417000       1.00800           0
     37752 TIP3     5102     TIP3     H2       HT       0.417000       1.00800           0
     37753 TIP3     5103     TIP3     OH2      OT      -0.834000       15.9994           0
     37754 TIP3     5103     TIP3     H1       HT       0.417000       1.00800           0
     37755 TIP3     5103     TIP3     H2       HT       0.417000       1.00800           0
     37756 TIP3     5104     TIP3     OH2      OT      -0.834000       15.9994           0
     37757 TIP3     5104     TIP3     H1       HT       0.417000       1.00800           0
     37758 TIP3     5104     TIP3     H2       HT       0.417000       1.00800           0
     37759 TIP3     5105     TIP3     OH2      OT      -0.834000       15.9994           0
     37760 TIP3     5105     TIP3     H1       HT       0.417000       1.00800           0
     37761 TIP3     5105     TIP3     H2       HT       0.417000       1.00800           0
     37762 TIP3     5106     TIP3     OH2      OT      -0.834000       15.9994           0
     37763 TIP3     5106     TIP3     H1       HT       0.417000       1.00800           0
     37764 TIP3     5106     TIP3     H2       HT       0.417000       1.00800           0
     37765 TIP3     5107     TIP3     OH2      OT      -0.834000       15.9994           0
     37766 TIP3     5107     TIP3     H1       HT       0.417000       1.00800           0
     37767 TIP3     5107     TIP3     H2       HT       0.417000       1.00800           0
     37768 TIP3     5108     TIP3     OH2      OT      -0.834000       15.9994           0
     37769 TIP3     5108     TIP3     H1       HT       0.417000       1.00800           0
     37770 TIP3     5108     TIP3     H2       HT       0.417000       1.00800           0
     37771 TIP3     5109     TIP3     OH2      OT      -0.834000       15.9994           0
     37772 TIP3     5109     TIP3     H1       HT       0.417000       1.00800           0
     37773 TIP3     5109     TIP3     H2       HT       0.417000       1.00800           0
     37774 TIP3     5110     TIP3     OH2      OT      -0.834000       15.9994           0
     37775 TIP3     5110     TIP3     H1       HT       0.417000       1.00800           0
     37776 TIP3     5110     TIP3     H2       HT       0.417000       1.00800           0
     37777 TIP3     5111     TIP3     OH2      OT      -0.834000       15.9994           0
     37778 TIP3     5111     TIP3     H1       HT       0.417000       1.00800           0
     37779 TIP3     5111     TIP3     H2       HT       0.417000       1.00800           0
     37780 TIP3     5112     TIP3     OH2      OT      -0.834000       15.9994           0
     37781 TIP3     5112     TIP3     H1       HT       0.417000       1.00800           0
     37782 TIP3     5112     TIP3     H2       HT       0.417000       1.00800           0
     37783 TIP3     5113     TIP3     OH2      OT      -0.834000       15.9994           0
     37784 TIP3     5113     TIP3     H1       HT       0.417000       1.00800           0
     37785 TIP3     5113     TIP3     H2       HT       0.417000       1.00800           0
     37786 TIP3     5114     TIP3     OH2      OT      -0.834000       15.9994           0
     37787 TIP3     5114     TIP3     H1       HT       0.417000       1.00800           0
     37788 TIP3     5114     TIP3     H2       HT       0.417000       1.00800           0
     37789 TIP3     5115     TIP3     OH2      OT      -0.834000       15.9994           0
     37790 TIP3     5115     TIP3     H1       HT       0.417000       1.00800           0
     37791 TIP3     5115     TIP3     H2       HT       0.417000       1.00800           0
     37792 TIP3     5116     TIP3     OH2      OT      -0.834000       15.9994           0
     37793 TIP3     5116     TIP3     H1       HT       0.417000       1.00800           0
     37794 TIP3     5116     TIP3     H2       HT       0.417000       1.00800           0
     37795 TIP3     5117     TIP3     OH2      OT      -0.834000       15.9994           0
     37796 TIP3     5117     TIP3     H1       HT       0.417000       1.00800           0
     37797 TIP3     5117     TIP3     H2       HT       0.417000       1.00800           0
     37798 TIP3     5118     TIP3     OH2      OT      -0.834000       15.9994           0
     37799 TIP3     5118     TIP3     H1       HT       0.417000       1.00800           0
     37800 TIP3     5118     TIP3     H2       HT       0.417000       1.00800           0
     37801 TIP3     5119     TIP3     OH2      OT      -0.834000       15.9994           0
     37802 TIP3     5119     TIP3     H1       HT       0.417000       1.00800           0
     37803 TIP3     5119     TIP3     H2       HT       0.417000       1.00800           0
     37804 TIP3     5120     TIP3     OH2      OT      -0.834000       15.9994           0
     37805 TIP3     5120     TIP3     H1       HT       0.417000       1.00800           0
     37806 TIP3     5120     TIP3     H2       HT       0.417000       1.00800           0
     37807 TIP3     5121     TIP3     OH2      OT      -0.834000       15.9994           0
     37808 TIP3     5121     TIP3     H1       HT       0.417000       1.00800           0
     37809 TIP3     5121     TIP3     H2       HT       0.417000       1.00800           0
     37810 TIP3     5122     TIP3     OH2      OT      -0.834000       15.9994           0
     37811 TIP3     5122     TIP3     H1       HT       0.417000       1.00800           0
     37812 TIP3     5122     TIP3     H2       HT       0.417000       1.00800           0
     37813 TIP3     5123     TIP3     OH2      OT      -0.834000       15.9994           0
     37814 TIP3     5123     TIP3     H1       HT       0.417000       1.00800           0
     37815 TIP3     5123     TIP3     H2       HT       0.417000       1.00800           0
     37816 TIP3     5124     TIP3     OH2      OT      -0.834000       15.9994           0
     37817 TIP3     5124     TIP3     H1       HT       0.417000       1.00800           0
     37818 TIP3     5124     TIP3     H2       HT       0.417000       1.00800           0
     37819 TIP3     5125     TIP3     OH2      OT      -0.834000       15.9994           0
     37820 TIP3     5125     TIP3     H1       HT       0.417000       1.00800           0
     37821 TIP3     5125     TIP3     H2       HT       0.417000       1.00800           0
     37822 TIP3     5126     TIP3     OH2      OT      -0.834000       15.9994           0
     37823 TIP3     5126     TIP3     H1       HT       0.417000       1.00800           0
     37824 TIP3     5126     TIP3     H2       HT       0.417000       1.00800           0
     37825 TIP3     5127     TIP3     OH2      OT      -0.834000       15.9994           0
     37826 TIP3     5127     TIP3     H1       HT       0.417000       1.00800           0
     37827 TIP3     5127     TIP3     H2       HT       0.417000       1.00800           0
     37828 TIP3     5128     TIP3     OH2      OT      -0.834000       15.9994           0
     37829 TIP3     5128     TIP3     H1       HT       0.417000       1.00800           0
     37830 TIP3     5128     TIP3     H2       HT       0.417000       1.00800           0
     37831 TIP3     5129     TIP3     OH2      OT      -0.834000       15.9994           0
     37832 TIP3     5129     TIP3     H1       HT       0.417000       1.00800           0
     37833 TIP3     5129     TIP3     H2       HT       0.417000       1.00800           0
     37834 TIP3     5130     TIP3     OH2      OT      -0.834000       15.9994           0
     37835 TIP3     5130     TIP3     H1       HT       0.417000       1.00800           0
     37836 TIP3     5130     TIP3     H2       HT       0.417000       1.00800           0
     37837 TIP3     5131     TIP3     OH2      OT      -0.834000       15.9994           0
     37838 TIP3     5131     TIP3     H1       HT       0.417000       1.00800           0
     37839 TIP3     5131     TIP3     H2       HT       0.417000       1.00800           0
     37840 TIP3     5132     TIP3     OH2      OT      -0.834000       15.9994           0
     37841 TIP3     5132     TIP3     H1       HT       0.417000       1.00800           0
     37842 TIP3     5132     TIP3     H2       HT       0.417000       1.00800           0
     37843 TIP3     5133     TIP3     OH2      OT      -0.834000       15.9994           0
     37844 TIP3     5133     TIP3     H1       HT       0.417000       1.00800           0
     37845 TIP3     5133     TIP3     H2       HT       0.417000       1.00800           0
     37846 TIP3     5134     TIP3     OH2      OT      -0.834000       15.9994           0
     37847 TIP3     5134     TIP3     H1       HT       0.417000       1.00800           0
     37848 TIP3     5134     TIP3     H2       HT       0.417000       1.00800           0
     37849 TIP3     5135     TIP3     OH2      OT      -0.834000       15.9994           0
     37850 TIP3     5135     TIP3     H1       HT       0.417000       1.00800           0
     37851 TIP3     5135     TIP3     H2       HT       0.417000       1.00800           0
     37852 TIP3     5136     TIP3     OH2      OT      -0.834000       15.9994           0
     37853 TIP3     5136     TIP3     H1       HT       0.417000       1.00800           0
     37854 TIP3     5136     TIP3     H2       HT       0.417000       1.00800           0
     37855 TIP3     5137     TIP3     OH2      OT      -0.834000       15.9994           0
     37856 TIP3     5137     TIP3     H1       HT       0.417000       1.00800           0
     37857 TIP3     5137     TIP3     H2       HT       0.417000       1.00800           0
     37858 TIP3     5138     TIP3     OH2      OT      -0.834000       15.9994           0
     37859 TIP3     5138     TIP3     H1       HT       0.417000       1.00800           0
     37860 TIP3     5138     TIP3     H2       HT       0.417000       1.00800           0
     37861 TIP3     5139     TIP3     OH2      OT      -0.834000       15.9994           0
     37862 TIP3     5139     TIP3     H1       HT       0.417000       1.00800           0
     37863 TIP3     5139     TIP3     H2       HT       0.417000       1.00800           0
     37864 TIP3     5140     TIP3     OH2      OT      -0.834000       15.9994           0
     37865 TIP3     5140     TIP3     H1       HT       0.417000       1.00800           0
     37866 TIP3     5140     TIP3     H2       HT       0.417000       1.00800           0
     37867 TIP3     5141     TIP3     OH2      OT      -0.834000       15.9994           0
     37868 TIP3     5141     TIP3     H1       HT       0.417000       1.00800           0
     37869 TIP3     5141     TIP3     H2       HT       0.417000       1.00800           0
     37870 TIP3     5142     TIP3     OH2      OT      -0.834000       15.9994           0
     37871 TIP3     5142     TIP3     H1       HT       0.417000       1.00800           0
     37872 TIP3     5142     TIP3     H2       HT       0.417000       1.00800           0
     37873 TIP3     5143     TIP3     OH2      OT      -0.834000       15.9994           0
     37874 TIP3     5143     TIP3     H1       HT       0.417000       1.00800           0
     37875 TIP3     5143     TIP3     H2       HT       0.417000       1.00800           0
     37876 TIP3     5144     TIP3     OH2      OT      -0.834000       15.9994           0
     37877 TIP3     5144     TIP3     H1       HT       0.417000       1.00800           0
     37878 TIP3     5144     TIP3     H2       HT       0.417000       1.00800           0
     37879 TIP3     5145     TIP3     OH2      OT      -0.834000       15.9994           0
     37880 TIP3     5145     TIP3     H1       HT       0.417000       1.00800           0
     37881 TIP3     5145     TIP3     H2       HT       0.417000       1.00800           0
     37882 TIP3     5146     TIP3     OH2      OT      -0.834000       15.9994           0
     37883 TIP3     5146     TIP3     H1       HT       0.417000       1.00800           0
     37884 TIP3     5146     TIP3     H2       HT       0.417000       1.00800           0
     37885 TIP3     5147     TIP3     OH2      OT      -0.834000       15.9994           0
     37886 TIP3     5147     TIP3     H1       HT       0.417000       1.00800           0
     37887 TIP3     5147     TIP3     H2       HT       0.417000       1.00800           0
     37888 TIP3     5148     TIP3     OH2      OT      -0.834000       15.9994           0
     37889 TIP3     5148     TIP3     H1       HT       0.417000       1.00800           0
     37890 TIP3     5148     TIP3     H2       HT       0.417000       1.00800           0
     37891 TIP3     5149     TIP3     OH2      OT      -0.834000       15.9994           0
     37892 TIP3     5149     TIP3     H1       HT       0.417000       1.00800           0
     37893 TIP3     5149     TIP3     H2       HT       0.417000       1.00800           0
     37894 TIP3     5150     TIP3     OH2      OT      -0.834000       15.9994           0
     37895 TIP3     5150     TIP3     H1       HT       0.417000       1.00800           0
     37896 TIP3     5150     TIP3     H2       HT       0.417000       1.00800           0
     37897 TIP3     5151     TIP3     OH2      OT      -0.834000       15.9994           0
     37898 TIP3     5151     TIP3     H1       HT       0.417000       1.00800           0
     37899 TIP3     5151     TIP3     H2       HT       0.417000       1.00800           0
     37900 TIP3     5152     TIP3     OH2      OT      -0.834000       15.9994           0
     37901 TIP3     5152     TIP3     H1       HT       0.417000       1.00800           0
     37902 TIP3     5152     TIP3     H2       HT       0.417000       1.00800           0
     37903 TIP3     5153     TIP3     OH2      OT      -0.834000       15.9994           0
     37904 TIP3     5153     TIP3     H1       HT       0.417000       1.00800           0
     37905 TIP3     5153     TIP3     H2       HT       0.417000       1.00800           0
     37906 TIP3     5154     TIP3     OH2      OT      -0.834000       15.9994           0
     37907 TIP3     5154     TIP3     H1       HT       0.417000       1.00800           0
     37908 TIP3     5154     TIP3     H2       HT       0.417000       1.00800           0
     37909 TIP3     5155     TIP3     OH2      OT      -0.834000       15.9994           0
     37910 TIP3     5155     TIP3     H1       HT       0.417000       1.00800           0
     37911 TIP3     5155     TIP3     H2       HT       0.417000       1.00800           0
     37912 TIP3     5156     TIP3     OH2      OT      -0.834000       15.9994           0
     37913 TIP3     5156     TIP3     H1       HT       0.417000       1.00800           0
     37914 TIP3     5156     TIP3     H2       HT       0.417000       1.00800           0
     37915 TIP3     5157     TIP3     OH2      OT      -0.834000       15.9994           0
     37916 TIP3     5157     TIP3     H1       HT       0.417000       1.00800           0
     37917 TIP3     5157     TIP3     H2       HT       0.417000       1.00800           0
     37918 TIP3     5158     TIP3     OH2      OT      -0.834000       15.9994           0
     37919 TIP3     5158     TIP3     H1       HT       0.417000       1.00800           0
     37920 TIP3     5158     TIP3     H2       HT       0.417000       1.00800           0
     37921 TIP3     5159     TIP3     OH2      OT      -0.834000       15.9994           0
     37922 TIP3     5159     TIP3     H1       HT       0.417000       1.00800           0
     37923 TIP3     5159     TIP3     H2       HT       0.417000       1.00800           0
     37924 TIP3     5160     TIP3     OH2      OT      -0.834000       15.9994           0
     37925 TIP3     5160     TIP3     H1       HT       0.417000       1.00800           0
     37926 TIP3     5160     TIP3     H2       HT       0.417000       1.00800           0
     37927 TIP3     5161     TIP3     OH2      OT      -0.834000       15.9994           0
     37928 TIP3     5161     TIP3     H1       HT       0.417000       1.00800           0
     37929 TIP3     5161     TIP3     H2       HT       0.417000       1.00800           0
     37930 TIP3     5162     TIP3     OH2      OT      -0.834000       15.9994           0
     37931 TIP3     5162     TIP3     H1       HT       0.417000       1.00800           0
     37932 TIP3     5162     TIP3     H2       HT       0.417000       1.00800           0
     37933 TIP3     5163     TIP3     OH2      OT      -0.834000       15.9994           0
     37934 TIP3     5163     TIP3     H1       HT       0.417000       1.00800           0
     37935 TIP3     5163     TIP3     H2       HT       0.417000       1.00800           0
     37936 TIP3     5164     TIP3     OH2      OT      -0.834000       15.9994           0
     37937 TIP3     5164     TIP3     H1       HT       0.417000       1.00800           0
     37938 TIP3     5164     TIP3     H2       HT       0.417000       1.00800           0
     37939 TIP3     5165     TIP3     OH2      OT      -0.834000       15.9994           0
     37940 TIP3     5165     TIP3     H1       HT       0.417000       1.00800           0
     37941 TIP3     5165     TIP3     H2       HT       0.417000       1.00800           0
     37942 TIP3     5166     TIP3     OH2      OT      -0.834000       15.9994           0
     37943 TIP3     5166     TIP3     H1       HT       0.417000       1.00800           0
     37944 TIP3     5166     TIP3     H2       HT       0.417000       1.00800           0
     37945 TIP3     5167     TIP3     OH2      OT      -0.834000       15.9994           0
     37946 TIP3     5167     TIP3     H1       HT       0.417000       1.00800           0
     37947 TIP3     5167     TIP3     H2       HT       0.417000       1.00800           0
     37948 TIP3     5168     TIP3     OH2      OT      -0.834000       15.9994           0
     37949 TIP3     5168     TIP3     H1       HT       0.417000       1.00800           0
     37950 TIP3     5168     TIP3     H2       HT       0.417000       1.00800           0
     37951 TIP3     5169     TIP3     OH2      OT      -0.834000       15.9994           0
     37952 TIP3     5169     TIP3     H1       HT       0.417000       1.00800           0
     37953 TIP3     5169     TIP3     H2       HT       0.417000       1.00800           0
     37954 TIP3     5170     TIP3     OH2      OT      -0.834000       15.9994           0
     37955 TIP3     5170     TIP3     H1       HT       0.417000       1.00800           0
     37956 TIP3     5170     TIP3     H2       HT       0.417000       1.00800           0
     37957 TIP3     5171     TIP3     OH2      OT      -0.834000       15.9994           0
     37958 TIP3     5171     TIP3     H1       HT       0.417000       1.00800           0
     37959 TIP3     5171     TIP3     H2       HT       0.417000       1.00800           0
     37960 TIP3     5172     TIP3     OH2      OT      -0.834000       15.9994           0
     37961 TIP3     5172     TIP3     H1       HT       0.417000       1.00800           0
     37962 TIP3     5172     TIP3     H2       HT       0.417000       1.00800           0
     37963 TIP3     5173     TIP3     OH2      OT      -0.834000       15.9994           0
     37964 TIP3     5173     TIP3     H1       HT       0.417000       1.00800           0
     37965 TIP3     5173     TIP3     H2       HT       0.417000       1.00800           0
     37966 TIP3     5174     TIP3     OH2      OT      -0.834000       15.9994           0
     37967 TIP3     5174     TIP3     H1       HT       0.417000       1.00800           0
     37968 TIP3     5174     TIP3     H2       HT       0.417000       1.00800           0
     37969 TIP3     5175     TIP3     OH2      OT      -0.834000       15.9994           0
     37970 TIP3     5175     TIP3     H1       HT       0.417000       1.00800           0
     37971 TIP3     5175     TIP3     H2       HT       0.417000       1.00800           0
     37972 TIP3     5176     TIP3     OH2      OT      -0.834000       15.9994           0
     37973 TIP3     5176     TIP3     H1       HT       0.417000       1.00800           0
     37974 TIP3     5176     TIP3     H2       HT       0.417000       1.00800           0
     37975 TIP3     5177     TIP3     OH2      OT      -0.834000       15.9994           0
     37976 TIP3     5177     TIP3     H1       HT       0.417000       1.00800           0
     37977 TIP3     5177     TIP3     H2       HT       0.417000       1.00800           0
     37978 TIP3     5178     TIP3     OH2      OT      -0.834000       15.9994           0
     37979 TIP3     5178     TIP3     H1       HT       0.417000       1.00800           0
     37980 TIP3     5178     TIP3     H2       HT       0.417000       1.00800           0
     37981 TIP3     5179     TIP3     OH2      OT      -0.834000       15.9994           0
     37982 TIP3     5179     TIP3     H1       HT       0.417000       1.00800           0
     37983 TIP3     5179     TIP3     H2       HT       0.417000       1.00800           0
     37984 TIP3     5180     TIP3     OH2      OT      -0.834000       15.9994           0
     37985 TIP3     5180     TIP3     H1       HT       0.417000       1.00800           0
     37986 TIP3     5180     TIP3     H2       HT       0.417000       1.00800           0
     37987 TIP3     5181     TIP3     OH2      OT      -0.834000       15.9994           0
     37988 TIP3     5181     TIP3     H1       HT       0.417000       1.00800           0
     37989 TIP3     5181     TIP3     H2       HT       0.417000       1.00800           0
     37990 TIP3     5182     TIP3     OH2      OT      -0.834000       15.9994           0
     37991 TIP3     5182     TIP3     H1       HT       0.417000       1.00800           0
     37992 TIP3     5182     TIP3     H2       HT       0.417000       1.00800           0
     37993 TIP3     5183     TIP3     OH2      OT      -0.834000       15.9994           0
     37994 TIP3     5183     TIP3     H1       HT       0.417000       1.00800           0
     37995 TIP3     5183     TIP3     H2       HT       0.417000       1.00800           0
     37996 TIP3     5184     TIP3     OH2      OT      -0.834000       15.9994           0
     37997 TIP3     5184     TIP3     H1       HT       0.417000       1.00800           0
     37998 TIP3     5184     TIP3     H2       HT       0.417000       1.00800           0
     37999 TIP3     5185     TIP3     OH2      OT      -0.834000       15.9994           0
     38000 TIP3     5185     TIP3     H1       HT       0.417000       1.00800           0
     38001 TIP3     5185     TIP3     H2       HT       0.417000       1.00800           0
     38002 TIP3     5186     TIP3     OH2      OT      -0.834000       15.9994           0
     38003 TIP3     5186     TIP3     H1       HT       0.417000       1.00800           0
     38004 TIP3     5186     TIP3     H2       HT       0.417000       1.00800           0
     38005 TIP3     5187     TIP3     OH2      OT      -0.834000       15.9994           0
     38006 TIP3     5187     TIP3     H1       HT       0.417000       1.00800           0
     38007 TIP3     5187     TIP3     H2       HT       0.417000       1.00800           0
     38008 TIP3     5188     TIP3     OH2      OT      -0.834000       15.9994           0
     38009 TIP3     5188     TIP3     H1       HT       0.417000       1.00800           0
     38010 TIP3     5188     TIP3     H2       HT       0.417000       1.00800           0
     38011 TIP3     5189     TIP3     OH2      OT      -0.834000       15.9994           0
     38012 TIP3     5189     TIP3     H1       HT       0.417000       1.00800           0
     38013 TIP3     5189     TIP3     H2       HT       0.417000       1.00800           0
     38014 TIP3     5190     TIP3     OH2      OT      -0.834000       15.9994           0
     38015 TIP3     5190     TIP3     H1       HT       0.417000       1.00800           0
     38016 TIP3     5190     TIP3     H2       HT       0.417000       1.00800           0
     38017 TIP3     5191     TIP3     OH2      OT      -0.834000       15.9994           0
     38018 TIP3     5191     TIP3     H1       HT       0.417000       1.00800           0
     38019 TIP3     5191     TIP3     H2       HT       0.417000       1.00800           0
     38020 TIP3     5192     TIP3     OH2      OT      -0.834000       15.9994           0
     38021 TIP3     5192     TIP3     H1       HT       0.417000       1.00800           0
     38022 TIP3     5192     TIP3     H2       HT       0.417000       1.00800           0
     38023 TIP3     5193     TIP3     OH2      OT      -0.834000       15.9994           0
     38024 TIP3     5193     TIP3     H1       HT       0.417000       1.00800           0
     38025 TIP3     5193     TIP3     H2       HT       0.417000       1.00800           0
     38026 TIP3     5194     TIP3     OH2      OT      -0.834000       15.9994           0
     38027 TIP3     5194     TIP3     H1       HT       0.417000       1.00800           0
     38028 TIP3     5194     TIP3     H2       HT       0.417000       1.00800           0
     38029 TIP3     5195     TIP3     OH2      OT      -0.834000       15.9994           0
     38030 TIP3     5195     TIP3     H1       HT       0.417000       1.00800           0
     38031 TIP3     5195     TIP3     H2       HT       0.417000       1.00800           0
     38032 TIP3     5196     TIP3     OH2      OT      -0.834000       15.9994           0
     38033 TIP3     5196     TIP3     H1       HT       0.417000       1.00800           0
     38034 TIP3     5196     TIP3     H2       HT       0.417000       1.00800           0
     38035 TIP3     5197     TIP3     OH2      OT      -0.834000       15.9994           0
     38036 TIP3     5197     TIP3     H1       HT       0.417000       1.00800           0
     38037 TIP3     5197     TIP3     H2       HT       0.417000       1.00800           0
     38038 TIP3     5198     TIP3     OH2      OT      -0.834000       15.9994           0
     38039 TIP3     5198     TIP3     H1       HT       0.417000       1.00800           0
     38040 TIP3     5198     TIP3     H2       HT       0.417000       1.00800           0
     38041 TIP3     5199     TIP3     OH2      OT      -0.834000       15.9994           0
     38042 TIP3     5199     TIP3     H1       HT       0.417000       1.00800           0
     38043 TIP3     5199     TIP3     H2       HT       0.417000       1.00800           0
     38044 TIP3     5200     TIP3     OH2      OT      -0.834000       15.9994           0
     38045 TIP3     5200     TIP3     H1       HT       0.417000       1.00800           0
     38046 TIP3     5200     TIP3     H2       HT       0.417000       1.00800           0
     38047 TIP3     5201     TIP3     OH2      OT      -0.834000       15.9994           0
     38048 TIP3     5201     TIP3     H1       HT       0.417000       1.00800           0
     38049 TIP3     5201     TIP3     H2       HT       0.417000       1.00800           0
     38050 TIP3     5202     TIP3     OH2      OT      -0.834000       15.9994           0
     38051 TIP3     5202     TIP3     H1       HT       0.417000       1.00800           0
     38052 TIP3     5202     TIP3     H2       HT       0.417000       1.00800           0
     38053 TIP3     5203     TIP3     OH2      OT      -0.834000       15.9994           0
     38054 TIP3     5203     TIP3     H1       HT       0.417000       1.00800           0
     38055 TIP3     5203     TIP3     H2       HT       0.417000       1.00800           0
     38056 TIP3     5204     TIP3     OH2      OT      -0.834000       15.9994           0
     38057 TIP3     5204     TIP3     H1       HT       0.417000       1.00800           0
     38058 TIP3     5204     TIP3     H2       HT       0.417000       1.00800           0
     38059 TIP3     5205     TIP3     OH2      OT      -0.834000       15.9994           0
     38060 TIP3     5205     TIP3     H1       HT       0.417000       1.00800           0
     38061 TIP3     5205     TIP3     H2       HT       0.417000       1.00800           0
     38062 TIP3     5206     TIP3     OH2      OT      -0.834000       15.9994           0
     38063 TIP3     5206     TIP3     H1       HT       0.417000       1.00800           0
     38064 TIP3     5206     TIP3     H2       HT       0.417000       1.00800           0
     38065 TIP3     5207     TIP3     OH2      OT      -0.834000       15.9994           0
     38066 TIP3     5207     TIP3     H1       HT       0.417000       1.00800           0
     38067 TIP3     5207     TIP3     H2       HT       0.417000       1.00800           0
     38068 TIP3     5208     TIP3     OH2      OT      -0.834000       15.9994           0
     38069 TIP3     5208     TIP3     H1       HT       0.417000       1.00800           0
     38070 TIP3     5208     TIP3     H2       HT       0.417000       1.00800           0
     38071 TIP3     5209     TIP3     OH2      OT      -0.834000       15.9994           0
     38072 TIP3     5209     TIP3     H1       HT       0.417000       1.00800           0
     38073 TIP3     5209     TIP3     H2       HT       0.417000       1.00800           0
     38074 TIP3     5210     TIP3     OH2      OT      -0.834000       15.9994           0
     38075 TIP3     5210     TIP3     H1       HT       0.417000       1.00800           0
     38076 TIP3     5210     TIP3     H2       HT       0.417000       1.00800           0
     38077 TIP3     5211     TIP3     OH2      OT      -0.834000       15.9994           0
     38078 TIP3     5211     TIP3     H1       HT       0.417000       1.00800           0
     38079 TIP3     5211     TIP3     H2       HT       0.417000       1.00800           0
     38080 TIP3     5212     TIP3     OH2      OT      -0.834000       15.9994           0
     38081 TIP3     5212     TIP3     H1       HT       0.417000       1.00800           0
     38082 TIP3     5212     TIP3     H2       HT       0.417000       1.00800           0
     38083 TIP3     5213     TIP3     OH2      OT      -0.834000       15.9994           0
     38084 TIP3     5213     TIP3     H1       HT       0.417000       1.00800           0
     38085 TIP3     5213     TIP3     H2       HT       0.417000       1.00800           0
     38086 TIP3     5214     TIP3     OH2      OT      -0.834000       15.9994           0
     38087 TIP3     5214     TIP3     H1       HT       0.417000       1.00800           0
     38088 TIP3     5214     TIP3     H2       HT       0.417000       1.00800           0
     38089 TIP3     5215     TIP3     OH2      OT      -0.834000       15.9994           0
     38090 TIP3     5215     TIP3     H1       HT       0.417000       1.00800           0
     38091 TIP3     5215     TIP3     H2       HT       0.417000       1.00800           0
     38092 TIP3     5216     TIP3     OH2      OT      -0.834000       15.9994           0
     38093 TIP3     5216     TIP3     H1       HT       0.417000       1.00800           0
     38094 TIP3     5216     TIP3     H2       HT       0.417000       1.00800           0
     38095 TIP3     5217     TIP3     OH2      OT      -0.834000       15.9994           0
     38096 TIP3     5217     TIP3     H1       HT       0.417000       1.00800           0
     38097 TIP3     5217     TIP3     H2       HT       0.417000       1.00800           0
     38098 TIP3     5218     TIP3     OH2      OT      -0.834000       15.9994           0
     38099 TIP3     5218     TIP3     H1       HT       0.417000       1.00800           0
     38100 TIP3     5218     TIP3     H2       HT       0.417000       1.00800           0
     38101 TIP3     5219     TIP3     OH2      OT      -0.834000       15.9994           0
     38102 TIP3     5219     TIP3     H1       HT       0.417000       1.00800           0
     38103 TIP3     5219     TIP3     H2       HT       0.417000       1.00800           0
     38104 TIP3     5220     TIP3     OH2      OT      -0.834000       15.9994           0
     38105 TIP3     5220     TIP3     H1       HT       0.417000       1.00800           0
     38106 TIP3     5220     TIP3     H2       HT       0.417000       1.00800           0
     38107 TIP3     5221     TIP3     OH2      OT      -0.834000       15.9994           0
     38108 TIP3     5221     TIP3     H1       HT       0.417000       1.00800           0
     38109 TIP3     5221     TIP3     H2       HT       0.417000       1.00800           0
     38110 TIP3     5222     TIP3     OH2      OT      -0.834000       15.9994           0
     38111 TIP3     5222     TIP3     H1       HT       0.417000       1.00800           0
     38112 TIP3     5222     TIP3     H2       HT       0.417000       1.00800           0
     38113 TIP3     5223     TIP3     OH2      OT      -0.834000       15.9994           0
     38114 TIP3     5223     TIP3     H1       HT       0.417000       1.00800           0
     38115 TIP3     5223     TIP3     H2       HT       0.417000       1.00800           0
     38116 TIP3     5224     TIP3     OH2      OT      -0.834000       15.9994           0
     38117 TIP3     5224     TIP3     H1       HT       0.417000       1.00800           0
     38118 TIP3     5224     TIP3     H2       HT       0.417000       1.00800           0
     38119 TIP3     5225     TIP3     OH2      OT      -0.834000       15.9994           0
     38120 TIP3     5225     TIP3     H1       HT       0.417000       1.00800           0
     38121 TIP3     5225     TIP3     H2       HT       0.417000       1.00800           0
     38122 TIP3     5226     TIP3     OH2      OT      -0.834000       15.9994           0
     38123 TIP3     5226     TIP3     H1       HT       0.417000       1.00800           0
     38124 TIP3     5226     TIP3     H2       HT       0.417000       1.00800           0
     38125 TIP3     5227     TIP3     OH2      OT      -0.834000       15.9994           0
     38126 TIP3     5227     TIP3     H1       HT       0.417000       1.00800           0
     38127 TIP3     5227     TIP3     H2       HT       0.417000       1.00800           0
     38128 TIP3     5228     TIP3     OH2      OT      -0.834000       15.9994           0
     38129 TIP3     5228     TIP3     H1       HT       0.417000       1.00800           0
     38130 TIP3     5228     TIP3     H2       HT       0.417000       1.00800           0
     38131 TIP3     5229     TIP3     OH2      OT      -0.834000       15.9994           0
     38132 TIP3     5229     TIP3     H1       HT       0.417000       1.00800           0
     38133 TIP3     5229     TIP3     H2       HT       0.417000       1.00800           0
     38134 TIP3     5230     TIP3     OH2      OT      -0.834000       15.9994           0
     38135 TIP3     5230     TIP3     H1       HT       0.417000       1.00800           0
     38136 TIP3     5230     TIP3     H2       HT       0.417000       1.00800           0
     38137 TIP3     5231     TIP3     OH2      OT      -0.834000       15.9994           0
     38138 TIP3     5231     TIP3     H1       HT       0.417000       1.00800           0
     38139 TIP3     5231     TIP3     H2       HT       0.417000       1.00800           0
     38140 TIP3     5232     TIP3     OH2      OT      -0.834000       15.9994           0
     38141 TIP3     5232     TIP3     H1       HT       0.417000       1.00800           0
     38142 TIP3     5232     TIP3     H2       HT       0.417000       1.00800           0
     38143 TIP3     5233     TIP3     OH2      OT      -0.834000       15.9994           0
     38144 TIP3     5233     TIP3     H1       HT       0.417000       1.00800           0
     38145 TIP3     5233     TIP3     H2       HT       0.417000       1.00800           0
     38146 TIP3     5234     TIP3     OH2      OT      -0.834000       15.9994           0
     38147 TIP3     5234     TIP3     H1       HT       0.417000       1.00800           0
     38148 TIP3     5234     TIP3     H2       HT       0.417000       1.00800           0
     38149 TIP3     5235     TIP3     OH2      OT      -0.834000       15.9994           0
     38150 TIP3     5235     TIP3     H1       HT       0.417000       1.00800           0
     38151 TIP3     5235     TIP3     H2       HT       0.417000       1.00800           0
     38152 TIP3     5236     TIP3     OH2      OT      -0.834000       15.9994           0
     38153 TIP3     5236     TIP3     H1       HT       0.417000       1.00800           0
     38154 TIP3     5236     TIP3     H2       HT       0.417000       1.00800           0
     38155 TIP3     5237     TIP3     OH2      OT      -0.834000       15.9994           0
     38156 TIP3     5237     TIP3     H1       HT       0.417000       1.00800           0
     38157 TIP3     5237     TIP3     H2       HT       0.417000       1.00800           0
     38158 TIP3     5238     TIP3     OH2      OT      -0.834000       15.9994           0
     38159 TIP3     5238     TIP3     H1       HT       0.417000       1.00800           0
     38160 TIP3     5238     TIP3     H2       HT       0.417000       1.00800           0
     38161 TIP3     5239     TIP3     OH2      OT      -0.834000       15.9994           0
     38162 TIP3     5239     TIP3     H1       HT       0.417000       1.00800           0
     38163 TIP3     5239     TIP3     H2       HT       0.417000       1.00800           0
     38164 TIP3     5240     TIP3     OH2      OT      -0.834000       15.9994           0
     38165 TIP3     5240     TIP3     H1       HT       0.417000       1.00800           0
     38166 TIP3     5240     TIP3     H2       HT       0.417000       1.00800           0
     38167 TIP3     5241     TIP3     OH2      OT      -0.834000       15.9994           0
     38168 TIP3     5241     TIP3     H1       HT       0.417000       1.00800           0
     38169 TIP3     5241     TIP3     H2       HT       0.417000       1.00800           0
     38170 TIP3     5242     TIP3     OH2      OT      -0.834000       15.9994           0
     38171 TIP3     5242     TIP3     H1       HT       0.417000       1.00800           0
     38172 TIP3     5242     TIP3     H2       HT       0.417000       1.00800           0
     38173 TIP3     5243     TIP3     OH2      OT      -0.834000       15.9994           0
     38174 TIP3     5243     TIP3     H1       HT       0.417000       1.00800           0
     38175 TIP3     5243     TIP3     H2       HT       0.417000       1.00800           0
     38176 TIP3     5244     TIP3     OH2      OT      -0.834000       15.9994           0
     38177 TIP3     5244     TIP3     H1       HT       0.417000       1.00800           0
     38178 TIP3     5244     TIP3     H2       HT       0.417000       1.00800           0
     38179 TIP3     5245     TIP3     OH2      OT      -0.834000       15.9994           0
     38180 TIP3     5245     TIP3     H1       HT       0.417000       1.00800           0
     38181 TIP3     5245     TIP3     H2       HT       0.417000       1.00800           0
     38182 TIP3     5246     TIP3     OH2      OT      -0.834000       15.9994           0
     38183 TIP3     5246     TIP3     H1       HT       0.417000       1.00800           0
     38184 TIP3     5246     TIP3     H2       HT       0.417000       1.00800           0
     38185 TIP3     5247     TIP3     OH2      OT      -0.834000       15.9994           0
     38186 TIP3     5247     TIP3     H1       HT       0.417000       1.00800           0
     38187 TIP3     5247     TIP3     H2       HT       0.417000       1.00800           0
     38188 TIP3     5248     TIP3     OH2      OT      -0.834000       15.9994           0
     38189 TIP3     5248     TIP3     H1       HT       0.417000       1.00800           0
     38190 TIP3     5248     TIP3     H2       HT       0.417000       1.00800           0
     38191 TIP3     5249     TIP3     OH2      OT      -0.834000       15.9994           0
     38192 TIP3     5249     TIP3     H1       HT       0.417000       1.00800           0
     38193 TIP3     5249     TIP3     H2       HT       0.417000       1.00800           0
     38194 TIP3     5250     TIP3     OH2      OT      -0.834000       15.9994           0
     38195 TIP3     5250     TIP3     H1       HT       0.417000       1.00800           0
     38196 TIP3     5250     TIP3     H2       HT       0.417000       1.00800           0
     38197 TIP3     5251     TIP3     OH2      OT      -0.834000       15.9994           0
     38198 TIP3     5251     TIP3     H1       HT       0.417000       1.00800           0
     38199 TIP3     5251     TIP3     H2       HT       0.417000       1.00800           0
     38200 TIP3     5252     TIP3     OH2      OT      -0.834000       15.9994           0
     38201 TIP3     5252     TIP3     H1       HT       0.417000       1.00800           0
     38202 TIP3     5252     TIP3     H2       HT       0.417000       1.00800           0
     38203 TIP3     5253     TIP3     OH2      OT      -0.834000       15.9994           0
     38204 TIP3     5253     TIP3     H1       HT       0.417000       1.00800           0
     38205 TIP3     5253     TIP3     H2       HT       0.417000       1.00800           0
     38206 TIP3     5254     TIP3     OH2      OT      -0.834000       15.9994           0
     38207 TIP3     5254     TIP3     H1       HT       0.417000       1.00800           0
     38208 TIP3     5254     TIP3     H2       HT       0.417000       1.00800           0
     38209 TIP3     5255     TIP3     OH2      OT      -0.834000       15.9994           0
     38210 TIP3     5255     TIP3     H1       HT       0.417000       1.00800           0
     38211 TIP3     5255     TIP3     H2       HT       0.417000       1.00800           0
     38212 TIP3     5256     TIP3     OH2      OT      -0.834000       15.9994           0
     38213 TIP3     5256     TIP3     H1       HT       0.417000       1.00800           0
     38214 TIP3     5256     TIP3     H2       HT       0.417000       1.00800           0
     38215 TIP3     5257     TIP3     OH2      OT      -0.834000       15.9994           0
     38216 TIP3     5257     TIP3     H1       HT       0.417000       1.00800           0
     38217 TIP3     5257     TIP3     H2       HT       0.417000       1.00800           0
     38218 TIP3     5258     TIP3     OH2      OT      -0.834000       15.9994           0
     38219 TIP3     5258     TIP3     H1       HT       0.417000       1.00800           0
     38220 TIP3     5258     TIP3     H2       HT       0.417000       1.00800           0
     38221 TIP3     5259     TIP3     OH2      OT      -0.834000       15.9994           0
     38222 TIP3     5259     TIP3     H1       HT       0.417000       1.00800           0
     38223 TIP3     5259     TIP3     H2       HT       0.417000       1.00800           0
     38224 TIP3     5260     TIP3     OH2      OT      -0.834000       15.9994           0
     38225 TIP3     5260     TIP3     H1       HT       0.417000       1.00800           0
     38226 TIP3     5260     TIP3     H2       HT       0.417000       1.00800           0
     38227 TIP3     5261     TIP3     OH2      OT      -0.834000       15.9994           0
     38228 TIP3     5261     TIP3     H1       HT       0.417000       1.00800           0
     38229 TIP3     5261     TIP3     H2       HT       0.417000       1.00800           0
     38230 TIP3     5262     TIP3     OH2      OT      -0.834000       15.9994           0
     38231 TIP3     5262     TIP3     H1       HT       0.417000       1.00800           0
     38232 TIP3     5262     TIP3     H2       HT       0.417000       1.00800           0
     38233 TIP3     5263     TIP3     OH2      OT      -0.834000       15.9994           0
     38234 TIP3     5263     TIP3     H1       HT       0.417000       1.00800           0
     38235 TIP3     5263     TIP3     H2       HT       0.417000       1.00800           0
     38236 TIP3     5264     TIP3     OH2      OT      -0.834000       15.9994           0
     38237 TIP3     5264     TIP3     H1       HT       0.417000       1.00800           0
     38238 TIP3     5264     TIP3     H2       HT       0.417000       1.00800           0
     38239 TIP3     5265     TIP3     OH2      OT      -0.834000       15.9994           0
     38240 TIP3     5265     TIP3     H1       HT       0.417000       1.00800           0
     38241 TIP3     5265     TIP3     H2       HT       0.417000       1.00800           0
     38242 TIP3     5266     TIP3     OH2      OT      -0.834000       15.9994           0
     38243 TIP3     5266     TIP3     H1       HT       0.417000       1.00800           0
     38244 TIP3     5266     TIP3     H2       HT       0.417000       1.00800           0
     38245 TIP3     5267     TIP3     OH2      OT      -0.834000       15.9994           0
     38246 TIP3     5267     TIP3     H1       HT       0.417000       1.00800           0
     38247 TIP3     5267     TIP3     H2       HT       0.417000       1.00800           0
     38248 TIP3     5268     TIP3     OH2      OT      -0.834000       15.9994           0
     38249 TIP3     5268     TIP3     H1       HT       0.417000       1.00800           0
     38250 TIP3     5268     TIP3     H2       HT       0.417000       1.00800           0
     38251 TIP3     5269     TIP3     OH2      OT      -0.834000       15.9994           0
     38252 TIP3     5269     TIP3     H1       HT       0.417000       1.00800           0
     38253 TIP3     5269     TIP3     H2       HT       0.417000       1.00800           0
     38254 TIP3     5270     TIP3     OH2      OT      -0.834000       15.9994           0
     38255 TIP3     5270     TIP3     H1       HT       0.417000       1.00800           0
     38256 TIP3     5270     TIP3     H2       HT       0.417000       1.00800           0
     38257 TIP3     5271     TIP3     OH2      OT      -0.834000       15.9994           0
     38258 TIP3     5271     TIP3     H1       HT       0.417000       1.00800           0
     38259 TIP3     5271     TIP3     H2       HT       0.417000       1.00800           0
     38260 TIP3     5272     TIP3     OH2      OT      -0.834000       15.9994           0
     38261 TIP3     5272     TIP3     H1       HT       0.417000       1.00800           0
     38262 TIP3     5272     TIP3     H2       HT       0.417000       1.00800           0
     38263 TIP3     5273     TIP3     OH2      OT      -0.834000       15.9994           0
     38264 TIP3     5273     TIP3     H1       HT       0.417000       1.00800           0
     38265 TIP3     5273     TIP3     H2       HT       0.417000       1.00800           0
     38266 TIP3     5274     TIP3     OH2      OT      -0.834000       15.9994           0
     38267 TIP3     5274     TIP3     H1       HT       0.417000       1.00800           0
     38268 TIP3     5274     TIP3     H2       HT       0.417000       1.00800           0
     38269 TIP3     5275     TIP3     OH2      OT      -0.834000       15.9994           0
     38270 TIP3     5275     TIP3     H1       HT       0.417000       1.00800           0
     38271 TIP3     5275     TIP3     H2       HT       0.417000       1.00800           0
     38272 TIP3     5276     TIP3     OH2      OT      -0.834000       15.9994           0
     38273 TIP3     5276     TIP3     H1       HT       0.417000       1.00800           0
     38274 TIP3     5276     TIP3     H2       HT       0.417000       1.00800           0
     38275 TIP3     5277     TIP3     OH2      OT      -0.834000       15.9994           0
     38276 TIP3     5277     TIP3     H1       HT       0.417000       1.00800           0
     38277 TIP3     5277     TIP3     H2       HT       0.417000       1.00800           0
     38278 TIP3     5278     TIP3     OH2      OT      -0.834000       15.9994           0
     38279 TIP3     5278     TIP3     H1       HT       0.417000       1.00800           0
     38280 TIP3     5278     TIP3     H2       HT       0.417000       1.00800           0
     38281 TIP3     5279     TIP3     OH2      OT      -0.834000       15.9994           0
     38282 TIP3     5279     TIP3     H1       HT       0.417000       1.00800           0
     38283 TIP3     5279     TIP3     H2       HT       0.417000       1.00800           0
     38284 TIP3     5280     TIP3     OH2      OT      -0.834000       15.9994           0
     38285 TIP3     5280     TIP3     H1       HT       0.417000       1.00800           0
     38286 TIP3     5280     TIP3     H2       HT       0.417000       1.00800           0
     38287 TIP3     5281     TIP3     OH2      OT      -0.834000       15.9994           0
     38288 TIP3     5281     TIP3     H1       HT       0.417000       1.00800           0
     38289 TIP3     5281     TIP3     H2       HT       0.417000       1.00800           0
     38290 TIP3     5282     TIP3     OH2      OT      -0.834000       15.9994           0
     38291 TIP3     5282     TIP3     H1       HT       0.417000       1.00800           0
     38292 TIP3     5282     TIP3     H2       HT       0.417000       1.00800           0
     38293 TIP3     5283     TIP3     OH2      OT      -0.834000       15.9994           0
     38294 TIP3     5283     TIP3     H1       HT       0.417000       1.00800           0
     38295 TIP3     5283     TIP3     H2       HT       0.417000       1.00800           0
     38296 TIP3     5284     TIP3     OH2      OT      -0.834000       15.9994           0
     38297 TIP3     5284     TIP3     H1       HT       0.417000       1.00800           0
     38298 TIP3     5284     TIP3     H2       HT       0.417000       1.00800           0
     38299 TIP3     5285     TIP3     OH2      OT      -0.834000       15.9994           0
     38300 TIP3     5285     TIP3     H1       HT       0.417000       1.00800           0
     38301 TIP3     5285     TIP3     H2       HT       0.417000       1.00800           0
     38302 TIP3     5286     TIP3     OH2      OT      -0.834000       15.9994           0
     38303 TIP3     5286     TIP3     H1       HT       0.417000       1.00800           0
     38304 TIP3     5286     TIP3     H2       HT       0.417000       1.00800           0
     38305 TIP3     5287     TIP3     OH2      OT      -0.834000       15.9994           0
     38306 TIP3     5287     TIP3     H1       HT       0.417000       1.00800           0
     38307 TIP3     5287     TIP3     H2       HT       0.417000       1.00800           0
     38308 TIP3     5288     TIP3     OH2      OT      -0.834000       15.9994           0
     38309 TIP3     5288     TIP3     H1       HT       0.417000       1.00800           0
     38310 TIP3     5288     TIP3     H2       HT       0.417000       1.00800           0
     38311 TIP3     5289     TIP3     OH2      OT      -0.834000       15.9994           0
     38312 TIP3     5289     TIP3     H1       HT       0.417000       1.00800           0
     38313 TIP3     5289     TIP3     H2       HT       0.417000       1.00800           0
     38314 TIP3     5290     TIP3     OH2      OT      -0.834000       15.9994           0
     38315 TIP3     5290     TIP3     H1       HT       0.417000       1.00800           0
     38316 TIP3     5290     TIP3     H2       HT       0.417000       1.00800           0
     38317 TIP3     5291     TIP3     OH2      OT      -0.834000       15.9994           0
     38318 TIP3     5291     TIP3     H1       HT       0.417000       1.00800           0
     38319 TIP3     5291     TIP3     H2       HT       0.417000       1.00800           0
     38320 TIP3     5292     TIP3     OH2      OT      -0.834000       15.9994           0
     38321 TIP3     5292     TIP3     H1       HT       0.417000       1.00800           0
     38322 TIP3     5292     TIP3     H2       HT       0.417000       1.00800           0
     38323 TIP3     5293     TIP3     OH2      OT      -0.834000       15.9994           0
     38324 TIP3     5293     TIP3     H1       HT       0.417000       1.00800           0
     38325 TIP3     5293     TIP3     H2       HT       0.417000       1.00800           0
     38326 TIP3     5294     TIP3     OH2      OT      -0.834000       15.9994           0
     38327 TIP3     5294     TIP3     H1       HT       0.417000       1.00800           0
     38328 TIP3     5294     TIP3     H2       HT       0.417000       1.00800           0
     38329 TIP3     5295     TIP3     OH2      OT      -0.834000       15.9994           0
     38330 TIP3     5295     TIP3     H1       HT       0.417000       1.00800           0
     38331 TIP3     5295     TIP3     H2       HT       0.417000       1.00800           0
     38332 TIP3     5296     TIP3     OH2      OT      -0.834000       15.9994           0
     38333 TIP3     5296     TIP3     H1       HT       0.417000       1.00800           0
     38334 TIP3     5296     TIP3     H2       HT       0.417000       1.00800           0
     38335 TIP3     5297     TIP3     OH2      OT      -0.834000       15.9994           0
     38336 TIP3     5297     TIP3     H1       HT       0.417000       1.00800           0
     38337 TIP3     5297     TIP3     H2       HT       0.417000       1.00800           0
     38338 TIP3     5298     TIP3     OH2      OT      -0.834000       15.9994           0
     38339 TIP3     5298     TIP3     H1       HT       0.417000       1.00800           0
     38340 TIP3     5298     TIP3     H2       HT       0.417000       1.00800           0
     38341 TIP3     5299     TIP3     OH2      OT      -0.834000       15.9994           0
     38342 TIP3     5299     TIP3     H1       HT       0.417000       1.00800           0
     38343 TIP3     5299     TIP3     H2       HT       0.417000       1.00800           0
     38344 TIP3     5300     TIP3     OH2      OT      -0.834000       15.9994           0
     38345 TIP3     5300     TIP3     H1       HT       0.417000       1.00800           0
     38346 TIP3     5300     TIP3     H2       HT       0.417000       1.00800           0
     38347 TIP3     5301     TIP3     OH2      OT      -0.834000       15.9994           0
     38348 TIP3     5301     TIP3     H1       HT       0.417000       1.00800           0
     38349 TIP3     5301     TIP3     H2       HT       0.417000       1.00800           0
     38350 TIP3     5302     TIP3     OH2      OT      -0.834000       15.9994           0
     38351 TIP3     5302     TIP3     H1       HT       0.417000       1.00800           0
     38352 TIP3     5302     TIP3     H2       HT       0.417000       1.00800           0
     38353 TIP3     5303     TIP3     OH2      OT      -0.834000       15.9994           0
     38354 TIP3     5303     TIP3     H1       HT       0.417000       1.00800           0
     38355 TIP3     5303     TIP3     H2       HT       0.417000       1.00800           0
     38356 TIP3     5304     TIP3     OH2      OT      -0.834000       15.9994           0
     38357 TIP3     5304     TIP3     H1       HT       0.417000       1.00800           0
     38358 TIP3     5304     TIP3     H2       HT       0.417000       1.00800           0
     38359 TIP3     5305     TIP3     OH2      OT      -0.834000       15.9994           0
     38360 TIP3     5305     TIP3     H1       HT       0.417000       1.00800           0
     38361 TIP3     5305     TIP3     H2       HT       0.417000       1.00800           0
     38362 TIP3     5306     TIP3     OH2      OT      -0.834000       15.9994           0
     38363 TIP3     5306     TIP3     H1       HT       0.417000       1.00800           0
     38364 TIP3     5306     TIP3     H2       HT       0.417000       1.00800           0
     38365 TIP3     5307     TIP3     OH2      OT      -0.834000       15.9994           0
     38366 TIP3     5307     TIP3     H1       HT       0.417000       1.00800           0
     38367 TIP3     5307     TIP3     H2       HT       0.417000       1.00800           0
     38368 TIP3     5308     TIP3     OH2      OT      -0.834000       15.9994           0
     38369 TIP3     5308     TIP3     H1       HT       0.417000       1.00800           0
     38370 TIP3     5308     TIP3     H2       HT       0.417000       1.00800           0
     38371 TIP3     5309     TIP3     OH2      OT      -0.834000       15.9994           0
     38372 TIP3     5309     TIP3     H1       HT       0.417000       1.00800           0
     38373 TIP3     5309     TIP3     H2       HT       0.417000       1.00800           0
     38374 TIP3     5310     TIP3     OH2      OT      -0.834000       15.9994           0
     38375 TIP3     5310     TIP3     H1       HT       0.417000       1.00800           0
     38376 TIP3     5310     TIP3     H2       HT       0.417000       1.00800           0
     38377 TIP3     5311     TIP3     OH2      OT      -0.834000       15.9994           0
     38378 TIP3     5311     TIP3     H1       HT       0.417000       1.00800           0
     38379 TIP3     5311     TIP3     H2       HT       0.417000       1.00800           0
     38380 TIP3     5312     TIP3     OH2      OT      -0.834000       15.9994           0
     38381 TIP3     5312     TIP3     H1       HT       0.417000       1.00800           0
     38382 TIP3     5312     TIP3     H2       HT       0.417000       1.00800           0
     38383 TIP3     5313     TIP3     OH2      OT      -0.834000       15.9994           0
     38384 TIP3     5313     TIP3     H1       HT       0.417000       1.00800           0
     38385 TIP3     5313     TIP3     H2       HT       0.417000       1.00800           0
     38386 TIP3     5314     TIP3     OH2      OT      -0.834000       15.9994           0
     38387 TIP3     5314     TIP3     H1       HT       0.417000       1.00800           0
     38388 TIP3     5314     TIP3     H2       HT       0.417000       1.00800           0
     38389 TIP3     5315     TIP3     OH2      OT      -0.834000       15.9994           0
     38390 TIP3     5315     TIP3     H1       HT       0.417000       1.00800           0
     38391 TIP3     5315     TIP3     H2       HT       0.417000       1.00800           0
     38392 TIP3     5316     TIP3     OH2      OT      -0.834000       15.9994           0
     38393 TIP3     5316     TIP3     H1       HT       0.417000       1.00800           0
     38394 TIP3     5316     TIP3     H2       HT       0.417000       1.00800           0
     38395 TIP3     5317     TIP3     OH2      OT      -0.834000       15.9994           0
     38396 TIP3     5317     TIP3     H1       HT       0.417000       1.00800           0
     38397 TIP3     5317     TIP3     H2       HT       0.417000       1.00800           0
     38398 TIP3     5318     TIP3     OH2      OT      -0.834000       15.9994           0
     38399 TIP3     5318     TIP3     H1       HT       0.417000       1.00800           0
     38400 TIP3     5318     TIP3     H2       HT       0.417000       1.00800           0
     38401 TIP3     5319     TIP3     OH2      OT      -0.834000       15.9994           0
     38402 TIP3     5319     TIP3     H1       HT       0.417000       1.00800           0
     38403 TIP3     5319     TIP3     H2       HT       0.417000       1.00800           0
     38404 TIP3     5320     TIP3     OH2      OT      -0.834000       15.9994           0
     38405 TIP3     5320     TIP3     H1       HT       0.417000       1.00800           0
     38406 TIP3     5320     TIP3     H2       HT       0.417000       1.00800           0
     38407 TIP3     5321     TIP3     OH2      OT      -0.834000       15.9994           0
     38408 TIP3     5321     TIP3     H1       HT       0.417000       1.00800           0
     38409 TIP3     5321     TIP3     H2       HT       0.417000       1.00800           0
     38410 TIP3     5322     TIP3     OH2      OT      -0.834000       15.9994           0
     38411 TIP3     5322     TIP3     H1       HT       0.417000       1.00800           0
     38412 TIP3     5322     TIP3     H2       HT       0.417000       1.00800           0
     38413 TIP3     5323     TIP3     OH2      OT      -0.834000       15.9994           0
     38414 TIP3     5323     TIP3     H1       HT       0.417000       1.00800           0
     38415 TIP3     5323     TIP3     H2       HT       0.417000       1.00800           0
     38416 TIP3     5324     TIP3     OH2      OT      -0.834000       15.9994           0
     38417 TIP3     5324     TIP3     H1       HT       0.417000       1.00800           0
     38418 TIP3     5324     TIP3     H2       HT       0.417000       1.00800           0
     38419 TIP3     5325     TIP3     OH2      OT      -0.834000       15.9994           0
     38420 TIP3     5325     TIP3     H1       HT       0.417000       1.00800           0
     38421 TIP3     5325     TIP3     H2       HT       0.417000       1.00800           0
     38422 TIP3     5326     TIP3     OH2      OT      -0.834000       15.9994           0
     38423 TIP3     5326     TIP3     H1       HT       0.417000       1.00800           0
     38424 TIP3     5326     TIP3     H2       HT       0.417000       1.00800           0
     38425 TIP3     5327     TIP3     OH2      OT      -0.834000       15.9994           0
     38426 TIP3     5327     TIP3     H1       HT       0.417000       1.00800           0
     38427 TIP3     5327     TIP3     H2       HT       0.417000       1.00800           0
     38428 TIP3     5328     TIP3     OH2      OT      -0.834000       15.9994           0
     38429 TIP3     5328     TIP3     H1       HT       0.417000       1.00800           0
     38430 TIP3     5328     TIP3     H2       HT       0.417000       1.00800           0
     38431 TIP3     5329     TIP3     OH2      OT      -0.834000       15.9994           0
     38432 TIP3     5329     TIP3     H1       HT       0.417000       1.00800           0
     38433 TIP3     5329     TIP3     H2       HT       0.417000       1.00800           0
     38434 TIP3     5330     TIP3     OH2      OT      -0.834000       15.9994           0
     38435 TIP3     5330     TIP3     H1       HT       0.417000       1.00800           0
     38436 TIP3     5330     TIP3     H2       HT       0.417000       1.00800           0
     38437 TIP3     5331     TIP3     OH2      OT      -0.834000       15.9994           0
     38438 TIP3     5331     TIP3     H1       HT       0.417000       1.00800           0
     38439 TIP3     5331     TIP3     H2       HT       0.417000       1.00800           0
     38440 TIP3     5332     TIP3     OH2      OT      -0.834000       15.9994           0
     38441 TIP3     5332     TIP3     H1       HT       0.417000       1.00800           0
     38442 TIP3     5332     TIP3     H2       HT       0.417000       1.00800           0
     38443 TIP3     5333     TIP3     OH2      OT      -0.834000       15.9994           0
     38444 TIP3     5333     TIP3     H1       HT       0.417000       1.00800           0
     38445 TIP3     5333     TIP3     H2       HT       0.417000       1.00800           0
     38446 TIP3     5334     TIP3     OH2      OT      -0.834000       15.9994           0
     38447 TIP3     5334     TIP3     H1       HT       0.417000       1.00800           0
     38448 TIP3     5334     TIP3     H2       HT       0.417000       1.00800           0
     38449 TIP3     5335     TIP3     OH2      OT      -0.834000       15.9994           0
     38450 TIP3     5335     TIP3     H1       HT       0.417000       1.00800           0
     38451 TIP3     5335     TIP3     H2       HT       0.417000       1.00800           0
     38452 TIP3     5336     TIP3     OH2      OT      -0.834000       15.9994           0
     38453 TIP3     5336     TIP3     H1       HT       0.417000       1.00800           0
     38454 TIP3     5336     TIP3     H2       HT       0.417000       1.00800           0
     38455 TIP3     5337     TIP3     OH2      OT      -0.834000       15.9994           0
     38456 TIP3     5337     TIP3     H1       HT       0.417000       1.00800           0
     38457 TIP3     5337     TIP3     H2       HT       0.417000       1.00800           0
     38458 TIP3     5338     TIP3     OH2      OT      -0.834000       15.9994           0
     38459 TIP3     5338     TIP3     H1       HT       0.417000       1.00800           0
     38460 TIP3     5338     TIP3     H2       HT       0.417000       1.00800           0
     38461 TIP3     5339     TIP3     OH2      OT      -0.834000       15.9994           0
     38462 TIP3     5339     TIP3     H1       HT       0.417000       1.00800           0
     38463 TIP3     5339     TIP3     H2       HT       0.417000       1.00800           0
     38464 TIP3     5340     TIP3     OH2      OT      -0.834000       15.9994           0
     38465 TIP3     5340     TIP3     H1       HT       0.417000       1.00800           0
     38466 TIP3     5340     TIP3     H2       HT       0.417000       1.00800           0
     38467 TIP3     5341     TIP3     OH2      OT      -0.834000       15.9994           0
     38468 TIP3     5341     TIP3     H1       HT       0.417000       1.00800           0
     38469 TIP3     5341     TIP3     H2       HT       0.417000       1.00800           0
     38470 TIP3     5342     TIP3     OH2      OT      -0.834000       15.9994           0
     38471 TIP3     5342     TIP3     H1       HT       0.417000       1.00800           0
     38472 TIP3     5342     TIP3     H2       HT       0.417000       1.00800           0
     38473 TIP3     5343     TIP3     OH2      OT      -0.834000       15.9994           0
     38474 TIP3     5343     TIP3     H1       HT       0.417000       1.00800           0
     38475 TIP3     5343     TIP3     H2       HT       0.417000       1.00800           0
     38476 TIP3     5344     TIP3     OH2      OT      -0.834000       15.9994           0
     38477 TIP3     5344     TIP3     H1       HT       0.417000       1.00800           0
     38478 TIP3     5344     TIP3     H2       HT       0.417000       1.00800           0
     38479 TIP3     5345     TIP3     OH2      OT      -0.834000       15.9994           0
     38480 TIP3     5345     TIP3     H1       HT       0.417000       1.00800           0
     38481 TIP3     5345     TIP3     H2       HT       0.417000       1.00800           0
     38482 TIP3     5346     TIP3     OH2      OT      -0.834000       15.9994           0
     38483 TIP3     5346     TIP3     H1       HT       0.417000       1.00800           0
     38484 TIP3     5346     TIP3     H2       HT       0.417000       1.00800           0
     38485 TIP3     5347     TIP3     OH2      OT      -0.834000       15.9994           0
     38486 TIP3     5347     TIP3     H1       HT       0.417000       1.00800           0
     38487 TIP3     5347     TIP3     H2       HT       0.417000       1.00800           0
     38488 TIP3     5348     TIP3     OH2      OT      -0.834000       15.9994           0
     38489 TIP3     5348     TIP3     H1       HT       0.417000       1.00800           0
     38490 TIP3     5348     TIP3     H2       HT       0.417000       1.00800           0
     38491 TIP3     5349     TIP3     OH2      OT      -0.834000       15.9994           0
     38492 TIP3     5349     TIP3     H1       HT       0.417000       1.00800           0
     38493 TIP3     5349     TIP3     H2       HT       0.417000       1.00800           0
     38494 TIP3     5350     TIP3     OH2      OT      -0.834000       15.9994           0
     38495 TIP3     5350     TIP3     H1       HT       0.417000       1.00800           0
     38496 TIP3     5350     TIP3     H2       HT       0.417000       1.00800           0
     38497 TIP3     5351     TIP3     OH2      OT      -0.834000       15.9994           0
     38498 TIP3     5351     TIP3     H1       HT       0.417000       1.00800           0
     38499 TIP3     5351     TIP3     H2       HT       0.417000       1.00800           0
     38500 TIP3     5352     TIP3     OH2      OT      -0.834000       15.9994           0
     38501 TIP3     5352     TIP3     H1       HT       0.417000       1.00800           0
     38502 TIP3     5352     TIP3     H2       HT       0.417000       1.00800           0
     38503 TIP3     5353     TIP3     OH2      OT      -0.834000       15.9994           0
     38504 TIP3     5353     TIP3     H1       HT       0.417000       1.00800           0
     38505 TIP3     5353     TIP3     H2       HT       0.417000       1.00800           0
     38506 TIP3     5354     TIP3     OH2      OT      -0.834000       15.9994           0
     38507 TIP3     5354     TIP3     H1       HT       0.417000       1.00800           0
     38508 TIP3     5354     TIP3     H2       HT       0.417000       1.00800           0
     38509 TIP3     5355     TIP3     OH2      OT      -0.834000       15.9994           0
     38510 TIP3     5355     TIP3     H1       HT       0.417000       1.00800           0
     38511 TIP3     5355     TIP3     H2       HT       0.417000       1.00800           0
     38512 TIP3     5356     TIP3     OH2      OT      -0.834000       15.9994           0
     38513 TIP3     5356     TIP3     H1       HT       0.417000       1.00800           0
     38514 TIP3     5356     TIP3     H2       HT       0.417000       1.00800           0
     38515 TIP3     5357     TIP3     OH2      OT      -0.834000       15.9994           0
     38516 TIP3     5357     TIP3     H1       HT       0.417000       1.00800           0
     38517 TIP3     5357     TIP3     H2       HT       0.417000       1.00800           0
     38518 TIP3     5358     TIP3     OH2      OT      -0.834000       15.9994           0
     38519 TIP3     5358     TIP3     H1       HT       0.417000       1.00800           0
     38520 TIP3     5358     TIP3     H2       HT       0.417000       1.00800           0
     38521 TIP3     5359     TIP3     OH2      OT      -0.834000       15.9994           0
     38522 TIP3     5359     TIP3     H1       HT       0.417000       1.00800           0
     38523 TIP3     5359     TIP3     H2       HT       0.417000       1.00800           0
     38524 TIP3     5360     TIP3     OH2      OT      -0.834000       15.9994           0
     38525 TIP3     5360     TIP3     H1       HT       0.417000       1.00800           0
     38526 TIP3     5360     TIP3     H2       HT       0.417000       1.00800           0
     38527 TIP3     5361     TIP3     OH2      OT      -0.834000       15.9994           0
     38528 TIP3     5361     TIP3     H1       HT       0.417000       1.00800           0
     38529 TIP3     5361     TIP3     H2       HT       0.417000       1.00800           0
     38530 TIP3     5362     TIP3     OH2      OT      -0.834000       15.9994           0
     38531 TIP3     5362     TIP3     H1       HT       0.417000       1.00800           0
     38532 TIP3     5362     TIP3     H2       HT       0.417000       1.00800           0
     38533 TIP3     5363     TIP3     OH2      OT      -0.834000       15.9994           0
     38534 TIP3     5363     TIP3     H1       HT       0.417000       1.00800           0
     38535 TIP3     5363     TIP3     H2       HT       0.417000       1.00800           0
     38536 TIP3     5364     TIP3     OH2      OT      -0.834000       15.9994           0
     38537 TIP3     5364     TIP3     H1       HT       0.417000       1.00800           0
     38538 TIP3     5364     TIP3     H2       HT       0.417000       1.00800           0
     38539 TIP3     5365     TIP3     OH2      OT      -0.834000       15.9994           0
     38540 TIP3     5365     TIP3     H1       HT       0.417000       1.00800           0
     38541 TIP3     5365     TIP3     H2       HT       0.417000       1.00800           0
     38542 TIP3     5366     TIP3     OH2      OT      -0.834000       15.9994           0
     38543 TIP3     5366     TIP3     H1       HT       0.417000       1.00800           0
     38544 TIP3     5366     TIP3     H2       HT       0.417000       1.00800           0
     38545 TIP3     5367     TIP3     OH2      OT      -0.834000       15.9994           0
     38546 TIP3     5367     TIP3     H1       HT       0.417000       1.00800           0
     38547 TIP3     5367     TIP3     H2       HT       0.417000       1.00800           0
     38548 TIP3     5368     TIP3     OH2      OT      -0.834000       15.9994           0
     38549 TIP3     5368     TIP3     H1       HT       0.417000       1.00800           0
     38550 TIP3     5368     TIP3     H2       HT       0.417000       1.00800           0
     38551 TIP3     5369     TIP3     OH2      OT      -0.834000       15.9994           0
     38552 TIP3     5369     TIP3     H1       HT       0.417000       1.00800           0
     38553 TIP3     5369     TIP3     H2       HT       0.417000       1.00800           0
     38554 TIP3     5370     TIP3     OH2      OT      -0.834000       15.9994           0
     38555 TIP3     5370     TIP3     H1       HT       0.417000       1.00800           0
     38556 TIP3     5370     TIP3     H2       HT       0.417000       1.00800           0
     38557 TIP3     5371     TIP3     OH2      OT      -0.834000       15.9994           0
     38558 TIP3     5371     TIP3     H1       HT       0.417000       1.00800           0
     38559 TIP3     5371     TIP3     H2       HT       0.417000       1.00800           0
     38560 TIP3     5372     TIP3     OH2      OT      -0.834000       15.9994           0
     38561 TIP3     5372     TIP3     H1       HT       0.417000       1.00800           0
     38562 TIP3     5372     TIP3     H2       HT       0.417000       1.00800           0
     38563 TIP3     5373     TIP3     OH2      OT      -0.834000       15.9994           0
     38564 TIP3     5373     TIP3     H1       HT       0.417000       1.00800           0
     38565 TIP3     5373     TIP3     H2       HT       0.417000       1.00800           0
     38566 TIP3     5374     TIP3     OH2      OT      -0.834000       15.9994           0
     38567 TIP3     5374     TIP3     H1       HT       0.417000       1.00800           0
     38568 TIP3     5374     TIP3     H2       HT       0.417000       1.00800           0
     38569 TIP3     5375     TIP3     OH2      OT      -0.834000       15.9994           0
     38570 TIP3     5375     TIP3     H1       HT       0.417000       1.00800           0
     38571 TIP3     5375     TIP3     H2       HT       0.417000       1.00800           0
     38572 TIP3     5376     TIP3     OH2      OT      -0.834000       15.9994           0
     38573 TIP3     5376     TIP3     H1       HT       0.417000       1.00800           0
     38574 TIP3     5376     TIP3     H2       HT       0.417000       1.00800           0
     38575 TIP3     5377     TIP3     OH2      OT      -0.834000       15.9994           0
     38576 TIP3     5377     TIP3     H1       HT       0.417000       1.00800           0
     38577 TIP3     5377     TIP3     H2       HT       0.417000       1.00800           0
     38578 TIP3     5378     TIP3     OH2      OT      -0.834000       15.9994           0
     38579 TIP3     5378     TIP3     H1       HT       0.417000       1.00800           0
     38580 TIP3     5378     TIP3     H2       HT       0.417000       1.00800           0
     38581 TIP3     5379     TIP3     OH2      OT      -0.834000       15.9994           0
     38582 TIP3     5379     TIP3     H1       HT       0.417000       1.00800           0
     38583 TIP3     5379     TIP3     H2       HT       0.417000       1.00800           0
     38584 TIP3     5380     TIP3     OH2      OT      -0.834000       15.9994           0
     38585 TIP3     5380     TIP3     H1       HT       0.417000       1.00800           0
     38586 TIP3     5380     TIP3     H2       HT       0.417000       1.00800           0
     38587 TIP3     5381     TIP3     OH2      OT      -0.834000       15.9994           0
     38588 TIP3     5381     TIP3     H1       HT       0.417000       1.00800           0
     38589 TIP3     5381     TIP3     H2       HT       0.417000       1.00800           0
     38590 TIP3     5382     TIP3     OH2      OT      -0.834000       15.9994           0
     38591 TIP3     5382     TIP3     H1       HT       0.417000       1.00800           0
     38592 TIP3     5382     TIP3     H2       HT       0.417000       1.00800           0
     38593 TIP3     5383     TIP3     OH2      OT      -0.834000       15.9994           0
     38594 TIP3     5383     TIP3     H1       HT       0.417000       1.00800           0
     38595 TIP3     5383     TIP3     H2       HT       0.417000       1.00800           0
     38596 TIP3     5384     TIP3     OH2      OT      -0.834000       15.9994           0
     38597 TIP3     5384     TIP3     H1       HT       0.417000       1.00800           0
     38598 TIP3     5384     TIP3     H2       HT       0.417000       1.00800           0
     38599 TIP3     5385     TIP3     OH2      OT      -0.834000       15.9994           0
     38600 TIP3     5385     TIP3     H1       HT       0.417000       1.00800           0
     38601 TIP3     5385     TIP3     H2       HT       0.417000       1.00800           0
     38602 TIP3     5386     TIP3     OH2      OT      -0.834000       15.9994           0
     38603 TIP3     5386     TIP3     H1       HT       0.417000       1.00800           0
     38604 TIP3     5386     TIP3     H2       HT       0.417000       1.00800           0
     38605 TIP3     5387     TIP3     OH2      OT      -0.834000       15.9994           0
     38606 TIP3     5387     TIP3     H1       HT       0.417000       1.00800           0
     38607 TIP3     5387     TIP3     H2       HT       0.417000       1.00800           0
     38608 TIP3     5388     TIP3     OH2      OT      -0.834000       15.9994           0
     38609 TIP3     5388     TIP3     H1       HT       0.417000       1.00800           0
     38610 TIP3     5388     TIP3     H2       HT       0.417000       1.00800           0
     38611 TIP3     5389     TIP3     OH2      OT      -0.834000       15.9994           0
     38612 TIP3     5389     TIP3     H1       HT       0.417000       1.00800           0
     38613 TIP3     5389     TIP3     H2       HT       0.417000       1.00800           0
     38614 TIP3     5390     TIP3     OH2      OT      -0.834000       15.9994           0
     38615 TIP3     5390     TIP3     H1       HT       0.417000       1.00800           0
     38616 TIP3     5390     TIP3     H2       HT       0.417000       1.00800           0
     38617 TIP3     5391     TIP3     OH2      OT      -0.834000       15.9994           0
     38618 TIP3     5391     TIP3     H1       HT       0.417000       1.00800           0
     38619 TIP3     5391     TIP3     H2       HT       0.417000       1.00800           0
     38620 TIP3     5392     TIP3     OH2      OT      -0.834000       15.9994           0
     38621 TIP3     5392     TIP3     H1       HT       0.417000       1.00800           0
     38622 TIP3     5392     TIP3     H2       HT       0.417000       1.00800           0
     38623 TIP3     5393     TIP3     OH2      OT      -0.834000       15.9994           0
     38624 TIP3     5393     TIP3     H1       HT       0.417000       1.00800           0
     38625 TIP3     5393     TIP3     H2       HT       0.417000       1.00800           0
     38626 TIP3     5394     TIP3     OH2      OT      -0.834000       15.9994           0
     38627 TIP3     5394     TIP3     H1       HT       0.417000       1.00800           0
     38628 TIP3     5394     TIP3     H2       HT       0.417000       1.00800           0
     38629 TIP3     5395     TIP3     OH2      OT      -0.834000       15.9994           0
     38630 TIP3     5395     TIP3     H1       HT       0.417000       1.00800           0
     38631 TIP3     5395     TIP3     H2       HT       0.417000       1.00800           0
     38632 TIP3     5396     TIP3     OH2      OT      -0.834000       15.9994           0
     38633 TIP3     5396     TIP3     H1       HT       0.417000       1.00800           0
     38634 TIP3     5396     TIP3     H2       HT       0.417000       1.00800           0
     38635 TIP3     5397     TIP3     OH2      OT      -0.834000       15.9994           0
     38636 TIP3     5397     TIP3     H1       HT       0.417000       1.00800           0
     38637 TIP3     5397     TIP3     H2       HT       0.417000       1.00800           0
     38638 TIP3     5398     TIP3     OH2      OT      -0.834000       15.9994           0
     38639 TIP3     5398     TIP3     H1       HT       0.417000       1.00800           0
     38640 TIP3     5398     TIP3     H2       HT       0.417000       1.00800           0
     38641 TIP3     5399     TIP3     OH2      OT      -0.834000       15.9994           0
     38642 TIP3     5399     TIP3     H1       HT       0.417000       1.00800           0
     38643 TIP3     5399     TIP3     H2       HT       0.417000       1.00800           0
     38644 TIP3     5400     TIP3     OH2      OT      -0.834000       15.9994           0
     38645 TIP3     5400     TIP3     H1       HT       0.417000       1.00800           0
     38646 TIP3     5400     TIP3     H2       HT       0.417000       1.00800           0
     38647 TIP3     5401     TIP3     OH2      OT      -0.834000       15.9994           0
     38648 TIP3     5401     TIP3     H1       HT       0.417000       1.00800           0
     38649 TIP3     5401     TIP3     H2       HT       0.417000       1.00800           0
     38650 TIP3     5402     TIP3     OH2      OT      -0.834000       15.9994           0
     38651 TIP3     5402     TIP3     H1       HT       0.417000       1.00800           0
     38652 TIP3     5402     TIP3     H2       HT       0.417000       1.00800           0
     38653 TIP3     5403     TIP3     OH2      OT      -0.834000       15.9994           0
     38654 TIP3     5403     TIP3     H1       HT       0.417000       1.00800           0
     38655 TIP3     5403     TIP3     H2       HT       0.417000       1.00800           0
     38656 TIP3     5404     TIP3     OH2      OT      -0.834000       15.9994           0
     38657 TIP3     5404     TIP3     H1       HT       0.417000       1.00800           0
     38658 TIP3     5404     TIP3     H2       HT       0.417000       1.00800           0
     38659 TIP3     5405     TIP3     OH2      OT      -0.834000       15.9994           0
     38660 TIP3     5405     TIP3     H1       HT       0.417000       1.00800           0
     38661 TIP3     5405     TIP3     H2       HT       0.417000       1.00800           0
     38662 TIP3     5406     TIP3     OH2      OT      -0.834000       15.9994           0
     38663 TIP3     5406     TIP3     H1       HT       0.417000       1.00800           0
     38664 TIP3     5406     TIP3     H2       HT       0.417000       1.00800           0
     38665 TIP3     5407     TIP3     OH2      OT      -0.834000       15.9994           0
     38666 TIP3     5407     TIP3     H1       HT       0.417000       1.00800           0
     38667 TIP3     5407     TIP3     H2       HT       0.417000       1.00800           0
     38668 TIP3     5408     TIP3     OH2      OT      -0.834000       15.9994           0
     38669 TIP3     5408     TIP3     H1       HT       0.417000       1.00800           0
     38670 TIP3     5408     TIP3     H2       HT       0.417000       1.00800           0
     38671 TIP3     5409     TIP3     OH2      OT      -0.834000       15.9994           0
     38672 TIP3     5409     TIP3     H1       HT       0.417000       1.00800           0
     38673 TIP3     5409     TIP3     H2       HT       0.417000       1.00800           0
     38674 TIP3     5410     TIP3     OH2      OT      -0.834000       15.9994           0
     38675 TIP3     5410     TIP3     H1       HT       0.417000       1.00800           0
     38676 TIP3     5410     TIP3     H2       HT       0.417000       1.00800           0
     38677 TIP3     5411     TIP3     OH2      OT      -0.834000       15.9994           0
     38678 TIP3     5411     TIP3     H1       HT       0.417000       1.00800           0
     38679 TIP3     5411     TIP3     H2       HT       0.417000       1.00800           0
     38680 TIP3     5412     TIP3     OH2      OT      -0.834000       15.9994           0
     38681 TIP3     5412     TIP3     H1       HT       0.417000       1.00800           0
     38682 TIP3     5412     TIP3     H2       HT       0.417000       1.00800           0
     38683 TIP3     5413     TIP3     OH2      OT      -0.834000       15.9994           0
     38684 TIP3     5413     TIP3     H1       HT       0.417000       1.00800           0
     38685 TIP3     5413     TIP3     H2       HT       0.417000       1.00800           0
     38686 TIP3     5414     TIP3     OH2      OT      -0.834000       15.9994           0
     38687 TIP3     5414     TIP3     H1       HT       0.417000       1.00800           0
     38688 TIP3     5414     TIP3     H2       HT       0.417000       1.00800           0
     38689 TIP3     5415     TIP3     OH2      OT      -0.834000       15.9994           0
     38690 TIP3     5415     TIP3     H1       HT       0.417000       1.00800           0
     38691 TIP3     5415     TIP3     H2       HT       0.417000       1.00800           0
     38692 TIP3     5416     TIP3     OH2      OT      -0.834000       15.9994           0
     38693 TIP3     5416     TIP3     H1       HT       0.417000       1.00800           0
     38694 TIP3     5416     TIP3     H2       HT       0.417000       1.00800           0
     38695 TIP3     5417     TIP3     OH2      OT      -0.834000       15.9994           0
     38696 TIP3     5417     TIP3     H1       HT       0.417000       1.00800           0
     38697 TIP3     5417     TIP3     H2       HT       0.417000       1.00800           0
     38698 TIP3     5418     TIP3     OH2      OT      -0.834000       15.9994           0
     38699 TIP3     5418     TIP3     H1       HT       0.417000       1.00800           0
     38700 TIP3     5418     TIP3     H2       HT       0.417000       1.00800           0
     38701 TIP3     5419     TIP3     OH2      OT      -0.834000       15.9994           0
     38702 TIP3     5419     TIP3     H1       HT       0.417000       1.00800           0
     38703 TIP3     5419     TIP3     H2       HT       0.417000       1.00800           0
     38704 TIP3     5420     TIP3     OH2      OT      -0.834000       15.9994           0
     38705 TIP3     5420     TIP3     H1       HT       0.417000       1.00800           0
     38706 TIP3     5420     TIP3     H2       HT       0.417000       1.00800           0
     38707 TIP3     5421     TIP3     OH2      OT      -0.834000       15.9994           0
     38708 TIP3     5421     TIP3     H1       HT       0.417000       1.00800           0
     38709 TIP3     5421     TIP3     H2       HT       0.417000       1.00800           0
     38710 TIP3     5422     TIP3     OH2      OT      -0.834000       15.9994           0
     38711 TIP3     5422     TIP3     H1       HT       0.417000       1.00800           0
     38712 TIP3     5422     TIP3     H2       HT       0.417000       1.00800           0
     38713 TIP3     5423     TIP3     OH2      OT      -0.834000       15.9994           0
     38714 TIP3     5423     TIP3     H1       HT       0.417000       1.00800           0
     38715 TIP3     5423     TIP3     H2       HT       0.417000       1.00800           0
     38716 TIP3     5424     TIP3     OH2      OT      -0.834000       15.9994           0
     38717 TIP3     5424     TIP3     H1       HT       0.417000       1.00800           0
     38718 TIP3     5424     TIP3     H2       HT       0.417000       1.00800           0
     38719 TIP3     5425     TIP3     OH2      OT      -0.834000       15.9994           0
     38720 TIP3     5425     TIP3     H1       HT       0.417000       1.00800           0
     38721 TIP3     5425     TIP3     H2       HT       0.417000       1.00800           0
     38722 TIP3     5426     TIP3     OH2      OT      -0.834000       15.9994           0
     38723 TIP3     5426     TIP3     H1       HT       0.417000       1.00800           0
     38724 TIP3     5426     TIP3     H2       HT       0.417000       1.00800           0
     38725 TIP3     5427     TIP3     OH2      OT      -0.834000       15.9994           0
     38726 TIP3     5427     TIP3     H1       HT       0.417000       1.00800           0
     38727 TIP3     5427     TIP3     H2       HT       0.417000       1.00800           0
     38728 TIP3     5428     TIP3     OH2      OT      -0.834000       15.9994           0
     38729 TIP3     5428     TIP3     H1       HT       0.417000       1.00800           0
     38730 TIP3     5428     TIP3     H2       HT       0.417000       1.00800           0
     38731 TIP3     5429     TIP3     OH2      OT      -0.834000       15.9994           0
     38732 TIP3     5429     TIP3     H1       HT       0.417000       1.00800           0
     38733 TIP3     5429     TIP3     H2       HT       0.417000       1.00800           0
     38734 TIP3     5430     TIP3     OH2      OT      -0.834000       15.9994           0
     38735 TIP3     5430     TIP3     H1       HT       0.417000       1.00800           0
     38736 TIP3     5430     TIP3     H2       HT       0.417000       1.00800           0
     38737 TIP3     5431     TIP3     OH2      OT      -0.834000       15.9994           0
     38738 TIP3     5431     TIP3     H1       HT       0.417000       1.00800           0
     38739 TIP3     5431     TIP3     H2       HT       0.417000       1.00800           0
     38740 TIP3     5432     TIP3     OH2      OT      -0.834000       15.9994           0
     38741 TIP3     5432     TIP3     H1       HT       0.417000       1.00800           0
     38742 TIP3     5432     TIP3     H2       HT       0.417000       1.00800           0
     38743 TIP3     5433     TIP3     OH2      OT      -0.834000       15.9994           0
     38744 TIP3     5433     TIP3     H1       HT       0.417000       1.00800           0
     38745 TIP3     5433     TIP3     H2       HT       0.417000       1.00800           0
     38746 TIP3     5434     TIP3     OH2      OT      -0.834000       15.9994           0
     38747 TIP3     5434     TIP3     H1       HT       0.417000       1.00800           0
     38748 TIP3     5434     TIP3     H2       HT       0.417000       1.00800           0
     38749 TIP3     5435     TIP3     OH2      OT      -0.834000       15.9994           0
     38750 TIP3     5435     TIP3     H1       HT       0.417000       1.00800           0
     38751 TIP3     5435     TIP3     H2       HT       0.417000       1.00800           0
     38752 TIP3     5436     TIP3     OH2      OT      -0.834000       15.9994           0
     38753 TIP3     5436     TIP3     H1       HT       0.417000       1.00800           0
     38754 TIP3     5436     TIP3     H2       HT       0.417000       1.00800           0
     38755 TIP3     5437     TIP3     OH2      OT      -0.834000       15.9994           0
     38756 TIP3     5437     TIP3     H1       HT       0.417000       1.00800           0
     38757 TIP3     5437     TIP3     H2       HT       0.417000       1.00800           0
     38758 TIP3     5438     TIP3     OH2      OT      -0.834000       15.9994           0
     38759 TIP3     5438     TIP3     H1       HT       0.417000       1.00800           0
     38760 TIP3     5438     TIP3     H2       HT       0.417000       1.00800           0
     38761 TIP3     5439     TIP3     OH2      OT      -0.834000       15.9994           0
     38762 TIP3     5439     TIP3     H1       HT       0.417000       1.00800           0
     38763 TIP3     5439     TIP3     H2       HT       0.417000       1.00800           0
     38764 TIP3     5440     TIP3     OH2      OT      -0.834000       15.9994           0
     38765 TIP3     5440     TIP3     H1       HT       0.417000       1.00800           0
     38766 TIP3     5440     TIP3     H2       HT       0.417000       1.00800           0
     38767 TIP3     5441     TIP3     OH2      OT      -0.834000       15.9994           0
     38768 TIP3     5441     TIP3     H1       HT       0.417000       1.00800           0
     38769 TIP3     5441     TIP3     H2       HT       0.417000       1.00800           0
     38770 TIP3     5442     TIP3     OH2      OT      -0.834000       15.9994           0
     38771 TIP3     5442     TIP3     H1       HT       0.417000       1.00800           0
     38772 TIP3     5442     TIP3     H2       HT       0.417000       1.00800           0
     38773 TIP3     5443     TIP3     OH2      OT      -0.834000       15.9994           0
     38774 TIP3     5443     TIP3     H1       HT       0.417000       1.00800           0
     38775 TIP3     5443     TIP3     H2       HT       0.417000       1.00800           0
     38776 TIP3     5444     TIP3     OH2      OT      -0.834000       15.9994           0
     38777 TIP3     5444     TIP3     H1       HT       0.417000       1.00800           0
     38778 TIP3     5444     TIP3     H2       HT       0.417000       1.00800           0
     38779 TIP3     5445     TIP3     OH2      OT      -0.834000       15.9994           0
     38780 TIP3     5445     TIP3     H1       HT       0.417000       1.00800           0
     38781 TIP3     5445     TIP3     H2       HT       0.417000       1.00800           0
     38782 TIP3     5446     TIP3     OH2      OT      -0.834000       15.9994           0
     38783 TIP3     5446     TIP3     H1       HT       0.417000       1.00800           0
     38784 TIP3     5446     TIP3     H2       HT       0.417000       1.00800           0
     38785 TIP3     5447     TIP3     OH2      OT      -0.834000       15.9994           0
     38786 TIP3     5447     TIP3     H1       HT       0.417000       1.00800           0
     38787 TIP3     5447     TIP3     H2       HT       0.417000       1.00800           0
     38788 TIP3     5448     TIP3     OH2      OT      -0.834000       15.9994           0
     38789 TIP3     5448     TIP3     H1       HT       0.417000       1.00800           0
     38790 TIP3     5448     TIP3     H2       HT       0.417000       1.00800           0
     38791 TIP3     5449     TIP3     OH2      OT      -0.834000       15.9994           0
     38792 TIP3     5449     TIP3     H1       HT       0.417000       1.00800           0
     38793 TIP3     5449     TIP3     H2       HT       0.417000       1.00800           0
     38794 TIP3     5450     TIP3     OH2      OT      -0.834000       15.9994           0
     38795 TIP3     5450     TIP3     H1       HT       0.417000       1.00800           0
     38796 TIP3     5450     TIP3     H2       HT       0.417000       1.00800           0
     38797 TIP3     5451     TIP3     OH2      OT      -0.834000       15.9994           0
     38798 TIP3     5451     TIP3     H1       HT       0.417000       1.00800           0
     38799 TIP3     5451     TIP3     H2       HT       0.417000       1.00800           0
     38800 TIP3     5452     TIP3     OH2      OT      -0.834000       15.9994           0
     38801 TIP3     5452     TIP3     H1       HT       0.417000       1.00800           0
     38802 TIP3     5452     TIP3     H2       HT       0.417000       1.00800           0
     38803 TIP3     5453     TIP3     OH2      OT      -0.834000       15.9994           0
     38804 TIP3     5453     TIP3     H1       HT       0.417000       1.00800           0
     38805 TIP3     5453     TIP3     H2       HT       0.417000       1.00800           0
     38806 TIP3     5454     TIP3     OH2      OT      -0.834000       15.9994           0
     38807 TIP3     5454     TIP3     H1       HT       0.417000       1.00800           0
     38808 TIP3     5454     TIP3     H2       HT       0.417000       1.00800           0
     38809 TIP3     5455     TIP3     OH2      OT      -0.834000       15.9994           0
     38810 TIP3     5455     TIP3     H1       HT       0.417000       1.00800           0
     38811 TIP3     5455     TIP3     H2       HT       0.417000       1.00800           0
     38812 TIP3     5456     TIP3     OH2      OT      -0.834000       15.9994           0
     38813 TIP3     5456     TIP3     H1       HT       0.417000       1.00800           0
     38814 TIP3     5456     TIP3     H2       HT       0.417000       1.00800           0
     38815 TIP3     5457     TIP3     OH2      OT      -0.834000       15.9994           0
     38816 TIP3     5457     TIP3     H1       HT       0.417000       1.00800           0
     38817 TIP3     5457     TIP3     H2       HT       0.417000       1.00800           0
     38818 TIP3     5458     TIP3     OH2      OT      -0.834000       15.9994           0
     38819 TIP3     5458     TIP3     H1       HT       0.417000       1.00800           0
     38820 TIP3     5458     TIP3     H2       HT       0.417000       1.00800           0
     38821 TIP3     5459     TIP3     OH2      OT      -0.834000       15.9994           0
     38822 TIP3     5459     TIP3     H1       HT       0.417000       1.00800           0
     38823 TIP3     5459     TIP3     H2       HT       0.417000       1.00800           0
     38824 TIP3     5460     TIP3     OH2      OT      -0.834000       15.9994           0
     38825 TIP3     5460     TIP3     H1       HT       0.417000       1.00800           0
     38826 TIP3     5460     TIP3     H2       HT       0.417000       1.00800           0
     38827 TIP3     5461     TIP3     OH2      OT      -0.834000       15.9994           0
     38828 TIP3     5461     TIP3     H1       HT       0.417000       1.00800           0
     38829 TIP3     5461     TIP3     H2       HT       0.417000       1.00800           0
     38830 TIP3     5462     TIP3     OH2      OT      -0.834000       15.9994           0
     38831 TIP3     5462     TIP3     H1       HT       0.417000       1.00800           0
     38832 TIP3     5462     TIP3     H2       HT       0.417000       1.00800           0
     38833 TIP3     5463     TIP3     OH2      OT      -0.834000       15.9994           0
     38834 TIP3     5463     TIP3     H1       HT       0.417000       1.00800           0
     38835 TIP3     5463     TIP3     H2       HT       0.417000       1.00800           0
     38836 TIP3     5464     TIP3     OH2      OT      -0.834000       15.9994           0
     38837 TIP3     5464     TIP3     H1       HT       0.417000       1.00800           0
     38838 TIP3     5464     TIP3     H2       HT       0.417000       1.00800           0
     38839 TIP3     5465     TIP3     OH2      OT      -0.834000       15.9994           0
     38840 TIP3     5465     TIP3     H1       HT       0.417000       1.00800           0
     38841 TIP3     5465     TIP3     H2       HT       0.417000       1.00800           0
     38842 TIP3     5466     TIP3     OH2      OT      -0.834000       15.9994           0
     38843 TIP3     5466     TIP3     H1       HT       0.417000       1.00800           0
     38844 TIP3     5466     TIP3     H2       HT       0.417000       1.00800           0
     38845 TIP3     5467     TIP3     OH2      OT      -0.834000       15.9994           0
     38846 TIP3     5467     TIP3     H1       HT       0.417000       1.00800           0
     38847 TIP3     5467     TIP3     H2       HT       0.417000       1.00800           0
     38848 TIP3     5468     TIP3     OH2      OT      -0.834000       15.9994           0
     38849 TIP3     5468     TIP3     H1       HT       0.417000       1.00800           0
     38850 TIP3     5468     TIP3     H2       HT       0.417000       1.00800           0
     38851 TIP3     5469     TIP3     OH2      OT      -0.834000       15.9994           0
     38852 TIP3     5469     TIP3     H1       HT       0.417000       1.00800           0
     38853 TIP3     5469     TIP3     H2       HT       0.417000       1.00800           0
     38854 TIP3     5470     TIP3     OH2      OT      -0.834000       15.9994           0
     38855 TIP3     5470     TIP3     H1       HT       0.417000       1.00800           0
     38856 TIP3     5470     TIP3     H2       HT       0.417000       1.00800           0
     38857 TIP3     5471     TIP3     OH2      OT      -0.834000       15.9994           0
     38858 TIP3     5471     TIP3     H1       HT       0.417000       1.00800           0
     38859 TIP3     5471     TIP3     H2       HT       0.417000       1.00800           0
     38860 TIP3     5472     TIP3     OH2      OT      -0.834000       15.9994           0
     38861 TIP3     5472     TIP3     H1       HT       0.417000       1.00800           0
     38862 TIP3     5472     TIP3     H2       HT       0.417000       1.00800           0
     38863 TIP3     5473     TIP3     OH2      OT      -0.834000       15.9994           0
     38864 TIP3     5473     TIP3     H1       HT       0.417000       1.00800           0
     38865 TIP3     5473     TIP3     H2       HT       0.417000       1.00800           0
     38866 TIP3     5474     TIP3     OH2      OT      -0.834000       15.9994           0
     38867 TIP3     5474     TIP3     H1       HT       0.417000       1.00800           0
     38868 TIP3     5474     TIP3     H2       HT       0.417000       1.00800           0
     38869 TIP3     5475     TIP3     OH2      OT      -0.834000       15.9994           0
     38870 TIP3     5475     TIP3     H1       HT       0.417000       1.00800           0
     38871 TIP3     5475     TIP3     H2       HT       0.417000       1.00800           0
     38872 TIP3     5476     TIP3     OH2      OT      -0.834000       15.9994           0
     38873 TIP3     5476     TIP3     H1       HT       0.417000       1.00800           0
     38874 TIP3     5476     TIP3     H2       HT       0.417000       1.00800           0
     38875 TIP3     5477     TIP3     OH2      OT      -0.834000       15.9994           0
     38876 TIP3     5477     TIP3     H1       HT       0.417000       1.00800           0
     38877 TIP3     5477     TIP3     H2       HT       0.417000       1.00800           0
     38878 TIP3     5478     TIP3     OH2      OT      -0.834000       15.9994           0
     38879 TIP3     5478     TIP3     H1       HT       0.417000       1.00800           0
     38880 TIP3     5478     TIP3     H2       HT       0.417000       1.00800           0
     38881 TIP3     5479     TIP3     OH2      OT      -0.834000       15.9994           0
     38882 TIP3     5479     TIP3     H1       HT       0.417000       1.00800           0
     38883 TIP3     5479     TIP3     H2       HT       0.417000       1.00800           0
     38884 TIP3     5480     TIP3     OH2      OT      -0.834000       15.9994           0
     38885 TIP3     5480     TIP3     H1       HT       0.417000       1.00800           0
     38886 TIP3     5480     TIP3     H2       HT       0.417000       1.00800           0
     38887 TIP3     5481     TIP3     OH2      OT      -0.834000       15.9994           0
     38888 TIP3     5481     TIP3     H1       HT       0.417000       1.00800           0
     38889 TIP3     5481     TIP3     H2       HT       0.417000       1.00800           0
     38890 TIP3     5482     TIP3     OH2      OT      -0.834000       15.9994           0
     38891 TIP3     5482     TIP3     H1       HT       0.417000       1.00800           0
     38892 TIP3     5482     TIP3     H2       HT       0.417000       1.00800           0
     38893 TIP3     5483     TIP3     OH2      OT      -0.834000       15.9994           0
     38894 TIP3     5483     TIP3     H1       HT       0.417000       1.00800           0
     38895 TIP3     5483     TIP3     H2       HT       0.417000       1.00800           0
     38896 TIP3     5484     TIP3     OH2      OT      -0.834000       15.9994           0
     38897 TIP3     5484     TIP3     H1       HT       0.417000       1.00800           0
     38898 TIP3     5484     TIP3     H2       HT       0.417000       1.00800           0
     38899 TIP3     5485     TIP3     OH2      OT      -0.834000       15.9994           0
     38900 TIP3     5485     TIP3     H1       HT       0.417000       1.00800           0
     38901 TIP3     5485     TIP3     H2       HT       0.417000       1.00800           0
     38902 TIP3     5486     TIP3     OH2      OT      -0.834000       15.9994           0
     38903 TIP3     5486     TIP3     H1       HT       0.417000       1.00800           0
     38904 TIP3     5486     TIP3     H2       HT       0.417000       1.00800           0
     38905 TIP3     5487     TIP3     OH2      OT      -0.834000       15.9994           0
     38906 TIP3     5487     TIP3     H1       HT       0.417000       1.00800           0
     38907 TIP3     5487     TIP3     H2       HT       0.417000       1.00800           0
     38908 TIP3     5488     TIP3     OH2      OT      -0.834000       15.9994           0
     38909 TIP3     5488     TIP3     H1       HT       0.417000       1.00800           0
     38910 TIP3     5488     TIP3     H2       HT       0.417000       1.00800           0
     38911 TIP3     5489     TIP3     OH2      OT      -0.834000       15.9994           0
     38912 TIP3     5489     TIP3     H1       HT       0.417000       1.00800           0
     38913 TIP3     5489     TIP3     H2       HT       0.417000       1.00800           0
     38914 TIP3     5490     TIP3     OH2      OT      -0.834000       15.9994           0
     38915 TIP3     5490     TIP3     H1       HT       0.417000       1.00800           0
     38916 TIP3     5490     TIP3     H2       HT       0.417000       1.00800           0
     38917 TIP3     5491     TIP3     OH2      OT      -0.834000       15.9994           0
     38918 TIP3     5491     TIP3     H1       HT       0.417000       1.00800           0
     38919 TIP3     5491     TIP3     H2       HT       0.417000       1.00800           0
     38920 TIP3     5492     TIP3     OH2      OT      -0.834000       15.9994           0
     38921 TIP3     5492     TIP3     H1       HT       0.417000       1.00800           0
     38922 TIP3     5492     TIP3     H2       HT       0.417000       1.00800           0
     38923 TIP3     5493     TIP3     OH2      OT      -0.834000       15.9994           0
     38924 TIP3     5493     TIP3     H1       HT       0.417000       1.00800           0
     38925 TIP3     5493     TIP3     H2       HT       0.417000       1.00800           0
     38926 TIP3     5494     TIP3     OH2      OT      -0.834000       15.9994           0
     38927 TIP3     5494     TIP3     H1       HT       0.417000       1.00800           0
     38928 TIP3     5494     TIP3     H2       HT       0.417000       1.00800           0
     38929 TIP3     5495     TIP3     OH2      OT      -0.834000       15.9994           0
     38930 TIP3     5495     TIP3     H1       HT       0.417000       1.00800           0
     38931 TIP3     5495     TIP3     H2       HT       0.417000       1.00800           0
     38932 TIP3     5496     TIP3     OH2      OT      -0.834000       15.9994           0
     38933 TIP3     5496     TIP3     H1       HT       0.417000       1.00800           0
     38934 TIP3     5496     TIP3     H2       HT       0.417000       1.00800           0
     38935 TIP3     5497     TIP3     OH2      OT      -0.834000       15.9994           0
     38936 TIP3     5497     TIP3     H1       HT       0.417000       1.00800           0
     38937 TIP3     5497     TIP3     H2       HT       0.417000       1.00800           0
     38938 TIP3     5498     TIP3     OH2      OT      -0.834000       15.9994           0
     38939 TIP3     5498     TIP3     H1       HT       0.417000       1.00800           0
     38940 TIP3     5498     TIP3     H2       HT       0.417000       1.00800           0
     38941 TIP3     5499     TIP3     OH2      OT      -0.834000       15.9994           0
     38942 TIP3     5499     TIP3     H1       HT       0.417000       1.00800           0
     38943 TIP3     5499     TIP3     H2       HT       0.417000       1.00800           0
     38944 TIP3     5500     TIP3     OH2      OT      -0.834000       15.9994           0
     38945 TIP3     5500     TIP3     H1       HT       0.417000       1.00800           0
     38946 TIP3     5500     TIP3     H2       HT       0.417000       1.00800           0
     38947 TIP3     5501     TIP3     OH2      OT      -0.834000       15.9994           0
     38948 TIP3     5501     TIP3     H1       HT       0.417000       1.00800           0
     38949 TIP3     5501     TIP3     H2       HT       0.417000       1.00800           0
     38950 TIP3     5502     TIP3     OH2      OT      -0.834000       15.9994           0
     38951 TIP3     5502     TIP3     H1       HT       0.417000       1.00800           0
     38952 TIP3     5502     TIP3     H2       HT       0.417000       1.00800           0
     38953 TIP3     5503     TIP3     OH2      OT      -0.834000       15.9994           0
     38954 TIP3     5503     TIP3     H1       HT       0.417000       1.00800           0
     38955 TIP3     5503     TIP3     H2       HT       0.417000       1.00800           0
     38956 TIP3     5504     TIP3     OH2      OT      -0.834000       15.9994           0
     38957 TIP3     5504     TIP3     H1       HT       0.417000       1.00800           0
     38958 TIP3     5504     TIP3     H2       HT       0.417000       1.00800           0
     38959 TIP3     5505     TIP3     OH2      OT      -0.834000       15.9994           0
     38960 TIP3     5505     TIP3     H1       HT       0.417000       1.00800           0
     38961 TIP3     5505     TIP3     H2       HT       0.417000       1.00800           0
     38962 TIP3     5506     TIP3     OH2      OT      -0.834000       15.9994           0
     38963 TIP3     5506     TIP3     H1       HT       0.417000       1.00800           0
     38964 TIP3     5506     TIP3     H2       HT       0.417000       1.00800           0
     38965 TIP3     5507     TIP3     OH2      OT      -0.834000       15.9994           0
     38966 TIP3     5507     TIP3     H1       HT       0.417000       1.00800           0
     38967 TIP3     5507     TIP3     H2       HT       0.417000       1.00800           0
     38968 TIP3     5508     TIP3     OH2      OT      -0.834000       15.9994           0
     38969 TIP3     5508     TIP3     H1       HT       0.417000       1.00800           0
     38970 TIP3     5508     TIP3     H2       HT       0.417000       1.00800           0
     38971 TIP3     5509     TIP3     OH2      OT      -0.834000       15.9994           0
     38972 TIP3     5509     TIP3     H1       HT       0.417000       1.00800           0
     38973 TIP3     5509     TIP3     H2       HT       0.417000       1.00800           0
     38974 TIP3     5510     TIP3     OH2      OT      -0.834000       15.9994           0
     38975 TIP3     5510     TIP3     H1       HT       0.417000       1.00800           0
     38976 TIP3     5510     TIP3     H2       HT       0.417000       1.00800           0
     38977 TIP3     5511     TIP3     OH2      OT      -0.834000       15.9994           0
     38978 TIP3     5511     TIP3     H1       HT       0.417000       1.00800           0
     38979 TIP3     5511     TIP3     H2       HT       0.417000       1.00800           0
     38980 TIP3     5512     TIP3     OH2      OT      -0.834000       15.9994           0
     38981 TIP3     5512     TIP3     H1       HT       0.417000       1.00800           0
     38982 TIP3     5512     TIP3     H2       HT       0.417000       1.00800           0
     38983 TIP3     5513     TIP3     OH2      OT      -0.834000       15.9994           0
     38984 TIP3     5513     TIP3     H1       HT       0.417000       1.00800           0
     38985 TIP3     5513     TIP3     H2       HT       0.417000       1.00800           0
     38986 TIP3     5514     TIP3     OH2      OT      -0.834000       15.9994           0
     38987 TIP3     5514     TIP3     H1       HT       0.417000       1.00800           0
     38988 TIP3     5514     TIP3     H2       HT       0.417000       1.00800           0
     38989 TIP3     5515     TIP3     OH2      OT      -0.834000       15.9994           0
     38990 TIP3     5515     TIP3     H1       HT       0.417000       1.00800           0
     38991 TIP3     5515     TIP3     H2       HT       0.417000       1.00800           0
     38992 TIP3     5516     TIP3     OH2      OT      -0.834000       15.9994           0
     38993 TIP3     5516     TIP3     H1       HT       0.417000       1.00800           0
     38994 TIP3     5516     TIP3     H2       HT       0.417000       1.00800           0
     38995 TIP3     5517     TIP3     OH2      OT      -0.834000       15.9994           0
     38996 TIP3     5517     TIP3     H1       HT       0.417000       1.00800           0
     38997 TIP3     5517     TIP3     H2       HT       0.417000       1.00800           0
     38998 TIP3     5518     TIP3     OH2      OT      -0.834000       15.9994           0
     38999 TIP3     5518     TIP3     H1       HT       0.417000       1.00800           0
     39000 TIP3     5518     TIP3     H2       HT       0.417000       1.00800           0
     39001 TIP3     5519     TIP3     OH2      OT      -0.834000       15.9994           0
     39002 TIP3     5519     TIP3     H1       HT       0.417000       1.00800           0
     39003 TIP3     5519     TIP3     H2       HT       0.417000       1.00800           0
     39004 TIP3     5520     TIP3     OH2      OT      -0.834000       15.9994           0
     39005 TIP3     5520     TIP3     H1       HT       0.417000       1.00800           0
     39006 TIP3     5520     TIP3     H2       HT       0.417000       1.00800           0
     39007 TIP3     5521     TIP3     OH2      OT      -0.834000       15.9994           0
     39008 TIP3     5521     TIP3     H1       HT       0.417000       1.00800           0
     39009 TIP3     5521     TIP3     H2       HT       0.417000       1.00800           0
     39010 TIP3     5522     TIP3     OH2      OT      -0.834000       15.9994           0
     39011 TIP3     5522     TIP3     H1       HT       0.417000       1.00800           0
     39012 TIP3     5522     TIP3     H2       HT       0.417000       1.00800           0
     39013 TIP3     5523     TIP3     OH2      OT      -0.834000       15.9994           0
     39014 TIP3     5523     TIP3     H1       HT       0.417000       1.00800           0
     39015 TIP3     5523     TIP3     H2       HT       0.417000       1.00800           0
     39016 TIP3     5524     TIP3     OH2      OT      -0.834000       15.9994           0
     39017 TIP3     5524     TIP3     H1       HT       0.417000       1.00800           0
     39018 TIP3     5524     TIP3     H2       HT       0.417000       1.00800           0
     39019 TIP3     5525     TIP3     OH2      OT      -0.834000       15.9994           0
     39020 TIP3     5525     TIP3     H1       HT       0.417000       1.00800           0
     39021 TIP3     5525     TIP3     H2       HT       0.417000       1.00800           0
     39022 TIP3     5526     TIP3     OH2      OT      -0.834000       15.9994           0
     39023 TIP3     5526     TIP3     H1       HT       0.417000       1.00800           0
     39024 TIP3     5526     TIP3     H2       HT       0.417000       1.00800           0
     39025 TIP3     5527     TIP3     OH2      OT      -0.834000       15.9994           0
     39026 TIP3     5527     TIP3     H1       HT       0.417000       1.00800           0
     39027 TIP3     5527     TIP3     H2       HT       0.417000       1.00800           0
     39028 TIP3     5528     TIP3     OH2      OT      -0.834000       15.9994           0
     39029 TIP3     5528     TIP3     H1       HT       0.417000       1.00800           0
     39030 TIP3     5528     TIP3     H2       HT       0.417000       1.00800           0
     39031 TIP3     5529     TIP3     OH2      OT      -0.834000       15.9994           0
     39032 TIP3     5529     TIP3     H1       HT       0.417000       1.00800           0
     39033 TIP3     5529     TIP3     H2       HT       0.417000       1.00800           0
     39034 TIP3     5530     TIP3     OH2      OT      -0.834000       15.9994           0
     39035 TIP3     5530     TIP3     H1       HT       0.417000       1.00800           0
     39036 TIP3     5530     TIP3     H2       HT       0.417000       1.00800           0
     39037 TIP3     5531     TIP3     OH2      OT      -0.834000       15.9994           0
     39038 TIP3     5531     TIP3     H1       HT       0.417000       1.00800           0
     39039 TIP3     5531     TIP3     H2       HT       0.417000       1.00800           0
     39040 TIP3     5532     TIP3     OH2      OT      -0.834000       15.9994           0
     39041 TIP3     5532     TIP3     H1       HT       0.417000       1.00800           0
     39042 TIP3     5532     TIP3     H2       HT       0.417000       1.00800           0
     39043 TIP3     5533     TIP3     OH2      OT      -0.834000       15.9994           0
     39044 TIP3     5533     TIP3     H1       HT       0.417000       1.00800           0
     39045 TIP3     5533     TIP3     H2       HT       0.417000       1.00800           0
     39046 TIP3     5534     TIP3     OH2      OT      -0.834000       15.9994           0
     39047 TIP3     5534     TIP3     H1       HT       0.417000       1.00800           0
     39048 TIP3     5534     TIP3     H2       HT       0.417000       1.00800           0
     39049 TIP3     5535     TIP3     OH2      OT      -0.834000       15.9994           0
     39050 TIP3     5535     TIP3     H1       HT       0.417000       1.00800           0
     39051 TIP3     5535     TIP3     H2       HT       0.417000       1.00800           0
     39052 TIP3     5536     TIP3     OH2      OT      -0.834000       15.9994           0
     39053 TIP3     5536     TIP3     H1       HT       0.417000       1.00800           0
     39054 TIP3     5536     TIP3     H2       HT       0.417000       1.00800           0
     39055 TIP3     5537     TIP3     OH2      OT      -0.834000       15.9994           0
     39056 TIP3     5537     TIP3     H1       HT       0.417000       1.00800           0
     39057 TIP3     5537     TIP3     H2       HT       0.417000       1.00800           0
     39058 TIP3     5538     TIP3     OH2      OT      -0.834000       15.9994           0
     39059 TIP3     5538     TIP3     H1       HT       0.417000       1.00800           0
     39060 TIP3     5538     TIP3     H2       HT       0.417000       1.00800           0
     39061 TIP3     5539     TIP3     OH2      OT      -0.834000       15.9994           0
     39062 TIP3     5539     TIP3     H1       HT       0.417000       1.00800           0
     39063 TIP3     5539     TIP3     H2       HT       0.417000       1.00800           0
     39064 TIP3     5540     TIP3     OH2      OT      -0.834000       15.9994           0
     39065 TIP3     5540     TIP3     H1       HT       0.417000       1.00800           0
     39066 TIP3     5540     TIP3     H2       HT       0.417000       1.00800           0
     39067 TIP3     5541     TIP3     OH2      OT      -0.834000       15.9994           0
     39068 TIP3     5541     TIP3     H1       HT       0.417000       1.00800           0
     39069 TIP3     5541     TIP3     H2       HT       0.417000       1.00800           0
     39070 TIP3     5542     TIP3     OH2      OT      -0.834000       15.9994           0
     39071 TIP3     5542     TIP3     H1       HT       0.417000       1.00800           0
     39072 TIP3     5542     TIP3     H2       HT       0.417000       1.00800           0
     39073 TIP3     5543     TIP3     OH2      OT      -0.834000       15.9994           0
     39074 TIP3     5543     TIP3     H1       HT       0.417000       1.00800           0
     39075 TIP3     5543     TIP3     H2       HT       0.417000       1.00800           0
     39076 TIP3     5544     TIP3     OH2      OT      -0.834000       15.9994           0
     39077 TIP3     5544     TIP3     H1       HT       0.417000       1.00800           0
     39078 TIP3     5544     TIP3     H2       HT       0.417000       1.00800           0
     39079 TIP3     5545     TIP3     OH2      OT      -0.834000       15.9994           0
     39080 TIP3     5545     TIP3     H1       HT       0.417000       1.00800           0
     39081 TIP3     5545     TIP3     H2       HT       0.417000       1.00800           0
     39082 TIP3     5546     TIP3     OH2      OT      -0.834000       15.9994           0
     39083 TIP3     5546     TIP3     H1       HT       0.417000       1.00800           0
     39084 TIP3     5546     TIP3     H2       HT       0.417000       1.00800           0
     39085 TIP3     5547     TIP3     OH2      OT      -0.834000       15.9994           0
     39086 TIP3     5547     TIP3     H1       HT       0.417000       1.00800           0
     39087 TIP3     5547     TIP3     H2       HT       0.417000       1.00800           0
     39088 TIP3     5548     TIP3     OH2      OT      -0.834000       15.9994           0
     39089 TIP3     5548     TIP3     H1       HT       0.417000       1.00800           0
     39090 TIP3     5548     TIP3     H2       HT       0.417000       1.00800           0
     39091 TIP3     5549     TIP3     OH2      OT      -0.834000       15.9994           0
     39092 TIP3     5549     TIP3     H1       HT       0.417000       1.00800           0
     39093 TIP3     5549     TIP3     H2       HT       0.417000       1.00800           0
     39094 TIP3     5550     TIP3     OH2      OT      -0.834000       15.9994           0
     39095 TIP3     5550     TIP3     H1       HT       0.417000       1.00800           0
     39096 TIP3     5550     TIP3     H2       HT       0.417000       1.00800           0
     39097 TIP3     5551     TIP3     OH2      OT      -0.834000       15.9994           0
     39098 TIP3     5551     TIP3     H1       HT       0.417000       1.00800           0
     39099 TIP3     5551     TIP3     H2       HT       0.417000       1.00800           0
     39100 TIP3     5552     TIP3     OH2      OT      -0.834000       15.9994           0
     39101 TIP3     5552     TIP3     H1       HT       0.417000       1.00800           0
     39102 TIP3     5552     TIP3     H2       HT       0.417000       1.00800           0
     39103 TIP3     5553     TIP3     OH2      OT      -0.834000       15.9994           0
     39104 TIP3     5553     TIP3     H1       HT       0.417000       1.00800           0
     39105 TIP3     5553     TIP3     H2       HT       0.417000       1.00800           0
     39106 TIP3     5554     TIP3     OH2      OT      -0.834000       15.9994           0
     39107 TIP3     5554     TIP3     H1       HT       0.417000       1.00800           0
     39108 TIP3     5554     TIP3     H2       HT       0.417000       1.00800           0
     39109 TIP3     5555     TIP3     OH2      OT      -0.834000       15.9994           0
     39110 TIP3     5555     TIP3     H1       HT       0.417000       1.00800           0
     39111 TIP3     5555     TIP3     H2       HT       0.417000       1.00800           0
     39112 TIP3     5556     TIP3     OH2      OT      -0.834000       15.9994           0
     39113 TIP3     5556     TIP3     H1       HT       0.417000       1.00800           0
     39114 TIP3     5556     TIP3     H2       HT       0.417000       1.00800           0
     39115 TIP3     5557     TIP3     OH2      OT      -0.834000       15.9994           0
     39116 TIP3     5557     TIP3     H1       HT       0.417000       1.00800           0
     39117 TIP3     5557     TIP3     H2       HT       0.417000       1.00800           0
     39118 TIP3     5558     TIP3     OH2      OT      -0.834000       15.9994           0
     39119 TIP3     5558     TIP3     H1       HT       0.417000       1.00800           0
     39120 TIP3     5558     TIP3     H2       HT       0.417000       1.00800           0
     39121 TIP3     5559     TIP3     OH2      OT      -0.834000       15.9994           0
     39122 TIP3     5559     TIP3     H1       HT       0.417000       1.00800           0
     39123 TIP3     5559     TIP3     H2       HT       0.417000       1.00800           0
     39124 TIP3     5560     TIP3     OH2      OT      -0.834000       15.9994           0
     39125 TIP3     5560     TIP3     H1       HT       0.417000       1.00800           0
     39126 TIP3     5560     TIP3     H2       HT       0.417000       1.00800           0
     39127 TIP3     5561     TIP3     OH2      OT      -0.834000       15.9994           0
     39128 TIP3     5561     TIP3     H1       HT       0.417000       1.00800           0
     39129 TIP3     5561     TIP3     H2       HT       0.417000       1.00800           0
     39130 TIP3     5562     TIP3     OH2      OT      -0.834000       15.9994           0
     39131 TIP3     5562     TIP3     H1       HT       0.417000       1.00800           0
     39132 TIP3     5562     TIP3     H2       HT       0.417000       1.00800           0
     39133 TIP3     5563     TIP3     OH2      OT      -0.834000       15.9994           0
     39134 TIP3     5563     TIP3     H1       HT       0.417000       1.00800           0
     39135 TIP3     5563     TIP3     H2       HT       0.417000       1.00800           0
     39136 TIP3     5564     TIP3     OH2      OT      -0.834000       15.9994           0
     39137 TIP3     5564     TIP3     H1       HT       0.417000       1.00800           0
     39138 TIP3     5564     TIP3     H2       HT       0.417000       1.00800           0
     39139 TIP3     5565     TIP3     OH2      OT      -0.834000       15.9994           0
     39140 TIP3     5565     TIP3     H1       HT       0.417000       1.00800           0
     39141 TIP3     5565     TIP3     H2       HT       0.417000       1.00800           0
     39142 TIP3     5566     TIP3     OH2      OT      -0.834000       15.9994           0
     39143 TIP3     5566     TIP3     H1       HT       0.417000       1.00800           0
     39144 TIP3     5566     TIP3     H2       HT       0.417000       1.00800           0
     39145 TIP3     5567     TIP3     OH2      OT      -0.834000       15.9994           0
     39146 TIP3     5567     TIP3     H1       HT       0.417000       1.00800           0
     39147 TIP3     5567     TIP3     H2       HT       0.417000       1.00800           0
     39148 TIP3     5568     TIP3     OH2      OT      -0.834000       15.9994           0
     39149 TIP3     5568     TIP3     H1       HT       0.417000       1.00800           0
     39150 TIP3     5568     TIP3     H2       HT       0.417000       1.00800           0
     39151 TIP3     5569     TIP3     OH2      OT      -0.834000       15.9994           0
     39152 TIP3     5569     TIP3     H1       HT       0.417000       1.00800           0
     39153 TIP3     5569     TIP3     H2       HT       0.417000       1.00800           0
     39154 TIP3     5570     TIP3     OH2      OT      -0.834000       15.9994           0
     39155 TIP3     5570     TIP3     H1       HT       0.417000       1.00800           0
     39156 TIP3     5570     TIP3     H2       HT       0.417000       1.00800           0
     39157 TIP3     5571     TIP3     OH2      OT      -0.834000       15.9994           0
     39158 TIP3     5571     TIP3     H1       HT       0.417000       1.00800           0
     39159 TIP3     5571     TIP3     H2       HT       0.417000       1.00800           0
     39160 TIP3     5572     TIP3     OH2      OT      -0.834000       15.9994           0
     39161 TIP3     5572     TIP3     H1       HT       0.417000       1.00800           0
     39162 TIP3     5572     TIP3     H2       HT       0.417000       1.00800           0
     39163 TIP3     5573     TIP3     OH2      OT      -0.834000       15.9994           0
     39164 TIP3     5573     TIP3     H1       HT       0.417000       1.00800           0
     39165 TIP3     5573     TIP3     H2       HT       0.417000       1.00800           0
     39166 TIP3     5574     TIP3     OH2      OT      -0.834000       15.9994           0
     39167 TIP3     5574     TIP3     H1       HT       0.417000       1.00800           0
     39168 TIP3     5574     TIP3     H2       HT       0.417000       1.00800           0
     39169 TIP3     5575     TIP3     OH2      OT      -0.834000       15.9994           0
     39170 TIP3     5575     TIP3     H1       HT       0.417000       1.00800           0
     39171 TIP3     5575     TIP3     H2       HT       0.417000       1.00800           0
     39172 TIP3     5576     TIP3     OH2      OT      -0.834000       15.9994           0
     39173 TIP3     5576     TIP3     H1       HT       0.417000       1.00800           0
     39174 TIP3     5576     TIP3     H2       HT       0.417000       1.00800           0
     39175 TIP3     5577     TIP3     OH2      OT      -0.834000       15.9994           0
     39176 TIP3     5577     TIP3     H1       HT       0.417000       1.00800           0
     39177 TIP3     5577     TIP3     H2       HT       0.417000       1.00800           0
     39178 TIP3     5578     TIP3     OH2      OT      -0.834000       15.9994           0
     39179 TIP3     5578     TIP3     H1       HT       0.417000       1.00800           0
     39180 TIP3     5578     TIP3     H2       HT       0.417000       1.00800           0
     39181 TIP3     5579     TIP3     OH2      OT      -0.834000       15.9994           0
     39182 TIP3     5579     TIP3     H1       HT       0.417000       1.00800           0
     39183 TIP3     5579     TIP3     H2       HT       0.417000       1.00800           0
     39184 TIP3     5580     TIP3     OH2      OT      -0.834000       15.9994           0
     39185 TIP3     5580     TIP3     H1       HT       0.417000       1.00800           0
     39186 TIP3     5580     TIP3     H2       HT       0.417000       1.00800           0
     39187 TIP3     5581     TIP3     OH2      OT      -0.834000       15.9994           0
     39188 TIP3     5581     TIP3     H1       HT       0.417000       1.00800           0
     39189 TIP3     5581     TIP3     H2       HT       0.417000       1.00800           0
     39190 TIP3     5582     TIP3     OH2      OT      -0.834000       15.9994           0
     39191 TIP3     5582     TIP3     H1       HT       0.417000       1.00800           0
     39192 TIP3     5582     TIP3     H2       HT       0.417000       1.00800           0
     39193 TIP3     5583     TIP3     OH2      OT      -0.834000       15.9994           0
     39194 TIP3     5583     TIP3     H1       HT       0.417000       1.00800           0
     39195 TIP3     5583     TIP3     H2       HT       0.417000       1.00800           0
     39196 TIP3     5584     TIP3     OH2      OT      -0.834000       15.9994           0
     39197 TIP3     5584     TIP3     H1       HT       0.417000       1.00800           0
     39198 TIP3     5584     TIP3     H2       HT       0.417000       1.00800           0
     39199 TIP3     5585     TIP3     OH2      OT      -0.834000       15.9994           0
     39200 TIP3     5585     TIP3     H1       HT       0.417000       1.00800           0
     39201 TIP3     5585     TIP3     H2       HT       0.417000       1.00800           0
     39202 TIP3     5586     TIP3     OH2      OT      -0.834000       15.9994           0
     39203 TIP3     5586     TIP3     H1       HT       0.417000       1.00800           0
     39204 TIP3     5586     TIP3     H2       HT       0.417000       1.00800           0
     39205 TIP3     5587     TIP3     OH2      OT      -0.834000       15.9994           0
     39206 TIP3     5587     TIP3     H1       HT       0.417000       1.00800           0
     39207 TIP3     5587     TIP3     H2       HT       0.417000       1.00800           0
     39208 TIP3     5588     TIP3     OH2      OT      -0.834000       15.9994           0
     39209 TIP3     5588     TIP3     H1       HT       0.417000       1.00800           0
     39210 TIP3     5588     TIP3     H2       HT       0.417000       1.00800           0
     39211 TIP3     5589     TIP3     OH2      OT      -0.834000       15.9994           0
     39212 TIP3     5589     TIP3     H1       HT       0.417000       1.00800           0
     39213 TIP3     5589     TIP3     H2       HT       0.417000       1.00800           0
     39214 TIP3     5590     TIP3     OH2      OT      -0.834000       15.9994           0
     39215 TIP3     5590     TIP3     H1       HT       0.417000       1.00800           0
     39216 TIP3     5590     TIP3     H2       HT       0.417000       1.00800           0
     39217 TIP3     5591     TIP3     OH2      OT      -0.834000       15.9994           0
     39218 TIP3     5591     TIP3     H1       HT       0.417000       1.00800           0
     39219 TIP3     5591     TIP3     H2       HT       0.417000       1.00800           0
     39220 TIP3     5592     TIP3     OH2      OT      -0.834000       15.9994           0
     39221 TIP3     5592     TIP3     H1       HT       0.417000       1.00800           0
     39222 TIP3     5592     TIP3     H2       HT       0.417000       1.00800           0
     39223 TIP3     5593     TIP3     OH2      OT      -0.834000       15.9994           0
     39224 TIP3     5593     TIP3     H1       HT       0.417000       1.00800           0
     39225 TIP3     5593     TIP3     H2       HT       0.417000       1.00800           0
     39226 TIP3     5594     TIP3     OH2      OT      -0.834000       15.9994           0
     39227 TIP3     5594     TIP3     H1       HT       0.417000       1.00800           0
     39228 TIP3     5594     TIP3     H2       HT       0.417000       1.00800           0
     39229 TIP3     5595     TIP3     OH2      OT      -0.834000       15.9994           0
     39230 TIP3     5595     TIP3     H1       HT       0.417000       1.00800           0
     39231 TIP3     5595     TIP3     H2       HT       0.417000       1.00800           0
     39232 TIP3     5596     TIP3     OH2      OT      -0.834000       15.9994           0
     39233 TIP3     5596     TIP3     H1       HT       0.417000       1.00800           0
     39234 TIP3     5596     TIP3     H2       HT       0.417000       1.00800           0
     39235 TIP3     5597     TIP3     OH2      OT      -0.834000       15.9994           0
     39236 TIP3     5597     TIP3     H1       HT       0.417000       1.00800           0
     39237 TIP3     5597     TIP3     H2       HT       0.417000       1.00800           0
     39238 TIP3     5598     TIP3     OH2      OT      -0.834000       15.9994           0
     39239 TIP3     5598     TIP3     H1       HT       0.417000       1.00800           0
     39240 TIP3     5598     TIP3     H2       HT       0.417000       1.00800           0
     39241 TIP3     5599     TIP3     OH2      OT      -0.834000       15.9994           0
     39242 TIP3     5599     TIP3     H1       HT       0.417000       1.00800           0
     39243 TIP3     5599     TIP3     H2       HT       0.417000       1.00800           0
     39244 TIP3     5600     TIP3     OH2      OT      -0.834000       15.9994           0
     39245 TIP3     5600     TIP3     H1       HT       0.417000       1.00800           0
     39246 TIP3     5600     TIP3     H2       HT       0.417000       1.00800           0
     39247 TIP3     5601     TIP3     OH2      OT      -0.834000       15.9994           0
     39248 TIP3     5601     TIP3     H1       HT       0.417000       1.00800           0
     39249 TIP3     5601     TIP3     H2       HT       0.417000       1.00800           0
     39250 TIP3     5602     TIP3     OH2      OT      -0.834000       15.9994           0
     39251 TIP3     5602     TIP3     H1       HT       0.417000       1.00800           0
     39252 TIP3     5602     TIP3     H2       HT       0.417000       1.00800           0
     39253 TIP3     5603     TIP3     OH2      OT      -0.834000       15.9994           0
     39254 TIP3     5603     TIP3     H1       HT       0.417000       1.00800           0
     39255 TIP3     5603     TIP3     H2       HT       0.417000       1.00800           0
     39256 TIP3     5604     TIP3     OH2      OT      -0.834000       15.9994           0
     39257 TIP3     5604     TIP3     H1       HT       0.417000       1.00800           0
     39258 TIP3     5604     TIP3     H2       HT       0.417000       1.00800           0
     39259 TIP3     5605     TIP3     OH2      OT      -0.834000       15.9994           0
     39260 TIP3     5605     TIP3     H1       HT       0.417000       1.00800           0
     39261 TIP3     5605     TIP3     H2       HT       0.417000       1.00800           0
     39262 TIP3     5606     TIP3     OH2      OT      -0.834000       15.9994           0
     39263 TIP3     5606     TIP3     H1       HT       0.417000       1.00800           0
     39264 TIP3     5606     TIP3     H2       HT       0.417000       1.00800           0
     39265 TIP3     5607     TIP3     OH2      OT      -0.834000       15.9994           0
     39266 TIP3     5607     TIP3     H1       HT       0.417000       1.00800           0
     39267 TIP3     5607     TIP3     H2       HT       0.417000       1.00800           0
     39268 TIP3     5608     TIP3     OH2      OT      -0.834000       15.9994           0
     39269 TIP3     5608     TIP3     H1       HT       0.417000       1.00800           0
     39270 TIP3     5608     TIP3     H2       HT       0.417000       1.00800           0
     39271 TIP3     5609     TIP3     OH2      OT      -0.834000       15.9994           0
     39272 TIP3     5609     TIP3     H1       HT       0.417000       1.00800           0
     39273 TIP3     5609     TIP3     H2       HT       0.417000       1.00800           0
     39274 TIP3     5610     TIP3     OH2      OT      -0.834000       15.9994           0
     39275 TIP3     5610     TIP3     H1       HT       0.417000       1.00800           0
     39276 TIP3     5610     TIP3     H2       HT       0.417000       1.00800           0
     39277 TIP3     5611     TIP3     OH2      OT      -0.834000       15.9994           0
     39278 TIP3     5611     TIP3     H1       HT       0.417000       1.00800           0
     39279 TIP3     5611     TIP3     H2       HT       0.417000       1.00800           0
     39280 TIP3     5612     TIP3     OH2      OT      -0.834000       15.9994           0
     39281 TIP3     5612     TIP3     H1       HT       0.417000       1.00800           0
     39282 TIP3     5612     TIP3     H2       HT       0.417000       1.00800           0
     39283 TIP3     5613     TIP3     OH2      OT      -0.834000       15.9994           0
     39284 TIP3     5613     TIP3     H1       HT       0.417000       1.00800           0
     39285 TIP3     5613     TIP3     H2       HT       0.417000       1.00800           0
     39286 TIP3     5614     TIP3     OH2      OT      -0.834000       15.9994           0
     39287 TIP3     5614     TIP3     H1       HT       0.417000       1.00800           0
     39288 TIP3     5614     TIP3     H2       HT       0.417000       1.00800           0
     39289 TIP3     5615     TIP3     OH2      OT      -0.834000       15.9994           0
     39290 TIP3     5615     TIP3     H1       HT       0.417000       1.00800           0
     39291 TIP3     5615     TIP3     H2       HT       0.417000       1.00800           0
     39292 TIP3     5616     TIP3     OH2      OT      -0.834000       15.9994           0
     39293 TIP3     5616     TIP3     H1       HT       0.417000       1.00800           0
     39294 TIP3     5616     TIP3     H2       HT       0.417000       1.00800           0
     39295 TIP3     5617     TIP3     OH2      OT      -0.834000       15.9994           0
     39296 TIP3     5617     TIP3     H1       HT       0.417000       1.00800           0
     39297 TIP3     5617     TIP3     H2       HT       0.417000       1.00800           0
     39298 TIP3     5618     TIP3     OH2      OT      -0.834000       15.9994           0
     39299 TIP3     5618     TIP3     H1       HT       0.417000       1.00800           0
     39300 TIP3     5618     TIP3     H2       HT       0.417000       1.00800           0
     39301 TIP3     5619     TIP3     OH2      OT      -0.834000       15.9994           0
     39302 TIP3     5619     TIP3     H1       HT       0.417000       1.00800           0
     39303 TIP3     5619     TIP3     H2       HT       0.417000       1.00800           0
     39304 TIP3     5620     TIP3     OH2      OT      -0.834000       15.9994           0
     39305 TIP3     5620     TIP3     H1       HT       0.417000       1.00800           0
     39306 TIP3     5620     TIP3     H2       HT       0.417000       1.00800           0
     39307 TIP3     5621     TIP3     OH2      OT      -0.834000       15.9994           0
     39308 TIP3     5621     TIP3     H1       HT       0.417000       1.00800           0
     39309 TIP3     5621     TIP3     H2       HT       0.417000       1.00800           0
     39310 TIP3     5622     TIP3     OH2      OT      -0.834000       15.9994           0
     39311 TIP3     5622     TIP3     H1       HT       0.417000       1.00800           0
     39312 TIP3     5622     TIP3     H2       HT       0.417000       1.00800           0
     39313 TIP3     5623     TIP3     OH2      OT      -0.834000       15.9994           0
     39314 TIP3     5623     TIP3     H1       HT       0.417000       1.00800           0
     39315 TIP3     5623     TIP3     H2       HT       0.417000       1.00800           0
     39316 TIP3     5624     TIP3     OH2      OT      -0.834000       15.9994           0
     39317 TIP3     5624     TIP3     H1       HT       0.417000       1.00800           0
     39318 TIP3     5624     TIP3     H2       HT       0.417000       1.00800           0
     39319 TIP3     5625     TIP3     OH2      OT      -0.834000       15.9994           0
     39320 TIP3     5625     TIP3     H1       HT       0.417000       1.00800           0
     39321 TIP3     5625     TIP3     H2       HT       0.417000       1.00800           0
     39322 TIP3     5626     TIP3     OH2      OT      -0.834000       15.9994           0
     39323 TIP3     5626     TIP3     H1       HT       0.417000       1.00800           0
     39324 TIP3     5626     TIP3     H2       HT       0.417000       1.00800           0
     39325 TIP3     5627     TIP3     OH2      OT      -0.834000       15.9994           0
     39326 TIP3     5627     TIP3     H1       HT       0.417000       1.00800           0
     39327 TIP3     5627     TIP3     H2       HT       0.417000       1.00800           0
     39328 TIP3     5628     TIP3     OH2      OT      -0.834000       15.9994           0
     39329 TIP3     5628     TIP3     H1       HT       0.417000       1.00800           0
     39330 TIP3     5628     TIP3     H2       HT       0.417000       1.00800           0
     39331 TIP3     5629     TIP3     OH2      OT      -0.834000       15.9994           0
     39332 TIP3     5629     TIP3     H1       HT       0.417000       1.00800           0
     39333 TIP3     5629     TIP3     H2       HT       0.417000       1.00800           0
     39334 TIP3     5630     TIP3     OH2      OT      -0.834000       15.9994           0
     39335 TIP3     5630     TIP3     H1       HT       0.417000       1.00800           0
     39336 TIP3     5630     TIP3     H2       HT       0.417000       1.00800           0
     39337 TIP3     5631     TIP3     OH2      OT      -0.834000       15.9994           0
     39338 TIP3     5631     TIP3     H1       HT       0.417000       1.00800           0
     39339 TIP3     5631     TIP3     H2       HT       0.417000       1.00800           0
     39340 TIP3     5632     TIP3     OH2      OT      -0.834000       15.9994           0
     39341 TIP3     5632     TIP3     H1       HT       0.417000       1.00800           0
     39342 TIP3     5632     TIP3     H2       HT       0.417000       1.00800           0
     39343 TIP3     5633     TIP3     OH2      OT      -0.834000       15.9994           0
     39344 TIP3     5633     TIP3     H1       HT       0.417000       1.00800           0
     39345 TIP3     5633     TIP3     H2       HT       0.417000       1.00800           0
     39346 TIP3     5634     TIP3     OH2      OT      -0.834000       15.9994           0
     39347 TIP3     5634     TIP3     H1       HT       0.417000       1.00800           0
     39348 TIP3     5634     TIP3     H2       HT       0.417000       1.00800           0
     39349 TIP3     5635     TIP3     OH2      OT      -0.834000       15.9994           0
     39350 TIP3     5635     TIP3     H1       HT       0.417000       1.00800           0
     39351 TIP3     5635     TIP3     H2       HT       0.417000       1.00800           0
     39352 TIP3     5636     TIP3     OH2      OT      -0.834000       15.9994           0
     39353 TIP3     5636     TIP3     H1       HT       0.417000       1.00800           0
     39354 TIP3     5636     TIP3     H2       HT       0.417000       1.00800           0
     39355 TIP3     5637     TIP3     OH2      OT      -0.834000       15.9994           0
     39356 TIP3     5637     TIP3     H1       HT       0.417000       1.00800           0
     39357 TIP3     5637     TIP3     H2       HT       0.417000       1.00800           0
     39358 TIP3     5638     TIP3     OH2      OT      -0.834000       15.9994           0
     39359 TIP3     5638     TIP3     H1       HT       0.417000       1.00800           0
     39360 TIP3     5638     TIP3     H2       HT       0.417000       1.00800           0
     39361 TIP3     5639     TIP3     OH2      OT      -0.834000       15.9994           0
     39362 TIP3     5639     TIP3     H1       HT       0.417000       1.00800           0
     39363 TIP3     5639     TIP3     H2       HT       0.417000       1.00800           0
     39364 TIP3     5640     TIP3     OH2      OT      -0.834000       15.9994           0
     39365 TIP3     5640     TIP3     H1       HT       0.417000       1.00800           0
     39366 TIP3     5640     TIP3     H2       HT       0.417000       1.00800           0
     39367 TIP3     5641     TIP3     OH2      OT      -0.834000       15.9994           0
     39368 TIP3     5641     TIP3     H1       HT       0.417000       1.00800           0
     39369 TIP3     5641     TIP3     H2       HT       0.417000       1.00800           0
     39370 TIP3     5642     TIP3     OH2      OT      -0.834000       15.9994           0
     39371 TIP3     5642     TIP3     H1       HT       0.417000       1.00800           0
     39372 TIP3     5642     TIP3     H2       HT       0.417000       1.00800           0
     39373 TIP3     5643     TIP3     OH2      OT      -0.834000       15.9994           0
     39374 TIP3     5643     TIP3     H1       HT       0.417000       1.00800           0
     39375 TIP3     5643     TIP3     H2       HT       0.417000       1.00800           0
     39376 TIP3     5644     TIP3     OH2      OT      -0.834000       15.9994           0
     39377 TIP3     5644     TIP3     H1       HT       0.417000       1.00800           0
     39378 TIP3     5644     TIP3     H2       HT       0.417000       1.00800           0
     39379 TIP3     5645     TIP3     OH2      OT      -0.834000       15.9994           0
     39380 TIP3     5645     TIP3     H1       HT       0.417000       1.00800           0
     39381 TIP3     5645     TIP3     H2       HT       0.417000       1.00800           0
     39382 TIP3     5646     TIP3     OH2      OT      -0.834000       15.9994           0
     39383 TIP3     5646     TIP3     H1       HT       0.417000       1.00800           0
     39384 TIP3     5646     TIP3     H2       HT       0.417000       1.00800           0
     39385 TIP3     5647     TIP3     OH2      OT      -0.834000       15.9994           0
     39386 TIP3     5647     TIP3     H1       HT       0.417000       1.00800           0
     39387 TIP3     5647     TIP3     H2       HT       0.417000       1.00800           0
     39388 TIP3     5648     TIP3     OH2      OT      -0.834000       15.9994           0
     39389 TIP3     5648     TIP3     H1       HT       0.417000       1.00800           0
     39390 TIP3     5648     TIP3     H2       HT       0.417000       1.00800           0
     39391 TIP3     5649     TIP3     OH2      OT      -0.834000       15.9994           0
     39392 TIP3     5649     TIP3     H1       HT       0.417000       1.00800           0
     39393 TIP3     5649     TIP3     H2       HT       0.417000       1.00800           0
     39394 TIP3     5650     TIP3     OH2      OT      -0.834000       15.9994           0
     39395 TIP3     5650     TIP3     H1       HT       0.417000       1.00800           0
     39396 TIP3     5650     TIP3     H2       HT       0.417000       1.00800           0
     39397 TIP3     5651     TIP3     OH2      OT      -0.834000       15.9994           0
     39398 TIP3     5651     TIP3     H1       HT       0.417000       1.00800           0
     39399 TIP3     5651     TIP3     H2       HT       0.417000       1.00800           0
     39400 TIP3     5652     TIP3     OH2      OT      -0.834000       15.9994           0
     39401 TIP3     5652     TIP3     H1       HT       0.417000       1.00800           0
     39402 TIP3     5652     TIP3     H2       HT       0.417000       1.00800           0
     39403 TIP3     5653     TIP3     OH2      OT      -0.834000       15.9994           0
     39404 TIP3     5653     TIP3     H1       HT       0.417000       1.00800           0
     39405 TIP3     5653     TIP3     H2       HT       0.417000       1.00800           0
     39406 TIP3     5654     TIP3     OH2      OT      -0.834000       15.9994           0
     39407 TIP3     5654     TIP3     H1       HT       0.417000       1.00800           0
     39408 TIP3     5654     TIP3     H2       HT       0.417000       1.00800           0
     39409 TIP3     5655     TIP3     OH2      OT      -0.834000       15.9994           0
     39410 TIP3     5655     TIP3     H1       HT       0.417000       1.00800           0
     39411 TIP3     5655     TIP3     H2       HT       0.417000       1.00800           0
     39412 TIP3     5656     TIP3     OH2      OT      -0.834000       15.9994           0
     39413 TIP3     5656     TIP3     H1       HT       0.417000       1.00800           0
     39414 TIP3     5656     TIP3     H2       HT       0.417000       1.00800           0
     39415 TIP3     5657     TIP3     OH2      OT      -0.834000       15.9994           0
     39416 TIP3     5657     TIP3     H1       HT       0.417000       1.00800           0
     39417 TIP3     5657     TIP3     H2       HT       0.417000       1.00800           0
     39418 TIP3     5658     TIP3     OH2      OT      -0.834000       15.9994           0
     39419 TIP3     5658     TIP3     H1       HT       0.417000       1.00800           0
     39420 TIP3     5658     TIP3     H2       HT       0.417000       1.00800           0
     39421 TIP3     5659     TIP3     OH2      OT      -0.834000       15.9994           0
     39422 TIP3     5659     TIP3     H1       HT       0.417000       1.00800           0
     39423 TIP3     5659     TIP3     H2       HT       0.417000       1.00800           0
     39424 TIP3     5660     TIP3     OH2      OT      -0.834000       15.9994           0
     39425 TIP3     5660     TIP3     H1       HT       0.417000       1.00800           0
     39426 TIP3     5660     TIP3     H2       HT       0.417000       1.00800           0
     39427 TIP3     5661     TIP3     OH2      OT      -0.834000       15.9994           0
     39428 TIP3     5661     TIP3     H1       HT       0.417000       1.00800           0
     39429 TIP3     5661     TIP3     H2       HT       0.417000       1.00800           0
     39430 TIP3     5662     TIP3     OH2      OT      -0.834000       15.9994           0
     39431 TIP3     5662     TIP3     H1       HT       0.417000       1.00800           0
     39432 TIP3     5662     TIP3     H2       HT       0.417000       1.00800           0
     39433 TIP3     5663     TIP3     OH2      OT      -0.834000       15.9994           0
     39434 TIP3     5663     TIP3     H1       HT       0.417000       1.00800           0
     39435 TIP3     5663     TIP3     H2       HT       0.417000       1.00800           0
     39436 TIP3     5664     TIP3     OH2      OT      -0.834000       15.9994           0
     39437 TIP3     5664     TIP3     H1       HT       0.417000       1.00800           0
     39438 TIP3     5664     TIP3     H2       HT       0.417000       1.00800           0
     39439 TIP3     5665     TIP3     OH2      OT      -0.834000       15.9994           0
     39440 TIP3     5665     TIP3     H1       HT       0.417000       1.00800           0
     39441 TIP3     5665     TIP3     H2       HT       0.417000       1.00800           0
     39442 TIP3     5666     TIP3     OH2      OT      -0.834000       15.9994           0
     39443 TIP3     5666     TIP3     H1       HT       0.417000       1.00800           0
     39444 TIP3     5666     TIP3     H2       HT       0.417000       1.00800           0
     39445 TIP3     5667     TIP3     OH2      OT      -0.834000       15.9994           0
     39446 TIP3     5667     TIP3     H1       HT       0.417000       1.00800           0
     39447 TIP3     5667     TIP3     H2       HT       0.417000       1.00800           0
     39448 TIP3     5668     TIP3     OH2      OT      -0.834000       15.9994           0
     39449 TIP3     5668     TIP3     H1       HT       0.417000       1.00800           0
     39450 TIP3     5668     TIP3     H2       HT       0.417000       1.00800           0
     39451 TIP3     5669     TIP3     OH2      OT      -0.834000       15.9994           0
     39452 TIP3     5669     TIP3     H1       HT       0.417000       1.00800           0
     39453 TIP3     5669     TIP3     H2       HT       0.417000       1.00800           0
     39454 TIP3     5670     TIP3     OH2      OT      -0.834000       15.9994           0
     39455 TIP3     5670     TIP3     H1       HT       0.417000       1.00800           0
     39456 TIP3     5670     TIP3     H2       HT       0.417000       1.00800           0
     39457 TIP3     5671     TIP3     OH2      OT      -0.834000       15.9994           0
     39458 TIP3     5671     TIP3     H1       HT       0.417000       1.00800           0
     39459 TIP3     5671     TIP3     H2       HT       0.417000       1.00800           0
     39460 TIP3     5672     TIP3     OH2      OT      -0.834000       15.9994           0
     39461 TIP3     5672     TIP3     H1       HT       0.417000       1.00800           0
     39462 TIP3     5672     TIP3     H2       HT       0.417000       1.00800           0
     39463 TIP3     5673     TIP3     OH2      OT      -0.834000       15.9994           0
     39464 TIP3     5673     TIP3     H1       HT       0.417000       1.00800           0
     39465 TIP3     5673     TIP3     H2       HT       0.417000       1.00800           0
     39466 TIP3     5674     TIP3     OH2      OT      -0.834000       15.9994           0
     39467 TIP3     5674     TIP3     H1       HT       0.417000       1.00800           0
     39468 TIP3     5674     TIP3     H2       HT       0.417000       1.00800           0
     39469 TIP3     5675     TIP3     OH2      OT      -0.834000       15.9994           0
     39470 TIP3     5675     TIP3     H1       HT       0.417000       1.00800           0
     39471 TIP3     5675     TIP3     H2       HT       0.417000       1.00800           0
     39472 TIP3     5676     TIP3     OH2      OT      -0.834000       15.9994           0
     39473 TIP3     5676     TIP3     H1       HT       0.417000       1.00800           0
     39474 TIP3     5676     TIP3     H2       HT       0.417000       1.00800           0
     39475 TIP3     5677     TIP3     OH2      OT      -0.834000       15.9994           0
     39476 TIP3     5677     TIP3     H1       HT       0.417000       1.00800           0
     39477 TIP3     5677     TIP3     H2       HT       0.417000       1.00800           0
     39478 TIP3     5678     TIP3     OH2      OT      -0.834000       15.9994           0
     39479 TIP3     5678     TIP3     H1       HT       0.417000       1.00800           0
     39480 TIP3     5678     TIP3     H2       HT       0.417000       1.00800           0
     39481 TIP3     5679     TIP3     OH2      OT      -0.834000       15.9994           0
     39482 TIP3     5679     TIP3     H1       HT       0.417000       1.00800           0
     39483 TIP3     5679     TIP3     H2       HT       0.417000       1.00800           0
     39484 TIP3     5680     TIP3     OH2      OT      -0.834000       15.9994           0
     39485 TIP3     5680     TIP3     H1       HT       0.417000       1.00800           0
     39486 TIP3     5680     TIP3     H2       HT       0.417000       1.00800           0
     39487 TIP3     5681     TIP3     OH2      OT      -0.834000       15.9994           0
     39488 TIP3     5681     TIP3     H1       HT       0.417000       1.00800           0
     39489 TIP3     5681     TIP3     H2       HT       0.417000       1.00800           0
     39490 TIP3     5682     TIP3     OH2      OT      -0.834000       15.9994           0
     39491 TIP3     5682     TIP3     H1       HT       0.417000       1.00800           0
     39492 TIP3     5682     TIP3     H2       HT       0.417000       1.00800           0
     39493 TIP3     5683     TIP3     OH2      OT      -0.834000       15.9994           0
     39494 TIP3     5683     TIP3     H1       HT       0.417000       1.00800           0
     39495 TIP3     5683     TIP3     H2       HT       0.417000       1.00800           0
     39496 TIP3     5684     TIP3     OH2      OT      -0.834000       15.9994           0
     39497 TIP3     5684     TIP3     H1       HT       0.417000       1.00800           0
     39498 TIP3     5684     TIP3     H2       HT       0.417000       1.00800           0
     39499 TIP3     5685     TIP3     OH2      OT      -0.834000       15.9994           0
     39500 TIP3     5685     TIP3     H1       HT       0.417000       1.00800           0
     39501 TIP3     5685     TIP3     H2       HT       0.417000       1.00800           0
     39502 TIP3     5686     TIP3     OH2      OT      -0.834000       15.9994           0
     39503 TIP3     5686     TIP3     H1       HT       0.417000       1.00800           0
     39504 TIP3     5686     TIP3     H2       HT       0.417000       1.00800           0
     39505 TIP3     5687     TIP3     OH2      OT      -0.834000       15.9994           0
     39506 TIP3     5687     TIP3     H1       HT       0.417000       1.00800           0
     39507 TIP3     5687     TIP3     H2       HT       0.417000       1.00800           0
     39508 TIP3     5688     TIP3     OH2      OT      -0.834000       15.9994           0
     39509 TIP3     5688     TIP3     H1       HT       0.417000       1.00800           0
     39510 TIP3     5688     TIP3     H2       HT       0.417000       1.00800           0
     39511 TIP3     5689     TIP3     OH2      OT      -0.834000       15.9994           0
     39512 TIP3     5689     TIP3     H1       HT       0.417000       1.00800           0
     39513 TIP3     5689     TIP3     H2       HT       0.417000       1.00800           0
     39514 TIP3     5690     TIP3     OH2      OT      -0.834000       15.9994           0
     39515 TIP3     5690     TIP3     H1       HT       0.417000       1.00800           0
     39516 TIP3     5690     TIP3     H2       HT       0.417000       1.00800           0
     39517 TIP3     5691     TIP3     OH2      OT      -0.834000       15.9994           0
     39518 TIP3     5691     TIP3     H1       HT       0.417000       1.00800           0
     39519 TIP3     5691     TIP3     H2       HT       0.417000       1.00800           0
     39520 TIP3     5692     TIP3     OH2      OT      -0.834000       15.9994           0
     39521 TIP3     5692     TIP3     H1       HT       0.417000       1.00800           0
     39522 TIP3     5692     TIP3     H2       HT       0.417000       1.00800           0
     39523 TIP3     5693     TIP3     OH2      OT      -0.834000       15.9994           0
     39524 TIP3     5693     TIP3     H1       HT       0.417000       1.00800           0
     39525 TIP3     5693     TIP3     H2       HT       0.417000       1.00800           0
     39526 TIP3     5694     TIP3     OH2      OT      -0.834000       15.9994           0
     39527 TIP3     5694     TIP3     H1       HT       0.417000       1.00800           0
     39528 TIP3     5694     TIP3     H2       HT       0.417000       1.00800           0
     39529 TIP3     5695     TIP3     OH2      OT      -0.834000       15.9994           0
     39530 TIP3     5695     TIP3     H1       HT       0.417000       1.00800           0
     39531 TIP3     5695     TIP3     H2       HT       0.417000       1.00800           0
     39532 TIP3     5696     TIP3     OH2      OT      -0.834000       15.9994           0
     39533 TIP3     5696     TIP3     H1       HT       0.417000       1.00800           0
     39534 TIP3     5696     TIP3     H2       HT       0.417000       1.00800           0
     39535 TIP3     5697     TIP3     OH2      OT      -0.834000       15.9994           0
     39536 TIP3     5697     TIP3     H1       HT       0.417000       1.00800           0
     39537 TIP3     5697     TIP3     H2       HT       0.417000       1.00800           0
     39538 TIP3     5698     TIP3     OH2      OT      -0.834000       15.9994           0
     39539 TIP3     5698     TIP3     H1       HT       0.417000       1.00800           0
     39540 TIP3     5698     TIP3     H2       HT       0.417000       1.00800           0
     39541 TIP3     5699     TIP3     OH2      OT      -0.834000       15.9994           0
     39542 TIP3     5699     TIP3     H1       HT       0.417000       1.00800           0
     39543 TIP3     5699     TIP3     H2       HT       0.417000       1.00800           0
     39544 TIP3     5700     TIP3     OH2      OT      -0.834000       15.9994           0
     39545 TIP3     5700     TIP3     H1       HT       0.417000       1.00800           0
     39546 TIP3     5700     TIP3     H2       HT       0.417000       1.00800           0
     39547 TIP3     5701     TIP3     OH2      OT      -0.834000       15.9994           0
     39548 TIP3     5701     TIP3     H1       HT       0.417000       1.00800           0
     39549 TIP3     5701     TIP3     H2       HT       0.417000       1.00800           0
     39550 TIP3     5702     TIP3     OH2      OT      -0.834000       15.9994           0
     39551 TIP3     5702     TIP3     H1       HT       0.417000       1.00800           0
     39552 TIP3     5702     TIP3     H2       HT       0.417000       1.00800           0
     39553 TIP3     5703     TIP3     OH2      OT      -0.834000       15.9994           0
     39554 TIP3     5703     TIP3     H1       HT       0.417000       1.00800           0
     39555 TIP3     5703     TIP3     H2       HT       0.417000       1.00800           0
     39556 TIP3     5704     TIP3     OH2      OT      -0.834000       15.9994           0
     39557 TIP3     5704     TIP3     H1       HT       0.417000       1.00800           0
     39558 TIP3     5704     TIP3     H2       HT       0.417000       1.00800           0
     39559 TIP3     5705     TIP3     OH2      OT      -0.834000       15.9994           0
     39560 TIP3     5705     TIP3     H1       HT       0.417000       1.00800           0
     39561 TIP3     5705     TIP3     H2       HT       0.417000       1.00800           0
     39562 TIP3     5706     TIP3     OH2      OT      -0.834000       15.9994           0
     39563 TIP3     5706     TIP3     H1       HT       0.417000       1.00800           0
     39564 TIP3     5706     TIP3     H2       HT       0.417000       1.00800           0
     39565 TIP3     5707     TIP3     OH2      OT      -0.834000       15.9994           0
     39566 TIP3     5707     TIP3     H1       HT       0.417000       1.00800           0
     39567 TIP3     5707     TIP3     H2       HT       0.417000       1.00800           0
     39568 TIP3     5708     TIP3     OH2      OT      -0.834000       15.9994           0
     39569 TIP3     5708     TIP3     H1       HT       0.417000       1.00800           0
     39570 TIP3     5708     TIP3     H2       HT       0.417000       1.00800           0
     39571 TIP3     5709     TIP3     OH2      OT      -0.834000       15.9994           0
     39572 TIP3     5709     TIP3     H1       HT       0.417000       1.00800           0
     39573 TIP3     5709     TIP3     H2       HT       0.417000       1.00800           0
     39574 TIP3     5710     TIP3     OH2      OT      -0.834000       15.9994           0
     39575 TIP3     5710     TIP3     H1       HT       0.417000       1.00800           0
     39576 TIP3     5710     TIP3     H2       HT       0.417000       1.00800           0
     39577 TIP3     5711     TIP3     OH2      OT      -0.834000       15.9994           0
     39578 TIP3     5711     TIP3     H1       HT       0.417000       1.00800           0
     39579 TIP3     5711     TIP3     H2       HT       0.417000       1.00800           0
     39580 TIP3     5712     TIP3     OH2      OT      -0.834000       15.9994           0
     39581 TIP3     5712     TIP3     H1       HT       0.417000       1.00800           0
     39582 TIP3     5712     TIP3     H2       HT       0.417000       1.00800           0
     39583 TIP3     5713     TIP3     OH2      OT      -0.834000       15.9994           0
     39584 TIP3     5713     TIP3     H1       HT       0.417000       1.00800           0
     39585 TIP3     5713     TIP3     H2       HT       0.417000       1.00800           0
     39586 TIP3     5714     TIP3     OH2      OT      -0.834000       15.9994           0
     39587 TIP3     5714     TIP3     H1       HT       0.417000       1.00800           0
     39588 TIP3     5714     TIP3     H2       HT       0.417000       1.00800           0
     39589 TIP3     5715     TIP3     OH2      OT      -0.834000       15.9994           0
     39590 TIP3     5715     TIP3     H1       HT       0.417000       1.00800           0
     39591 TIP3     5715     TIP3     H2       HT       0.417000       1.00800           0
     39592 TIP3     5716     TIP3     OH2      OT      -0.834000       15.9994           0
     39593 TIP3     5716     TIP3     H1       HT       0.417000       1.00800           0
     39594 TIP3     5716     TIP3     H2       HT       0.417000       1.00800           0
     39595 TIP3     5717     TIP3     OH2      OT      -0.834000       15.9994           0
     39596 TIP3     5717     TIP3     H1       HT       0.417000       1.00800           0
     39597 TIP3     5717     TIP3     H2       HT       0.417000       1.00800           0
     39598 TIP3     5718     TIP3     OH2      OT      -0.834000       15.9994           0
     39599 TIP3     5718     TIP3     H1       HT       0.417000       1.00800           0
     39600 TIP3     5718     TIP3     H2       HT       0.417000       1.00800           0
     39601 TIP3     5719     TIP3     OH2      OT      -0.834000       15.9994           0
     39602 TIP3     5719     TIP3     H1       HT       0.417000       1.00800           0
     39603 TIP3     5719     TIP3     H2       HT       0.417000       1.00800           0
     39604 TIP3     5720     TIP3     OH2      OT      -0.834000       15.9994           0
     39605 TIP3     5720     TIP3     H1       HT       0.417000       1.00800           0
     39606 TIP3     5720     TIP3     H2       HT       0.417000       1.00800           0
     39607 TIP3     5721     TIP3     OH2      OT      -0.834000       15.9994           0
     39608 TIP3     5721     TIP3     H1       HT       0.417000       1.00800           0
     39609 TIP3     5721     TIP3     H2       HT       0.417000       1.00800           0
     39610 TIP3     5722     TIP3     OH2      OT      -0.834000       15.9994           0
     39611 TIP3     5722     TIP3     H1       HT       0.417000       1.00800           0
     39612 TIP3     5722     TIP3     H2       HT       0.417000       1.00800           0
     39613 TIP3     5723     TIP3     OH2      OT      -0.834000       15.9994           0
     39614 TIP3     5723     TIP3     H1       HT       0.417000       1.00800           0
     39615 TIP3     5723     TIP3     H2       HT       0.417000       1.00800           0
     39616 TIP3     5724     TIP3     OH2      OT      -0.834000       15.9994           0
     39617 TIP3     5724     TIP3     H1       HT       0.417000       1.00800           0
     39618 TIP3     5724     TIP3     H2       HT       0.417000       1.00800           0
     39619 TIP3     5725     TIP3     OH2      OT      -0.834000       15.9994           0
     39620 TIP3     5725     TIP3     H1       HT       0.417000       1.00800           0
     39621 TIP3     5725     TIP3     H2       HT       0.417000       1.00800           0
     39622 TIP3     5726     TIP3     OH2      OT      -0.834000       15.9994           0
     39623 TIP3     5726     TIP3     H1       HT       0.417000       1.00800           0
     39624 TIP3     5726     TIP3     H2       HT       0.417000       1.00800           0
     39625 TIP3     5727     TIP3     OH2      OT      -0.834000       15.9994           0
     39626 TIP3     5727     TIP3     H1       HT       0.417000       1.00800           0
     39627 TIP3     5727     TIP3     H2       HT       0.417000       1.00800           0
     39628 TIP3     5728     TIP3     OH2      OT      -0.834000       15.9994           0
     39629 TIP3     5728     TIP3     H1       HT       0.417000       1.00800           0
     39630 TIP3     5728     TIP3     H2       HT       0.417000       1.00800           0
     39631 TIP3     5729     TIP3     OH2      OT      -0.834000       15.9994           0
     39632 TIP3     5729     TIP3     H1       HT       0.417000       1.00800           0
     39633 TIP3     5729     TIP3     H2       HT       0.417000       1.00800           0
     39634 TIP3     5730     TIP3     OH2      OT      -0.834000       15.9994           0
     39635 TIP3     5730     TIP3     H1       HT       0.417000       1.00800           0
     39636 TIP3     5730     TIP3     H2       HT       0.417000       1.00800           0
     39637 TIP3     5731     TIP3     OH2      OT      -0.834000       15.9994           0
     39638 TIP3     5731     TIP3     H1       HT       0.417000       1.00800           0
     39639 TIP3     5731     TIP3     H2       HT       0.417000       1.00800           0
     39640 TIP3     5732     TIP3     OH2      OT      -0.834000       15.9994           0
     39641 TIP3     5732     TIP3     H1       HT       0.417000       1.00800           0
     39642 TIP3     5732     TIP3     H2       HT       0.417000       1.00800           0
     39643 TIP3     5733     TIP3     OH2      OT      -0.834000       15.9994           0
     39644 TIP3     5733     TIP3     H1       HT       0.417000       1.00800           0
     39645 TIP3     5733     TIP3     H2       HT       0.417000       1.00800           0
     39646 TIP3     5734     TIP3     OH2      OT      -0.834000       15.9994           0
     39647 TIP3     5734     TIP3     H1       HT       0.417000       1.00800           0
     39648 TIP3     5734     TIP3     H2       HT       0.417000       1.00800           0
     39649 TIP3     5735     TIP3     OH2      OT      -0.834000       15.9994           0
     39650 TIP3     5735     TIP3     H1       HT       0.417000       1.00800           0
     39651 TIP3     5735     TIP3     H2       HT       0.417000       1.00800           0
     39652 TIP3     5736     TIP3     OH2      OT      -0.834000       15.9994           0
     39653 TIP3     5736     TIP3     H1       HT       0.417000       1.00800           0
     39654 TIP3     5736     TIP3     H2       HT       0.417000       1.00800           0
     39655 TIP3     5737     TIP3     OH2      OT      -0.834000       15.9994           0
     39656 TIP3     5737     TIP3     H1       HT       0.417000       1.00800           0
     39657 TIP3     5737     TIP3     H2       HT       0.417000       1.00800           0
     39658 TIP3     5738     TIP3     OH2      OT      -0.834000       15.9994           0
     39659 TIP3     5738     TIP3     H1       HT       0.417000       1.00800           0
     39660 TIP3     5738     TIP3     H2       HT       0.417000       1.00800           0
     39661 TIP3     5739     TIP3     OH2      OT      -0.834000       15.9994           0
     39662 TIP3     5739     TIP3     H1       HT       0.417000       1.00800           0
     39663 TIP3     5739     TIP3     H2       HT       0.417000       1.00800           0
     39664 TIP3     5740     TIP3     OH2      OT      -0.834000       15.9994           0
     39665 TIP3     5740     TIP3     H1       HT       0.417000       1.00800           0
     39666 TIP3     5740     TIP3     H2       HT       0.417000       1.00800           0
     39667 TIP3     5741     TIP3     OH2      OT      -0.834000       15.9994           0
     39668 TIP3     5741     TIP3     H1       HT       0.417000       1.00800           0
     39669 TIP3     5741     TIP3     H2       HT       0.417000       1.00800           0
     39670 TIP3     5742     TIP3     OH2      OT      -0.834000       15.9994           0
     39671 TIP3     5742     TIP3     H1       HT       0.417000       1.00800           0
     39672 TIP3     5742     TIP3     H2       HT       0.417000       1.00800           0
     39673 TIP3     5743     TIP3     OH2      OT      -0.834000       15.9994           0
     39674 TIP3     5743     TIP3     H1       HT       0.417000       1.00800           0
     39675 TIP3     5743     TIP3     H2       HT       0.417000       1.00800           0
     39676 TIP3     5744     TIP3     OH2      OT      -0.834000       15.9994           0
     39677 TIP3     5744     TIP3     H1       HT       0.417000       1.00800           0
     39678 TIP3     5744     TIP3     H2       HT       0.417000       1.00800           0
     39679 TIP3     5745     TIP3     OH2      OT      -0.834000       15.9994           0
     39680 TIP3     5745     TIP3     H1       HT       0.417000       1.00800           0
     39681 TIP3     5745     TIP3     H2       HT       0.417000       1.00800           0
     39682 TIP3     5746     TIP3     OH2      OT      -0.834000       15.9994           0
     39683 TIP3     5746     TIP3     H1       HT       0.417000       1.00800           0
     39684 TIP3     5746     TIP3     H2       HT       0.417000       1.00800           0
     39685 TIP3     5747     TIP3     OH2      OT      -0.834000       15.9994           0
     39686 TIP3     5747     TIP3     H1       HT       0.417000       1.00800           0
     39687 TIP3     5747     TIP3     H2       HT       0.417000       1.00800           0
     39688 TIP3     5748     TIP3     OH2      OT      -0.834000       15.9994           0
     39689 TIP3     5748     TIP3     H1       HT       0.417000       1.00800           0
     39690 TIP3     5748     TIP3     H2       HT       0.417000       1.00800           0
     39691 TIP3     5749     TIP3     OH2      OT      -0.834000       15.9994           0
     39692 TIP3     5749     TIP3     H1       HT       0.417000       1.00800           0
     39693 TIP3     5749     TIP3     H2       HT       0.417000       1.00800           0
     39694 TIP3     5750     TIP3     OH2      OT      -0.834000       15.9994           0
     39695 TIP3     5750     TIP3     H1       HT       0.417000       1.00800           0
     39696 TIP3     5750     TIP3     H2       HT       0.417000       1.00800           0
     39697 TIP3     5751     TIP3     OH2      OT      -0.834000       15.9994           0
     39698 TIP3     5751     TIP3     H1       HT       0.417000       1.00800           0
     39699 TIP3     5751     TIP3     H2       HT       0.417000       1.00800           0
     39700 TIP3     5752     TIP3     OH2      OT      -0.834000       15.9994           0
     39701 TIP3     5752     TIP3     H1       HT       0.417000       1.00800           0
     39702 TIP3     5752     TIP3     H2       HT       0.417000       1.00800           0
     39703 TIP3     5753     TIP3     OH2      OT      -0.834000       15.9994           0
     39704 TIP3     5753     TIP3     H1       HT       0.417000       1.00800           0
     39705 TIP3     5753     TIP3     H2       HT       0.417000       1.00800           0
     39706 TIP3     5754     TIP3     OH2      OT      -0.834000       15.9994           0
     39707 TIP3     5754     TIP3     H1       HT       0.417000       1.00800           0
     39708 TIP3     5754     TIP3     H2       HT       0.417000       1.00800           0
     39709 TIP3     5755     TIP3     OH2      OT      -0.834000       15.9994           0
     39710 TIP3     5755     TIP3     H1       HT       0.417000       1.00800           0
     39711 TIP3     5755     TIP3     H2       HT       0.417000       1.00800           0
     39712 TIP3     5756     TIP3     OH2      OT      -0.834000       15.9994           0
     39713 TIP3     5756     TIP3     H1       HT       0.417000       1.00800           0
     39714 TIP3     5756     TIP3     H2       HT       0.417000       1.00800           0
     39715 TIP3     5757     TIP3     OH2      OT      -0.834000       15.9994           0
     39716 TIP3     5757     TIP3     H1       HT       0.417000       1.00800           0
     39717 TIP3     5757     TIP3     H2       HT       0.417000       1.00800           0
     39718 TIP3     5758     TIP3     OH2      OT      -0.834000       15.9994           0
     39719 TIP3     5758     TIP3     H1       HT       0.417000       1.00800           0
     39720 TIP3     5758     TIP3     H2       HT       0.417000       1.00800           0
     39721 TIP3     5759     TIP3     OH2      OT      -0.834000       15.9994           0
     39722 TIP3     5759     TIP3     H1       HT       0.417000       1.00800           0
     39723 TIP3     5759     TIP3     H2       HT       0.417000       1.00800           0
     39724 TIP3     5760     TIP3     OH2      OT      -0.834000       15.9994           0
     39725 TIP3     5760     TIP3     H1       HT       0.417000       1.00800           0
     39726 TIP3     5760     TIP3     H2       HT       0.417000       1.00800           0
     39727 TIP3     5761     TIP3     OH2      OT      -0.834000       15.9994           0
     39728 TIP3     5761     TIP3     H1       HT       0.417000       1.00800           0
     39729 TIP3     5761     TIP3     H2       HT       0.417000       1.00800           0
     39730 TIP3     5762     TIP3     OH2      OT      -0.834000       15.9994           0
     39731 TIP3     5762     TIP3     H1       HT       0.417000       1.00800           0
     39732 TIP3     5762     TIP3     H2       HT       0.417000       1.00800           0
     39733 TIP3     5763     TIP3     OH2      OT      -0.834000       15.9994           0
     39734 TIP3     5763     TIP3     H1       HT       0.417000       1.00800           0
     39735 TIP3     5763     TIP3     H2       HT       0.417000       1.00800           0
     39736 TIP3     5764     TIP3     OH2      OT      -0.834000       15.9994           0
     39737 TIP3     5764     TIP3     H1       HT       0.417000       1.00800           0
     39738 TIP3     5764     TIP3     H2       HT       0.417000       1.00800           0
     39739 TIP3     5765     TIP3     OH2      OT      -0.834000       15.9994           0
     39740 TIP3     5765     TIP3     H1       HT       0.417000       1.00800           0
     39741 TIP3     5765     TIP3     H2       HT       0.417000       1.00800           0
     39742 TIP3     5766     TIP3     OH2      OT      -0.834000       15.9994           0
     39743 TIP3     5766     TIP3     H1       HT       0.417000       1.00800           0
     39744 TIP3     5766     TIP3     H2       HT       0.417000       1.00800           0
     39745 TIP3     5767     TIP3     OH2      OT      -0.834000       15.9994           0
     39746 TIP3     5767     TIP3     H1       HT       0.417000       1.00800           0
     39747 TIP3     5767     TIP3     H2       HT       0.417000       1.00800           0
     39748 TIP3     5768     TIP3     OH2      OT      -0.834000       15.9994           0
     39749 TIP3     5768     TIP3     H1       HT       0.417000       1.00800           0
     39750 TIP3     5768     TIP3     H2       HT       0.417000       1.00800           0
     39751 TIP3     5769     TIP3     OH2      OT      -0.834000       15.9994           0
     39752 TIP3     5769     TIP3     H1       HT       0.417000       1.00800           0
     39753 TIP3     5769     TIP3     H2       HT       0.417000       1.00800           0
     39754 TIP3     5770     TIP3     OH2      OT      -0.834000       15.9994           0
     39755 TIP3     5770     TIP3     H1       HT       0.417000       1.00800           0
     39756 TIP3     5770     TIP3     H2       HT       0.417000       1.00800           0
     39757 TIP3     5771     TIP3     OH2      OT      -0.834000       15.9994           0
     39758 TIP3     5771     TIP3     H1       HT       0.417000       1.00800           0
     39759 TIP3     5771     TIP3     H2       HT       0.417000       1.00800           0
     39760 TIP3     5772     TIP3     OH2      OT      -0.834000       15.9994           0
     39761 TIP3     5772     TIP3     H1       HT       0.417000       1.00800           0
     39762 TIP3     5772     TIP3     H2       HT       0.417000       1.00800           0
     39763 TIP3     5773     TIP3     OH2      OT      -0.834000       15.9994           0
     39764 TIP3     5773     TIP3     H1       HT       0.417000       1.00800           0
     39765 TIP3     5773     TIP3     H2       HT       0.417000       1.00800           0
     39766 TIP3     5774     TIP3     OH2      OT      -0.834000       15.9994           0
     39767 TIP3     5774     TIP3     H1       HT       0.417000       1.00800           0
     39768 TIP3     5774     TIP3     H2       HT       0.417000       1.00800           0
     39769 TIP3     5775     TIP3     OH2      OT      -0.834000       15.9994           0
     39770 TIP3     5775     TIP3     H1       HT       0.417000       1.00800           0
     39771 TIP3     5775     TIP3     H2       HT       0.417000       1.00800           0
     39772 TIP3     5776     TIP3     OH2      OT      -0.834000       15.9994           0
     39773 TIP3     5776     TIP3     H1       HT       0.417000       1.00800           0
     39774 TIP3     5776     TIP3     H2       HT       0.417000       1.00800           0
     39775 TIP3     5777     TIP3     OH2      OT      -0.834000       15.9994           0
     39776 TIP3     5777     TIP3     H1       HT       0.417000       1.00800           0
     39777 TIP3     5777     TIP3     H2       HT       0.417000       1.00800           0
     39778 TIP3     5778     TIP3     OH2      OT      -0.834000       15.9994           0
     39779 TIP3     5778     TIP3     H1       HT       0.417000       1.00800           0
     39780 TIP3     5778     TIP3     H2       HT       0.417000       1.00800           0
     39781 TIP3     5779     TIP3     OH2      OT      -0.834000       15.9994           0
     39782 TIP3     5779     TIP3     H1       HT       0.417000       1.00800           0
     39783 TIP3     5779     TIP3     H2       HT       0.417000       1.00800           0
     39784 TIP3     5780     TIP3     OH2      OT      -0.834000       15.9994           0
     39785 TIP3     5780     TIP3     H1       HT       0.417000       1.00800           0
     39786 TIP3     5780     TIP3     H2       HT       0.417000       1.00800           0
     39787 TIP3     5781     TIP3     OH2      OT      -0.834000       15.9994           0
     39788 TIP3     5781     TIP3     H1       HT       0.417000       1.00800           0
     39789 TIP3     5781     TIP3     H2       HT       0.417000       1.00800           0
     39790 TIP3     5782     TIP3     OH2      OT      -0.834000       15.9994           0
     39791 TIP3     5782     TIP3     H1       HT       0.417000       1.00800           0
     39792 TIP3     5782     TIP3     H2       HT       0.417000       1.00800           0
     39793 TIP3     5783     TIP3     OH2      OT      -0.834000       15.9994           0
     39794 TIP3     5783     TIP3     H1       HT       0.417000       1.00800           0
     39795 TIP3     5783     TIP3     H2       HT       0.417000       1.00800           0
     39796 TIP3     5784     TIP3     OH2      OT      -0.834000       15.9994           0
     39797 TIP3     5784     TIP3     H1       HT       0.417000       1.00800           0
     39798 TIP3     5784     TIP3     H2       HT       0.417000       1.00800           0
     39799 TIP3     5785     TIP3     OH2      OT      -0.834000       15.9994           0
     39800 TIP3     5785     TIP3     H1       HT       0.417000       1.00800           0
     39801 TIP3     5785     TIP3     H2       HT       0.417000       1.00800           0
     39802 TIP3     5786     TIP3     OH2      OT      -0.834000       15.9994           0
     39803 TIP3     5786     TIP3     H1       HT       0.417000       1.00800           0
     39804 TIP3     5786     TIP3     H2       HT       0.417000       1.00800           0
     39805 TIP3     5787     TIP3     OH2      OT      -0.834000       15.9994           0
     39806 TIP3     5787     TIP3     H1       HT       0.417000       1.00800           0
     39807 TIP3     5787     TIP3     H2       HT       0.417000       1.00800           0
     39808 TIP3     5788     TIP3     OH2      OT      -0.834000       15.9994           0
     39809 TIP3     5788     TIP3     H1       HT       0.417000       1.00800           0
     39810 TIP3     5788     TIP3     H2       HT       0.417000       1.00800           0
     39811 TIP3     5789     TIP3     OH2      OT      -0.834000       15.9994           0
     39812 TIP3     5789     TIP3     H1       HT       0.417000       1.00800           0
     39813 TIP3     5789     TIP3     H2       HT       0.417000       1.00800           0
     39814 TIP3     5790     TIP3     OH2      OT      -0.834000       15.9994           0
     39815 TIP3     5790     TIP3     H1       HT       0.417000       1.00800           0
     39816 TIP3     5790     TIP3     H2       HT       0.417000       1.00800           0
     39817 TIP3     5791     TIP3     OH2      OT      -0.834000       15.9994           0
     39818 TIP3     5791     TIP3     H1       HT       0.417000       1.00800           0
     39819 TIP3     5791     TIP3     H2       HT       0.417000       1.00800           0
     39820 TIP3     5792     TIP3     OH2      OT      -0.834000       15.9994           0
     39821 TIP3     5792     TIP3     H1       HT       0.417000       1.00800           0
     39822 TIP3     5792     TIP3     H2       HT       0.417000       1.00800           0
     39823 TIP3     5793     TIP3     OH2      OT      -0.834000       15.9994           0
     39824 TIP3     5793     TIP3     H1       HT       0.417000       1.00800           0
     39825 TIP3     5793     TIP3     H2       HT       0.417000       1.00800           0
     39826 TIP3     5794     TIP3     OH2      OT      -0.834000       15.9994           0
     39827 TIP3     5794     TIP3     H1       HT       0.417000       1.00800           0
     39828 TIP3     5794     TIP3     H2       HT       0.417000       1.00800           0
     39829 TIP3     5795     TIP3     OH2      OT      -0.834000       15.9994           0
     39830 TIP3     5795     TIP3     H1       HT       0.417000       1.00800           0
     39831 TIP3     5795     TIP3     H2       HT       0.417000       1.00800           0
     39832 TIP3     5796     TIP3     OH2      OT      -0.834000       15.9994           0
     39833 TIP3     5796     TIP3     H1       HT       0.417000       1.00800           0
     39834 TIP3     5796     TIP3     H2       HT       0.417000       1.00800           0
     39835 TIP3     5797     TIP3     OH2      OT      -0.834000       15.9994           0
     39836 TIP3     5797     TIP3     H1       HT       0.417000       1.00800           0
     39837 TIP3     5797     TIP3     H2       HT       0.417000       1.00800           0
     39838 TIP3     5798     TIP3     OH2      OT      -0.834000       15.9994           0
     39839 TIP3     5798     TIP3     H1       HT       0.417000       1.00800           0
     39840 TIP3     5798     TIP3     H2       HT       0.417000       1.00800           0
     39841 TIP3     5799     TIP3     OH2      OT      -0.834000       15.9994           0
     39842 TIP3     5799     TIP3     H1       HT       0.417000       1.00800           0
     39843 TIP3     5799     TIP3     H2       HT       0.417000       1.00800           0
     39844 TIP3     5800     TIP3     OH2      OT      -0.834000       15.9994           0
     39845 TIP3     5800     TIP3     H1       HT       0.417000       1.00800           0
     39846 TIP3     5800     TIP3     H2       HT       0.417000       1.00800           0
     39847 TIP3     5801     TIP3     OH2      OT      -0.834000       15.9994           0
     39848 TIP3     5801     TIP3     H1       HT       0.417000       1.00800           0
     39849 TIP3     5801     TIP3     H2       HT       0.417000       1.00800           0
     39850 TIP3     5802     TIP3     OH2      OT      -0.834000       15.9994           0
     39851 TIP3     5802     TIP3     H1       HT       0.417000       1.00800           0
     39852 TIP3     5802     TIP3     H2       HT       0.417000       1.00800           0
     39853 TIP3     5803     TIP3     OH2      OT      -0.834000       15.9994           0
     39854 TIP3     5803     TIP3     H1       HT       0.417000       1.00800           0
     39855 TIP3     5803     TIP3     H2       HT       0.417000       1.00800           0
     39856 TIP3     5804     TIP3     OH2      OT      -0.834000       15.9994           0
     39857 TIP3     5804     TIP3     H1       HT       0.417000       1.00800           0
     39858 TIP3     5804     TIP3     H2       HT       0.417000       1.00800           0
     39859 TIP3     5805     TIP3     OH2      OT      -0.834000       15.9994           0
     39860 TIP3     5805     TIP3     H1       HT       0.417000       1.00800           0
     39861 TIP3     5805     TIP3     H2       HT       0.417000       1.00800           0
     39862 TIP3     5806     TIP3     OH2      OT      -0.834000       15.9994           0
     39863 TIP3     5806     TIP3     H1       HT       0.417000       1.00800           0
     39864 TIP3     5806     TIP3     H2       HT       0.417000       1.00800           0
     39865 TIP3     5807     TIP3     OH2      OT      -0.834000       15.9994           0
     39866 TIP3     5807     TIP3     H1       HT       0.417000       1.00800           0
     39867 TIP3     5807     TIP3     H2       HT       0.417000       1.00800           0
     39868 TIP3     5808     TIP3     OH2      OT      -0.834000       15.9994           0
     39869 TIP3     5808     TIP3     H1       HT       0.417000       1.00800           0
     39870 TIP3     5808     TIP3     H2       HT       0.417000       1.00800           0
     39871 TIP3     5809     TIP3     OH2      OT      -0.834000       15.9994           0
     39872 TIP3     5809     TIP3     H1       HT       0.417000       1.00800           0
     39873 TIP3     5809     TIP3     H2       HT       0.417000       1.00800           0
     39874 TIP3     5810     TIP3     OH2      OT      -0.834000       15.9994           0
     39875 TIP3     5810     TIP3     H1       HT       0.417000       1.00800           0
     39876 TIP3     5810     TIP3     H2       HT       0.417000       1.00800           0
     39877 TIP3     5811     TIP3     OH2      OT      -0.834000       15.9994           0
     39878 TIP3     5811     TIP3     H1       HT       0.417000       1.00800           0
     39879 TIP3     5811     TIP3     H2       HT       0.417000       1.00800           0
     39880 TIP3     5812     TIP3     OH2      OT      -0.834000       15.9994           0
     39881 TIP3     5812     TIP3     H1       HT       0.417000       1.00800           0
     39882 TIP3     5812     TIP3     H2       HT       0.417000       1.00800           0
     39883 TIP3     5813     TIP3     OH2      OT      -0.834000       15.9994           0
     39884 TIP3     5813     TIP3     H1       HT       0.417000       1.00800           0
     39885 TIP3     5813     TIP3     H2       HT       0.417000       1.00800           0
     39886 TIP3     5814     TIP3     OH2      OT      -0.834000       15.9994           0
     39887 TIP3     5814     TIP3     H1       HT       0.417000       1.00800           0
     39888 TIP3     5814     TIP3     H2       HT       0.417000       1.00800           0
     39889 TIP3     5815     TIP3     OH2      OT      -0.834000       15.9994           0
     39890 TIP3     5815     TIP3     H1       HT       0.417000       1.00800           0
     39891 TIP3     5815     TIP3     H2       HT       0.417000       1.00800           0
     39892 TIP3     5816     TIP3     OH2      OT      -0.834000       15.9994           0
     39893 TIP3     5816     TIP3     H1       HT       0.417000       1.00800           0
     39894 TIP3     5816     TIP3     H2       HT       0.417000       1.00800           0
     39895 TIP3     5817     TIP3     OH2      OT      -0.834000       15.9994           0
     39896 TIP3     5817     TIP3     H1       HT       0.417000       1.00800           0
     39897 TIP3     5817     TIP3     H2       HT       0.417000       1.00800           0
     39898 TIP3     5818     TIP3     OH2      OT      -0.834000       15.9994           0
     39899 TIP3     5818     TIP3     H1       HT       0.417000       1.00800           0
     39900 TIP3     5818     TIP3     H2       HT       0.417000       1.00800           0
     39901 TIP3     5819     TIP3     OH2      OT      -0.834000       15.9994           0
     39902 TIP3     5819     TIP3     H1       HT       0.417000       1.00800           0
     39903 TIP3     5819     TIP3     H2       HT       0.417000       1.00800           0
     39904 TIP3     5820     TIP3     OH2      OT      -0.834000       15.9994           0
     39905 TIP3     5820     TIP3     H1       HT       0.417000       1.00800           0
     39906 TIP3     5820     TIP3     H2       HT       0.417000       1.00800           0
     39907 TIP3     5821     TIP3     OH2      OT      -0.834000       15.9994           0
     39908 TIP3     5821     TIP3     H1       HT       0.417000       1.00800           0
     39909 TIP3     5821     TIP3     H2       HT       0.417000       1.00800           0
     39910 TIP3     5822     TIP3     OH2      OT      -0.834000       15.9994           0
     39911 TIP3     5822     TIP3     H1       HT       0.417000       1.00800           0
     39912 TIP3     5822     TIP3     H2       HT       0.417000       1.00800           0
     39913 TIP3     5823     TIP3     OH2      OT      -0.834000       15.9994           0
     39914 TIP3     5823     TIP3     H1       HT       0.417000       1.00800           0
     39915 TIP3     5823     TIP3     H2       HT       0.417000       1.00800           0
     39916 TIP3     5824     TIP3     OH2      OT      -0.834000       15.9994           0
     39917 TIP3     5824     TIP3     H1       HT       0.417000       1.00800           0
     39918 TIP3     5824     TIP3     H2       HT       0.417000       1.00800           0
     39919 TIP3     5825     TIP3     OH2      OT      -0.834000       15.9994           0
     39920 TIP3     5825     TIP3     H1       HT       0.417000       1.00800           0
     39921 TIP3     5825     TIP3     H2       HT       0.417000       1.00800           0
     39922 TIP3     5826     TIP3     OH2      OT      -0.834000       15.9994           0
     39923 TIP3     5826     TIP3     H1       HT       0.417000       1.00800           0
     39924 TIP3     5826     TIP3     H2       HT       0.417000       1.00800           0
     39925 TIP3     5827     TIP3     OH2      OT      -0.834000       15.9994           0
     39926 TIP3     5827     TIP3     H1       HT       0.417000       1.00800           0
     39927 TIP3     5827     TIP3     H2       HT       0.417000       1.00800           0
     39928 TIP3     5828     TIP3     OH2      OT      -0.834000       15.9994           0
     39929 TIP3     5828     TIP3     H1       HT       0.417000       1.00800           0
     39930 TIP3     5828     TIP3     H2       HT       0.417000       1.00800           0
     39931 TIP3     5829     TIP3     OH2      OT      -0.834000       15.9994           0
     39932 TIP3     5829     TIP3     H1       HT       0.417000       1.00800           0
     39933 TIP3     5829     TIP3     H2       HT       0.417000       1.00800           0
     39934 TIP3     5830     TIP3     OH2      OT      -0.834000       15.9994           0
     39935 TIP3     5830     TIP3     H1       HT       0.417000       1.00800           0
     39936 TIP3     5830     TIP3     H2       HT       0.417000       1.00800           0
     39937 TIP3     5831     TIP3     OH2      OT      -0.834000       15.9994           0
     39938 TIP3     5831     TIP3     H1       HT       0.417000       1.00800           0
     39939 TIP3     5831     TIP3     H2       HT       0.417000       1.00800           0
     39940 TIP3     5832     TIP3     OH2      OT      -0.834000       15.9994           0
     39941 TIP3     5832     TIP3     H1       HT       0.417000       1.00800           0
     39942 TIP3     5832     TIP3     H2       HT       0.417000       1.00800           0
     39943 TIP3     5833     TIP3     OH2      OT      -0.834000       15.9994           0
     39944 TIP3     5833     TIP3     H1       HT       0.417000       1.00800           0
     39945 TIP3     5833     TIP3     H2       HT       0.417000       1.00800           0
     39946 TIP3     5834     TIP3     OH2      OT      -0.834000       15.9994           0
     39947 TIP3     5834     TIP3     H1       HT       0.417000       1.00800           0
     39948 TIP3     5834     TIP3     H2       HT       0.417000       1.00800           0
     39949 TIP3     5835     TIP3     OH2      OT      -0.834000       15.9994           0
     39950 TIP3     5835     TIP3     H1       HT       0.417000       1.00800           0
     39951 TIP3     5835     TIP3     H2       HT       0.417000       1.00800           0
     39952 TIP3     5836     TIP3     OH2      OT      -0.834000       15.9994           0
     39953 TIP3     5836     TIP3     H1       HT       0.417000       1.00800           0
     39954 TIP3     5836     TIP3     H2       HT       0.417000       1.00800           0
     39955 TIP3     5837     TIP3     OH2      OT      -0.834000       15.9994           0
     39956 TIP3     5837     TIP3     H1       HT       0.417000       1.00800           0
     39957 TIP3     5837     TIP3     H2       HT       0.417000       1.00800           0
     39958 TIP3     5838     TIP3     OH2      OT      -0.834000       15.9994           0
     39959 TIP3     5838     TIP3     H1       HT       0.417000       1.00800           0
     39960 TIP3     5838     TIP3     H2       HT       0.417000       1.00800           0
     39961 TIP3     5839     TIP3     OH2      OT      -0.834000       15.9994           0
     39962 TIP3     5839     TIP3     H1       HT       0.417000       1.00800           0
     39963 TIP3     5839     TIP3     H2       HT       0.417000       1.00800           0
     39964 TIP3     5840     TIP3     OH2      OT      -0.834000       15.9994           0
     39965 TIP3     5840     TIP3     H1       HT       0.417000       1.00800           0
     39966 TIP3     5840     TIP3     H2       HT       0.417000       1.00800           0
     39967 TIP3     5841     TIP3     OH2      OT      -0.834000       15.9994           0
     39968 TIP3     5841     TIP3     H1       HT       0.417000       1.00800           0
     39969 TIP3     5841     TIP3     H2       HT       0.417000       1.00800           0
     39970 TIP3     5842     TIP3     OH2      OT      -0.834000       15.9994           0
     39971 TIP3     5842     TIP3     H1       HT       0.417000       1.00800           0
     39972 TIP3     5842     TIP3     H2       HT       0.417000       1.00800           0
     39973 TIP3     5843     TIP3     OH2      OT      -0.834000       15.9994           0
     39974 TIP3     5843     TIP3     H1       HT       0.417000       1.00800           0
     39975 TIP3     5843     TIP3     H2       HT       0.417000       1.00800           0
     39976 TIP3     5844     TIP3     OH2      OT      -0.834000       15.9994           0
     39977 TIP3     5844     TIP3     H1       HT       0.417000       1.00800           0
     39978 TIP3     5844     TIP3     H2       HT       0.417000       1.00800           0
     39979 TIP3     5845     TIP3     OH2      OT      -0.834000       15.9994           0
     39980 TIP3     5845     TIP3     H1       HT       0.417000       1.00800           0
     39981 TIP3     5845     TIP3     H2       HT       0.417000       1.00800           0
     39982 TIP3     5846     TIP3     OH2      OT      -0.834000       15.9994           0
     39983 TIP3     5846     TIP3     H1       HT       0.417000       1.00800           0
     39984 TIP3     5846     TIP3     H2       HT       0.417000       1.00800           0
     39985 TIP3     5847     TIP3     OH2      OT      -0.834000       15.9994           0
     39986 TIP3     5847     TIP3     H1       HT       0.417000       1.00800           0
     39987 TIP3     5847     TIP3     H2       HT       0.417000       1.00800           0
     39988 TIP3     5848     TIP3     OH2      OT      -0.834000       15.9994           0
     39989 TIP3     5848     TIP3     H1       HT       0.417000       1.00800           0
     39990 TIP3     5848     TIP3     H2       HT       0.417000       1.00800           0
     39991 TIP3     5849     TIP3     OH2      OT      -0.834000       15.9994           0
     39992 TIP3     5849     TIP3     H1       HT       0.417000       1.00800           0
     39993 TIP3     5849     TIP3     H2       HT       0.417000       1.00800           0
     39994 TIP3     5850     TIP3     OH2      OT      -0.834000       15.9994           0
     39995 TIP3     5850     TIP3     H1       HT       0.417000       1.00800           0
     39996 TIP3     5850     TIP3     H2       HT       0.417000       1.00800           0
     39997 TIP3     5851     TIP3     OH2      OT      -0.834000       15.9994           0
     39998 TIP3     5851     TIP3     H1       HT       0.417000       1.00800           0
     39999 TIP3     5851     TIP3     H2       HT       0.417000       1.00800           0
     40000 TIP3     5852     TIP3     OH2      OT      -0.834000       15.9994           0
     40001 TIP3     5852     TIP3     H1       HT       0.417000       1.00800           0
     40002 TIP3     5852     TIP3     H2       HT       0.417000       1.00800           0
     40003 TIP3     5853     TIP3     OH2      OT      -0.834000       15.9994           0
     40004 TIP3     5853     TIP3     H1       HT       0.417000       1.00800           0
     40005 TIP3     5853     TIP3     H2       HT       0.417000       1.00800           0
     40006 TIP3     5854     TIP3     OH2      OT      -0.834000       15.9994           0
     40007 TIP3     5854     TIP3     H1       HT       0.417000       1.00800           0
     40008 TIP3     5854     TIP3     H2       HT       0.417000       1.00800           0
     40009 TIP3     5855     TIP3     OH2      OT      -0.834000       15.9994           0
     40010 TIP3     5855     TIP3     H1       HT       0.417000       1.00800           0
     40011 TIP3     5855     TIP3     H2       HT       0.417000       1.00800           0
     40012 TIP3     5856     TIP3     OH2      OT      -0.834000       15.9994           0
     40013 TIP3     5856     TIP3     H1       HT       0.417000       1.00800           0
     40014 TIP3     5856     TIP3     H2       HT       0.417000       1.00800           0
     40015 TIP3     5857     TIP3     OH2      OT      -0.834000       15.9994           0
     40016 TIP3     5857     TIP3     H1       HT       0.417000       1.00800           0
     40017 TIP3     5857     TIP3     H2       HT       0.417000       1.00800           0
     40018 TIP3     5858     TIP3     OH2      OT      -0.834000       15.9994           0
     40019 TIP3     5858     TIP3     H1       HT       0.417000       1.00800           0
     40020 TIP3     5858     TIP3     H2       HT       0.417000       1.00800           0
     40021 TIP3     5859     TIP3     OH2      OT      -0.834000       15.9994           0
     40022 TIP3     5859     TIP3     H1       HT       0.417000       1.00800           0
     40023 TIP3     5859     TIP3     H2       HT       0.417000       1.00800           0
     40024 TIP3     5860     TIP3     OH2      OT      -0.834000       15.9994           0
     40025 TIP3     5860     TIP3     H1       HT       0.417000       1.00800           0
     40026 TIP3     5860     TIP3     H2       HT       0.417000       1.00800           0
     40027 TIP3     5861     TIP3     OH2      OT      -0.834000       15.9994           0
     40028 TIP3     5861     TIP3     H1       HT       0.417000       1.00800           0
     40029 TIP3     5861     TIP3     H2       HT       0.417000       1.00800           0
     40030 TIP3     5862     TIP3     OH2      OT      -0.834000       15.9994           0
     40031 TIP3     5862     TIP3     H1       HT       0.417000       1.00800           0
     40032 TIP3     5862     TIP3     H2       HT       0.417000       1.00800           0
     40033 TIP3     5863     TIP3     OH2      OT      -0.834000       15.9994           0
     40034 TIP3     5863     TIP3     H1       HT       0.417000       1.00800           0
     40035 TIP3     5863     TIP3     H2       HT       0.417000       1.00800           0
     40036 TIP3     5864     TIP3     OH2      OT      -0.834000       15.9994           0
     40037 TIP3     5864     TIP3     H1       HT       0.417000       1.00800           0
     40038 TIP3     5864     TIP3     H2       HT       0.417000       1.00800           0
     40039 TIP3     5865     TIP3     OH2      OT      -0.834000       15.9994           0
     40040 TIP3     5865     TIP3     H1       HT       0.417000       1.00800           0
     40041 TIP3     5865     TIP3     H2       HT       0.417000       1.00800           0
     40042 TIP3     5866     TIP3     OH2      OT      -0.834000       15.9994           0
     40043 TIP3     5866     TIP3     H1       HT       0.417000       1.00800           0
     40044 TIP3     5866     TIP3     H2       HT       0.417000       1.00800           0
     40045 TIP3     5867     TIP3     OH2      OT      -0.834000       15.9994           0
     40046 TIP3     5867     TIP3     H1       HT       0.417000       1.00800           0
     40047 TIP3     5867     TIP3     H2       HT       0.417000       1.00800           0
     40048 TIP3     5868     TIP3     OH2      OT      -0.834000       15.9994           0
     40049 TIP3     5868     TIP3     H1       HT       0.417000       1.00800           0
     40050 TIP3     5868     TIP3     H2       HT       0.417000       1.00800           0
     40051 TIP3     5869     TIP3     OH2      OT      -0.834000       15.9994           0
     40052 TIP3     5869     TIP3     H1       HT       0.417000       1.00800           0
     40053 TIP3     5869     TIP3     H2       HT       0.417000       1.00800           0
     40054 TIP3     5870     TIP3     OH2      OT      -0.834000       15.9994           0
     40055 TIP3     5870     TIP3     H1       HT       0.417000       1.00800           0
     40056 TIP3     5870     TIP3     H2       HT       0.417000       1.00800           0
     40057 TIP3     5871     TIP3     OH2      OT      -0.834000       15.9994           0
     40058 TIP3     5871     TIP3     H1       HT       0.417000       1.00800           0
     40059 TIP3     5871     TIP3     H2       HT       0.417000       1.00800           0
     40060 TIP3     5872     TIP3     OH2      OT      -0.834000       15.9994           0
     40061 TIP3     5872     TIP3     H1       HT       0.417000       1.00800           0
     40062 TIP3     5872     TIP3     H2       HT       0.417000       1.00800           0
     40063 TIP3     5873     TIP3     OH2      OT      -0.834000       15.9994           0
     40064 TIP3     5873     TIP3     H1       HT       0.417000       1.00800           0
     40065 TIP3     5873     TIP3     H2       HT       0.417000       1.00800           0
     40066 TIP3     5874     TIP3     OH2      OT      -0.834000       15.9994           0
     40067 TIP3     5874     TIP3     H1       HT       0.417000       1.00800           0
     40068 TIP3     5874     TIP3     H2       HT       0.417000       1.00800           0
     40069 TIP3     5875     TIP3     OH2      OT      -0.834000       15.9994           0
     40070 TIP3     5875     TIP3     H1       HT       0.417000       1.00800           0
     40071 TIP3     5875     TIP3     H2       HT       0.417000       1.00800           0
     40072 TIP3     5876     TIP3     OH2      OT      -0.834000       15.9994           0
     40073 TIP3     5876     TIP3     H1       HT       0.417000       1.00800           0
     40074 TIP3     5876     TIP3     H2       HT       0.417000       1.00800           0
     40075 TIP3     5877     TIP3     OH2      OT      -0.834000       15.9994           0
     40076 TIP3     5877     TIP3     H1       HT       0.417000       1.00800           0
     40077 TIP3     5877     TIP3     H2       HT       0.417000       1.00800           0
     40078 TIP3     5878     TIP3     OH2      OT      -0.834000       15.9994           0
     40079 TIP3     5878     TIP3     H1       HT       0.417000       1.00800           0
     40080 TIP3     5878     TIP3     H2       HT       0.417000       1.00800           0
     40081 TIP3     5879     TIP3     OH2      OT      -0.834000       15.9994           0
     40082 TIP3     5879     TIP3     H1       HT       0.417000       1.00800           0
     40083 TIP3     5879     TIP3     H2       HT       0.417000       1.00800           0
     40084 TIP3     5880     TIP3     OH2      OT      -0.834000       15.9994           0
     40085 TIP3     5880     TIP3     H1       HT       0.417000       1.00800           0
     40086 TIP3     5880     TIP3     H2       HT       0.417000       1.00800           0
     40087 TIP3     5881     TIP3     OH2      OT      -0.834000       15.9994           0
     40088 TIP3     5881     TIP3     H1       HT       0.417000       1.00800           0
     40089 TIP3     5881     TIP3     H2       HT       0.417000       1.00800           0
     40090 TIP3     5882     TIP3     OH2      OT      -0.834000       15.9994           0
     40091 TIP3     5882     TIP3     H1       HT       0.417000       1.00800           0
     40092 TIP3     5882     TIP3     H2       HT       0.417000       1.00800           0
     40093 TIP3     5883     TIP3     OH2      OT      -0.834000       15.9994           0
     40094 TIP3     5883     TIP3     H1       HT       0.417000       1.00800           0
     40095 TIP3     5883     TIP3     H2       HT       0.417000       1.00800           0
     40096 TIP3     5884     TIP3     OH2      OT      -0.834000       15.9994           0
     40097 TIP3     5884     TIP3     H1       HT       0.417000       1.00800           0
     40098 TIP3     5884     TIP3     H2       HT       0.417000       1.00800           0
     40099 TIP3     5885     TIP3     OH2      OT      -0.834000       15.9994           0
     40100 TIP3     5885     TIP3     H1       HT       0.417000       1.00800           0
     40101 TIP3     5885     TIP3     H2       HT       0.417000       1.00800           0
     40102 TIP3     5886     TIP3     OH2      OT      -0.834000       15.9994           0
     40103 TIP3     5886     TIP3     H1       HT       0.417000       1.00800           0
     40104 TIP3     5886     TIP3     H2       HT       0.417000       1.00800           0
     40105 TIP3     5887     TIP3     OH2      OT      -0.834000       15.9994           0
     40106 TIP3     5887     TIP3     H1       HT       0.417000       1.00800           0
     40107 TIP3     5887     TIP3     H2       HT       0.417000       1.00800           0
     40108 TIP3     5888     TIP3     OH2      OT      -0.834000       15.9994           0
     40109 TIP3     5888     TIP3     H1       HT       0.417000       1.00800           0
     40110 TIP3     5888     TIP3     H2       HT       0.417000       1.00800           0
     40111 TIP3     5889     TIP3     OH2      OT      -0.834000       15.9994           0
     40112 TIP3     5889     TIP3     H1       HT       0.417000       1.00800           0
     40113 TIP3     5889     TIP3     H2       HT       0.417000       1.00800           0
     40114 TIP3     5890     TIP3     OH2      OT      -0.834000       15.9994           0
     40115 TIP3     5890     TIP3     H1       HT       0.417000       1.00800           0
     40116 TIP3     5890     TIP3     H2       HT       0.417000       1.00800           0
     40117 TIP3     5891     TIP3     OH2      OT      -0.834000       15.9994           0
     40118 TIP3     5891     TIP3     H1       HT       0.417000       1.00800           0
     40119 TIP3     5891     TIP3     H2       HT       0.417000       1.00800           0
     40120 TIP3     5892     TIP3     OH2      OT      -0.834000       15.9994           0
     40121 TIP3     5892     TIP3     H1       HT       0.417000       1.00800           0
     40122 TIP3     5892     TIP3     H2       HT       0.417000       1.00800           0
     40123 TIP3     5893     TIP3     OH2      OT      -0.834000       15.9994           0
     40124 TIP3     5893     TIP3     H1       HT       0.417000       1.00800           0
     40125 TIP3     5893     TIP3     H2       HT       0.417000       1.00800           0
     40126 TIP3     5894     TIP3     OH2      OT      -0.834000       15.9994           0
     40127 TIP3     5894     TIP3     H1       HT       0.417000       1.00800           0
     40128 TIP3     5894     TIP3     H2       HT       0.417000       1.00800           0
     40129 TIP3     5895     TIP3     OH2      OT      -0.834000       15.9994           0
     40130 TIP3     5895     TIP3     H1       HT       0.417000       1.00800           0
     40131 TIP3     5895     TIP3     H2       HT       0.417000       1.00800           0
     40132 TIP3     5896     TIP3     OH2      OT      -0.834000       15.9994           0
     40133 TIP3     5896     TIP3     H1       HT       0.417000       1.00800           0
     40134 TIP3     5896     TIP3     H2       HT       0.417000       1.00800           0
     40135 TIP3     5897     TIP3     OH2      OT      -0.834000       15.9994           0
     40136 TIP3     5897     TIP3     H1       HT       0.417000       1.00800           0
     40137 TIP3     5897     TIP3     H2       HT       0.417000       1.00800           0
     40138 TIP3     5898     TIP3     OH2      OT      -0.834000       15.9994           0
     40139 TIP3     5898     TIP3     H1       HT       0.417000       1.00800           0
     40140 TIP3     5898     TIP3     H2       HT       0.417000       1.00800           0
     40141 TIP3     5899     TIP3     OH2      OT      -0.834000       15.9994           0
     40142 TIP3     5899     TIP3     H1       HT       0.417000       1.00800           0
     40143 TIP3     5899     TIP3     H2       HT       0.417000       1.00800           0
     40144 TIP3     5900     TIP3     OH2      OT      -0.834000       15.9994           0
     40145 TIP3     5900     TIP3     H1       HT       0.417000       1.00800           0
     40146 TIP3     5900     TIP3     H2       HT       0.417000       1.00800           0
     40147 TIP3     5901     TIP3     OH2      OT      -0.834000       15.9994           0
     40148 TIP3     5901     TIP3     H1       HT       0.417000       1.00800           0
     40149 TIP3     5901     TIP3     H2       HT       0.417000       1.00800           0
     40150 TIP3     5902     TIP3     OH2      OT      -0.834000       15.9994           0
     40151 TIP3     5902     TIP3     H1       HT       0.417000       1.00800           0
     40152 TIP3     5902     TIP3     H2       HT       0.417000       1.00800           0
     40153 TIP3     5903     TIP3     OH2      OT      -0.834000       15.9994           0
     40154 TIP3     5903     TIP3     H1       HT       0.417000       1.00800           0
     40155 TIP3     5903     TIP3     H2       HT       0.417000       1.00800           0
     40156 TIP3     5904     TIP3     OH2      OT      -0.834000       15.9994           0
     40157 TIP3     5904     TIP3     H1       HT       0.417000       1.00800           0
     40158 TIP3     5904     TIP3     H2       HT       0.417000       1.00800           0
     40159 TIP3     5905     TIP3     OH2      OT      -0.834000       15.9994           0
     40160 TIP3     5905     TIP3     H1       HT       0.417000       1.00800           0
     40161 TIP3     5905     TIP3     H2       HT       0.417000       1.00800           0
     40162 TIP3     5906     TIP3     OH2      OT      -0.834000       15.9994           0
     40163 TIP3     5906     TIP3     H1       HT       0.417000       1.00800           0
     40164 TIP3     5906     TIP3     H2       HT       0.417000       1.00800           0
     40165 TIP3     5907     TIP3     OH2      OT      -0.834000       15.9994           0
     40166 TIP3     5907     TIP3     H1       HT       0.417000       1.00800           0
     40167 TIP3     5907     TIP3     H2       HT       0.417000       1.00800           0
     40168 TIP3     5908     TIP3     OH2      OT      -0.834000       15.9994           0
     40169 TIP3     5908     TIP3     H1       HT       0.417000       1.00800           0
     40170 TIP3     5908     TIP3     H2       HT       0.417000       1.00800           0
     40171 TIP3     5909     TIP3     OH2      OT      -0.834000       15.9994           0
     40172 TIP3     5909     TIP3     H1       HT       0.417000       1.00800           0
     40173 TIP3     5909     TIP3     H2       HT       0.417000       1.00800           0
     40174 TIP3     5910     TIP3     OH2      OT      -0.834000       15.9994           0
     40175 TIP3     5910     TIP3     H1       HT       0.417000       1.00800           0
     40176 TIP3     5910     TIP3     H2       HT       0.417000       1.00800           0
     40177 TIP3     5911     TIP3     OH2      OT      -0.834000       15.9994           0
     40178 TIP3     5911     TIP3     H1       HT       0.417000       1.00800           0
     40179 TIP3     5911     TIP3     H2       HT       0.417000       1.00800           0
     40180 TIP3     5912     TIP3     OH2      OT      -0.834000       15.9994           0
     40181 TIP3     5912     TIP3     H1       HT       0.417000       1.00800           0
     40182 TIP3     5912     TIP3     H2       HT       0.417000       1.00800           0
     40183 TIP3     5913     TIP3     OH2      OT      -0.834000       15.9994           0
     40184 TIP3     5913     TIP3     H1       HT       0.417000       1.00800           0
     40185 TIP3     5913     TIP3     H2       HT       0.417000       1.00800           0
     40186 TIP3     5914     TIP3     OH2      OT      -0.834000       15.9994           0
     40187 TIP3     5914     TIP3     H1       HT       0.417000       1.00800           0
     40188 TIP3     5914     TIP3     H2       HT       0.417000       1.00800           0
     40189 TIP3     5915     TIP3     OH2      OT      -0.834000       15.9994           0
     40190 TIP3     5915     TIP3     H1       HT       0.417000       1.00800           0
     40191 TIP3     5915     TIP3     H2       HT       0.417000       1.00800           0
     40192 TIP3     5916     TIP3     OH2      OT      -0.834000       15.9994           0
     40193 TIP3     5916     TIP3     H1       HT       0.417000       1.00800           0
     40194 TIP3     5916     TIP3     H2       HT       0.417000       1.00800           0
     40195 TIP3     5917     TIP3     OH2      OT      -0.834000       15.9994           0
     40196 TIP3     5917     TIP3     H1       HT       0.417000       1.00800           0
     40197 TIP3     5917     TIP3     H2       HT       0.417000       1.00800           0
     40198 TIP3     5918     TIP3     OH2      OT      -0.834000       15.9994           0
     40199 TIP3     5918     TIP3     H1       HT       0.417000       1.00800           0
     40200 TIP3     5918     TIP3     H2       HT       0.417000       1.00800           0
     40201 TIP3     5919     TIP3     OH2      OT      -0.834000       15.9994           0
     40202 TIP3     5919     TIP3     H1       HT       0.417000       1.00800           0
     40203 TIP3     5919     TIP3     H2       HT       0.417000       1.00800           0
     40204 TIP3     5920     TIP3     OH2      OT      -0.834000       15.9994           0
     40205 TIP3     5920     TIP3     H1       HT       0.417000       1.00800           0
     40206 TIP3     5920     TIP3     H2       HT       0.417000       1.00800           0
     40207 TIP3     5921     TIP3     OH2      OT      -0.834000       15.9994           0
     40208 TIP3     5921     TIP3     H1       HT       0.417000       1.00800           0
     40209 TIP3     5921     TIP3     H2       HT       0.417000       1.00800           0
     40210 TIP3     5922     TIP3     OH2      OT      -0.834000       15.9994           0
     40211 TIP3     5922     TIP3     H1       HT       0.417000       1.00800           0
     40212 TIP3     5922     TIP3     H2       HT       0.417000       1.00800           0
     40213 TIP3     5923     TIP3     OH2      OT      -0.834000       15.9994           0
     40214 TIP3     5923     TIP3     H1       HT       0.417000       1.00800           0
     40215 TIP3     5923     TIP3     H2       HT       0.417000       1.00800           0
     40216 TIP3     5924     TIP3     OH2      OT      -0.834000       15.9994           0
     40217 TIP3     5924     TIP3     H1       HT       0.417000       1.00800           0
     40218 TIP3     5924     TIP3     H2       HT       0.417000       1.00800           0
     40219 TIP3     5925     TIP3     OH2      OT      -0.834000       15.9994           0
     40220 TIP3     5925     TIP3     H1       HT       0.417000       1.00800           0
     40221 TIP3     5925     TIP3     H2       HT       0.417000       1.00800           0
     40222 TIP3     5926     TIP3     OH2      OT      -0.834000       15.9994           0
     40223 TIP3     5926     TIP3     H1       HT       0.417000       1.00800           0
     40224 TIP3     5926     TIP3     H2       HT       0.417000       1.00800           0
     40225 TIP3     5927     TIP3     OH2      OT      -0.834000       15.9994           0
     40226 TIP3     5927     TIP3     H1       HT       0.417000       1.00800           0
     40227 TIP3     5927     TIP3     H2       HT       0.417000       1.00800           0
     40228 TIP3     5928     TIP3     OH2      OT      -0.834000       15.9994           0
     40229 TIP3     5928     TIP3     H1       HT       0.417000       1.00800           0
     40230 TIP3     5928     TIP3     H2       HT       0.417000       1.00800           0
     40231 TIP3     5929     TIP3     OH2      OT      -0.834000       15.9994           0
     40232 TIP3     5929     TIP3     H1       HT       0.417000       1.00800           0
     40233 TIP3     5929     TIP3     H2       HT       0.417000       1.00800           0
     40234 TIP3     5930     TIP3     OH2      OT      -0.834000       15.9994           0
     40235 TIP3     5930     TIP3     H1       HT       0.417000       1.00800           0
     40236 TIP3     5930     TIP3     H2       HT       0.417000       1.00800           0
     40237 TIP3     5931     TIP3     OH2      OT      -0.834000       15.9994           0
     40238 TIP3     5931     TIP3     H1       HT       0.417000       1.00800           0
     40239 TIP3     5931     TIP3     H2       HT       0.417000       1.00800           0
     40240 TIP3     5932     TIP3     OH2      OT      -0.834000       15.9994           0
     40241 TIP3     5932     TIP3     H1       HT       0.417000       1.00800           0
     40242 TIP3     5932     TIP3     H2       HT       0.417000       1.00800           0
     40243 TIP3     5933     TIP3     OH2      OT      -0.834000       15.9994           0
     40244 TIP3     5933     TIP3     H1       HT       0.417000       1.00800           0
     40245 TIP3     5933     TIP3     H2       HT       0.417000       1.00800           0
     40246 TIP3     5934     TIP3     OH2      OT      -0.834000       15.9994           0
     40247 TIP3     5934     TIP3     H1       HT       0.417000       1.00800           0
     40248 TIP3     5934     TIP3     H2       HT       0.417000       1.00800           0
     40249 TIP3     5935     TIP3     OH2      OT      -0.834000       15.9994           0
     40250 TIP3     5935     TIP3     H1       HT       0.417000       1.00800           0
     40251 TIP3     5935     TIP3     H2       HT       0.417000       1.00800           0
     40252 TIP3     5936     TIP3     OH2      OT      -0.834000       15.9994           0
     40253 TIP3     5936     TIP3     H1       HT       0.417000       1.00800           0
     40254 TIP3     5936     TIP3     H2       HT       0.417000       1.00800           0
     40255 TIP3     5937     TIP3     OH2      OT      -0.834000       15.9994           0
     40256 TIP3     5937     TIP3     H1       HT       0.417000       1.00800           0
     40257 TIP3     5937     TIP3     H2       HT       0.417000       1.00800           0
     40258 TIP3     5938     TIP3     OH2      OT      -0.834000       15.9994           0
     40259 TIP3     5938     TIP3     H1       HT       0.417000       1.00800           0
     40260 TIP3     5938     TIP3     H2       HT       0.417000       1.00800           0
     40261 TIP3     5939     TIP3     OH2      OT      -0.834000       15.9994           0
     40262 TIP3     5939     TIP3     H1       HT       0.417000       1.00800           0
     40263 TIP3     5939     TIP3     H2       HT       0.417000       1.00800           0
     40264 TIP3     5940     TIP3     OH2      OT      -0.834000       15.9994           0
     40265 TIP3     5940     TIP3     H1       HT       0.417000       1.00800           0
     40266 TIP3     5940     TIP3     H2       HT       0.417000       1.00800           0
     40267 TIP3     5941     TIP3     OH2      OT      -0.834000       15.9994           0
     40268 TIP3     5941     TIP3     H1       HT       0.417000       1.00800           0
     40269 TIP3     5941     TIP3     H2       HT       0.417000       1.00800           0
     40270 TIP3     5942     TIP3     OH2      OT      -0.834000       15.9994           0
     40271 TIP3     5942     TIP3     H1       HT       0.417000       1.00800           0
     40272 TIP3     5942     TIP3     H2       HT       0.417000       1.00800           0
     40273 TIP3     5943     TIP3     OH2      OT      -0.834000       15.9994           0
     40274 TIP3     5943     TIP3     H1       HT       0.417000       1.00800           0
     40275 TIP3     5943     TIP3     H2       HT       0.417000       1.00800           0
     40276 TIP3     5944     TIP3     OH2      OT      -0.834000       15.9994           0
     40277 TIP3     5944     TIP3     H1       HT       0.417000       1.00800           0
     40278 TIP3     5944     TIP3     H2       HT       0.417000       1.00800           0
     40279 TIP3     5945     TIP3     OH2      OT      -0.834000       15.9994           0
     40280 TIP3     5945     TIP3     H1       HT       0.417000       1.00800           0
     40281 TIP3     5945     TIP3     H2       HT       0.417000       1.00800           0
     40282 TIP3     5946     TIP3     OH2      OT      -0.834000       15.9994           0
     40283 TIP3     5946     TIP3     H1       HT       0.417000       1.00800           0
     40284 TIP3     5946     TIP3     H2       HT       0.417000       1.00800           0
     40285 TIP3     5947     TIP3     OH2      OT      -0.834000       15.9994           0
     40286 TIP3     5947     TIP3     H1       HT       0.417000       1.00800           0
     40287 TIP3     5947     TIP3     H2       HT       0.417000       1.00800           0
     40288 TIP3     5948     TIP3     OH2      OT      -0.834000       15.9994           0
     40289 TIP3     5948     TIP3     H1       HT       0.417000       1.00800           0
     40290 TIP3     5948     TIP3     H2       HT       0.417000       1.00800           0
     40291 TIP3     5949     TIP3     OH2      OT      -0.834000       15.9994           0
     40292 TIP3     5949     TIP3     H1       HT       0.417000       1.00800           0
     40293 TIP3     5949     TIP3     H2       HT       0.417000       1.00800           0
     40294 TIP3     5950     TIP3     OH2      OT      -0.834000       15.9994           0
     40295 TIP3     5950     TIP3     H1       HT       0.417000       1.00800           0
     40296 TIP3     5950     TIP3     H2       HT       0.417000       1.00800           0
     40297 TIP3     5951     TIP3     OH2      OT      -0.834000       15.9994           0
     40298 TIP3     5951     TIP3     H1       HT       0.417000       1.00800           0
     40299 TIP3     5951     TIP3     H2       HT       0.417000       1.00800           0
     40300 TIP3     5952     TIP3     OH2      OT      -0.834000       15.9994           0
     40301 TIP3     5952     TIP3     H1       HT       0.417000       1.00800           0
     40302 TIP3     5952     TIP3     H2       HT       0.417000       1.00800           0
     40303 TIP3     5953     TIP3     OH2      OT      -0.834000       15.9994           0
     40304 TIP3     5953     TIP3     H1       HT       0.417000       1.00800           0
     40305 TIP3     5953     TIP3     H2       HT       0.417000       1.00800           0
     40306 TIP3     5954     TIP3     OH2      OT      -0.834000       15.9994           0
     40307 TIP3     5954     TIP3     H1       HT       0.417000       1.00800           0
     40308 TIP3     5954     TIP3     H2       HT       0.417000       1.00800           0
     40309 TIP3     5955     TIP3     OH2      OT      -0.834000       15.9994           0
     40310 TIP3     5955     TIP3     H1       HT       0.417000       1.00800           0
     40311 TIP3     5955     TIP3     H2       HT       0.417000       1.00800           0
     40312 TIP3     5956     TIP3     OH2      OT      -0.834000       15.9994           0
     40313 TIP3     5956     TIP3     H1       HT       0.417000       1.00800           0
     40314 TIP3     5956     TIP3     H2       HT       0.417000       1.00800           0
     40315 TIP3     5957     TIP3     OH2      OT      -0.834000       15.9994           0
     40316 TIP3     5957     TIP3     H1       HT       0.417000       1.00800           0
     40317 TIP3     5957     TIP3     H2       HT       0.417000       1.00800           0
     40318 TIP3     5958     TIP3     OH2      OT      -0.834000       15.9994           0
     40319 TIP3     5958     TIP3     H1       HT       0.417000       1.00800           0
     40320 TIP3     5958     TIP3     H2       HT       0.417000       1.00800           0
     40321 TIP3     5959     TIP3     OH2      OT      -0.834000       15.9994           0
     40322 TIP3     5959     TIP3     H1       HT       0.417000       1.00800           0
     40323 TIP3     5959     TIP3     H2       HT       0.417000       1.00800           0
     40324 TIP3     5960     TIP3     OH2      OT      -0.834000       15.9994           0
     40325 TIP3     5960     TIP3     H1       HT       0.417000       1.00800           0
     40326 TIP3     5960     TIP3     H2       HT       0.417000       1.00800           0
     40327 TIP3     5961     TIP3     OH2      OT      -0.834000       15.9994           0
     40328 TIP3     5961     TIP3     H1       HT       0.417000       1.00800           0
     40329 TIP3     5961     TIP3     H2       HT       0.417000       1.00800           0
     40330 TIP3     5962     TIP3     OH2      OT      -0.834000       15.9994           0
     40331 TIP3     5962     TIP3     H1       HT       0.417000       1.00800           0
     40332 TIP3     5962     TIP3     H2       HT       0.417000       1.00800           0
     40333 TIP3     5963     TIP3     OH2      OT      -0.834000       15.9994           0
     40334 TIP3     5963     TIP3     H1       HT       0.417000       1.00800           0
     40335 TIP3     5963     TIP3     H2       HT       0.417000       1.00800           0
     40336 TIP3     5964     TIP3     OH2      OT      -0.834000       15.9994           0
     40337 TIP3     5964     TIP3     H1       HT       0.417000       1.00800           0
     40338 TIP3     5964     TIP3     H2       HT       0.417000       1.00800           0
     40339 TIP3     5965     TIP3     OH2      OT      -0.834000       15.9994           0
     40340 TIP3     5965     TIP3     H1       HT       0.417000       1.00800           0
     40341 TIP3     5965     TIP3     H2       HT       0.417000       1.00800           0
     40342 TIP3     5966     TIP3     OH2      OT      -0.834000       15.9994           0
     40343 TIP3     5966     TIP3     H1       HT       0.417000       1.00800           0
     40344 TIP3     5966     TIP3     H2       HT       0.417000       1.00800           0
     40345 TIP3     5967     TIP3     OH2      OT      -0.834000       15.9994           0
     40346 TIP3     5967     TIP3     H1       HT       0.417000       1.00800           0
     40347 TIP3     5967     TIP3     H2       HT       0.417000       1.00800           0
     40348 TIP3     5968     TIP3     OH2      OT      -0.834000       15.9994           0
     40349 TIP3     5968     TIP3     H1       HT       0.417000       1.00800           0
     40350 TIP3     5968     TIP3     H2       HT       0.417000       1.00800           0
     40351 TIP3     5969     TIP3     OH2      OT      -0.834000       15.9994           0
     40352 TIP3     5969     TIP3     H1       HT       0.417000       1.00800           0
     40353 TIP3     5969     TIP3     H2       HT       0.417000       1.00800           0
     40354 TIP3     5970     TIP3     OH2      OT      -0.834000       15.9994           0
     40355 TIP3     5970     TIP3     H1       HT       0.417000       1.00800           0
     40356 TIP3     5970     TIP3     H2       HT       0.417000       1.00800           0
     40357 TIP3     5971     TIP3     OH2      OT      -0.834000       15.9994           0
     40358 TIP3     5971     TIP3     H1       HT       0.417000       1.00800           0
     40359 TIP3     5971     TIP3     H2       HT       0.417000       1.00800           0
     40360 TIP3     5972     TIP3     OH2      OT      -0.834000       15.9994           0
     40361 TIP3     5972     TIP3     H1       HT       0.417000       1.00800           0
     40362 TIP3     5972     TIP3     H2       HT       0.417000       1.00800           0
     40363 TIP3     5973     TIP3     OH2      OT      -0.834000       15.9994           0
     40364 TIP3     5973     TIP3     H1       HT       0.417000       1.00800           0
     40365 TIP3     5973     TIP3     H2       HT       0.417000       1.00800           0
     40366 TIP3     5974     TIP3     OH2      OT      -0.834000       15.9994           0
     40367 TIP3     5974     TIP3     H1       HT       0.417000       1.00800           0
     40368 TIP3     5974     TIP3     H2       HT       0.417000       1.00800           0
     40369 TIP3     5975     TIP3     OH2      OT      -0.834000       15.9994           0
     40370 TIP3     5975     TIP3     H1       HT       0.417000       1.00800           0
     40371 TIP3     5975     TIP3     H2       HT       0.417000       1.00800           0
     40372 TIP3     5976     TIP3     OH2      OT      -0.834000       15.9994           0
     40373 TIP3     5976     TIP3     H1       HT       0.417000       1.00800           0
     40374 TIP3     5976     TIP3     H2       HT       0.417000       1.00800           0
     40375 TIP3     5977     TIP3     OH2      OT      -0.834000       15.9994           0
     40376 TIP3     5977     TIP3     H1       HT       0.417000       1.00800           0
     40377 TIP3     5977     TIP3     H2       HT       0.417000       1.00800           0
     40378 TIP3     5978     TIP3     OH2      OT      -0.834000       15.9994           0
     40379 TIP3     5978     TIP3     H1       HT       0.417000       1.00800           0
     40380 TIP3     5978     TIP3     H2       HT       0.417000       1.00800           0
     40381 TIP3     5979     TIP3     OH2      OT      -0.834000       15.9994           0
     40382 TIP3     5979     TIP3     H1       HT       0.417000       1.00800           0
     40383 TIP3     5979     TIP3     H2       HT       0.417000       1.00800           0
     40384 TIP3     5980     TIP3     OH2      OT      -0.834000       15.9994           0
     40385 TIP3     5980     TIP3     H1       HT       0.417000       1.00800           0
     40386 TIP3     5980     TIP3     H2       HT       0.417000       1.00800           0
     40387 TIP3     5981     TIP3     OH2      OT      -0.834000       15.9994           0
     40388 TIP3     5981     TIP3     H1       HT       0.417000       1.00800           0
     40389 TIP3     5981     TIP3     H2       HT       0.417000       1.00800           0
     40390 TIP3     5982     TIP3     OH2      OT      -0.834000       15.9994           0
     40391 TIP3     5982     TIP3     H1       HT       0.417000       1.00800           0
     40392 TIP3     5982     TIP3     H2       HT       0.417000       1.00800           0
     40393 TIP3     5983     TIP3     OH2      OT      -0.834000       15.9994           0
     40394 TIP3     5983     TIP3     H1       HT       0.417000       1.00800           0
     40395 TIP3     5983     TIP3     H2       HT       0.417000       1.00800           0
     40396 TIP3     5984     TIP3     OH2      OT      -0.834000       15.9994           0
     40397 TIP3     5984     TIP3     H1       HT       0.417000       1.00800           0
     40398 TIP3     5984     TIP3     H2       HT       0.417000       1.00800           0
     40399 TIP3     5985     TIP3     OH2      OT      -0.834000       15.9994           0
     40400 TIP3     5985     TIP3     H1       HT       0.417000       1.00800           0
     40401 TIP3     5985     TIP3     H2       HT       0.417000       1.00800           0
     40402 TIP3     5986     TIP3     OH2      OT      -0.834000       15.9994           0
     40403 TIP3     5986     TIP3     H1       HT       0.417000       1.00800           0
     40404 TIP3     5986     TIP3     H2       HT       0.417000       1.00800           0
     40405 TIP3     5987     TIP3     OH2      OT      -0.834000       15.9994           0
     40406 TIP3     5987     TIP3     H1       HT       0.417000       1.00800           0
     40407 TIP3     5987     TIP3     H2       HT       0.417000       1.00800           0
     40408 TIP3     5988     TIP3     OH2      OT      -0.834000       15.9994           0
     40409 TIP3     5988     TIP3     H1       HT       0.417000       1.00800           0
     40410 TIP3     5988     TIP3     H2       HT       0.417000       1.00800           0
     40411 TIP3     5989     TIP3     OH2      OT      -0.834000       15.9994           0
     40412 TIP3     5989     TIP3     H1       HT       0.417000       1.00800           0
     40413 TIP3     5989     TIP3     H2       HT       0.417000       1.00800           0
     40414 TIP3     5990     TIP3     OH2      OT      -0.834000       15.9994           0
     40415 TIP3     5990     TIP3     H1       HT       0.417000       1.00800           0
     40416 TIP3     5990     TIP3     H2       HT       0.417000       1.00800           0
     40417 TIP3     5991     TIP3     OH2      OT      -0.834000       15.9994           0
     40418 TIP3     5991     TIP3     H1       HT       0.417000       1.00800           0
     40419 TIP3     5991     TIP3     H2       HT       0.417000       1.00800           0
     40420 TIP3     5992     TIP3     OH2      OT      -0.834000       15.9994           0
     40421 TIP3     5992     TIP3     H1       HT       0.417000       1.00800           0
     40422 TIP3     5992     TIP3     H2       HT       0.417000       1.00800           0
     40423 TIP3     5993     TIP3     OH2      OT      -0.834000       15.9994           0
     40424 TIP3     5993     TIP3     H1       HT       0.417000       1.00800           0
     40425 TIP3     5993     TIP3     H2       HT       0.417000       1.00800           0
     40426 TIP3     5994     TIP3     OH2      OT      -0.834000       15.9994           0
     40427 TIP3     5994     TIP3     H1       HT       0.417000       1.00800           0
     40428 TIP3     5994     TIP3     H2       HT       0.417000       1.00800           0
     40429 TIP3     5995     TIP3     OH2      OT      -0.834000       15.9994           0
     40430 TIP3     5995     TIP3     H1       HT       0.417000       1.00800           0
     40431 TIP3     5995     TIP3     H2       HT       0.417000       1.00800           0
     40432 TIP3     5996     TIP3     OH2      OT      -0.834000       15.9994           0
     40433 TIP3     5996     TIP3     H1       HT       0.417000       1.00800           0
     40434 TIP3     5996     TIP3     H2       HT       0.417000       1.00800           0
     40435 TIP3     5997     TIP3     OH2      OT      -0.834000       15.9994           0
     40436 TIP3     5997     TIP3     H1       HT       0.417000       1.00800           0
     40437 TIP3     5997     TIP3     H2       HT       0.417000       1.00800           0
     40438 TIP3     5998     TIP3     OH2      OT      -0.834000       15.9994           0
     40439 TIP3     5998     TIP3     H1       HT       0.417000       1.00800           0
     40440 TIP3     5998     TIP3     H2       HT       0.417000       1.00800           0
     40441 TIP3     5999     TIP3     OH2      OT      -0.834000       15.9994           0
     40442 TIP3     5999     TIP3     H1       HT       0.417000       1.00800           0
     40443 TIP3     5999     TIP3     H2       HT       0.417000       1.00800           0
     40444 TIP3     6000     TIP3     OH2      OT      -0.834000       15.9994           0
     40445 TIP3     6000     TIP3     H1       HT       0.417000       1.00800           0
     40446 TIP3     6000     TIP3     H2       HT       0.417000       1.00800           0
     40447 TIP3     6001     TIP3     OH2      OT      -0.834000       15.9994           0
     40448 TIP3     6001     TIP3     H1       HT       0.417000       1.00800           0
     40449 TIP3     6001     TIP3     H2       HT       0.417000       1.00800           0
     40450 TIP3     6002     TIP3     OH2      OT      -0.834000       15.9994           0
     40451 TIP3     6002     TIP3     H1       HT       0.417000       1.00800           0
     40452 TIP3     6002     TIP3     H2       HT       0.417000       1.00800           0
     40453 TIP3     6003     TIP3     OH2      OT      -0.834000       15.9994           0
     40454 TIP3     6003     TIP3     H1       HT       0.417000       1.00800           0
     40455 TIP3     6003     TIP3     H2       HT       0.417000       1.00800           0
     40456 TIP3     6004     TIP3     OH2      OT      -0.834000       15.9994           0
     40457 TIP3     6004     TIP3     H1       HT       0.417000       1.00800           0
     40458 TIP3     6004     TIP3     H2       HT       0.417000       1.00800           0
     40459 TIP3     6005     TIP3     OH2      OT      -0.834000       15.9994           0
     40460 TIP3     6005     TIP3     H1       HT       0.417000       1.00800           0
     40461 TIP3     6005     TIP3     H2       HT       0.417000       1.00800           0
     40462 TIP3     6006     TIP3     OH2      OT      -0.834000       15.9994           0
     40463 TIP3     6006     TIP3     H1       HT       0.417000       1.00800           0
     40464 TIP3     6006     TIP3     H2       HT       0.417000       1.00800           0
     40465 TIP3     6007     TIP3     OH2      OT      -0.834000       15.9994           0
     40466 TIP3     6007     TIP3     H1       HT       0.417000       1.00800           0
     40467 TIP3     6007     TIP3     H2       HT       0.417000       1.00800           0
     40468 TIP3     6008     TIP3     OH2      OT      -0.834000       15.9994           0
     40469 TIP3     6008     TIP3     H1       HT       0.417000       1.00800           0
     40470 TIP3     6008     TIP3     H2       HT       0.417000       1.00800           0
     40471 TIP3     6009     TIP3     OH2      OT      -0.834000       15.9994           0
     40472 TIP3     6009     TIP3     H1       HT       0.417000       1.00800           0
     40473 TIP3     6009     TIP3     H2       HT       0.417000       1.00800           0
     40474 TIP3     6010     TIP3     OH2      OT      -0.834000       15.9994           0
     40475 TIP3     6010     TIP3     H1       HT       0.417000       1.00800           0
     40476 TIP3     6010     TIP3     H2       HT       0.417000       1.00800           0
     40477 TIP3     6011     TIP3     OH2      OT      -0.834000       15.9994           0
     40478 TIP3     6011     TIP3     H1       HT       0.417000       1.00800           0
     40479 TIP3     6011     TIP3     H2       HT       0.417000       1.00800           0
     40480 TIP3     6012     TIP3     OH2      OT      -0.834000       15.9994           0
     40481 TIP3     6012     TIP3     H1       HT       0.417000       1.00800           0
     40482 TIP3     6012     TIP3     H2       HT       0.417000       1.00800           0
     40483 TIP3     6013     TIP3     OH2      OT      -0.834000       15.9994           0
     40484 TIP3     6013     TIP3     H1       HT       0.417000       1.00800           0
     40485 TIP3     6013     TIP3     H2       HT       0.417000       1.00800           0
     40486 TIP3     6014     TIP3     OH2      OT      -0.834000       15.9994           0
     40487 TIP3     6014     TIP3     H1       HT       0.417000       1.00800           0
     40488 TIP3     6014     TIP3     H2       HT       0.417000       1.00800           0
     40489 TIP3     6015     TIP3     OH2      OT      -0.834000       15.9994           0
     40490 TIP3     6015     TIP3     H1       HT       0.417000       1.00800           0
     40491 TIP3     6015     TIP3     H2       HT       0.417000       1.00800           0
     40492 TIP3     6016     TIP3     OH2      OT      -0.834000       15.9994           0
     40493 TIP3     6016     TIP3     H1       HT       0.417000       1.00800           0
     40494 TIP3     6016     TIP3     H2       HT       0.417000       1.00800           0
     40495 TIP3     6017     TIP3     OH2      OT      -0.834000       15.9994           0
     40496 TIP3     6017     TIP3     H1       HT       0.417000       1.00800           0
     40497 TIP3     6017     TIP3     H2       HT       0.417000       1.00800           0
     40498 TIP3     6018     TIP3     OH2      OT      -0.834000       15.9994           0
     40499 TIP3     6018     TIP3     H1       HT       0.417000       1.00800           0
     40500 TIP3     6018     TIP3     H2       HT       0.417000       1.00800           0
     40501 TIP3     6019     TIP3     OH2      OT      -0.834000       15.9994           0
     40502 TIP3     6019     TIP3     H1       HT       0.417000       1.00800           0
     40503 TIP3     6019     TIP3     H2       HT       0.417000       1.00800           0
     40504 TIP3     6020     TIP3     OH2      OT      -0.834000       15.9994           0
     40505 TIP3     6020     TIP3     H1       HT       0.417000       1.00800           0
     40506 TIP3     6020     TIP3     H2       HT       0.417000       1.00800           0
     40507 TIP3     6021     TIP3     OH2      OT      -0.834000       15.9994           0
     40508 TIP3     6021     TIP3     H1       HT       0.417000       1.00800           0
     40509 TIP3     6021     TIP3     H2       HT       0.417000       1.00800           0
     40510 TIP3     6022     TIP3     OH2      OT      -0.834000       15.9994           0
     40511 TIP3     6022     TIP3     H1       HT       0.417000       1.00800           0
     40512 TIP3     6022     TIP3     H2       HT       0.417000       1.00800           0
     40513 TIP3     6023     TIP3     OH2      OT      -0.834000       15.9994           0
     40514 TIP3     6023     TIP3     H1       HT       0.417000       1.00800           0
     40515 TIP3     6023     TIP3     H2       HT       0.417000       1.00800           0
     40516 TIP3     6024     TIP3     OH2      OT      -0.834000       15.9994           0
     40517 TIP3     6024     TIP3     H1       HT       0.417000       1.00800           0
     40518 TIP3     6024     TIP3     H2       HT       0.417000       1.00800           0
     40519 TIP3     6025     TIP3     OH2      OT      -0.834000       15.9994           0
     40520 TIP3     6025     TIP3     H1       HT       0.417000       1.00800           0
     40521 TIP3     6025     TIP3     H2       HT       0.417000       1.00800           0
     40522 TIP3     6026     TIP3     OH2      OT      -0.834000       15.9994           0
     40523 TIP3     6026     TIP3     H1       HT       0.417000       1.00800           0
     40524 TIP3     6026     TIP3     H2       HT       0.417000       1.00800           0
     40525 TIP3     6027     TIP3     OH2      OT      -0.834000       15.9994           0
     40526 TIP3     6027     TIP3     H1       HT       0.417000       1.00800           0
     40527 TIP3     6027     TIP3     H2       HT       0.417000       1.00800           0
     40528 TIP3     6028     TIP3     OH2      OT      -0.834000       15.9994           0
     40529 TIP3     6028     TIP3     H1       HT       0.417000       1.00800           0
     40530 TIP3     6028     TIP3     H2       HT       0.417000       1.00800           0
     40531 TIP3     6029     TIP3     OH2      OT      -0.834000       15.9994           0
     40532 TIP3     6029     TIP3     H1       HT       0.417000       1.00800           0
     40533 TIP3     6029     TIP3     H2       HT       0.417000       1.00800           0
     40534 TIP3     6030     TIP3     OH2      OT      -0.834000       15.9994           0
     40535 TIP3     6030     TIP3     H1       HT       0.417000       1.00800           0
     40536 TIP3     6030     TIP3     H2       HT       0.417000       1.00800           0
     40537 TIP3     6031     TIP3     OH2      OT      -0.834000       15.9994           0
     40538 TIP3     6031     TIP3     H1       HT       0.417000       1.00800           0
     40539 TIP3     6031     TIP3     H2       HT       0.417000       1.00800           0
     40540 TIP3     6032     TIP3     OH2      OT      -0.834000       15.9994           0
     40541 TIP3     6032     TIP3     H1       HT       0.417000       1.00800           0
     40542 TIP3     6032     TIP3     H2       HT       0.417000       1.00800           0
     40543 TIP3     6033     TIP3     OH2      OT      -0.834000       15.9994           0
     40544 TIP3     6033     TIP3     H1       HT       0.417000       1.00800           0
     40545 TIP3     6033     TIP3     H2       HT       0.417000       1.00800           0
     40546 TIP3     6034     TIP3     OH2      OT      -0.834000       15.9994           0
     40547 TIP3     6034     TIP3     H1       HT       0.417000       1.00800           0
     40548 TIP3     6034     TIP3     H2       HT       0.417000       1.00800           0
     40549 TIP3     6035     TIP3     OH2      OT      -0.834000       15.9994           0
     40550 TIP3     6035     TIP3     H1       HT       0.417000       1.00800           0
     40551 TIP3     6035     TIP3     H2       HT       0.417000       1.00800           0
     40552 TIP3     6036     TIP3     OH2      OT      -0.834000       15.9994           0
     40553 TIP3     6036     TIP3     H1       HT       0.417000       1.00800           0
     40554 TIP3     6036     TIP3     H2       HT       0.417000       1.00800           0
     40555 TIP3     6037     TIP3     OH2      OT      -0.834000       15.9994           0
     40556 TIP3     6037     TIP3     H1       HT       0.417000       1.00800           0
     40557 TIP3     6037     TIP3     H2       HT       0.417000       1.00800           0
     40558 TIP3     6038     TIP3     OH2      OT      -0.834000       15.9994           0
     40559 TIP3     6038     TIP3     H1       HT       0.417000       1.00800           0
     40560 TIP3     6038     TIP3     H2       HT       0.417000       1.00800           0
     40561 TIP3     6039     TIP3     OH2      OT      -0.834000       15.9994           0
     40562 TIP3     6039     TIP3     H1       HT       0.417000       1.00800           0
     40563 TIP3     6039     TIP3     H2       HT       0.417000       1.00800           0
     40564 TIP3     6040     TIP3     OH2      OT      -0.834000       15.9994           0
     40565 TIP3     6040     TIP3     H1       HT       0.417000       1.00800           0
     40566 TIP3     6040     TIP3     H2       HT       0.417000       1.00800           0
     40567 TIP3     6041     TIP3     OH2      OT      -0.834000       15.9994           0
     40568 TIP3     6041     TIP3     H1       HT       0.417000       1.00800           0
     40569 TIP3     6041     TIP3     H2       HT       0.417000       1.00800           0
     40570 TIP3     6042     TIP3     OH2      OT      -0.834000       15.9994           0
     40571 TIP3     6042     TIP3     H1       HT       0.417000       1.00800           0
     40572 TIP3     6042     TIP3     H2       HT       0.417000       1.00800           0
     40573 TIP3     6043     TIP3     OH2      OT      -0.834000       15.9994           0
     40574 TIP3     6043     TIP3     H1       HT       0.417000       1.00800           0
     40575 TIP3     6043     TIP3     H2       HT       0.417000       1.00800           0
     40576 TIP3     6044     TIP3     OH2      OT      -0.834000       15.9994           0
     40577 TIP3     6044     TIP3     H1       HT       0.417000       1.00800           0
     40578 TIP3     6044     TIP3     H2       HT       0.417000       1.00800           0
     40579 TIP3     6045     TIP3     OH2      OT      -0.834000       15.9994           0
     40580 TIP3     6045     TIP3     H1       HT       0.417000       1.00800           0
     40581 TIP3     6045     TIP3     H2       HT       0.417000       1.00800           0
     40582 TIP3     6046     TIP3     OH2      OT      -0.834000       15.9994           0
     40583 TIP3     6046     TIP3     H1       HT       0.417000       1.00800           0
     40584 TIP3     6046     TIP3     H2       HT       0.417000       1.00800           0
     40585 TIP3     6047     TIP3     OH2      OT      -0.834000       15.9994           0
     40586 TIP3     6047     TIP3     H1       HT       0.417000       1.00800           0
     40587 TIP3     6047     TIP3     H2       HT       0.417000       1.00800           0
     40588 TIP3     6048     TIP3     OH2      OT      -0.834000       15.9994           0
     40589 TIP3     6048     TIP3     H1       HT       0.417000       1.00800           0
     40590 TIP3     6048     TIP3     H2       HT       0.417000       1.00800           0
     40591 TIP3     6049     TIP3     OH2      OT      -0.834000       15.9994           0
     40592 TIP3     6049     TIP3     H1       HT       0.417000       1.00800           0
     40593 TIP3     6049     TIP3     H2       HT       0.417000       1.00800           0
     40594 TIP3     6050     TIP3     OH2      OT      -0.834000       15.9994           0
     40595 TIP3     6050     TIP3     H1       HT       0.417000       1.00800           0
     40596 TIP3     6050     TIP3     H2       HT       0.417000       1.00800           0
     40597 TIP3     6051     TIP3     OH2      OT      -0.834000       15.9994           0
     40598 TIP3     6051     TIP3     H1       HT       0.417000       1.00800           0
     40599 TIP3     6051     TIP3     H2       HT       0.417000       1.00800           0
     40600 TIP3     6052     TIP3     OH2      OT      -0.834000       15.9994           0
     40601 TIP3     6052     TIP3     H1       HT       0.417000       1.00800           0
     40602 TIP3     6052     TIP3     H2       HT       0.417000       1.00800           0
     40603 TIP3     6053     TIP3     OH2      OT      -0.834000       15.9994           0
     40604 TIP3     6053     TIP3     H1       HT       0.417000       1.00800           0
     40605 TIP3     6053     TIP3     H2       HT       0.417000       1.00800           0
     40606 TIP3     6054     TIP3     OH2      OT      -0.834000       15.9994           0
     40607 TIP3     6054     TIP3     H1       HT       0.417000       1.00800           0
     40608 TIP3     6054     TIP3     H2       HT       0.417000       1.00800           0
     40609 TIP3     6055     TIP3     OH2      OT      -0.834000       15.9994           0
     40610 TIP3     6055     TIP3     H1       HT       0.417000       1.00800           0
     40611 TIP3     6055     TIP3     H2       HT       0.417000       1.00800           0
     40612 TIP3     6056     TIP3     OH2      OT      -0.834000       15.9994           0
     40613 TIP3     6056     TIP3     H1       HT       0.417000       1.00800           0
     40614 TIP3     6056     TIP3     H2       HT       0.417000       1.00800           0
     40615 TIP3     6057     TIP3     OH2      OT      -0.834000       15.9994           0
     40616 TIP3     6057     TIP3     H1       HT       0.417000       1.00800           0
     40617 TIP3     6057     TIP3     H2       HT       0.417000       1.00800           0
     40618 TIP3     6058     TIP3     OH2      OT      -0.834000       15.9994           0
     40619 TIP3     6058     TIP3     H1       HT       0.417000       1.00800           0
     40620 TIP3     6058     TIP3     H2       HT       0.417000       1.00800           0
     40621 TIP3     6059     TIP3     OH2      OT      -0.834000       15.9994           0
     40622 TIP3     6059     TIP3     H1       HT       0.417000       1.00800           0
     40623 TIP3     6059     TIP3     H2       HT       0.417000       1.00800           0
     40624 TIP3     6060     TIP3     OH2      OT      -0.834000       15.9994           0
     40625 TIP3     6060     TIP3     H1       HT       0.417000       1.00800           0
     40626 TIP3     6060     TIP3     H2       HT       0.417000       1.00800           0
     40627 TIP3     6061     TIP3     OH2      OT      -0.834000       15.9994           0
     40628 TIP3     6061     TIP3     H1       HT       0.417000       1.00800           0
     40629 TIP3     6061     TIP3     H2       HT       0.417000       1.00800           0
     40630 TIP3     6062     TIP3     OH2      OT      -0.834000       15.9994           0
     40631 TIP3     6062     TIP3     H1       HT       0.417000       1.00800           0
     40632 TIP3     6062     TIP3     H2       HT       0.417000       1.00800           0
     40633 TIP3     6063     TIP3     OH2      OT      -0.834000       15.9994           0
     40634 TIP3     6063     TIP3     H1       HT       0.417000       1.00800           0
     40635 TIP3     6063     TIP3     H2       HT       0.417000       1.00800           0
     40636 TIP3     6064     TIP3     OH2      OT      -0.834000       15.9994           0
     40637 TIP3     6064     TIP3     H1       HT       0.417000       1.00800           0
     40638 TIP3     6064     TIP3     H2       HT       0.417000       1.00800           0
     40639 TIP3     6065     TIP3     OH2      OT      -0.834000       15.9994           0
     40640 TIP3     6065     TIP3     H1       HT       0.417000       1.00800           0
     40641 TIP3     6065     TIP3     H2       HT       0.417000       1.00800           0
     40642 TIP3     6066     TIP3     OH2      OT      -0.834000       15.9994           0
     40643 TIP3     6066     TIP3     H1       HT       0.417000       1.00800           0
     40644 TIP3     6066     TIP3     H2       HT       0.417000       1.00800           0
     40645 TIP3     6067     TIP3     OH2      OT      -0.834000       15.9994           0
     40646 TIP3     6067     TIP3     H1       HT       0.417000       1.00800           0
     40647 TIP3     6067     TIP3     H2       HT       0.417000       1.00800           0
     40648 TIP3     6068     TIP3     OH2      OT      -0.834000       15.9994           0
     40649 TIP3     6068     TIP3     H1       HT       0.417000       1.00800           0
     40650 TIP3     6068     TIP3     H2       HT       0.417000       1.00800           0
     40651 TIP3     6069     TIP3     OH2      OT      -0.834000       15.9994           0
     40652 TIP3     6069     TIP3     H1       HT       0.417000       1.00800           0
     40653 TIP3     6069     TIP3     H2       HT       0.417000       1.00800           0
     40654 TIP3     6070     TIP3     OH2      OT      -0.834000       15.9994           0
     40655 TIP3     6070     TIP3     H1       HT       0.417000       1.00800           0
     40656 TIP3     6070     TIP3     H2       HT       0.417000       1.00800           0
     40657 TIP3     6071     TIP3     OH2      OT      -0.834000       15.9994           0
     40658 TIP3     6071     TIP3     H1       HT       0.417000       1.00800           0
     40659 TIP3     6071     TIP3     H2       HT       0.417000       1.00800           0
     40660 TIP3     6072     TIP3     OH2      OT      -0.834000       15.9994           0
     40661 TIP3     6072     TIP3     H1       HT       0.417000       1.00800           0
     40662 TIP3     6072     TIP3     H2       HT       0.417000       1.00800           0
     40663 TIP3     6073     TIP3     OH2      OT      -0.834000       15.9994           0
     40664 TIP3     6073     TIP3     H1       HT       0.417000       1.00800           0
     40665 TIP3     6073     TIP3     H2       HT       0.417000       1.00800           0
     40666 TIP3     6074     TIP3     OH2      OT      -0.834000       15.9994           0
     40667 TIP3     6074     TIP3     H1       HT       0.417000       1.00800           0
     40668 TIP3     6074     TIP3     H2       HT       0.417000       1.00800           0
     40669 TIP3     6075     TIP3     OH2      OT      -0.834000       15.9994           0
     40670 TIP3     6075     TIP3     H1       HT       0.417000       1.00800           0
     40671 TIP3     6075     TIP3     H2       HT       0.417000       1.00800           0
     40672 TIP3     6076     TIP3     OH2      OT      -0.834000       15.9994           0
     40673 TIP3     6076     TIP3     H1       HT       0.417000       1.00800           0
     40674 TIP3     6076     TIP3     H2       HT       0.417000       1.00800           0
     40675 TIP3     6077     TIP3     OH2      OT      -0.834000       15.9994           0
     40676 TIP3     6077     TIP3     H1       HT       0.417000       1.00800           0
     40677 TIP3     6077     TIP3     H2       HT       0.417000       1.00800           0
     40678 TIP3     6078     TIP3     OH2      OT      -0.834000       15.9994           0
     40679 TIP3     6078     TIP3     H1       HT       0.417000       1.00800           0
     40680 TIP3     6078     TIP3     H2       HT       0.417000       1.00800           0
     40681 TIP3     6079     TIP3     OH2      OT      -0.834000       15.9994           0
     40682 TIP3     6079     TIP3     H1       HT       0.417000       1.00800           0
     40683 TIP3     6079     TIP3     H2       HT       0.417000       1.00800           0
     40684 TIP3     6080     TIP3     OH2      OT      -0.834000       15.9994           0
     40685 TIP3     6080     TIP3     H1       HT       0.417000       1.00800           0
     40686 TIP3     6080     TIP3     H2       HT       0.417000       1.00800           0
     40687 TIP3     6081     TIP3     OH2      OT      -0.834000       15.9994           0
     40688 TIP3     6081     TIP3     H1       HT       0.417000       1.00800           0
     40689 TIP3     6081     TIP3     H2       HT       0.417000       1.00800           0
     40690 TIP3     6082     TIP3     OH2      OT      -0.834000       15.9994           0
     40691 TIP3     6082     TIP3     H1       HT       0.417000       1.00800           0
     40692 TIP3     6082     TIP3     H2       HT       0.417000       1.00800           0
     40693 TIP3     6083     TIP3     OH2      OT      -0.834000       15.9994           0
     40694 TIP3     6083     TIP3     H1       HT       0.417000       1.00800           0
     40695 TIP3     6083     TIP3     H2       HT       0.417000       1.00800           0
     40696 TIP3     6084     TIP3     OH2      OT      -0.834000       15.9994           0
     40697 TIP3     6084     TIP3     H1       HT       0.417000       1.00800           0
     40698 TIP3     6084     TIP3     H2       HT       0.417000       1.00800           0
     40699 TIP3     6085     TIP3     OH2      OT      -0.834000       15.9994           0
     40700 TIP3     6085     TIP3     H1       HT       0.417000       1.00800           0
     40701 TIP3     6085     TIP3     H2       HT       0.417000       1.00800           0
     40702 TIP3     6086     TIP3     OH2      OT      -0.834000       15.9994           0
     40703 TIP3     6086     TIP3     H1       HT       0.417000       1.00800           0
     40704 TIP3     6086     TIP3     H2       HT       0.417000       1.00800           0
     40705 TIP3     6087     TIP3     OH2      OT      -0.834000       15.9994           0
     40706 TIP3     6087     TIP3     H1       HT       0.417000       1.00800           0
     40707 TIP3     6087     TIP3     H2       HT       0.417000       1.00800           0
     40708 TIP3     6088     TIP3     OH2      OT      -0.834000       15.9994           0
     40709 TIP3     6088     TIP3     H1       HT       0.417000       1.00800           0
     40710 TIP3     6088     TIP3     H2       HT       0.417000       1.00800           0
     40711 TIP3     6089     TIP3     OH2      OT      -0.834000       15.9994           0
     40712 TIP3     6089     TIP3     H1       HT       0.417000       1.00800           0
     40713 TIP3     6089     TIP3     H2       HT       0.417000       1.00800           0
     40714 TIP3     6090     TIP3     OH2      OT      -0.834000       15.9994           0
     40715 TIP3     6090     TIP3     H1       HT       0.417000       1.00800           0
     40716 TIP3     6090     TIP3     H2       HT       0.417000       1.00800           0
     40717 TIP3     6091     TIP3     OH2      OT      -0.834000       15.9994           0
     40718 TIP3     6091     TIP3     H1       HT       0.417000       1.00800           0
     40719 TIP3     6091     TIP3     H2       HT       0.417000       1.00800           0
     40720 TIP3     6092     TIP3     OH2      OT      -0.834000       15.9994           0
     40721 TIP3     6092     TIP3     H1       HT       0.417000       1.00800           0
     40722 TIP3     6092     TIP3     H2       HT       0.417000       1.00800           0
     40723 TIP3     6093     TIP3     OH2      OT      -0.834000       15.9994           0
     40724 TIP3     6093     TIP3     H1       HT       0.417000       1.00800           0
     40725 TIP3     6093     TIP3     H2       HT       0.417000       1.00800           0
     40726 TIP3     6094     TIP3     OH2      OT      -0.834000       15.9994           0
     40727 TIP3     6094     TIP3     H1       HT       0.417000       1.00800           0
     40728 TIP3     6094     TIP3     H2       HT       0.417000       1.00800           0
     40729 TIP3     6095     TIP3     OH2      OT      -0.834000       15.9994           0
     40730 TIP3     6095     TIP3     H1       HT       0.417000       1.00800           0
     40731 TIP3     6095     TIP3     H2       HT       0.417000       1.00800           0
     40732 TIP3     6096     TIP3     OH2      OT      -0.834000       15.9994           0
     40733 TIP3     6096     TIP3     H1       HT       0.417000       1.00800           0
     40734 TIP3     6096     TIP3     H2       HT       0.417000       1.00800           0
     40735 TIP3     6097     TIP3     OH2      OT      -0.834000       15.9994           0
     40736 TIP3     6097     TIP3     H1       HT       0.417000       1.00800           0
     40737 TIP3     6097     TIP3     H2       HT       0.417000       1.00800           0
     40738 TIP3     6098     TIP3     OH2      OT      -0.834000       15.9994           0
     40739 TIP3     6098     TIP3     H1       HT       0.417000       1.00800           0
     40740 TIP3     6098     TIP3     H2       HT       0.417000       1.00800           0
     40741 TIP3     6099     TIP3     OH2      OT      -0.834000       15.9994           0
     40742 TIP3     6099     TIP3     H1       HT       0.417000       1.00800           0
     40743 TIP3     6099     TIP3     H2       HT       0.417000       1.00800           0
     40744 TIP3     6100     TIP3     OH2      OT      -0.834000       15.9994           0
     40745 TIP3     6100     TIP3     H1       HT       0.417000       1.00800           0
     40746 TIP3     6100     TIP3     H2       HT       0.417000       1.00800           0
     40747 TIP3     6101     TIP3     OH2      OT      -0.834000       15.9994           0
     40748 TIP3     6101     TIP3     H1       HT       0.417000       1.00800           0
     40749 TIP3     6101     TIP3     H2       HT       0.417000       1.00800           0
     40750 TIP3     6102     TIP3     OH2      OT      -0.834000       15.9994           0
     40751 TIP3     6102     TIP3     H1       HT       0.417000       1.00800           0
     40752 TIP3     6102     TIP3     H2       HT       0.417000       1.00800           0
     40753 TIP3     6103     TIP3     OH2      OT      -0.834000       15.9994           0
     40754 TIP3     6103     TIP3     H1       HT       0.417000       1.00800           0
     40755 TIP3     6103     TIP3     H2       HT       0.417000       1.00800           0
     40756 TIP3     6104     TIP3     OH2      OT      -0.834000       15.9994           0
     40757 TIP3     6104     TIP3     H1       HT       0.417000       1.00800           0
     40758 TIP3     6104     TIP3     H2       HT       0.417000       1.00800           0
     40759 TIP3     6105     TIP3     OH2      OT      -0.834000       15.9994           0
     40760 TIP3     6105     TIP3     H1       HT       0.417000       1.00800           0
     40761 TIP3     6105     TIP3     H2       HT       0.417000       1.00800           0
     40762 TIP3     6106     TIP3     OH2      OT      -0.834000       15.9994           0
     40763 TIP3     6106     TIP3     H1       HT       0.417000       1.00800           0
     40764 TIP3     6106     TIP3     H2       HT       0.417000       1.00800           0
     40765 TIP3     6107     TIP3     OH2      OT      -0.834000       15.9994           0
     40766 TIP3     6107     TIP3     H1       HT       0.417000       1.00800           0
     40767 TIP3     6107     TIP3     H2       HT       0.417000       1.00800           0
     40768 TIP3     6108     TIP3     OH2      OT      -0.834000       15.9994           0
     40769 TIP3     6108     TIP3     H1       HT       0.417000       1.00800           0
     40770 TIP3     6108     TIP3     H2       HT       0.417000       1.00800           0
     40771 TIP3     6109     TIP3     OH2      OT      -0.834000       15.9994           0
     40772 TIP3     6109     TIP3     H1       HT       0.417000       1.00800           0
     40773 TIP3     6109     TIP3     H2       HT       0.417000       1.00800           0
     40774 TIP3     6110     TIP3     OH2      OT      -0.834000       15.9994           0
     40775 TIP3     6110     TIP3     H1       HT       0.417000       1.00800           0
     40776 TIP3     6110     TIP3     H2       HT       0.417000       1.00800           0
     40777 TIP3     6111     TIP3     OH2      OT      -0.834000       15.9994           0
     40778 TIP3     6111     TIP3     H1       HT       0.417000       1.00800           0
     40779 TIP3     6111     TIP3     H2       HT       0.417000       1.00800           0
     40780 TIP3     6112     TIP3     OH2      OT      -0.834000       15.9994           0
     40781 TIP3     6112     TIP3     H1       HT       0.417000       1.00800           0
     40782 TIP3     6112     TIP3     H2       HT       0.417000       1.00800           0
     40783 TIP3     6113     TIP3     OH2      OT      -0.834000       15.9994           0
     40784 TIP3     6113     TIP3     H1       HT       0.417000       1.00800           0
     40785 TIP3     6113     TIP3     H2       HT       0.417000       1.00800           0
     40786 TIP3     6114     TIP3     OH2      OT      -0.834000       15.9994           0
     40787 TIP3     6114     TIP3     H1       HT       0.417000       1.00800           0
     40788 TIP3     6114     TIP3     H2       HT       0.417000       1.00800           0
     40789 TIP3     6115     TIP3     OH2      OT      -0.834000       15.9994           0
     40790 TIP3     6115     TIP3     H1       HT       0.417000       1.00800           0
     40791 TIP3     6115     TIP3     H2       HT       0.417000       1.00800           0
     40792 TIP3     6116     TIP3     OH2      OT      -0.834000       15.9994           0
     40793 TIP3     6116     TIP3     H1       HT       0.417000       1.00800           0
     40794 TIP3     6116     TIP3     H2       HT       0.417000       1.00800           0
     40795 TIP3     6117     TIP3     OH2      OT      -0.834000       15.9994           0
     40796 TIP3     6117     TIP3     H1       HT       0.417000       1.00800           0
     40797 TIP3     6117     TIP3     H2       HT       0.417000       1.00800           0
     40798 TIP3     6118     TIP3     OH2      OT      -0.834000       15.9994           0
     40799 TIP3     6118     TIP3     H1       HT       0.417000       1.00800           0
     40800 TIP3     6118     TIP3     H2       HT       0.417000       1.00800           0
     40801 TIP3     6119     TIP3     OH2      OT      -0.834000       15.9994           0
     40802 TIP3     6119     TIP3     H1       HT       0.417000       1.00800           0
     40803 TIP3     6119     TIP3     H2       HT       0.417000       1.00800           0
     40804 TIP3     6120     TIP3     OH2      OT      -0.834000       15.9994           0
     40805 TIP3     6120     TIP3     H1       HT       0.417000       1.00800           0
     40806 TIP3     6120     TIP3     H2       HT       0.417000       1.00800           0
     40807 TIP3     6121     TIP3     OH2      OT      -0.834000       15.9994           0
     40808 TIP3     6121     TIP3     H1       HT       0.417000       1.00800           0
     40809 TIP3     6121     TIP3     H2       HT       0.417000       1.00800           0
     40810 TIP3     6122     TIP3     OH2      OT      -0.834000       15.9994           0
     40811 TIP3     6122     TIP3     H1       HT       0.417000       1.00800           0
     40812 TIP3     6122     TIP3     H2       HT       0.417000       1.00800           0
     40813 TIP3     6123     TIP3     OH2      OT      -0.834000       15.9994           0
     40814 TIP3     6123     TIP3     H1       HT       0.417000       1.00800           0
     40815 TIP3     6123     TIP3     H2       HT       0.417000       1.00800           0
     40816 TIP3     6124     TIP3     OH2      OT      -0.834000       15.9994           0
     40817 TIP3     6124     TIP3     H1       HT       0.417000       1.00800           0
     40818 TIP3     6124     TIP3     H2       HT       0.417000       1.00800           0
     40819 TIP3     6125     TIP3     OH2      OT      -0.834000       15.9994           0
     40820 TIP3     6125     TIP3     H1       HT       0.417000       1.00800           0
     40821 TIP3     6125     TIP3     H2       HT       0.417000       1.00800           0
     40822 TIP3     6126     TIP3     OH2      OT      -0.834000       15.9994           0
     40823 TIP3     6126     TIP3     H1       HT       0.417000       1.00800           0
     40824 TIP3     6126     TIP3     H2       HT       0.417000       1.00800           0
     40825 TIP3     6127     TIP3     OH2      OT      -0.834000       15.9994           0
     40826 TIP3     6127     TIP3     H1       HT       0.417000       1.00800           0
     40827 TIP3     6127     TIP3     H2       HT       0.417000       1.00800           0
     40828 TIP3     6128     TIP3     OH2      OT      -0.834000       15.9994           0
     40829 TIP3     6128     TIP3     H1       HT       0.417000       1.00800           0
     40830 TIP3     6128     TIP3     H2       HT       0.417000       1.00800           0
     40831 TIP3     6129     TIP3     OH2      OT      -0.834000       15.9994           0
     40832 TIP3     6129     TIP3     H1       HT       0.417000       1.00800           0
     40833 TIP3     6129     TIP3     H2       HT       0.417000       1.00800           0
     40834 TIP3     6130     TIP3     OH2      OT      -0.834000       15.9994           0
     40835 TIP3     6130     TIP3     H1       HT       0.417000       1.00800           0
     40836 TIP3     6130     TIP3     H2       HT       0.417000       1.00800           0
     40837 TIP3     6131     TIP3     OH2      OT      -0.834000       15.9994           0
     40838 TIP3     6131     TIP3     H1       HT       0.417000       1.00800           0
     40839 TIP3     6131     TIP3     H2       HT       0.417000       1.00800           0
     40840 TIP3     6132     TIP3     OH2      OT      -0.834000       15.9994           0
     40841 TIP3     6132     TIP3     H1       HT       0.417000       1.00800           0
     40842 TIP3     6132     TIP3     H2       HT       0.417000       1.00800           0
     40843 TIP3     6133     TIP3     OH2      OT      -0.834000       15.9994           0
     40844 TIP3     6133     TIP3     H1       HT       0.417000       1.00800           0
     40845 TIP3     6133     TIP3     H2       HT       0.417000       1.00800           0
     40846 TIP3     6134     TIP3     OH2      OT      -0.834000       15.9994           0
     40847 TIP3     6134     TIP3     H1       HT       0.417000       1.00800           0
     40848 TIP3     6134     TIP3     H2       HT       0.417000       1.00800           0
     40849 TIP3     6135     TIP3     OH2      OT      -0.834000       15.9994           0
     40850 TIP3     6135     TIP3     H1       HT       0.417000       1.00800           0
     40851 TIP3     6135     TIP3     H2       HT       0.417000       1.00800           0
     40852 TIP3     6136     TIP3     OH2      OT      -0.834000       15.9994           0
     40853 TIP3     6136     TIP3     H1       HT       0.417000       1.00800           0
     40854 TIP3     6136     TIP3     H2       HT       0.417000       1.00800           0
     40855 TIP3     6137     TIP3     OH2      OT      -0.834000       15.9994           0
     40856 TIP3     6137     TIP3     H1       HT       0.417000       1.00800           0
     40857 TIP3     6137     TIP3     H2       HT       0.417000       1.00800           0
     40858 TIP3     6138     TIP3     OH2      OT      -0.834000       15.9994           0
     40859 TIP3     6138     TIP3     H1       HT       0.417000       1.00800           0
     40860 TIP3     6138     TIP3     H2       HT       0.417000       1.00800           0
     40861 TIP3     6139     TIP3     OH2      OT      -0.834000       15.9994           0
     40862 TIP3     6139     TIP3     H1       HT       0.417000       1.00800           0
     40863 TIP3     6139     TIP3     H2       HT       0.417000       1.00800           0
     40864 TIP3     6140     TIP3     OH2      OT      -0.834000       15.9994           0
     40865 TIP3     6140     TIP3     H1       HT       0.417000       1.00800           0
     40866 TIP3     6140     TIP3     H2       HT       0.417000       1.00800           0
     40867 TIP3     6141     TIP3     OH2      OT      -0.834000       15.9994           0
     40868 TIP3     6141     TIP3     H1       HT       0.417000       1.00800           0
     40869 TIP3     6141     TIP3     H2       HT       0.417000       1.00800           0
     40870 TIP3     6142     TIP3     OH2      OT      -0.834000       15.9994           0
     40871 TIP3     6142     TIP3     H1       HT       0.417000       1.00800           0
     40872 TIP3     6142     TIP3     H2       HT       0.417000       1.00800           0
     40873 TIP3     6143     TIP3     OH2      OT      -0.834000       15.9994           0
     40874 TIP3     6143     TIP3     H1       HT       0.417000       1.00800           0
     40875 TIP3     6143     TIP3     H2       HT       0.417000       1.00800           0
     40876 TIP3     6144     TIP3     OH2      OT      -0.834000       15.9994           0
     40877 TIP3     6144     TIP3     H1       HT       0.417000       1.00800           0
     40878 TIP3     6144     TIP3     H2       HT       0.417000       1.00800           0
     40879 TIP3     6145     TIP3     OH2      OT      -0.834000       15.9994           0
     40880 TIP3     6145     TIP3     H1       HT       0.417000       1.00800           0
     40881 TIP3     6145     TIP3     H2       HT       0.417000       1.00800           0
     40882 TIP3     6146     TIP3     OH2      OT      -0.834000       15.9994           0
     40883 TIP3     6146     TIP3     H1       HT       0.417000       1.00800           0
     40884 TIP3     6146     TIP3     H2       HT       0.417000       1.00800           0
     40885 TIP3     6147     TIP3     OH2      OT      -0.834000       15.9994           0
     40886 TIP3     6147     TIP3     H1       HT       0.417000       1.00800           0
     40887 TIP3     6147     TIP3     H2       HT       0.417000       1.00800           0
     40888 TIP3     6148     TIP3     OH2      OT      -0.834000       15.9994           0
     40889 TIP3     6148     TIP3     H1       HT       0.417000       1.00800           0
     40890 TIP3     6148     TIP3     H2       HT       0.417000       1.00800           0
     40891 TIP3     6149     TIP3     OH2      OT      -0.834000       15.9994           0
     40892 TIP3     6149     TIP3     H1       HT       0.417000       1.00800           0
     40893 TIP3     6149     TIP3     H2       HT       0.417000       1.00800           0
     40894 TIP3     6150     TIP3     OH2      OT      -0.834000       15.9994           0
     40895 TIP3     6150     TIP3     H1       HT       0.417000       1.00800           0
     40896 TIP3     6150     TIP3     H2       HT       0.417000       1.00800           0
     40897 TIP3     6151     TIP3     OH2      OT      -0.834000       15.9994           0
     40898 TIP3     6151     TIP3     H1       HT       0.417000       1.00800           0
     40899 TIP3     6151     TIP3     H2       HT       0.417000       1.00800           0
     40900 TIP3     6152     TIP3     OH2      OT      -0.834000       15.9994           0
     40901 TIP3     6152     TIP3     H1       HT       0.417000       1.00800           0
     40902 TIP3     6152     TIP3     H2       HT       0.417000       1.00800           0
     40903 TIP3     6153     TIP3     OH2      OT      -0.834000       15.9994           0
     40904 TIP3     6153     TIP3     H1       HT       0.417000       1.00800           0
     40905 TIP3     6153     TIP3     H2       HT       0.417000       1.00800           0
     40906 TIP3     6154     TIP3     OH2      OT      -0.834000       15.9994           0
     40907 TIP3     6154     TIP3     H1       HT       0.417000       1.00800           0
     40908 TIP3     6154     TIP3     H2       HT       0.417000       1.00800           0
     40909 TIP3     6155     TIP3     OH2      OT      -0.834000       15.9994           0
     40910 TIP3     6155     TIP3     H1       HT       0.417000       1.00800           0
     40911 TIP3     6155     TIP3     H2       HT       0.417000       1.00800           0
     40912 TIP3     6156     TIP3     OH2      OT      -0.834000       15.9994           0
     40913 TIP3     6156     TIP3     H1       HT       0.417000       1.00800           0
     40914 TIP3     6156     TIP3     H2       HT       0.417000       1.00800           0
     40915 TIP3     6157     TIP3     OH2      OT      -0.834000       15.9994           0
     40916 TIP3     6157     TIP3     H1       HT       0.417000       1.00800           0
     40917 TIP3     6157     TIP3     H2       HT       0.417000       1.00800           0
     40918 TIP3     6158     TIP3     OH2      OT      -0.834000       15.9994           0
     40919 TIP3     6158     TIP3     H1       HT       0.417000       1.00800           0
     40920 TIP3     6158     TIP3     H2       HT       0.417000       1.00800           0
     40921 TIP3     6159     TIP3     OH2      OT      -0.834000       15.9994           0
     40922 TIP3     6159     TIP3     H1       HT       0.417000       1.00800           0
     40923 TIP3     6159     TIP3     H2       HT       0.417000       1.00800           0
     40924 TIP3     6160     TIP3     OH2      OT      -0.834000       15.9994           0
     40925 TIP3     6160     TIP3     H1       HT       0.417000       1.00800           0
     40926 TIP3     6160     TIP3     H2       HT       0.417000       1.00800           0
     40927 TIP3     6161     TIP3     OH2      OT      -0.834000       15.9994           0
     40928 TIP3     6161     TIP3     H1       HT       0.417000       1.00800           0
     40929 TIP3     6161     TIP3     H2       HT       0.417000       1.00800           0
     40930 TIP3     6162     TIP3     OH2      OT      -0.834000       15.9994           0
     40931 TIP3     6162     TIP3     H1       HT       0.417000       1.00800           0
     40932 TIP3     6162     TIP3     H2       HT       0.417000       1.00800           0
     40933 TIP3     6163     TIP3     OH2      OT      -0.834000       15.9994           0
     40934 TIP3     6163     TIP3     H1       HT       0.417000       1.00800           0
     40935 TIP3     6163     TIP3     H2       HT       0.417000       1.00800           0
     40936 TIP3     6164     TIP3     OH2      OT      -0.834000       15.9994           0
     40937 TIP3     6164     TIP3     H1       HT       0.417000       1.00800           0
     40938 TIP3     6164     TIP3     H2       HT       0.417000       1.00800           0
     40939 TIP3     6165     TIP3     OH2      OT      -0.834000       15.9994           0
     40940 TIP3     6165     TIP3     H1       HT       0.417000       1.00800           0
     40941 TIP3     6165     TIP3     H2       HT       0.417000       1.00800           0
     40942 TIP3     6166     TIP3     OH2      OT      -0.834000       15.9994           0
     40943 TIP3     6166     TIP3     H1       HT       0.417000       1.00800           0
     40944 TIP3     6166     TIP3     H2       HT       0.417000       1.00800           0
     40945 TIP3     6167     TIP3     OH2      OT      -0.834000       15.9994           0
     40946 TIP3     6167     TIP3     H1       HT       0.417000       1.00800           0
     40947 TIP3     6167     TIP3     H2       HT       0.417000       1.00800           0
     40948 TIP3     6168     TIP3     OH2      OT      -0.834000       15.9994           0
     40949 TIP3     6168     TIP3     H1       HT       0.417000       1.00800           0
     40950 TIP3     6168     TIP3     H2       HT       0.417000       1.00800           0
     40951 TIP3     6169     TIP3     OH2      OT      -0.834000       15.9994           0
     40952 TIP3     6169     TIP3     H1       HT       0.417000       1.00800           0
     40953 TIP3     6169     TIP3     H2       HT       0.417000       1.00800           0
     40954 TIP3     6170     TIP3     OH2      OT      -0.834000       15.9994           0
     40955 TIP3     6170     TIP3     H1       HT       0.417000       1.00800           0
     40956 TIP3     6170     TIP3     H2       HT       0.417000       1.00800           0
     40957 TIP3     6171     TIP3     OH2      OT      -0.834000       15.9994           0
     40958 TIP3     6171     TIP3     H1       HT       0.417000       1.00800           0
     40959 TIP3     6171     TIP3     H2       HT       0.417000       1.00800           0
     40960 TIP3     6172     TIP3     OH2      OT      -0.834000       15.9994           0
     40961 TIP3     6172     TIP3     H1       HT       0.417000       1.00800           0
     40962 TIP3     6172     TIP3     H2       HT       0.417000       1.00800           0
     40963 TIP3     6173     TIP3     OH2      OT      -0.834000       15.9994           0
     40964 TIP3     6173     TIP3     H1       HT       0.417000       1.00800           0
     40965 TIP3     6173     TIP3     H2       HT       0.417000       1.00800           0
     40966 TIP3     6174     TIP3     OH2      OT      -0.834000       15.9994           0
     40967 TIP3     6174     TIP3     H1       HT       0.417000       1.00800           0
     40968 TIP3     6174     TIP3     H2       HT       0.417000       1.00800           0
     40969 TIP3     6175     TIP3     OH2      OT      -0.834000       15.9994           0
     40970 TIP3     6175     TIP3     H1       HT       0.417000       1.00800           0
     40971 TIP3     6175     TIP3     H2       HT       0.417000       1.00800           0
     40972 TIP3     6176     TIP3     OH2      OT      -0.834000       15.9994           0
     40973 TIP3     6176     TIP3     H1       HT       0.417000       1.00800           0
     40974 TIP3     6176     TIP3     H2       HT       0.417000       1.00800           0
     40975 TIP3     6177     TIP3     OH2      OT      -0.834000       15.9994           0
     40976 TIP3     6177     TIP3     H1       HT       0.417000       1.00800           0
     40977 TIP3     6177     TIP3     H2       HT       0.417000       1.00800           0
     40978 TIP3     6178     TIP3     OH2      OT      -0.834000       15.9994           0
     40979 TIP3     6178     TIP3     H1       HT       0.417000       1.00800           0
     40980 TIP3     6178     TIP3     H2       HT       0.417000       1.00800           0
     40981 TIP3     6179     TIP3     OH2      OT      -0.834000       15.9994           0
     40982 TIP3     6179     TIP3     H1       HT       0.417000       1.00800           0
     40983 TIP3     6179     TIP3     H2       HT       0.417000       1.00800           0
     40984 TIP3     6180     TIP3     OH2      OT      -0.834000       15.9994           0
     40985 TIP3     6180     TIP3     H1       HT       0.417000       1.00800           0
     40986 TIP3     6180     TIP3     H2       HT       0.417000       1.00800           0
     40987 TIP3     6181     TIP3     OH2      OT      -0.834000       15.9994           0
     40988 TIP3     6181     TIP3     H1       HT       0.417000       1.00800           0
     40989 TIP3     6181     TIP3     H2       HT       0.417000       1.00800           0
     40990 TIP3     6182     TIP3     OH2      OT      -0.834000       15.9994           0
     40991 TIP3     6182     TIP3     H1       HT       0.417000       1.00800           0
     40992 TIP3     6182     TIP3     H2       HT       0.417000       1.00800           0
     40993 TIP3     6183     TIP3     OH2      OT      -0.834000       15.9994           0
     40994 TIP3     6183     TIP3     H1       HT       0.417000       1.00800           0
     40995 TIP3     6183     TIP3     H2       HT       0.417000       1.00800           0
     40996 TIP3     6184     TIP3     OH2      OT      -0.834000       15.9994           0
     40997 TIP3     6184     TIP3     H1       HT       0.417000       1.00800           0
     40998 TIP3     6184     TIP3     H2       HT       0.417000       1.00800           0
     40999 TIP3     6185     TIP3     OH2      OT      -0.834000       15.9994           0
     41000 TIP3     6185     TIP3     H1       HT       0.417000       1.00800           0
     41001 TIP3     6185     TIP3     H2       HT       0.417000       1.00800           0
     41002 TIP3     6186     TIP3     OH2      OT      -0.834000       15.9994           0
     41003 TIP3     6186     TIP3     H1       HT       0.417000       1.00800           0
     41004 TIP3     6186     TIP3     H2       HT       0.417000       1.00800           0
     41005 TIP3     6187     TIP3     OH2      OT      -0.834000       15.9994           0
     41006 TIP3     6187     TIP3     H1       HT       0.417000       1.00800           0
     41007 TIP3     6187     TIP3     H2       HT       0.417000       1.00800           0
     41008 TIP3     6188     TIP3     OH2      OT      -0.834000       15.9994           0
     41009 TIP3     6188     TIP3     H1       HT       0.417000       1.00800           0
     41010 TIP3     6188     TIP3     H2       HT       0.417000       1.00800           0
     41011 TIP3     6189     TIP3     OH2      OT      -0.834000       15.9994           0
     41012 TIP3     6189     TIP3     H1       HT       0.417000       1.00800           0
     41013 TIP3     6189     TIP3     H2       HT       0.417000       1.00800           0
     41014 TIP3     6190     TIP3     OH2      OT      -0.834000       15.9994           0
     41015 TIP3     6190     TIP3     H1       HT       0.417000       1.00800           0
     41016 TIP3     6190     TIP3     H2       HT       0.417000       1.00800           0
     41017 TIP3     6191     TIP3     OH2      OT      -0.834000       15.9994           0
     41018 TIP3     6191     TIP3     H1       HT       0.417000       1.00800           0
     41019 TIP3     6191     TIP3     H2       HT       0.417000       1.00800           0
     41020 TIP3     6192     TIP3     OH2      OT      -0.834000       15.9994           0
     41021 TIP3     6192     TIP3     H1       HT       0.417000       1.00800           0
     41022 TIP3     6192     TIP3     H2       HT       0.417000       1.00800           0
     41023 TIP3     6193     TIP3     OH2      OT      -0.834000       15.9994           0
     41024 TIP3     6193     TIP3     H1       HT       0.417000       1.00800           0
     41025 TIP3     6193     TIP3     H2       HT       0.417000       1.00800           0
     41026 TIP3     6194     TIP3     OH2      OT      -0.834000       15.9994           0
     41027 TIP3     6194     TIP3     H1       HT       0.417000       1.00800           0
     41028 TIP3     6194     TIP3     H2       HT       0.417000       1.00800           0
     41029 TIP3     6195     TIP3     OH2      OT      -0.834000       15.9994           0
     41030 TIP3     6195     TIP3     H1       HT       0.417000       1.00800           0
     41031 TIP3     6195     TIP3     H2       HT       0.417000       1.00800           0
     41032 TIP3     6196     TIP3     OH2      OT      -0.834000       15.9994           0
     41033 TIP3     6196     TIP3     H1       HT       0.417000       1.00800           0
     41034 TIP3     6196     TIP3     H2       HT       0.417000       1.00800           0
     41035 TIP3     6197     TIP3     OH2      OT      -0.834000       15.9994           0
     41036 TIP3     6197     TIP3     H1       HT       0.417000       1.00800           0
     41037 TIP3     6197     TIP3     H2       HT       0.417000       1.00800           0
     41038 TIP3     6198     TIP3     OH2      OT      -0.834000       15.9994           0
     41039 TIP3     6198     TIP3     H1       HT       0.417000       1.00800           0
     41040 TIP3     6198     TIP3     H2       HT       0.417000       1.00800           0
     41041 TIP3     6199     TIP3     OH2      OT      -0.834000       15.9994           0
     41042 TIP3     6199     TIP3     H1       HT       0.417000       1.00800           0
     41043 TIP3     6199     TIP3     H2       HT       0.417000       1.00800           0
     41044 TIP3     6200     TIP3     OH2      OT      -0.834000       15.9994           0
     41045 TIP3     6200     TIP3     H1       HT       0.417000       1.00800           0
     41046 TIP3     6200     TIP3     H2       HT       0.417000       1.00800           0
     41047 TIP3     6201     TIP3     OH2      OT      -0.834000       15.9994           0
     41048 TIP3     6201     TIP3     H1       HT       0.417000       1.00800           0
     41049 TIP3     6201     TIP3     H2       HT       0.417000       1.00800           0
     41050 TIP3     6202     TIP3     OH2      OT      -0.834000       15.9994           0
     41051 TIP3     6202     TIP3     H1       HT       0.417000       1.00800           0
     41052 TIP3     6202     TIP3     H2       HT       0.417000       1.00800           0
     41053 TIP3     6203     TIP3     OH2      OT      -0.834000       15.9994           0
     41054 TIP3     6203     TIP3     H1       HT       0.417000       1.00800           0
     41055 TIP3     6203     TIP3     H2       HT       0.417000       1.00800           0
     41056 TIP3     6204     TIP3     OH2      OT      -0.834000       15.9994           0
     41057 TIP3     6204     TIP3     H1       HT       0.417000       1.00800           0
     41058 TIP3     6204     TIP3     H2       HT       0.417000       1.00800           0
     41059 TIP3     6205     TIP3     OH2      OT      -0.834000       15.9994           0
     41060 TIP3     6205     TIP3     H1       HT       0.417000       1.00800           0
     41061 TIP3     6205     TIP3     H2       HT       0.417000       1.00800           0
     41062 TIP3     6206     TIP3     OH2      OT      -0.834000       15.9994           0
     41063 TIP3     6206     TIP3     H1       HT       0.417000       1.00800           0
     41064 TIP3     6206     TIP3     H2       HT       0.417000       1.00800           0
     41065 TIP3     6207     TIP3     OH2      OT      -0.834000       15.9994           0
     41066 TIP3     6207     TIP3     H1       HT       0.417000       1.00800           0
     41067 TIP3     6207     TIP3     H2       HT       0.417000       1.00800           0
     41068 TIP3     6208     TIP3     OH2      OT      -0.834000       15.9994           0
     41069 TIP3     6208     TIP3     H1       HT       0.417000       1.00800           0
     41070 TIP3     6208     TIP3     H2       HT       0.417000       1.00800           0
     41071 TIP3     6209     TIP3     OH2      OT      -0.834000       15.9994           0
     41072 TIP3     6209     TIP3     H1       HT       0.417000       1.00800           0
     41073 TIP3     6209     TIP3     H2       HT       0.417000       1.00800           0
     41074 TIP3     6210     TIP3     OH2      OT      -0.834000       15.9994           0
     41075 TIP3     6210     TIP3     H1       HT       0.417000       1.00800           0
     41076 TIP3     6210     TIP3     H2       HT       0.417000       1.00800           0
     41077 TIP3     6211     TIP3     OH2      OT      -0.834000       15.9994           0
     41078 TIP3     6211     TIP3     H1       HT       0.417000       1.00800           0
     41079 TIP3     6211     TIP3     H2       HT       0.417000       1.00800           0
     41080 TIP3     6212     TIP3     OH2      OT      -0.834000       15.9994           0
     41081 TIP3     6212     TIP3     H1       HT       0.417000       1.00800           0
     41082 TIP3     6212     TIP3     H2       HT       0.417000       1.00800           0
     41083 TIP3     6213     TIP3     OH2      OT      -0.834000       15.9994           0
     41084 TIP3     6213     TIP3     H1       HT       0.417000       1.00800           0
     41085 TIP3     6213     TIP3     H2       HT       0.417000       1.00800           0
     41086 TIP3     6214     TIP3     OH2      OT      -0.834000       15.9994           0
     41087 TIP3     6214     TIP3     H1       HT       0.417000       1.00800           0
     41088 TIP3     6214     TIP3     H2       HT       0.417000       1.00800           0
     41089 TIP3     6215     TIP3     OH2      OT      -0.834000       15.9994           0
     41090 TIP3     6215     TIP3     H1       HT       0.417000       1.00800           0
     41091 TIP3     6215     TIP3     H2       HT       0.417000       1.00800           0
     41092 TIP3     6216     TIP3     OH2      OT      -0.834000       15.9994           0
     41093 TIP3     6216     TIP3     H1       HT       0.417000       1.00800           0
     41094 TIP3     6216     TIP3     H2       HT       0.417000       1.00800           0
     41095 TIP3     6217     TIP3     OH2      OT      -0.834000       15.9994           0
     41096 TIP3     6217     TIP3     H1       HT       0.417000       1.00800           0
     41097 TIP3     6217     TIP3     H2       HT       0.417000       1.00800           0
     41098 TIP3     6218     TIP3     OH2      OT      -0.834000       15.9994           0
     41099 TIP3     6218     TIP3     H1       HT       0.417000       1.00800           0
     41100 TIP3     6218     TIP3     H2       HT       0.417000       1.00800           0
     41101 TIP3     6219     TIP3     OH2      OT      -0.834000       15.9994           0
     41102 TIP3     6219     TIP3     H1       HT       0.417000       1.00800           0
     41103 TIP3     6219     TIP3     H2       HT       0.417000       1.00800           0
     41104 TIP3     6220     TIP3     OH2      OT      -0.834000       15.9994           0
     41105 TIP3     6220     TIP3     H1       HT       0.417000       1.00800           0
     41106 TIP3     6220     TIP3     H2       HT       0.417000       1.00800           0
     41107 TIP3     6221     TIP3     OH2      OT      -0.834000       15.9994           0
     41108 TIP3     6221     TIP3     H1       HT       0.417000       1.00800           0
     41109 TIP3     6221     TIP3     H2       HT       0.417000       1.00800           0
     41110 TIP3     6222     TIP3     OH2      OT      -0.834000       15.9994           0
     41111 TIP3     6222     TIP3     H1       HT       0.417000       1.00800           0
     41112 TIP3     6222     TIP3     H2       HT       0.417000       1.00800           0
     41113 TIP3     6223     TIP3     OH2      OT      -0.834000       15.9994           0
     41114 TIP3     6223     TIP3     H1       HT       0.417000       1.00800           0
     41115 TIP3     6223     TIP3     H2       HT       0.417000       1.00800           0
     41116 TIP3     6224     TIP3     OH2      OT      -0.834000       15.9994           0
     41117 TIP3     6224     TIP3     H1       HT       0.417000       1.00800           0
     41118 TIP3     6224     TIP3     H2       HT       0.417000       1.00800           0
     41119 TIP3     6225     TIP3     OH2      OT      -0.834000       15.9994           0
     41120 TIP3     6225     TIP3     H1       HT       0.417000       1.00800           0
     41121 TIP3     6225     TIP3     H2       HT       0.417000       1.00800           0
     41122 TIP3     6226     TIP3     OH2      OT      -0.834000       15.9994           0
     41123 TIP3     6226     TIP3     H1       HT       0.417000       1.00800           0
     41124 TIP3     6226     TIP3     H2       HT       0.417000       1.00800           0
     41125 TIP3     6227     TIP3     OH2      OT      -0.834000       15.9994           0
     41126 TIP3     6227     TIP3     H1       HT       0.417000       1.00800           0
     41127 TIP3     6227     TIP3     H2       HT       0.417000       1.00800           0
     41128 TIP3     6228     TIP3     OH2      OT      -0.834000       15.9994           0
     41129 TIP3     6228     TIP3     H1       HT       0.417000       1.00800           0
     41130 TIP3     6228     TIP3     H2       HT       0.417000       1.00800           0
     41131 TIP3     6229     TIP3     OH2      OT      -0.834000       15.9994           0
     41132 TIP3     6229     TIP3     H1       HT       0.417000       1.00800           0
     41133 TIP3     6229     TIP3     H2       HT       0.417000       1.00800           0
     41134 TIP3     6230     TIP3     OH2      OT      -0.834000       15.9994           0
     41135 TIP3     6230     TIP3     H1       HT       0.417000       1.00800           0
     41136 TIP3     6230     TIP3     H2       HT       0.417000       1.00800           0
     41137 TIP3     6231     TIP3     OH2      OT      -0.834000       15.9994           0
     41138 TIP3     6231     TIP3     H1       HT       0.417000       1.00800           0
     41139 TIP3     6231     TIP3     H2       HT       0.417000       1.00800           0
     41140 TIP3     6232     TIP3     OH2      OT      -0.834000       15.9994           0
     41141 TIP3     6232     TIP3     H1       HT       0.417000       1.00800           0
     41142 TIP3     6232     TIP3     H2       HT       0.417000       1.00800           0
     41143 TIP3     6233     TIP3     OH2      OT      -0.834000       15.9994           0
     41144 TIP3     6233     TIP3     H1       HT       0.417000       1.00800           0
     41145 TIP3     6233     TIP3     H2       HT       0.417000       1.00800           0
     41146 TIP3     6234     TIP3     OH2      OT      -0.834000       15.9994           0
     41147 TIP3     6234     TIP3     H1       HT       0.417000       1.00800           0
     41148 TIP3     6234     TIP3     H2       HT       0.417000       1.00800           0
     41149 TIP3     6235     TIP3     OH2      OT      -0.834000       15.9994           0
     41150 TIP3     6235     TIP3     H1       HT       0.417000       1.00800           0
     41151 TIP3     6235     TIP3     H2       HT       0.417000       1.00800           0
     41152 TIP3     6236     TIP3     OH2      OT      -0.834000       15.9994           0
     41153 TIP3     6236     TIP3     H1       HT       0.417000       1.00800           0
     41154 TIP3     6236     TIP3     H2       HT       0.417000       1.00800           0
     41155 TIP3     6237     TIP3     OH2      OT      -0.834000       15.9994           0
     41156 TIP3     6237     TIP3     H1       HT       0.417000       1.00800           0
     41157 TIP3     6237     TIP3     H2       HT       0.417000       1.00800           0
     41158 TIP3     6238     TIP3     OH2      OT      -0.834000       15.9994           0
     41159 TIP3     6238     TIP3     H1       HT       0.417000       1.00800           0
     41160 TIP3     6238     TIP3     H2       HT       0.417000       1.00800           0
     41161 TIP3     6239     TIP3     OH2      OT      -0.834000       15.9994           0
     41162 TIP3     6239     TIP3     H1       HT       0.417000       1.00800           0
     41163 TIP3     6239     TIP3     H2       HT       0.417000       1.00800           0
     41164 TIP3     6240     TIP3     OH2      OT      -0.834000       15.9994           0
     41165 TIP3     6240     TIP3     H1       HT       0.417000       1.00800           0
     41166 TIP3     6240     TIP3     H2       HT       0.417000       1.00800           0
     41167 TIP3     6241     TIP3     OH2      OT      -0.834000       15.9994           0
     41168 TIP3     6241     TIP3     H1       HT       0.417000       1.00800           0
     41169 TIP3     6241     TIP3     H2       HT       0.417000       1.00800           0
     41170 TIP3     6242     TIP3     OH2      OT      -0.834000       15.9994           0
     41171 TIP3     6242     TIP3     H1       HT       0.417000       1.00800           0
     41172 TIP3     6242     TIP3     H2       HT       0.417000       1.00800           0
     41173 TIP3     6243     TIP3     OH2      OT      -0.834000       15.9994           0
     41174 TIP3     6243     TIP3     H1       HT       0.417000       1.00800           0
     41175 TIP3     6243     TIP3     H2       HT       0.417000       1.00800           0
     41176 TIP3     6244     TIP3     OH2      OT      -0.834000       15.9994           0
     41177 TIP3     6244     TIP3     H1       HT       0.417000       1.00800           0
     41178 TIP3     6244     TIP3     H2       HT       0.417000       1.00800           0
     41179 TIP3     6245     TIP3     OH2      OT      -0.834000       15.9994           0
     41180 TIP3     6245     TIP3     H1       HT       0.417000       1.00800           0
     41181 TIP3     6245     TIP3     H2       HT       0.417000       1.00800           0
     41182 TIP3     6246     TIP3     OH2      OT      -0.834000       15.9994           0
     41183 TIP3     6246     TIP3     H1       HT       0.417000       1.00800           0
     41184 TIP3     6246     TIP3     H2       HT       0.417000       1.00800           0
     41185 TIP3     6247     TIP3     OH2      OT      -0.834000       15.9994           0
     41186 TIP3     6247     TIP3     H1       HT       0.417000       1.00800           0
     41187 TIP3     6247     TIP3     H2       HT       0.417000       1.00800           0
     41188 TIP3     6248     TIP3     OH2      OT      -0.834000       15.9994           0
     41189 TIP3     6248     TIP3     H1       HT       0.417000       1.00800           0
     41190 TIP3     6248     TIP3     H2       HT       0.417000       1.00800           0
     41191 TIP3     6249     TIP3     OH2      OT      -0.834000       15.9994           0
     41192 TIP3     6249     TIP3     H1       HT       0.417000       1.00800           0
     41193 TIP3     6249     TIP3     H2       HT       0.417000       1.00800           0
     41194 TIP3     6250     TIP3     OH2      OT      -0.834000       15.9994           0
     41195 TIP3     6250     TIP3     H1       HT       0.417000       1.00800           0
     41196 TIP3     6250     TIP3     H2       HT       0.417000       1.00800           0
     41197 TIP3     6251     TIP3     OH2      OT      -0.834000       15.9994           0
     41198 TIP3     6251     TIP3     H1       HT       0.417000       1.00800           0
     41199 TIP3     6251     TIP3     H2       HT       0.417000       1.00800           0
     41200 TIP3     6252     TIP3     OH2      OT      -0.834000       15.9994           0
     41201 TIP3     6252     TIP3     H1       HT       0.417000       1.00800           0
     41202 TIP3     6252     TIP3     H2       HT       0.417000       1.00800           0
     41203 TIP3     6253     TIP3     OH2      OT      -0.834000       15.9994           0
     41204 TIP3     6253     TIP3     H1       HT       0.417000       1.00800           0
     41205 TIP3     6253     TIP3     H2       HT       0.417000       1.00800           0
     41206 TIP3     6254     TIP3     OH2      OT      -0.834000       15.9994           0
     41207 TIP3     6254     TIP3     H1       HT       0.417000       1.00800           0
     41208 TIP3     6254     TIP3     H2       HT       0.417000       1.00800           0
     41209 TIP3     6255     TIP3     OH2      OT      -0.834000       15.9994           0
     41210 TIP3     6255     TIP3     H1       HT       0.417000       1.00800           0
     41211 TIP3     6255     TIP3     H2       HT       0.417000       1.00800           0
     41212 TIP3     6256     TIP3     OH2      OT      -0.834000       15.9994           0
     41213 TIP3     6256     TIP3     H1       HT       0.417000       1.00800           0
     41214 TIP3     6256     TIP3     H2       HT       0.417000       1.00800           0
     41215 TIP3     6257     TIP3     OH2      OT      -0.834000       15.9994           0
     41216 TIP3     6257     TIP3     H1       HT       0.417000       1.00800           0
     41217 TIP3     6257     TIP3     H2       HT       0.417000       1.00800           0
     41218 TIP3     6258     TIP3     OH2      OT      -0.834000       15.9994           0
     41219 TIP3     6258     TIP3     H1       HT       0.417000       1.00800           0
     41220 TIP3     6258     TIP3     H2       HT       0.417000       1.00800           0
     41221 TIP3     6259     TIP3     OH2      OT      -0.834000       15.9994           0
     41222 TIP3     6259     TIP3     H1       HT       0.417000       1.00800           0
     41223 TIP3     6259     TIP3     H2       HT       0.417000       1.00800           0
     41224 TIP3     6260     TIP3     OH2      OT      -0.834000       15.9994           0
     41225 TIP3     6260     TIP3     H1       HT       0.417000       1.00800           0
     41226 TIP3     6260     TIP3     H2       HT       0.417000       1.00800           0
     41227 TIP3     6261     TIP3     OH2      OT      -0.834000       15.9994           0
     41228 TIP3     6261     TIP3     H1       HT       0.417000       1.00800           0
     41229 TIP3     6261     TIP3     H2       HT       0.417000       1.00800           0
     41230 TIP3     6262     TIP3     OH2      OT      -0.834000       15.9994           0
     41231 TIP3     6262     TIP3     H1       HT       0.417000       1.00800           0
     41232 TIP3     6262     TIP3     H2       HT       0.417000       1.00800           0
     41233 TIP3     6263     TIP3     OH2      OT      -0.834000       15.9994           0
     41234 TIP3     6263     TIP3     H1       HT       0.417000       1.00800           0
     41235 TIP3     6263     TIP3     H2       HT       0.417000       1.00800           0
     41236 TIP3     6264     TIP3     OH2      OT      -0.834000       15.9994           0
     41237 TIP3     6264     TIP3     H1       HT       0.417000       1.00800           0
     41238 TIP3     6264     TIP3     H2       HT       0.417000       1.00800           0
     41239 TIP3     6265     TIP3     OH2      OT      -0.834000       15.9994           0
     41240 TIP3     6265     TIP3     H1       HT       0.417000       1.00800           0
     41241 TIP3     6265     TIP3     H2       HT       0.417000       1.00800           0
     41242 TIP3     6266     TIP3     OH2      OT      -0.834000       15.9994           0
     41243 TIP3     6266     TIP3     H1       HT       0.417000       1.00800           0
     41244 TIP3     6266     TIP3     H2       HT       0.417000       1.00800           0
     41245 TIP3     6267     TIP3     OH2      OT      -0.834000       15.9994           0
     41246 TIP3     6267     TIP3     H1       HT       0.417000       1.00800           0
     41247 TIP3     6267     TIP3     H2       HT       0.417000       1.00800           0
     41248 TIP3     6268     TIP3     OH2      OT      -0.834000       15.9994           0
     41249 TIP3     6268     TIP3     H1       HT       0.417000       1.00800           0
     41250 TIP3     6268     TIP3     H2       HT       0.417000       1.00800           0
     41251 TIP3     6269     TIP3     OH2      OT      -0.834000       15.9994           0
     41252 TIP3     6269     TIP3     H1       HT       0.417000       1.00800           0
     41253 TIP3     6269     TIP3     H2       HT       0.417000       1.00800           0
     41254 TIP3     6270     TIP3     OH2      OT      -0.834000       15.9994           0
     41255 TIP3     6270     TIP3     H1       HT       0.417000       1.00800           0
     41256 TIP3     6270     TIP3     H2       HT       0.417000       1.00800           0
     41257 TIP3     6271     TIP3     OH2      OT      -0.834000       15.9994           0
     41258 TIP3     6271     TIP3     H1       HT       0.417000       1.00800           0
     41259 TIP3     6271     TIP3     H2       HT       0.417000       1.00800           0
     41260 TIP3     6272     TIP3     OH2      OT      -0.834000       15.9994           0
     41261 TIP3     6272     TIP3     H1       HT       0.417000       1.00800           0
     41262 TIP3     6272     TIP3     H2       HT       0.417000       1.00800           0
     41263 TIP3     6273     TIP3     OH2      OT      -0.834000       15.9994           0
     41264 TIP3     6273     TIP3     H1       HT       0.417000       1.00800           0
     41265 TIP3     6273     TIP3     H2       HT       0.417000       1.00800           0
     41266 TIP3     6274     TIP3     OH2      OT      -0.834000       15.9994           0
     41267 TIP3     6274     TIP3     H1       HT       0.417000       1.00800           0
     41268 TIP3     6274     TIP3     H2       HT       0.417000       1.00800           0
     41269 TIP3     6275     TIP3     OH2      OT      -0.834000       15.9994           0
     41270 TIP3     6275     TIP3     H1       HT       0.417000       1.00800           0
     41271 TIP3     6275     TIP3     H2       HT       0.417000       1.00800           0
     41272 TIP3     6276     TIP3     OH2      OT      -0.834000       15.9994           0
     41273 TIP3     6276     TIP3     H1       HT       0.417000       1.00800           0
     41274 TIP3     6276     TIP3     H2       HT       0.417000       1.00800           0
     41275 TIP3     6277     TIP3     OH2      OT      -0.834000       15.9994           0
     41276 TIP3     6277     TIP3     H1       HT       0.417000       1.00800           0
     41277 TIP3     6277     TIP3     H2       HT       0.417000       1.00800           0
     41278 TIP3     6278     TIP3     OH2      OT      -0.834000       15.9994           0
     41279 TIP3     6278     TIP3     H1       HT       0.417000       1.00800           0
     41280 TIP3     6278     TIP3     H2       HT       0.417000       1.00800           0
     41281 TIP3     6279     TIP3     OH2      OT      -0.834000       15.9994           0
     41282 TIP3     6279     TIP3     H1       HT       0.417000       1.00800           0
     41283 TIP3     6279     TIP3     H2       HT       0.417000       1.00800           0
     41284 TIP3     6280     TIP3     OH2      OT      -0.834000       15.9994           0
     41285 TIP3     6280     TIP3     H1       HT       0.417000       1.00800           0
     41286 TIP3     6280     TIP3     H2       HT       0.417000       1.00800           0
     41287 TIP3     6281     TIP3     OH2      OT      -0.834000       15.9994           0
     41288 TIP3     6281     TIP3     H1       HT       0.417000       1.00800           0
     41289 TIP3     6281     TIP3     H2       HT       0.417000       1.00800           0
     41290 TIP3     6282     TIP3     OH2      OT      -0.834000       15.9994           0
     41291 TIP3     6282     TIP3     H1       HT       0.417000       1.00800           0
     41292 TIP3     6282     TIP3     H2       HT       0.417000       1.00800           0
     41293 TIP3     6283     TIP3     OH2      OT      -0.834000       15.9994           0
     41294 TIP3     6283     TIP3     H1       HT       0.417000       1.00800           0
     41295 TIP3     6283     TIP3     H2       HT       0.417000       1.00800           0
     41296 TIP3     6284     TIP3     OH2      OT      -0.834000       15.9994           0
     41297 TIP3     6284     TIP3     H1       HT       0.417000       1.00800           0
     41298 TIP3     6284     TIP3     H2       HT       0.417000       1.00800           0
     41299 TIP3     6285     TIP3     OH2      OT      -0.834000       15.9994           0
     41300 TIP3     6285     TIP3     H1       HT       0.417000       1.00800           0
     41301 TIP3     6285     TIP3     H2       HT       0.417000       1.00800           0
     41302 TIP3     6286     TIP3     OH2      OT      -0.834000       15.9994           0
     41303 TIP3     6286     TIP3     H1       HT       0.417000       1.00800           0
     41304 TIP3     6286     TIP3     H2       HT       0.417000       1.00800           0
     41305 TIP3     6287     TIP3     OH2      OT      -0.834000       15.9994           0
     41306 TIP3     6287     TIP3     H1       HT       0.417000       1.00800           0
     41307 TIP3     6287     TIP3     H2       HT       0.417000       1.00800           0
     41308 TIP3     6288     TIP3     OH2      OT      -0.834000       15.9994           0
     41309 TIP3     6288     TIP3     H1       HT       0.417000       1.00800           0
     41310 TIP3     6288     TIP3     H2       HT       0.417000       1.00800           0
     41311 TIP3     6289     TIP3     OH2      OT      -0.834000       15.9994           0
     41312 TIP3     6289     TIP3     H1       HT       0.417000       1.00800           0
     41313 TIP3     6289     TIP3     H2       HT       0.417000       1.00800           0
     41314 TIP3     6290     TIP3     OH2      OT      -0.834000       15.9994           0
     41315 TIP3     6290     TIP3     H1       HT       0.417000       1.00800           0
     41316 TIP3     6290     TIP3     H2       HT       0.417000       1.00800           0
     41317 TIP3     6291     TIP3     OH2      OT      -0.834000       15.9994           0
     41318 TIP3     6291     TIP3     H1       HT       0.417000       1.00800           0
     41319 TIP3     6291     TIP3     H2       HT       0.417000       1.00800           0
     41320 TIP3     6292     TIP3     OH2      OT      -0.834000       15.9994           0
     41321 TIP3     6292     TIP3     H1       HT       0.417000       1.00800           0
     41322 TIP3     6292     TIP3     H2       HT       0.417000       1.00800           0
     41323 TIP3     6293     TIP3     OH2      OT      -0.834000       15.9994           0
     41324 TIP3     6293     TIP3     H1       HT       0.417000       1.00800           0
     41325 TIP3     6293     TIP3     H2       HT       0.417000       1.00800           0
     41326 TIP3     6294     TIP3     OH2      OT      -0.834000       15.9994           0
     41327 TIP3     6294     TIP3     H1       HT       0.417000       1.00800           0
     41328 TIP3     6294     TIP3     H2       HT       0.417000       1.00800           0
     41329 TIP3     6295     TIP3     OH2      OT      -0.834000       15.9994           0
     41330 TIP3     6295     TIP3     H1       HT       0.417000       1.00800           0
     41331 TIP3     6295     TIP3     H2       HT       0.417000       1.00800           0
     41332 TIP3     6296     TIP3     OH2      OT      -0.834000       15.9994           0
     41333 TIP3     6296     TIP3     H1       HT       0.417000       1.00800           0
     41334 TIP3     6296     TIP3     H2       HT       0.417000       1.00800           0
     41335 TIP3     6297     TIP3     OH2      OT      -0.834000       15.9994           0
     41336 TIP3     6297     TIP3     H1       HT       0.417000       1.00800           0
     41337 TIP3     6297     TIP3     H2       HT       0.417000       1.00800           0
     41338 TIP3     6298     TIP3     OH2      OT      -0.834000       15.9994           0
     41339 TIP3     6298     TIP3     H1       HT       0.417000       1.00800           0
     41340 TIP3     6298     TIP3     H2       HT       0.417000       1.00800           0
     41341 TIP3     6299     TIP3     OH2      OT      -0.834000       15.9994           0
     41342 TIP3     6299     TIP3     H1       HT       0.417000       1.00800           0
     41343 TIP3     6299     TIP3     H2       HT       0.417000       1.00800           0
     41344 TIP3     6300     TIP3     OH2      OT      -0.834000       15.9994           0
     41345 TIP3     6300     TIP3     H1       HT       0.417000       1.00800           0
     41346 TIP3     6300     TIP3     H2       HT       0.417000       1.00800           0
     41347 TIP3     6301     TIP3     OH2      OT      -0.834000       15.9994           0
     41348 TIP3     6301     TIP3     H1       HT       0.417000       1.00800           0
     41349 TIP3     6301     TIP3     H2       HT       0.417000       1.00800           0
     41350 TIP3     6302     TIP3     OH2      OT      -0.834000       15.9994           0
     41351 TIP3     6302     TIP3     H1       HT       0.417000       1.00800           0
     41352 TIP3     6302     TIP3     H2       HT       0.417000       1.00800           0
     41353 TIP3     6303     TIP3     OH2      OT      -0.834000       15.9994           0
     41354 TIP3     6303     TIP3     H1       HT       0.417000       1.00800           0
     41355 TIP3     6303     TIP3     H2       HT       0.417000       1.00800           0
     41356 TIP3     6304     TIP3     OH2      OT      -0.834000       15.9994           0
     41357 TIP3     6304     TIP3     H1       HT       0.417000       1.00800           0
     41358 TIP3     6304     TIP3     H2       HT       0.417000       1.00800           0
     41359 TIP3     6305     TIP3     OH2      OT      -0.834000       15.9994           0
     41360 TIP3     6305     TIP3     H1       HT       0.417000       1.00800           0
     41361 TIP3     6305     TIP3     H2       HT       0.417000       1.00800           0
     41362 TIP3     6306     TIP3     OH2      OT      -0.834000       15.9994           0
     41363 TIP3     6306     TIP3     H1       HT       0.417000       1.00800           0
     41364 TIP3     6306     TIP3     H2       HT       0.417000       1.00800           0
     41365 TIP3     6307     TIP3     OH2      OT      -0.834000       15.9994           0
     41366 TIP3     6307     TIP3     H1       HT       0.417000       1.00800           0
     41367 TIP3     6307     TIP3     H2       HT       0.417000       1.00800           0
     41368 TIP3     6308     TIP3     OH2      OT      -0.834000       15.9994           0
     41369 TIP3     6308     TIP3     H1       HT       0.417000       1.00800           0
     41370 TIP3     6308     TIP3     H2       HT       0.417000       1.00800           0
     41371 TIP3     6309     TIP3     OH2      OT      -0.834000       15.9994           0
     41372 TIP3     6309     TIP3     H1       HT       0.417000       1.00800           0
     41373 TIP3     6309     TIP3     H2       HT       0.417000       1.00800           0
     41374 TIP3     6310     TIP3     OH2      OT      -0.834000       15.9994           0
     41375 TIP3     6310     TIP3     H1       HT       0.417000       1.00800           0
     41376 TIP3     6310     TIP3     H2       HT       0.417000       1.00800           0
     41377 TIP3     6311     TIP3     OH2      OT      -0.834000       15.9994           0
     41378 TIP3     6311     TIP3     H1       HT       0.417000       1.00800           0
     41379 TIP3     6311     TIP3     H2       HT       0.417000       1.00800           0
     41380 TIP3     6312     TIP3     OH2      OT      -0.834000       15.9994           0
     41381 TIP3     6312     TIP3     H1       HT       0.417000       1.00800           0
     41382 TIP3     6312     TIP3     H2       HT       0.417000       1.00800           0
     41383 TIP3     6313     TIP3     OH2      OT      -0.834000       15.9994           0
     41384 TIP3     6313     TIP3     H1       HT       0.417000       1.00800           0
     41385 TIP3     6313     TIP3     H2       HT       0.417000       1.00800           0
     41386 TIP3     6314     TIP3     OH2      OT      -0.834000       15.9994           0
     41387 TIP3     6314     TIP3     H1       HT       0.417000       1.00800           0
     41388 TIP3     6314     TIP3     H2       HT       0.417000       1.00800           0
     41389 TIP3     6315     TIP3     OH2      OT      -0.834000       15.9994           0
     41390 TIP3     6315     TIP3     H1       HT       0.417000       1.00800           0
     41391 TIP3     6315     TIP3     H2       HT       0.417000       1.00800           0
     41392 TIP3     6316     TIP3     OH2      OT      -0.834000       15.9994           0
     41393 TIP3     6316     TIP3     H1       HT       0.417000       1.00800           0
     41394 TIP3     6316     TIP3     H2       HT       0.417000       1.00800           0
     41395 TIP3     6317     TIP3     OH2      OT      -0.834000       15.9994           0
     41396 TIP3     6317     TIP3     H1       HT       0.417000       1.00800           0
     41397 TIP3     6317     TIP3     H2       HT       0.417000       1.00800           0
     41398 TIP3     6318     TIP3     OH2      OT      -0.834000       15.9994           0
     41399 TIP3     6318     TIP3     H1       HT       0.417000       1.00800           0
     41400 TIP3     6318     TIP3     H2       HT       0.417000       1.00800           0
     41401 TIP3     6319     TIP3     OH2      OT      -0.834000       15.9994           0
     41402 TIP3     6319     TIP3     H1       HT       0.417000       1.00800           0
     41403 TIP3     6319     TIP3     H2       HT       0.417000       1.00800           0
     41404 TIP3     6320     TIP3     OH2      OT      -0.834000       15.9994           0
     41405 TIP3     6320     TIP3     H1       HT       0.417000       1.00800           0
     41406 TIP3     6320     TIP3     H2       HT       0.417000       1.00800           0
     41407 TIP3     6321     TIP3     OH2      OT      -0.834000       15.9994           0
     41408 TIP3     6321     TIP3     H1       HT       0.417000       1.00800           0
     41409 TIP3     6321     TIP3     H2       HT       0.417000       1.00800           0
     41410 TIP3     6322     TIP3     OH2      OT      -0.834000       15.9994           0
     41411 TIP3     6322     TIP3     H1       HT       0.417000       1.00800           0
     41412 TIP3     6322     TIP3     H2       HT       0.417000       1.00800           0
     41413 TIP3     6323     TIP3     OH2      OT      -0.834000       15.9994           0
     41414 TIP3     6323     TIP3     H1       HT       0.417000       1.00800           0
     41415 TIP3     6323     TIP3     H2       HT       0.417000       1.00800           0
     41416 TIP3     6324     TIP3     OH2      OT      -0.834000       15.9994           0
     41417 TIP3     6324     TIP3     H1       HT       0.417000       1.00800           0
     41418 TIP3     6324     TIP3     H2       HT       0.417000       1.00800           0
     41419 TIP3     6325     TIP3     OH2      OT      -0.834000       15.9994           0
     41420 TIP3     6325     TIP3     H1       HT       0.417000       1.00800           0
     41421 TIP3     6325     TIP3     H2       HT       0.417000       1.00800           0
     41422 TIP3     6326     TIP3     OH2      OT      -0.834000       15.9994           0
     41423 TIP3     6326     TIP3     H1       HT       0.417000       1.00800           0
     41424 TIP3     6326     TIP3     H2       HT       0.417000       1.00800           0
     41425 TIP3     6327     TIP3     OH2      OT      -0.834000       15.9994           0
     41426 TIP3     6327     TIP3     H1       HT       0.417000       1.00800           0
     41427 TIP3     6327     TIP3     H2       HT       0.417000       1.00800           0
     41428 TIP3     6328     TIP3     OH2      OT      -0.834000       15.9994           0
     41429 TIP3     6328     TIP3     H1       HT       0.417000       1.00800           0
     41430 TIP3     6328     TIP3     H2       HT       0.417000       1.00800           0
     41431 TIP3     6329     TIP3     OH2      OT      -0.834000       15.9994           0
     41432 TIP3     6329     TIP3     H1       HT       0.417000       1.00800           0
     41433 TIP3     6329     TIP3     H2       HT       0.417000       1.00800           0
     41434 TIP3     6330     TIP3     OH2      OT      -0.834000       15.9994           0
     41435 TIP3     6330     TIP3     H1       HT       0.417000       1.00800           0
     41436 TIP3     6330     TIP3     H2       HT       0.417000       1.00800           0
     41437 TIP3     6331     TIP3     OH2      OT      -0.834000       15.9994           0
     41438 TIP3     6331     TIP3     H1       HT       0.417000       1.00800           0
     41439 TIP3     6331     TIP3     H2       HT       0.417000       1.00800           0
     41440 TIP3     6332     TIP3     OH2      OT      -0.834000       15.9994           0
     41441 TIP3     6332     TIP3     H1       HT       0.417000       1.00800           0
     41442 TIP3     6332     TIP3     H2       HT       0.417000       1.00800           0
     41443 TIP3     6333     TIP3     OH2      OT      -0.834000       15.9994           0
     41444 TIP3     6333     TIP3     H1       HT       0.417000       1.00800           0
     41445 TIP3     6333     TIP3     H2       HT       0.417000       1.00800           0
     41446 TIP3     6334     TIP3     OH2      OT      -0.834000       15.9994           0
     41447 TIP3     6334     TIP3     H1       HT       0.417000       1.00800           0
     41448 TIP3     6334     TIP3     H2       HT       0.417000       1.00800           0
     41449 TIP3     6335     TIP3     OH2      OT      -0.834000       15.9994           0
     41450 TIP3     6335     TIP3     H1       HT       0.417000       1.00800           0
     41451 TIP3     6335     TIP3     H2       HT       0.417000       1.00800           0
     41452 TIP3     6336     TIP3     OH2      OT      -0.834000       15.9994           0
     41453 TIP3     6336     TIP3     H1       HT       0.417000       1.00800           0
     41454 TIP3     6336     TIP3     H2       HT       0.417000       1.00800           0
     41455 TIP3     6337     TIP3     OH2      OT      -0.834000       15.9994           0
     41456 TIP3     6337     TIP3     H1       HT       0.417000       1.00800           0
     41457 TIP3     6337     TIP3     H2       HT       0.417000       1.00800           0
     41458 TIP3     6338     TIP3     OH2      OT      -0.834000       15.9994           0
     41459 TIP3     6338     TIP3     H1       HT       0.417000       1.00800           0
     41460 TIP3     6338     TIP3     H2       HT       0.417000       1.00800           0
     41461 TIP3     6339     TIP3     OH2      OT      -0.834000       15.9994           0
     41462 TIP3     6339     TIP3     H1       HT       0.417000       1.00800           0
     41463 TIP3     6339     TIP3     H2       HT       0.417000       1.00800           0
     41464 TIP3     6340     TIP3     OH2      OT      -0.834000       15.9994           0
     41465 TIP3     6340     TIP3     H1       HT       0.417000       1.00800           0
     41466 TIP3     6340     TIP3     H2       HT       0.417000       1.00800           0
     41467 TIP3     6341     TIP3     OH2      OT      -0.834000       15.9994           0
     41468 TIP3     6341     TIP3     H1       HT       0.417000       1.00800           0
     41469 TIP3     6341     TIP3     H2       HT       0.417000       1.00800           0
     41470 TIP3     6342     TIP3     OH2      OT      -0.834000       15.9994           0
     41471 TIP3     6342     TIP3     H1       HT       0.417000       1.00800           0
     41472 TIP3     6342     TIP3     H2       HT       0.417000       1.00800           0
     41473 TIP3     6343     TIP3     OH2      OT      -0.834000       15.9994           0
     41474 TIP3     6343     TIP3     H1       HT       0.417000       1.00800           0
     41475 TIP3     6343     TIP3     H2       HT       0.417000       1.00800           0
     41476 TIP3     6344     TIP3     OH2      OT      -0.834000       15.9994           0
     41477 TIP3     6344     TIP3     H1       HT       0.417000       1.00800           0
     41478 TIP3     6344     TIP3     H2       HT       0.417000       1.00800           0
     41479 TIP3     6345     TIP3     OH2      OT      -0.834000       15.9994           0
     41480 TIP3     6345     TIP3     H1       HT       0.417000       1.00800           0
     41481 TIP3     6345     TIP3     H2       HT       0.417000       1.00800           0
     41482 TIP3     6346     TIP3     OH2      OT      -0.834000       15.9994           0
     41483 TIP3     6346     TIP3     H1       HT       0.417000       1.00800           0
     41484 TIP3     6346     TIP3     H2       HT       0.417000       1.00800           0
     41485 TIP3     6347     TIP3     OH2      OT      -0.834000       15.9994           0
     41486 TIP3     6347     TIP3     H1       HT       0.417000       1.00800           0
     41487 TIP3     6347     TIP3     H2       HT       0.417000       1.00800           0
     41488 TIP3     6348     TIP3     OH2      OT      -0.834000       15.9994           0
     41489 TIP3     6348     TIP3     H1       HT       0.417000       1.00800           0
     41490 TIP3     6348     TIP3     H2       HT       0.417000       1.00800           0
     41491 TIP3     6349     TIP3     OH2      OT      -0.834000       15.9994           0
     41492 TIP3     6349     TIP3     H1       HT       0.417000       1.00800           0
     41493 TIP3     6349     TIP3     H2       HT       0.417000       1.00800           0
     41494 TIP3     6350     TIP3     OH2      OT      -0.834000       15.9994           0
     41495 TIP3     6350     TIP3     H1       HT       0.417000       1.00800           0
     41496 TIP3     6350     TIP3     H2       HT       0.417000       1.00800           0
     41497 TIP3     6351     TIP3     OH2      OT      -0.834000       15.9994           0
     41498 TIP3     6351     TIP3     H1       HT       0.417000       1.00800           0
     41499 TIP3     6351     TIP3     H2       HT       0.417000       1.00800           0
     41500 TIP3     6352     TIP3     OH2      OT      -0.834000       15.9994           0
     41501 TIP3     6352     TIP3     H1       HT       0.417000       1.00800           0
     41502 TIP3     6352     TIP3     H2       HT       0.417000       1.00800           0
     41503 TIP3     6353     TIP3     OH2      OT      -0.834000       15.9994           0
     41504 TIP3     6353     TIP3     H1       HT       0.417000       1.00800           0
     41505 TIP3     6353     TIP3     H2       HT       0.417000       1.00800           0
     41506 TIP3     6354     TIP3     OH2      OT      -0.834000       15.9994           0
     41507 TIP3     6354     TIP3     H1       HT       0.417000       1.00800           0
     41508 TIP3     6354     TIP3     H2       HT       0.417000       1.00800           0
     41509 TIP3     6355     TIP3     OH2      OT      -0.834000       15.9994           0
     41510 TIP3     6355     TIP3     H1       HT       0.417000       1.00800           0
     41511 TIP3     6355     TIP3     H2       HT       0.417000       1.00800           0
     41512 TIP3     6356     TIP3     OH2      OT      -0.834000       15.9994           0
     41513 TIP3     6356     TIP3     H1       HT       0.417000       1.00800           0
     41514 TIP3     6356     TIP3     H2       HT       0.417000       1.00800           0
     41515 TIP3     6357     TIP3     OH2      OT      -0.834000       15.9994           0
     41516 TIP3     6357     TIP3     H1       HT       0.417000       1.00800           0
     41517 TIP3     6357     TIP3     H2       HT       0.417000       1.00800           0
     41518 TIP3     6358     TIP3     OH2      OT      -0.834000       15.9994           0
     41519 TIP3     6358     TIP3     H1       HT       0.417000       1.00800           0
     41520 TIP3     6358     TIP3     H2       HT       0.417000       1.00800           0
     41521 TIP3     6359     TIP3     OH2      OT      -0.834000       15.9994           0
     41522 TIP3     6359     TIP3     H1       HT       0.417000       1.00800           0
     41523 TIP3     6359     TIP3     H2       HT       0.417000       1.00800           0
     41524 TIP3     6360     TIP3     OH2      OT      -0.834000       15.9994           0
     41525 TIP3     6360     TIP3     H1       HT       0.417000       1.00800           0
     41526 TIP3     6360     TIP3     H2       HT       0.417000       1.00800           0
     41527 TIP3     6361     TIP3     OH2      OT      -0.834000       15.9994           0
     41528 TIP3     6361     TIP3     H1       HT       0.417000       1.00800           0
     41529 TIP3     6361     TIP3     H2       HT       0.417000       1.00800           0
     41530 TIP3     6362     TIP3     OH2      OT      -0.834000       15.9994           0
     41531 TIP3     6362     TIP3     H1       HT       0.417000       1.00800           0
     41532 TIP3     6362     TIP3     H2       HT       0.417000       1.00800           0
     41533 TIP3     6363     TIP3     OH2      OT      -0.834000       15.9994           0
     41534 TIP3     6363     TIP3     H1       HT       0.417000       1.00800           0
     41535 TIP3     6363     TIP3     H2       HT       0.417000       1.00800           0
     41536 TIP3     6364     TIP3     OH2      OT      -0.834000       15.9994           0
     41537 TIP3     6364     TIP3     H1       HT       0.417000       1.00800           0
     41538 TIP3     6364     TIP3     H2       HT       0.417000       1.00800           0
     41539 TIP3     6365     TIP3     OH2      OT      -0.834000       15.9994           0
     41540 TIP3     6365     TIP3     H1       HT       0.417000       1.00800           0
     41541 TIP3     6365     TIP3     H2       HT       0.417000       1.00800           0
     41542 TIP3     6366     TIP3     OH2      OT      -0.834000       15.9994           0
     41543 TIP3     6366     TIP3     H1       HT       0.417000       1.00800           0
     41544 TIP3     6366     TIP3     H2       HT       0.417000       1.00800           0
     41545 TIP3     6367     TIP3     OH2      OT      -0.834000       15.9994           0
     41546 TIP3     6367     TIP3     H1       HT       0.417000       1.00800           0
     41547 TIP3     6367     TIP3     H2       HT       0.417000       1.00800           0
     41548 TIP3     6368     TIP3     OH2      OT      -0.834000       15.9994           0
     41549 TIP3     6368     TIP3     H1       HT       0.417000       1.00800           0
     41550 TIP3     6368     TIP3     H2       HT       0.417000       1.00800           0
     41551 TIP3     6369     TIP3     OH2      OT      -0.834000       15.9994           0
     41552 TIP3     6369     TIP3     H1       HT       0.417000       1.00800           0
     41553 TIP3     6369     TIP3     H2       HT       0.417000       1.00800           0
     41554 TIP3     6370     TIP3     OH2      OT      -0.834000       15.9994           0
     41555 TIP3     6370     TIP3     H1       HT       0.417000       1.00800           0
     41556 TIP3     6370     TIP3     H2       HT       0.417000       1.00800           0
     41557 TIP3     6371     TIP3     OH2      OT      -0.834000       15.9994           0
     41558 TIP3     6371     TIP3     H1       HT       0.417000       1.00800           0
     41559 TIP3     6371     TIP3     H2       HT       0.417000       1.00800           0
     41560 TIP3     6372     TIP3     OH2      OT      -0.834000       15.9994           0
     41561 TIP3     6372     TIP3     H1       HT       0.417000       1.00800           0
     41562 TIP3     6372     TIP3     H2       HT       0.417000       1.00800           0
     41563 TIP3     6373     TIP3     OH2      OT      -0.834000       15.9994           0
     41564 TIP3     6373     TIP3     H1       HT       0.417000       1.00800           0
     41565 TIP3     6373     TIP3     H2       HT       0.417000       1.00800           0
     41566 TIP3     6374     TIP3     OH2      OT      -0.834000       15.9994           0
     41567 TIP3     6374     TIP3     H1       HT       0.417000       1.00800           0
     41568 TIP3     6374     TIP3     H2       HT       0.417000       1.00800           0
     41569 TIP3     6375     TIP3     OH2      OT      -0.834000       15.9994           0
     41570 TIP3     6375     TIP3     H1       HT       0.417000       1.00800           0
     41571 TIP3     6375     TIP3     H2       HT       0.417000       1.00800           0
     41572 TIP3     6376     TIP3     OH2      OT      -0.834000       15.9994           0
     41573 TIP3     6376     TIP3     H1       HT       0.417000       1.00800           0
     41574 TIP3     6376     TIP3     H2       HT       0.417000       1.00800           0
     41575 TIP3     6377     TIP3     OH2      OT      -0.834000       15.9994           0
     41576 TIP3     6377     TIP3     H1       HT       0.417000       1.00800           0
     41577 TIP3     6377     TIP3     H2       HT       0.417000       1.00800           0
     41578 TIP3     6378     TIP3     OH2      OT      -0.834000       15.9994           0
     41579 TIP3     6378     TIP3     H1       HT       0.417000       1.00800           0
     41580 TIP3     6378     TIP3     H2       HT       0.417000       1.00800           0
     41581 TIP3     6379     TIP3     OH2      OT      -0.834000       15.9994           0
     41582 TIP3     6379     TIP3     H1       HT       0.417000       1.00800           0
     41583 TIP3     6379     TIP3     H2       HT       0.417000       1.00800           0
     41584 TIP3     6380     TIP3     OH2      OT      -0.834000       15.9994           0
     41585 TIP3     6380     TIP3     H1       HT       0.417000       1.00800           0
     41586 TIP3     6380     TIP3     H2       HT       0.417000       1.00800           0
     41587 TIP3     6381     TIP3     OH2      OT      -0.834000       15.9994           0
     41588 TIP3     6381     TIP3     H1       HT       0.417000       1.00800           0
     41589 TIP3     6381     TIP3     H2       HT       0.417000       1.00800           0
     41590 TIP3     6382     TIP3     OH2      OT      -0.834000       15.9994           0
     41591 TIP3     6382     TIP3     H1       HT       0.417000       1.00800           0
     41592 TIP3     6382     TIP3     H2       HT       0.417000       1.00800           0
     41593 TIP3     6383     TIP3     OH2      OT      -0.834000       15.9994           0
     41594 TIP3     6383     TIP3     H1       HT       0.417000       1.00800           0
     41595 TIP3     6383     TIP3     H2       HT       0.417000       1.00800           0
     41596 TIP3     6384     TIP3     OH2      OT      -0.834000       15.9994           0
     41597 TIP3     6384     TIP3     H1       HT       0.417000       1.00800           0
     41598 TIP3     6384     TIP3     H2       HT       0.417000       1.00800           0
     41599 TIP3     6385     TIP3     OH2      OT      -0.834000       15.9994           0
     41600 TIP3     6385     TIP3     H1       HT       0.417000       1.00800           0
     41601 TIP3     6385     TIP3     H2       HT       0.417000       1.00800           0
     41602 TIP3     6386     TIP3     OH2      OT      -0.834000       15.9994           0
     41603 TIP3     6386     TIP3     H1       HT       0.417000       1.00800           0
     41604 TIP3     6386     TIP3     H2       HT       0.417000       1.00800           0
     41605 TIP3     6387     TIP3     OH2      OT      -0.834000       15.9994           0
     41606 TIP3     6387     TIP3     H1       HT       0.417000       1.00800           0
     41607 TIP3     6387     TIP3     H2       HT       0.417000       1.00800           0
     41608 TIP3     6388     TIP3     OH2      OT      -0.834000       15.9994           0
     41609 TIP3     6388     TIP3     H1       HT       0.417000       1.00800           0
     41610 TIP3     6388     TIP3     H2       HT       0.417000       1.00800           0
     41611 TIP3     6389     TIP3     OH2      OT      -0.834000       15.9994           0
     41612 TIP3     6389     TIP3     H1       HT       0.417000       1.00800           0
     41613 TIP3     6389     TIP3     H2       HT       0.417000       1.00800           0
     41614 TIP3     6390     TIP3     OH2      OT      -0.834000       15.9994           0
     41615 TIP3     6390     TIP3     H1       HT       0.417000       1.00800           0
     41616 TIP3     6390     TIP3     H2       HT       0.417000       1.00800           0
     41617 TIP3     6391     TIP3     OH2      OT      -0.834000       15.9994           0
     41618 TIP3     6391     TIP3     H1       HT       0.417000       1.00800           0
     41619 TIP3     6391     TIP3     H2       HT       0.417000       1.00800           0
     41620 TIP3     6392     TIP3     OH2      OT      -0.834000       15.9994           0
     41621 TIP3     6392     TIP3     H1       HT       0.417000       1.00800           0
     41622 TIP3     6392     TIP3     H2       HT       0.417000       1.00800           0
     41623 TIP3     6393     TIP3     OH2      OT      -0.834000       15.9994           0
     41624 TIP3     6393     TIP3     H1       HT       0.417000       1.00800           0
     41625 TIP3     6393     TIP3     H2       HT       0.417000       1.00800           0
     41626 TIP3     6394     TIP3     OH2      OT      -0.834000       15.9994           0
     41627 TIP3     6394     TIP3     H1       HT       0.417000       1.00800           0
     41628 TIP3     6394     TIP3     H2       HT       0.417000       1.00800           0
     41629 TIP3     6395     TIP3     OH2      OT      -0.834000       15.9994           0
     41630 TIP3     6395     TIP3     H1       HT       0.417000       1.00800           0
     41631 TIP3     6395     TIP3     H2       HT       0.417000       1.00800           0
     41632 TIP3     6396     TIP3     OH2      OT      -0.834000       15.9994           0
     41633 TIP3     6396     TIP3     H1       HT       0.417000       1.00800           0
     41634 TIP3     6396     TIP3     H2       HT       0.417000       1.00800           0
     41635 TIP3     6397     TIP3     OH2      OT      -0.834000       15.9994           0
     41636 TIP3     6397     TIP3     H1       HT       0.417000       1.00800           0
     41637 TIP3     6397     TIP3     H2       HT       0.417000       1.00800           0
     41638 TIP3     6398     TIP3     OH2      OT      -0.834000       15.9994           0
     41639 TIP3     6398     TIP3     H1       HT       0.417000       1.00800           0
     41640 TIP3     6398     TIP3     H2       HT       0.417000       1.00800           0
     41641 TIP3     6399     TIP3     OH2      OT      -0.834000       15.9994           0
     41642 TIP3     6399     TIP3     H1       HT       0.417000       1.00800           0
     41643 TIP3     6399     TIP3     H2       HT       0.417000       1.00800           0
     41644 TIP3     6400     TIP3     OH2      OT      -0.834000       15.9994           0
     41645 TIP3     6400     TIP3     H1       HT       0.417000       1.00800           0
     41646 TIP3     6400     TIP3     H2       HT       0.417000       1.00800           0
     41647 TIP3     6401     TIP3     OH2      OT      -0.834000       15.9994           0
     41648 TIP3     6401     TIP3     H1       HT       0.417000       1.00800           0
     41649 TIP3     6401     TIP3     H2       HT       0.417000       1.00800           0
     41650 TIP3     6402     TIP3     OH2      OT      -0.834000       15.9994           0
     41651 TIP3     6402     TIP3     H1       HT       0.417000       1.00800           0
     41652 TIP3     6402     TIP3     H2       HT       0.417000       1.00800           0
     41653 TIP3     6403     TIP3     OH2      OT      -0.834000       15.9994           0
     41654 TIP3     6403     TIP3     H1       HT       0.417000       1.00800           0
     41655 TIP3     6403     TIP3     H2       HT       0.417000       1.00800           0
     41656 TIP3     6404     TIP3     OH2      OT      -0.834000       15.9994           0
     41657 TIP3     6404     TIP3     H1       HT       0.417000       1.00800           0
     41658 TIP3     6404     TIP3     H2       HT       0.417000       1.00800           0
     41659 TIP3     6405     TIP3     OH2      OT      -0.834000       15.9994           0
     41660 TIP3     6405     TIP3     H1       HT       0.417000       1.00800           0
     41661 TIP3     6405     TIP3     H2       HT       0.417000       1.00800           0
     41662 TIP3     6406     TIP3     OH2      OT      -0.834000       15.9994           0
     41663 TIP3     6406     TIP3     H1       HT       0.417000       1.00800           0
     41664 TIP3     6406     TIP3     H2       HT       0.417000       1.00800           0
     41665 TIP3     6407     TIP3     OH2      OT      -0.834000       15.9994           0
     41666 TIP3     6407     TIP3     H1       HT       0.417000       1.00800           0
     41667 TIP3     6407     TIP3     H2       HT       0.417000       1.00800           0
     41668 TIP3     6408     TIP3     OH2      OT      -0.834000       15.9994           0
     41669 TIP3     6408     TIP3     H1       HT       0.417000       1.00800           0
     41670 TIP3     6408     TIP3     H2       HT       0.417000       1.00800           0
     41671 TIP3     6409     TIP3     OH2      OT      -0.834000       15.9994           0
     41672 TIP3     6409     TIP3     H1       HT       0.417000       1.00800           0
     41673 TIP3     6409     TIP3     H2       HT       0.417000       1.00800           0
     41674 TIP3     6410     TIP3     OH2      OT      -0.834000       15.9994           0
     41675 TIP3     6410     TIP3     H1       HT       0.417000       1.00800           0
     41676 TIP3     6410     TIP3     H2       HT       0.417000       1.00800           0
     41677 TIP3     6411     TIP3     OH2      OT      -0.834000       15.9994           0
     41678 TIP3     6411     TIP3     H1       HT       0.417000       1.00800           0
     41679 TIP3     6411     TIP3     H2       HT       0.417000       1.00800           0
     41680 TIP3     6412     TIP3     OH2      OT      -0.834000       15.9994           0
     41681 TIP3     6412     TIP3     H1       HT       0.417000       1.00800           0
     41682 TIP3     6412     TIP3     H2       HT       0.417000       1.00800           0
     41683 TIP3     6413     TIP3     OH2      OT      -0.834000       15.9994           0
     41684 TIP3     6413     TIP3     H1       HT       0.417000       1.00800           0
     41685 TIP3     6413     TIP3     H2       HT       0.417000       1.00800           0
     41686 TIP3     6414     TIP3     OH2      OT      -0.834000       15.9994           0
     41687 TIP3     6414     TIP3     H1       HT       0.417000       1.00800           0
     41688 TIP3     6414     TIP3     H2       HT       0.417000       1.00800           0
     41689 TIP3     6415     TIP3     OH2      OT      -0.834000       15.9994           0
     41690 TIP3     6415     TIP3     H1       HT       0.417000       1.00800           0
     41691 TIP3     6415     TIP3     H2       HT       0.417000       1.00800           0
     41692 TIP3     6416     TIP3     OH2      OT      -0.834000       15.9994           0
     41693 TIP3     6416     TIP3     H1       HT       0.417000       1.00800           0
     41694 TIP3     6416     TIP3     H2       HT       0.417000       1.00800           0
     41695 TIP3     6417     TIP3     OH2      OT      -0.834000       15.9994           0
     41696 TIP3     6417     TIP3     H1       HT       0.417000       1.00800           0
     41697 TIP3     6417     TIP3     H2       HT       0.417000       1.00800           0
     41698 TIP3     6418     TIP3     OH2      OT      -0.834000       15.9994           0
     41699 TIP3     6418     TIP3     H1       HT       0.417000       1.00800           0
     41700 TIP3     6418     TIP3     H2       HT       0.417000       1.00800           0
     41701 TIP3     6419     TIP3     OH2      OT      -0.834000       15.9994           0
     41702 TIP3     6419     TIP3     H1       HT       0.417000       1.00800           0
     41703 TIP3     6419     TIP3     H2       HT       0.417000       1.00800           0
     41704 TIP3     6420     TIP3     OH2      OT      -0.834000       15.9994           0
     41705 TIP3     6420     TIP3     H1       HT       0.417000       1.00800           0
     41706 TIP3     6420     TIP3     H2       HT       0.417000       1.00800           0
     41707 TIP3     6421     TIP3     OH2      OT      -0.834000       15.9994           0
     41708 TIP3     6421     TIP3     H1       HT       0.417000       1.00800           0
     41709 TIP3     6421     TIP3     H2       HT       0.417000       1.00800           0
     41710 TIP3     6422     TIP3     OH2      OT      -0.834000       15.9994           0
     41711 TIP3     6422     TIP3     H1       HT       0.417000       1.00800           0
     41712 TIP3     6422     TIP3     H2       HT       0.417000       1.00800           0
     41713 TIP3     6423     TIP3     OH2      OT      -0.834000       15.9994           0
     41714 TIP3     6423     TIP3     H1       HT       0.417000       1.00800           0
     41715 TIP3     6423     TIP3     H2       HT       0.417000       1.00800           0
     41716 TIP3     6424     TIP3     OH2      OT      -0.834000       15.9994           0
     41717 TIP3     6424     TIP3     H1       HT       0.417000       1.00800           0
     41718 TIP3     6424     TIP3     H2       HT       0.417000       1.00800           0
     41719 TIP3     6425     TIP3     OH2      OT      -0.834000       15.9994           0
     41720 TIP3     6425     TIP3     H1       HT       0.417000       1.00800           0
     41721 TIP3     6425     TIP3     H2       HT       0.417000       1.00800           0
     41722 TIP3     6426     TIP3     OH2      OT      -0.834000       15.9994           0
     41723 TIP3     6426     TIP3     H1       HT       0.417000       1.00800           0
     41724 TIP3     6426     TIP3     H2       HT       0.417000       1.00800           0
     41725 TIP3     6427     TIP3     OH2      OT      -0.834000       15.9994           0
     41726 TIP3     6427     TIP3     H1       HT       0.417000       1.00800           0
     41727 TIP3     6427     TIP3     H2       HT       0.417000       1.00800           0
     41728 TIP3     6428     TIP3     OH2      OT      -0.834000       15.9994           0
     41729 TIP3     6428     TIP3     H1       HT       0.417000       1.00800           0
     41730 TIP3     6428     TIP3     H2       HT       0.417000       1.00800           0
     41731 TIP3     6429     TIP3     OH2      OT      -0.834000       15.9994           0
     41732 TIP3     6429     TIP3     H1       HT       0.417000       1.00800           0
     41733 TIP3     6429     TIP3     H2       HT       0.417000       1.00800           0
     41734 TIP3     6430     TIP3     OH2      OT      -0.834000       15.9994           0
     41735 TIP3     6430     TIP3     H1       HT       0.417000       1.00800           0
     41736 TIP3     6430     TIP3     H2       HT       0.417000       1.00800           0
     41737 TIP3     6431     TIP3     OH2      OT      -0.834000       15.9994           0
     41738 TIP3     6431     TIP3     H1       HT       0.417000       1.00800           0
     41739 TIP3     6431     TIP3     H2       HT       0.417000       1.00800           0
     41740 TIP3     6432     TIP3     OH2      OT      -0.834000       15.9994           0
     41741 TIP3     6432     TIP3     H1       HT       0.417000       1.00800           0
     41742 TIP3     6432     TIP3     H2       HT       0.417000       1.00800           0
     41743 TIP3     6433     TIP3     OH2      OT      -0.834000       15.9994           0
     41744 TIP3     6433     TIP3     H1       HT       0.417000       1.00800           0
     41745 TIP3     6433     TIP3     H2       HT       0.417000       1.00800           0
     41746 TIP3     6434     TIP3     OH2      OT      -0.834000       15.9994           0
     41747 TIP3     6434     TIP3     H1       HT       0.417000       1.00800           0
     41748 TIP3     6434     TIP3     H2       HT       0.417000       1.00800           0
     41749 TIP3     6435     TIP3     OH2      OT      -0.834000       15.9994           0
     41750 TIP3     6435     TIP3     H1       HT       0.417000       1.00800           0
     41751 TIP3     6435     TIP3     H2       HT       0.417000       1.00800           0
     41752 TIP3     6436     TIP3     OH2      OT      -0.834000       15.9994           0
     41753 TIP3     6436     TIP3     H1       HT       0.417000       1.00800           0
     41754 TIP3     6436     TIP3     H2       HT       0.417000       1.00800           0
     41755 TIP3     6437     TIP3     OH2      OT      -0.834000       15.9994           0
     41756 TIP3     6437     TIP3     H1       HT       0.417000       1.00800           0
     41757 TIP3     6437     TIP3     H2       HT       0.417000       1.00800           0
     41758 TIP3     6438     TIP3     OH2      OT      -0.834000       15.9994           0
     41759 TIP3     6438     TIP3     H1       HT       0.417000       1.00800           0
     41760 TIP3     6438     TIP3     H2       HT       0.417000       1.00800           0
     41761 TIP3     6439     TIP3     OH2      OT      -0.834000       15.9994           0
     41762 TIP3     6439     TIP3     H1       HT       0.417000       1.00800           0
     41763 TIP3     6439     TIP3     H2       HT       0.417000       1.00800           0
     41764 TIP3     6440     TIP3     OH2      OT      -0.834000       15.9994           0
     41765 TIP3     6440     TIP3     H1       HT       0.417000       1.00800           0
     41766 TIP3     6440     TIP3     H2       HT       0.417000       1.00800           0
     41767 TIP3     6441     TIP3     OH2      OT      -0.834000       15.9994           0
     41768 TIP3     6441     TIP3     H1       HT       0.417000       1.00800           0
     41769 TIP3     6441     TIP3     H2       HT       0.417000       1.00800           0
     41770 TIP3     6442     TIP3     OH2      OT      -0.834000       15.9994           0
     41771 TIP3     6442     TIP3     H1       HT       0.417000       1.00800           0
     41772 TIP3     6442     TIP3     H2       HT       0.417000       1.00800           0
     41773 TIP3     6443     TIP3     OH2      OT      -0.834000       15.9994           0
     41774 TIP3     6443     TIP3     H1       HT       0.417000       1.00800           0
     41775 TIP3     6443     TIP3     H2       HT       0.417000       1.00800           0
     41776 TIP3     6444     TIP3     OH2      OT      -0.834000       15.9994           0
     41777 TIP3     6444     TIP3     H1       HT       0.417000       1.00800           0
     41778 TIP3     6444     TIP3     H2       HT       0.417000       1.00800           0
     41779 TIP3     6445     TIP3     OH2      OT      -0.834000       15.9994           0
     41780 TIP3     6445     TIP3     H1       HT       0.417000       1.00800           0
     41781 TIP3     6445     TIP3     H2       HT       0.417000       1.00800           0
     41782 TIP3     6446     TIP3     OH2      OT      -0.834000       15.9994           0
     41783 TIP3     6446     TIP3     H1       HT       0.417000       1.00800           0
     41784 TIP3     6446     TIP3     H2       HT       0.417000       1.00800           0
     41785 TIP3     6447     TIP3     OH2      OT      -0.834000       15.9994           0
     41786 TIP3     6447     TIP3     H1       HT       0.417000       1.00800           0
     41787 TIP3     6447     TIP3     H2       HT       0.417000       1.00800           0
     41788 TIP3     6448     TIP3     OH2      OT      -0.834000       15.9994           0
     41789 TIP3     6448     TIP3     H1       HT       0.417000       1.00800           0
     41790 TIP3     6448     TIP3     H2       HT       0.417000       1.00800           0
     41791 TIP3     6449     TIP3     OH2      OT      -0.834000       15.9994           0
     41792 TIP3     6449     TIP3     H1       HT       0.417000       1.00800           0
     41793 TIP3     6449     TIP3     H2       HT       0.417000       1.00800           0
     41794 TIP3     6450     TIP3     OH2      OT      -0.834000       15.9994           0
     41795 TIP3     6450     TIP3     H1       HT       0.417000       1.00800           0
     41796 TIP3     6450     TIP3     H2       HT       0.417000       1.00800           0
     41797 TIP3     6451     TIP3     OH2      OT      -0.834000       15.9994           0
     41798 TIP3     6451     TIP3     H1       HT       0.417000       1.00800           0
     41799 TIP3     6451     TIP3     H2       HT       0.417000       1.00800           0
     41800 TIP3     6452     TIP3     OH2      OT      -0.834000       15.9994           0
     41801 TIP3     6452     TIP3     H1       HT       0.417000       1.00800           0
     41802 TIP3     6452     TIP3     H2       HT       0.417000       1.00800           0
     41803 TIP3     6453     TIP3     OH2      OT      -0.834000       15.9994           0
     41804 TIP3     6453     TIP3     H1       HT       0.417000       1.00800           0
     41805 TIP3     6453     TIP3     H2       HT       0.417000       1.00800           0
     41806 TIP3     6454     TIP3     OH2      OT      -0.834000       15.9994           0
     41807 TIP3     6454     TIP3     H1       HT       0.417000       1.00800           0
     41808 TIP3     6454     TIP3     H2       HT       0.417000       1.00800           0
     41809 TIP3     6455     TIP3     OH2      OT      -0.834000       15.9994           0
     41810 TIP3     6455     TIP3     H1       HT       0.417000       1.00800           0
     41811 TIP3     6455     TIP3     H2       HT       0.417000       1.00800           0
     41812 TIP3     6456     TIP3     OH2      OT      -0.834000       15.9994           0
     41813 TIP3     6456     TIP3     H1       HT       0.417000       1.00800           0
     41814 TIP3     6456     TIP3     H2       HT       0.417000       1.00800           0
     41815 TIP3     6457     TIP3     OH2      OT      -0.834000       15.9994           0
     41816 TIP3     6457     TIP3     H1       HT       0.417000       1.00800           0
     41817 TIP3     6457     TIP3     H2       HT       0.417000       1.00800           0
     41818 TIP3     6458     TIP3     OH2      OT      -0.834000       15.9994           0
     41819 TIP3     6458     TIP3     H1       HT       0.417000       1.00800           0
     41820 TIP3     6458     TIP3     H2       HT       0.417000       1.00800           0
     41821 TIP3     6459     TIP3     OH2      OT      -0.834000       15.9994           0
     41822 TIP3     6459     TIP3     H1       HT       0.417000       1.00800           0
     41823 TIP3     6459     TIP3     H2       HT       0.417000       1.00800           0
     41824 TIP3     6460     TIP3     OH2      OT      -0.834000       15.9994           0
     41825 TIP3     6460     TIP3     H1       HT       0.417000       1.00800           0
     41826 TIP3     6460     TIP3     H2       HT       0.417000       1.00800           0
     41827 TIP3     6461     TIP3     OH2      OT      -0.834000       15.9994           0
     41828 TIP3     6461     TIP3     H1       HT       0.417000       1.00800           0
     41829 TIP3     6461     TIP3     H2       HT       0.417000       1.00800           0
     41830 TIP3     6462     TIP3     OH2      OT      -0.834000       15.9994           0
     41831 TIP3     6462     TIP3     H1       HT       0.417000       1.00800           0
     41832 TIP3     6462     TIP3     H2       HT       0.417000       1.00800           0
     41833 TIP3     6463     TIP3     OH2      OT      -0.834000       15.9994           0
     41834 TIP3     6463     TIP3     H1       HT       0.417000       1.00800           0
     41835 TIP3     6463     TIP3     H2       HT       0.417000       1.00800           0
     41836 TIP3     6464     TIP3     OH2      OT      -0.834000       15.9994           0
     41837 TIP3     6464     TIP3     H1       HT       0.417000       1.00800           0
     41838 TIP3     6464     TIP3     H2       HT       0.417000       1.00800           0
     41839 TIP3     6465     TIP3     OH2      OT      -0.834000       15.9994           0
     41840 TIP3     6465     TIP3     H1       HT       0.417000       1.00800           0
     41841 TIP3     6465     TIP3     H2       HT       0.417000       1.00800           0
     41842 TIP3     6466     TIP3     OH2      OT      -0.834000       15.9994           0
     41843 TIP3     6466     TIP3     H1       HT       0.417000       1.00800           0
     41844 TIP3     6466     TIP3     H2       HT       0.417000       1.00800           0
     41845 TIP3     6467     TIP3     OH2      OT      -0.834000       15.9994           0
     41846 TIP3     6467     TIP3     H1       HT       0.417000       1.00800           0
     41847 TIP3     6467     TIP3     H2       HT       0.417000       1.00800           0
     41848 TIP3     6468     TIP3     OH2      OT      -0.834000       15.9994           0
     41849 TIP3     6468     TIP3     H1       HT       0.417000       1.00800           0
     41850 TIP3     6468     TIP3     H2       HT       0.417000       1.00800           0
     41851 TIP3     6469     TIP3     OH2      OT      -0.834000       15.9994           0
     41852 TIP3     6469     TIP3     H1       HT       0.417000       1.00800           0
     41853 TIP3     6469     TIP3     H2       HT       0.417000       1.00800           0
     41854 TIP3     6470     TIP3     OH2      OT      -0.834000       15.9994           0
     41855 TIP3     6470     TIP3     H1       HT       0.417000       1.00800           0
     41856 TIP3     6470     TIP3     H2       HT       0.417000       1.00800           0
     41857 TIP3     6471     TIP3     OH2      OT      -0.834000       15.9994           0
     41858 TIP3     6471     TIP3     H1       HT       0.417000       1.00800           0
     41859 TIP3     6471     TIP3     H2       HT       0.417000       1.00800           0
     41860 TIP3     6472     TIP3     OH2      OT      -0.834000       15.9994           0
     41861 TIP3     6472     TIP3     H1       HT       0.417000       1.00800           0
     41862 TIP3     6472     TIP3     H2       HT       0.417000       1.00800           0
     41863 TIP3     6473     TIP3     OH2      OT      -0.834000       15.9994           0
     41864 TIP3     6473     TIP3     H1       HT       0.417000       1.00800           0
     41865 TIP3     6473     TIP3     H2       HT       0.417000       1.00800           0
     41866 TIP3     6474     TIP3     OH2      OT      -0.834000       15.9994           0
     41867 TIP3     6474     TIP3     H1       HT       0.417000       1.00800           0
     41868 TIP3     6474     TIP3     H2       HT       0.417000       1.00800           0
     41869 TIP3     6475     TIP3     OH2      OT      -0.834000       15.9994           0
     41870 TIP3     6475     TIP3     H1       HT       0.417000       1.00800           0
     41871 TIP3     6475     TIP3     H2       HT       0.417000       1.00800           0
     41872 TIP3     6476     TIP3     OH2      OT      -0.834000       15.9994           0
     41873 TIP3     6476     TIP3     H1       HT       0.417000       1.00800           0
     41874 TIP3     6476     TIP3     H2       HT       0.417000       1.00800           0
     41875 TIP3     6477     TIP3     OH2      OT      -0.834000       15.9994           0
     41876 TIP3     6477     TIP3     H1       HT       0.417000       1.00800           0
     41877 TIP3     6477     TIP3     H2       HT       0.417000       1.00800           0
     41878 TIP3     6478     TIP3     OH2      OT      -0.834000       15.9994           0
     41879 TIP3     6478     TIP3     H1       HT       0.417000       1.00800           0
     41880 TIP3     6478     TIP3     H2       HT       0.417000       1.00800           0
     41881 TIP3     6479     TIP3     OH2      OT      -0.834000       15.9994           0
     41882 TIP3     6479     TIP3     H1       HT       0.417000       1.00800           0
     41883 TIP3     6479     TIP3     H2       HT       0.417000       1.00800           0
     41884 TIP3     6480     TIP3     OH2      OT      -0.834000       15.9994           0
     41885 TIP3     6480     TIP3     H1       HT       0.417000       1.00800           0
     41886 TIP3     6480     TIP3     H2       HT       0.417000       1.00800           0
     41887 TIP3     6481     TIP3     OH2      OT      -0.834000       15.9994           0
     41888 TIP3     6481     TIP3     H1       HT       0.417000       1.00800           0
     41889 TIP3     6481     TIP3     H2       HT       0.417000       1.00800           0
     41890 TIP3     6482     TIP3     OH2      OT      -0.834000       15.9994           0
     41891 TIP3     6482     TIP3     H1       HT       0.417000       1.00800           0
     41892 TIP3     6482     TIP3     H2       HT       0.417000       1.00800           0
     41893 TIP3     6483     TIP3     OH2      OT      -0.834000       15.9994           0
     41894 TIP3     6483     TIP3     H1       HT       0.417000       1.00800           0
     41895 TIP3     6483     TIP3     H2       HT       0.417000       1.00800           0
     41896 TIP3     6484     TIP3     OH2      OT      -0.834000       15.9994           0
     41897 TIP3     6484     TIP3     H1       HT       0.417000       1.00800           0
     41898 TIP3     6484     TIP3     H2       HT       0.417000       1.00800           0
     41899 TIP3     6485     TIP3     OH2      OT      -0.834000       15.9994           0
     41900 TIP3     6485     TIP3     H1       HT       0.417000       1.00800           0
     41901 TIP3     6485     TIP3     H2       HT       0.417000       1.00800           0
     41902 TIP3     6486     TIP3     OH2      OT      -0.834000       15.9994           0
     41903 TIP3     6486     TIP3     H1       HT       0.417000       1.00800           0
     41904 TIP3     6486     TIP3     H2       HT       0.417000       1.00800           0
     41905 TIP3     6487     TIP3     OH2      OT      -0.834000       15.9994           0
     41906 TIP3     6487     TIP3     H1       HT       0.417000       1.00800           0
     41907 TIP3     6487     TIP3     H2       HT       0.417000       1.00800           0
     41908 TIP3     6488     TIP3     OH2      OT      -0.834000       15.9994           0
     41909 TIP3     6488     TIP3     H1       HT       0.417000       1.00800           0
     41910 TIP3     6488     TIP3     H2       HT       0.417000       1.00800           0
     41911 TIP3     6489     TIP3     OH2      OT      -0.834000       15.9994           0
     41912 TIP3     6489     TIP3     H1       HT       0.417000       1.00800           0
     41913 TIP3     6489     TIP3     H2       HT       0.417000       1.00800           0
     41914 TIP3     6490     TIP3     OH2      OT      -0.834000       15.9994           0
     41915 TIP3     6490     TIP3     H1       HT       0.417000       1.00800           0
     41916 TIP3     6490     TIP3     H2       HT       0.417000       1.00800           0
     41917 TIP3     6491     TIP3     OH2      OT      -0.834000       15.9994           0
     41918 TIP3     6491     TIP3     H1       HT       0.417000       1.00800           0
     41919 TIP3     6491     TIP3     H2       HT       0.417000       1.00800           0
     41920 TIP3     6492     TIP3     OH2      OT      -0.834000       15.9994           0
     41921 TIP3     6492     TIP3     H1       HT       0.417000       1.00800           0
     41922 TIP3     6492     TIP3     H2       HT       0.417000       1.00800           0
     41923 TIP3     6493     TIP3     OH2      OT      -0.834000       15.9994           0
     41924 TIP3     6493     TIP3     H1       HT       0.417000       1.00800           0
     41925 TIP3     6493     TIP3     H2       HT       0.417000       1.00800           0
     41926 TIP3     6494     TIP3     OH2      OT      -0.834000       15.9994           0
     41927 TIP3     6494     TIP3     H1       HT       0.417000       1.00800           0
     41928 TIP3     6494     TIP3     H2       HT       0.417000       1.00800           0
     41929 TIP3     6495     TIP3     OH2      OT      -0.834000       15.9994           0
     41930 TIP3     6495     TIP3     H1       HT       0.417000       1.00800           0
     41931 TIP3     6495     TIP3     H2       HT       0.417000       1.00800           0
     41932 TIP3     6496     TIP3     OH2      OT      -0.834000       15.9994           0
     41933 TIP3     6496     TIP3     H1       HT       0.417000       1.00800           0
     41934 TIP3     6496     TIP3     H2       HT       0.417000       1.00800           0
     41935 TIP3     6497     TIP3     OH2      OT      -0.834000       15.9994           0
     41936 TIP3     6497     TIP3     H1       HT       0.417000       1.00800           0
     41937 TIP3     6497     TIP3     H2       HT       0.417000       1.00800           0
     41938 TIP3     6498     TIP3     OH2      OT      -0.834000       15.9994           0
     41939 TIP3     6498     TIP3     H1       HT       0.417000       1.00800           0
     41940 TIP3     6498     TIP3     H2       HT       0.417000       1.00800           0
     41941 TIP3     6499     TIP3     OH2      OT      -0.834000       15.9994           0
     41942 TIP3     6499     TIP3     H1       HT       0.417000       1.00800           0
     41943 TIP3     6499     TIP3     H2       HT       0.417000       1.00800           0
     41944 TIP3     6500     TIP3     OH2      OT      -0.834000       15.9994           0
     41945 TIP3     6500     TIP3     H1       HT       0.417000       1.00800           0
     41946 TIP3     6500     TIP3     H2       HT       0.417000       1.00800           0
     41947 TIP3     6501     TIP3     OH2      OT      -0.834000       15.9994           0
     41948 TIP3     6501     TIP3     H1       HT       0.417000       1.00800           0
     41949 TIP3     6501     TIP3     H2       HT       0.417000       1.00800           0
     41950 TIP3     6502     TIP3     OH2      OT      -0.834000       15.9994           0
     41951 TIP3     6502     TIP3     H1       HT       0.417000       1.00800           0
     41952 TIP3     6502     TIP3     H2       HT       0.417000       1.00800           0
     41953 TIP3     6503     TIP3     OH2      OT      -0.834000       15.9994           0
     41954 TIP3     6503     TIP3     H1       HT       0.417000       1.00800           0
     41955 TIP3     6503     TIP3     H2       HT       0.417000       1.00800           0
     41956 TIP3     6504     TIP3     OH2      OT      -0.834000       15.9994           0
     41957 TIP3     6504     TIP3     H1       HT       0.417000       1.00800           0
     41958 TIP3     6504     TIP3     H2       HT       0.417000       1.00800           0
     41959 TIP3     6505     TIP3     OH2      OT      -0.834000       15.9994           0
     41960 TIP3     6505     TIP3     H1       HT       0.417000       1.00800           0
     41961 TIP3     6505     TIP3     H2       HT       0.417000       1.00800           0
     41962 TIP3     6506     TIP3     OH2      OT      -0.834000       15.9994           0
     41963 TIP3     6506     TIP3     H1       HT       0.417000       1.00800           0
     41964 TIP3     6506     TIP3     H2       HT       0.417000       1.00800           0
     41965 TIP3     6507     TIP3     OH2      OT      -0.834000       15.9994           0
     41966 TIP3     6507     TIP3     H1       HT       0.417000       1.00800           0
     41967 TIP3     6507     TIP3     H2       HT       0.417000       1.00800           0
     41968 TIP3     6508     TIP3     OH2      OT      -0.834000       15.9994           0
     41969 TIP3     6508     TIP3     H1       HT       0.417000       1.00800           0
     41970 TIP3     6508     TIP3     H2       HT       0.417000       1.00800           0
     41971 TIP3     6509     TIP3     OH2      OT      -0.834000       15.9994           0
     41972 TIP3     6509     TIP3     H1       HT       0.417000       1.00800           0
     41973 TIP3     6509     TIP3     H2       HT       0.417000       1.00800           0
     41974 TIP3     6510     TIP3     OH2      OT      -0.834000       15.9994           0
     41975 TIP3     6510     TIP3     H1       HT       0.417000       1.00800           0
     41976 TIP3     6510     TIP3     H2       HT       0.417000       1.00800           0
     41977 TIP3     6511     TIP3     OH2      OT      -0.834000       15.9994           0
     41978 TIP3     6511     TIP3     H1       HT       0.417000       1.00800           0
     41979 TIP3     6511     TIP3     H2       HT       0.417000       1.00800           0
     41980 TIP3     6512     TIP3     OH2      OT      -0.834000       15.9994           0
     41981 TIP3     6512     TIP3     H1       HT       0.417000       1.00800           0
     41982 TIP3     6512     TIP3     H2       HT       0.417000       1.00800           0
     41983 TIP3     6513     TIP3     OH2      OT      -0.834000       15.9994           0
     41984 TIP3     6513     TIP3     H1       HT       0.417000       1.00800           0
     41985 TIP3     6513     TIP3     H2       HT       0.417000       1.00800           0
     41986 TIP3     6514     TIP3     OH2      OT      -0.834000       15.9994           0
     41987 TIP3     6514     TIP3     H1       HT       0.417000       1.00800           0
     41988 TIP3     6514     TIP3     H2       HT       0.417000       1.00800           0
     41989 TIP3     6515     TIP3     OH2      OT      -0.834000       15.9994           0
     41990 TIP3     6515     TIP3     H1       HT       0.417000       1.00800           0
     41991 TIP3     6515     TIP3     H2       HT       0.417000       1.00800           0
     41992 TIP3     6516     TIP3     OH2      OT      -0.834000       15.9994           0
     41993 TIP3     6516     TIP3     H1       HT       0.417000       1.00800           0
     41994 TIP3     6516     TIP3     H2       HT       0.417000       1.00800           0
     41995 TIP3     6517     TIP3     OH2      OT      -0.834000       15.9994           0
     41996 TIP3     6517     TIP3     H1       HT       0.417000       1.00800           0
     41997 TIP3     6517     TIP3     H2       HT       0.417000       1.00800           0
     41998 TIP3     6518     TIP3     OH2      OT      -0.834000       15.9994           0
     41999 TIP3     6518     TIP3     H1       HT       0.417000       1.00800           0
     42000 TIP3     6518     TIP3     H2       HT       0.417000       1.00800           0
     42001 TIP3     6519     TIP3     OH2      OT      -0.834000       15.9994           0
     42002 TIP3     6519     TIP3     H1       HT       0.417000       1.00800           0
     42003 TIP3     6519     TIP3     H2       HT       0.417000       1.00800           0
     42004 TIP3     6520     TIP3     OH2      OT      -0.834000       15.9994           0
     42005 TIP3     6520     TIP3     H1       HT       0.417000       1.00800           0
     42006 TIP3     6520     TIP3     H2       HT       0.417000       1.00800           0
     42007 TIP3     6521     TIP3     OH2      OT      -0.834000       15.9994           0
     42008 TIP3     6521     TIP3     H1       HT       0.417000       1.00800           0
     42009 TIP3     6521     TIP3     H2       HT       0.417000       1.00800           0
     42010 TIP3     6522     TIP3     OH2      OT      -0.834000       15.9994           0
     42011 TIP3     6522     TIP3     H1       HT       0.417000       1.00800           0
     42012 TIP3     6522     TIP3     H2       HT       0.417000       1.00800           0
     42013 TIP3     6523     TIP3     OH2      OT      -0.834000       15.9994           0
     42014 TIP3     6523     TIP3     H1       HT       0.417000       1.00800           0
     42015 TIP3     6523     TIP3     H2       HT       0.417000       1.00800           0
     42016 TIP3     6524     TIP3     OH2      OT      -0.834000       15.9994           0
     42017 TIP3     6524     TIP3     H1       HT       0.417000       1.00800           0
     42018 TIP3     6524     TIP3     H2       HT       0.417000       1.00800           0
     42019 TIP3     6525     TIP3     OH2      OT      -0.834000       15.9994           0
     42020 TIP3     6525     TIP3     H1       HT       0.417000       1.00800           0
     42021 TIP3     6525     TIP3     H2       HT       0.417000       1.00800           0
     42022 TIP3     6526     TIP3     OH2      OT      -0.834000       15.9994           0
     42023 TIP3     6526     TIP3     H1       HT       0.417000       1.00800           0
     42024 TIP3     6526     TIP3     H2       HT       0.417000       1.00800           0
     42025 TIP3     6527     TIP3     OH2      OT      -0.834000       15.9994           0
     42026 TIP3     6527     TIP3     H1       HT       0.417000       1.00800           0
     42027 TIP3     6527     TIP3     H2       HT       0.417000       1.00800           0
     42028 TIP3     6528     TIP3     OH2      OT      -0.834000       15.9994           0
     42029 TIP3     6528     TIP3     H1       HT       0.417000       1.00800           0
     42030 TIP3     6528     TIP3     H2       HT       0.417000       1.00800           0
     42031 TIP3     6529     TIP3     OH2      OT      -0.834000       15.9994           0
     42032 TIP3     6529     TIP3     H1       HT       0.417000       1.00800           0
     42033 TIP3     6529     TIP3     H2       HT       0.417000       1.00800           0
     42034 TIP3     6530     TIP3     OH2      OT      -0.834000       15.9994           0
     42035 TIP3     6530     TIP3     H1       HT       0.417000       1.00800           0
     42036 TIP3     6530     TIP3     H2       HT       0.417000       1.00800           0
     42037 TIP3     6531     TIP3     OH2      OT      -0.834000       15.9994           0
     42038 TIP3     6531     TIP3     H1       HT       0.417000       1.00800           0
     42039 TIP3     6531     TIP3     H2       HT       0.417000       1.00800           0
     42040 TIP3     6532     TIP3     OH2      OT      -0.834000       15.9994           0
     42041 TIP3     6532     TIP3     H1       HT       0.417000       1.00800           0
     42042 TIP3     6532     TIP3     H2       HT       0.417000       1.00800           0
     42043 TIP3     6533     TIP3     OH2      OT      -0.834000       15.9994           0
     42044 TIP3     6533     TIP3     H1       HT       0.417000       1.00800           0
     42045 TIP3     6533     TIP3     H2       HT       0.417000       1.00800           0
     42046 TIP3     6534     TIP3     OH2      OT      -0.834000       15.9994           0
     42047 TIP3     6534     TIP3     H1       HT       0.417000       1.00800           0
     42048 TIP3     6534     TIP3     H2       HT       0.417000       1.00800           0
     42049 TIP3     6535     TIP3     OH2      OT      -0.834000       15.9994           0
     42050 TIP3     6535     TIP3     H1       HT       0.417000       1.00800           0
     42051 TIP3     6535     TIP3     H2       HT       0.417000       1.00800           0
     42052 TIP3     6536     TIP3     OH2      OT      -0.834000       15.9994           0
     42053 TIP3     6536     TIP3     H1       HT       0.417000       1.00800           0
     42054 TIP3     6536     TIP3     H2       HT       0.417000       1.00800           0
     42055 TIP3     6537     TIP3     OH2      OT      -0.834000       15.9994           0
     42056 TIP3     6537     TIP3     H1       HT       0.417000       1.00800           0
     42057 TIP3     6537     TIP3     H2       HT       0.417000       1.00800           0
     42058 TIP3     6538     TIP3     OH2      OT      -0.834000       15.9994           0
     42059 TIP3     6538     TIP3     H1       HT       0.417000       1.00800           0
     42060 TIP3     6538     TIP3     H2       HT       0.417000       1.00800           0
     42061 TIP3     6539     TIP3     OH2      OT      -0.834000       15.9994           0
     42062 TIP3     6539     TIP3     H1       HT       0.417000       1.00800           0
     42063 TIP3     6539     TIP3     H2       HT       0.417000       1.00800           0
     42064 TIP3     6540     TIP3     OH2      OT      -0.834000       15.9994           0
     42065 TIP3     6540     TIP3     H1       HT       0.417000       1.00800           0
     42066 TIP3     6540     TIP3     H2       HT       0.417000       1.00800           0
     42067 TIP3     6541     TIP3     OH2      OT      -0.834000       15.9994           0
     42068 TIP3     6541     TIP3     H1       HT       0.417000       1.00800           0
     42069 TIP3     6541     TIP3     H2       HT       0.417000       1.00800           0
     42070 TIP3     6542     TIP3     OH2      OT      -0.834000       15.9994           0
     42071 TIP3     6542     TIP3     H1       HT       0.417000       1.00800           0
     42072 TIP3     6542     TIP3     H2       HT       0.417000       1.00800           0
     42073 TIP3     6543     TIP3     OH2      OT      -0.834000       15.9994           0
     42074 TIP3     6543     TIP3     H1       HT       0.417000       1.00800           0
     42075 TIP3     6543     TIP3     H2       HT       0.417000       1.00800           0
     42076 TIP3     6544     TIP3     OH2      OT      -0.834000       15.9994           0
     42077 TIP3     6544     TIP3     H1       HT       0.417000       1.00800           0
     42078 TIP3     6544     TIP3     H2       HT       0.417000       1.00800           0
     42079 TIP3     6545     TIP3     OH2      OT      -0.834000       15.9994           0
     42080 TIP3     6545     TIP3     H1       HT       0.417000       1.00800           0
     42081 TIP3     6545     TIP3     H2       HT       0.417000       1.00800           0
     42082 TIP3     6546     TIP3     OH2      OT      -0.834000       15.9994           0
     42083 TIP3     6546     TIP3     H1       HT       0.417000       1.00800           0
     42084 TIP3     6546     TIP3     H2       HT       0.417000       1.00800           0
     42085 TIP3     6547     TIP3     OH2      OT      -0.834000       15.9994           0
     42086 TIP3     6547     TIP3     H1       HT       0.417000       1.00800           0
     42087 TIP3     6547     TIP3     H2       HT       0.417000       1.00800           0
     42088 TIP3     6548     TIP3     OH2      OT      -0.834000       15.9994           0
     42089 TIP3     6548     TIP3     H1       HT       0.417000       1.00800           0
     42090 TIP3     6548     TIP3     H2       HT       0.417000       1.00800           0
     42091 TIP3     6549     TIP3     OH2      OT      -0.834000       15.9994           0
     42092 TIP3     6549     TIP3     H1       HT       0.417000       1.00800           0
     42093 TIP3     6549     TIP3     H2       HT       0.417000       1.00800           0
     42094 TIP3     6550     TIP3     OH2      OT      -0.834000       15.9994           0
     42095 TIP3     6550     TIP3     H1       HT       0.417000       1.00800           0
     42096 TIP3     6550     TIP3     H2       HT       0.417000       1.00800           0
     42097 TIP3     6551     TIP3     OH2      OT      -0.834000       15.9994           0
     42098 TIP3     6551     TIP3     H1       HT       0.417000       1.00800           0
     42099 TIP3     6551     TIP3     H2       HT       0.417000       1.00800           0
     42100 TIP3     6552     TIP3     OH2      OT      -0.834000       15.9994           0
     42101 TIP3     6552     TIP3     H1       HT       0.417000       1.00800           0
     42102 TIP3     6552     TIP3     H2       HT       0.417000       1.00800           0
     42103 TIP3     6553     TIP3     OH2      OT      -0.834000       15.9994           0
     42104 TIP3     6553     TIP3     H1       HT       0.417000       1.00800           0
     42105 TIP3     6553     TIP3     H2       HT       0.417000       1.00800           0
     42106 TIP3     6554     TIP3     OH2      OT      -0.834000       15.9994           0
     42107 TIP3     6554     TIP3     H1       HT       0.417000       1.00800           0
     42108 TIP3     6554     TIP3     H2       HT       0.417000       1.00800           0
     42109 TIP3     6555     TIP3     OH2      OT      -0.834000       15.9994           0
     42110 TIP3     6555     TIP3     H1       HT       0.417000       1.00800           0
     42111 TIP3     6555     TIP3     H2       HT       0.417000       1.00800           0
     42112 TIP3     6556     TIP3     OH2      OT      -0.834000       15.9994           0
     42113 TIP3     6556     TIP3     H1       HT       0.417000       1.00800           0
     42114 TIP3     6556     TIP3     H2       HT       0.417000       1.00800           0
     42115 TIP3     6557     TIP3     OH2      OT      -0.834000       15.9994           0
     42116 TIP3     6557     TIP3     H1       HT       0.417000       1.00800           0
     42117 TIP3     6557     TIP3     H2       HT       0.417000       1.00800           0
     42118 TIP3     6558     TIP3     OH2      OT      -0.834000       15.9994           0
     42119 TIP3     6558     TIP3     H1       HT       0.417000       1.00800           0
     42120 TIP3     6558     TIP3     H2       HT       0.417000       1.00800           0
     42121 TIP3     6559     TIP3     OH2      OT      -0.834000       15.9994           0
     42122 TIP3     6559     TIP3     H1       HT       0.417000       1.00800           0
     42123 TIP3     6559     TIP3     H2       HT       0.417000       1.00800           0
     42124 TIP3     6560     TIP3     OH2      OT      -0.834000       15.9994           0
     42125 TIP3     6560     TIP3     H1       HT       0.417000       1.00800           0
     42126 TIP3     6560     TIP3     H2       HT       0.417000       1.00800           0
     42127 TIP3     6561     TIP3     OH2      OT      -0.834000       15.9994           0
     42128 TIP3     6561     TIP3     H1       HT       0.417000       1.00800           0
     42129 TIP3     6561     TIP3     H2       HT       0.417000       1.00800           0
     42130 TIP3     6562     TIP3     OH2      OT      -0.834000       15.9994           0
     42131 TIP3     6562     TIP3     H1       HT       0.417000       1.00800           0
     42132 TIP3     6562     TIP3     H2       HT       0.417000       1.00800           0
     42133 TIP3     6563     TIP3     OH2      OT      -0.834000       15.9994           0
     42134 TIP3     6563     TIP3     H1       HT       0.417000       1.00800           0
     42135 TIP3     6563     TIP3     H2       HT       0.417000       1.00800           0
     42136 TIP3     6564     TIP3     OH2      OT      -0.834000       15.9994           0
     42137 TIP3     6564     TIP3     H1       HT       0.417000       1.00800           0
     42138 TIP3     6564     TIP3     H2       HT       0.417000       1.00800           0
     42139 TIP3     6565     TIP3     OH2      OT      -0.834000       15.9994           0
     42140 TIP3     6565     TIP3     H1       HT       0.417000       1.00800           0
     42141 TIP3     6565     TIP3     H2       HT       0.417000       1.00800           0
     42142 TIP3     6566     TIP3     OH2      OT      -0.834000       15.9994           0
     42143 TIP3     6566     TIP3     H1       HT       0.417000       1.00800           0
     42144 TIP3     6566     TIP3     H2       HT       0.417000       1.00800           0
     42145 TIP3     6567     TIP3     OH2      OT      -0.834000       15.9994           0
     42146 TIP3     6567     TIP3     H1       HT       0.417000       1.00800           0
     42147 TIP3     6567     TIP3     H2       HT       0.417000       1.00800           0
     42148 TIP3     6568     TIP3     OH2      OT      -0.834000       15.9994           0
     42149 TIP3     6568     TIP3     H1       HT       0.417000       1.00800           0
     42150 TIP3     6568     TIP3     H2       HT       0.417000       1.00800           0
     42151 TIP3     6569     TIP3     OH2      OT      -0.834000       15.9994           0
     42152 TIP3     6569     TIP3     H1       HT       0.417000       1.00800           0
     42153 TIP3     6569     TIP3     H2       HT       0.417000       1.00800           0
     42154 TIP3     6570     TIP3     OH2      OT      -0.834000       15.9994           0
     42155 TIP3     6570     TIP3     H1       HT       0.417000       1.00800           0
     42156 TIP3     6570     TIP3     H2       HT       0.417000       1.00800           0
     42157 TIP3     6571     TIP3     OH2      OT      -0.834000       15.9994           0
     42158 TIP3     6571     TIP3     H1       HT       0.417000       1.00800           0
     42159 TIP3     6571     TIP3     H2       HT       0.417000       1.00800           0
     42160 TIP3     6572     TIP3     OH2      OT      -0.834000       15.9994           0
     42161 TIP3     6572     TIP3     H1       HT       0.417000       1.00800           0
     42162 TIP3     6572     TIP3     H2       HT       0.417000       1.00800           0
     42163 TIP3     6573     TIP3     OH2      OT      -0.834000       15.9994           0
     42164 TIP3     6573     TIP3     H1       HT       0.417000       1.00800           0
     42165 TIP3     6573     TIP3     H2       HT       0.417000       1.00800           0
     42166 TIP3     6574     TIP3     OH2      OT      -0.834000       15.9994           0
     42167 TIP3     6574     TIP3     H1       HT       0.417000       1.00800           0
     42168 TIP3     6574     TIP3     H2       HT       0.417000       1.00800           0
     42169 TIP3     6575     TIP3     OH2      OT      -0.834000       15.9994           0
     42170 TIP3     6575     TIP3     H1       HT       0.417000       1.00800           0
     42171 TIP3     6575     TIP3     H2       HT       0.417000       1.00800           0
     42172 TIP3     6576     TIP3     OH2      OT      -0.834000       15.9994           0
     42173 TIP3     6576     TIP3     H1       HT       0.417000       1.00800           0
     42174 TIP3     6576     TIP3     H2       HT       0.417000       1.00800           0
     42175 TIP3     6577     TIP3     OH2      OT      -0.834000       15.9994           0
     42176 TIP3     6577     TIP3     H1       HT       0.417000       1.00800           0
     42177 TIP3     6577     TIP3     H2       HT       0.417000       1.00800           0
     42178 TIP3     6578     TIP3     OH2      OT      -0.834000       15.9994           0
     42179 TIP3     6578     TIP3     H1       HT       0.417000       1.00800           0
     42180 TIP3     6578     TIP3     H2       HT       0.417000       1.00800           0
     42181 TIP3     6579     TIP3     OH2      OT      -0.834000       15.9994           0
     42182 TIP3     6579     TIP3     H1       HT       0.417000       1.00800           0
     42183 TIP3     6579     TIP3     H2       HT       0.417000       1.00800           0
     42184 TIP3     6580     TIP3     OH2      OT      -0.834000       15.9994           0
     42185 TIP3     6580     TIP3     H1       HT       0.417000       1.00800           0
     42186 TIP3     6580     TIP3     H2       HT       0.417000       1.00800           0
     42187 TIP3     6581     TIP3     OH2      OT      -0.834000       15.9994           0
     42188 TIP3     6581     TIP3     H1       HT       0.417000       1.00800           0
     42189 TIP3     6581     TIP3     H2       HT       0.417000       1.00800           0
     42190 TIP3     6582     TIP3     OH2      OT      -0.834000       15.9994           0
     42191 TIP3     6582     TIP3     H1       HT       0.417000       1.00800           0
     42192 TIP3     6582     TIP3     H2       HT       0.417000       1.00800           0
     42193 TIP3     6583     TIP3     OH2      OT      -0.834000       15.9994           0
     42194 TIP3     6583     TIP3     H1       HT       0.417000       1.00800           0
     42195 TIP3     6583     TIP3     H2       HT       0.417000       1.00800           0
     42196 TIP3     6584     TIP3     OH2      OT      -0.834000       15.9994           0
     42197 TIP3     6584     TIP3     H1       HT       0.417000       1.00800           0
     42198 TIP3     6584     TIP3     H2       HT       0.417000       1.00800           0
     42199 TIP3     6585     TIP3     OH2      OT      -0.834000       15.9994           0
     42200 TIP3     6585     TIP3     H1       HT       0.417000       1.00800           0
     42201 TIP3     6585     TIP3     H2       HT       0.417000       1.00800           0
     42202 TIP3     6586     TIP3     OH2      OT      -0.834000       15.9994           0
     42203 TIP3     6586     TIP3     H1       HT       0.417000       1.00800           0
     42204 TIP3     6586     TIP3     H2       HT       0.417000       1.00800           0
     42205 TIP3     6587     TIP3     OH2      OT      -0.834000       15.9994           0
     42206 TIP3     6587     TIP3     H1       HT       0.417000       1.00800           0
     42207 TIP3     6587     TIP3     H2       HT       0.417000       1.00800           0
     42208 TIP3     6588     TIP3     OH2      OT      -0.834000       15.9994           0
     42209 TIP3     6588     TIP3     H1       HT       0.417000       1.00800           0
     42210 TIP3     6588     TIP3     H2       HT       0.417000       1.00800           0
     42211 TIP3     6589     TIP3     OH2      OT      -0.834000       15.9994           0
     42212 TIP3     6589     TIP3     H1       HT       0.417000       1.00800           0
     42213 TIP3     6589     TIP3     H2       HT       0.417000       1.00800           0
     42214 TIP3     6590     TIP3     OH2      OT      -0.834000       15.9994           0
     42215 TIP3     6590     TIP3     H1       HT       0.417000       1.00800           0
     42216 TIP3     6590     TIP3     H2       HT       0.417000       1.00800           0
     42217 TIP3     6591     TIP3     OH2      OT      -0.834000       15.9994           0
     42218 TIP3     6591     TIP3     H1       HT       0.417000       1.00800           0
     42219 TIP3     6591     TIP3     H2       HT       0.417000       1.00800           0
     42220 TIP3     6592     TIP3     OH2      OT      -0.834000       15.9994           0
     42221 TIP3     6592     TIP3     H1       HT       0.417000       1.00800           0
     42222 TIP3     6592     TIP3     H2       HT       0.417000       1.00800           0
     42223 TIP3     6593     TIP3     OH2      OT      -0.834000       15.9994           0
     42224 TIP3     6593     TIP3     H1       HT       0.417000       1.00800           0
     42225 TIP3     6593     TIP3     H2       HT       0.417000       1.00800           0
     42226 TIP3     6594     TIP3     OH2      OT      -0.834000       15.9994           0
     42227 TIP3     6594     TIP3     H1       HT       0.417000       1.00800           0
     42228 TIP3     6594     TIP3     H2       HT       0.417000       1.00800           0
     42229 TIP3     6595     TIP3     OH2      OT      -0.834000       15.9994           0
     42230 TIP3     6595     TIP3     H1       HT       0.417000       1.00800           0
     42231 TIP3     6595     TIP3     H2       HT       0.417000       1.00800           0
     42232 TIP3     6596     TIP3     OH2      OT      -0.834000       15.9994           0
     42233 TIP3     6596     TIP3     H1       HT       0.417000       1.00800           0
     42234 TIP3     6596     TIP3     H2       HT       0.417000       1.00800           0
     42235 TIP3     6597     TIP3     OH2      OT      -0.834000       15.9994           0
     42236 TIP3     6597     TIP3     H1       HT       0.417000       1.00800           0
     42237 TIP3     6597     TIP3     H2       HT       0.417000       1.00800           0
     42238 TIP3     6598     TIP3     OH2      OT      -0.834000       15.9994           0
     42239 TIP3     6598     TIP3     H1       HT       0.417000       1.00800           0
     42240 TIP3     6598     TIP3     H2       HT       0.417000       1.00800           0
     42241 TIP3     6599     TIP3     OH2      OT      -0.834000       15.9994           0
     42242 TIP3     6599     TIP3     H1       HT       0.417000       1.00800           0
     42243 TIP3     6599     TIP3     H2       HT       0.417000       1.00800           0
     42244 TIP3     6600     TIP3     OH2      OT      -0.834000       15.9994           0
     42245 TIP3     6600     TIP3     H1       HT       0.417000       1.00800           0
     42246 TIP3     6600     TIP3     H2       HT       0.417000       1.00800           0
     42247 TIP3     6601     TIP3     OH2      OT      -0.834000       15.9994           0
     42248 TIP3     6601     TIP3     H1       HT       0.417000       1.00800           0
     42249 TIP3     6601     TIP3     H2       HT       0.417000       1.00800           0
     42250 TIP3     6602     TIP3     OH2      OT      -0.834000       15.9994           0
     42251 TIP3     6602     TIP3     H1       HT       0.417000       1.00800           0
     42252 TIP3     6602     TIP3     H2       HT       0.417000       1.00800           0
     42253 TIP3     6603     TIP3     OH2      OT      -0.834000       15.9994           0
     42254 TIP3     6603     TIP3     H1       HT       0.417000       1.00800           0
     42255 TIP3     6603     TIP3     H2       HT       0.417000       1.00800           0
     42256 TIP3     6604     TIP3     OH2      OT      -0.834000       15.9994           0
     42257 TIP3     6604     TIP3     H1       HT       0.417000       1.00800           0
     42258 TIP3     6604     TIP3     H2       HT       0.417000       1.00800           0
     42259 TIP3     6605     TIP3     OH2      OT      -0.834000       15.9994           0
     42260 TIP3     6605     TIP3     H1       HT       0.417000       1.00800           0
     42261 TIP3     6605     TIP3     H2       HT       0.417000       1.00800           0
     42262 TIP3     6606     TIP3     OH2      OT      -0.834000       15.9994           0
     42263 TIP3     6606     TIP3     H1       HT       0.417000       1.00800           0
     42264 TIP3     6606     TIP3     H2       HT       0.417000       1.00800           0
     42265 TIP3     6607     TIP3     OH2      OT      -0.834000       15.9994           0
     42266 TIP3     6607     TIP3     H1       HT       0.417000       1.00800           0
     42267 TIP3     6607     TIP3     H2       HT       0.417000       1.00800           0
     42268 TIP3     6608     TIP3     OH2      OT      -0.834000       15.9994           0
     42269 TIP3     6608     TIP3     H1       HT       0.417000       1.00800           0
     42270 TIP3     6608     TIP3     H2       HT       0.417000       1.00800           0
     42271 TIP3     6609     TIP3     OH2      OT      -0.834000       15.9994           0
     42272 TIP3     6609     TIP3     H1       HT       0.417000       1.00800           0
     42273 TIP3     6609     TIP3     H2       HT       0.417000       1.00800           0
     42274 TIP3     6610     TIP3     OH2      OT      -0.834000       15.9994           0
     42275 TIP3     6610     TIP3     H1       HT       0.417000       1.00800           0
     42276 TIP3     6610     TIP3     H2       HT       0.417000       1.00800           0
     42277 TIP3     6611     TIP3     OH2      OT      -0.834000       15.9994           0
     42278 TIP3     6611     TIP3     H1       HT       0.417000       1.00800           0
     42279 TIP3     6611     TIP3     H2       HT       0.417000       1.00800           0
     42280 TIP3     6612     TIP3     OH2      OT      -0.834000       15.9994           0
     42281 TIP3     6612     TIP3     H1       HT       0.417000       1.00800           0
     42282 TIP3     6612     TIP3     H2       HT       0.417000       1.00800           0
     42283 TIP3     6613     TIP3     OH2      OT      -0.834000       15.9994           0
     42284 TIP3     6613     TIP3     H1       HT       0.417000       1.00800           0
     42285 TIP3     6613     TIP3     H2       HT       0.417000       1.00800           0
     42286 TIP3     6614     TIP3     OH2      OT      -0.834000       15.9994           0
     42287 TIP3     6614     TIP3     H1       HT       0.417000       1.00800           0
     42288 TIP3     6614     TIP3     H2       HT       0.417000       1.00800           0
     42289 TIP3     6615     TIP3     OH2      OT      -0.834000       15.9994           0
     42290 TIP3     6615     TIP3     H1       HT       0.417000       1.00800           0
     42291 TIP3     6615     TIP3     H2       HT       0.417000       1.00800           0
     42292 TIP3     6616     TIP3     OH2      OT      -0.834000       15.9994           0
     42293 TIP3     6616     TIP3     H1       HT       0.417000       1.00800           0
     42294 TIP3     6616     TIP3     H2       HT       0.417000       1.00800           0
     42295 TIP3     6617     TIP3     OH2      OT      -0.834000       15.9994           0
     42296 TIP3     6617     TIP3     H1       HT       0.417000       1.00800           0
     42297 TIP3     6617     TIP3     H2       HT       0.417000       1.00800           0
     42298 TIP3     6618     TIP3     OH2      OT      -0.834000       15.9994           0
     42299 TIP3     6618     TIP3     H1       HT       0.417000       1.00800           0
     42300 TIP3     6618     TIP3     H2       HT       0.417000       1.00800           0
     42301 TIP3     6619     TIP3     OH2      OT      -0.834000       15.9994           0
     42302 TIP3     6619     TIP3     H1       HT       0.417000       1.00800           0
     42303 TIP3     6619     TIP3     H2       HT       0.417000       1.00800           0
     42304 TIP3     6620     TIP3     OH2      OT      -0.834000       15.9994           0
     42305 TIP3     6620     TIP3     H1       HT       0.417000       1.00800           0
     42306 TIP3     6620     TIP3     H2       HT       0.417000       1.00800           0
     42307 TIP3     6621     TIP3     OH2      OT      -0.834000       15.9994           0
     42308 TIP3     6621     TIP3     H1       HT       0.417000       1.00800           0
     42309 TIP3     6621     TIP3     H2       HT       0.417000       1.00800           0
     42310 TIP3     6622     TIP3     OH2      OT      -0.834000       15.9994           0
     42311 TIP3     6622     TIP3     H1       HT       0.417000       1.00800           0
     42312 TIP3     6622     TIP3     H2       HT       0.417000       1.00800           0
     42313 TIP3     6623     TIP3     OH2      OT      -0.834000       15.9994           0
     42314 TIP3     6623     TIP3     H1       HT       0.417000       1.00800           0
     42315 TIP3     6623     TIP3     H2       HT       0.417000       1.00800           0
     42316 TIP3     6624     TIP3     OH2      OT      -0.834000       15.9994           0
     42317 TIP3     6624     TIP3     H1       HT       0.417000       1.00800           0
     42318 TIP3     6624     TIP3     H2       HT       0.417000       1.00800           0
     42319 TIP3     6625     TIP3     OH2      OT      -0.834000       15.9994           0
     42320 TIP3     6625     TIP3     H1       HT       0.417000       1.00800           0
     42321 TIP3     6625     TIP3     H2       HT       0.417000       1.00800           0
     42322 TIP3     6626     TIP3     OH2      OT      -0.834000       15.9994           0
     42323 TIP3     6626     TIP3     H1       HT       0.417000       1.00800           0
     42324 TIP3     6626     TIP3     H2       HT       0.417000       1.00800           0
     42325 TIP3     6627     TIP3     OH2      OT      -0.834000       15.9994           0
     42326 TIP3     6627     TIP3     H1       HT       0.417000       1.00800           0
     42327 TIP3     6627     TIP3     H2       HT       0.417000       1.00800           0
     42328 TIP3     6628     TIP3     OH2      OT      -0.834000       15.9994           0
     42329 TIP3     6628     TIP3     H1       HT       0.417000       1.00800           0
     42330 TIP3     6628     TIP3     H2       HT       0.417000       1.00800           0
     42331 TIP3     6629     TIP3     OH2      OT      -0.834000       15.9994           0
     42332 TIP3     6629     TIP3     H1       HT       0.417000       1.00800           0
     42333 TIP3     6629     TIP3     H2       HT       0.417000       1.00800           0
     42334 TIP3     6630     TIP3     OH2      OT      -0.834000       15.9994           0
     42335 TIP3     6630     TIP3     H1       HT       0.417000       1.00800           0
     42336 TIP3     6630     TIP3     H2       HT       0.417000       1.00800           0
     42337 TIP3     6631     TIP3     OH2      OT      -0.834000       15.9994           0
     42338 TIP3     6631     TIP3     H1       HT       0.417000       1.00800           0
     42339 TIP3     6631     TIP3     H2       HT       0.417000       1.00800           0
     42340 TIP3     6632     TIP3     OH2      OT      -0.834000       15.9994           0
     42341 TIP3     6632     TIP3     H1       HT       0.417000       1.00800           0
     42342 TIP3     6632     TIP3     H2       HT       0.417000       1.00800           0
     42343 TIP3     6633     TIP3     OH2      OT      -0.834000       15.9994           0
     42344 TIP3     6633     TIP3     H1       HT       0.417000       1.00800           0
     42345 TIP3     6633     TIP3     H2       HT       0.417000       1.00800           0
     42346 TIP3     6634     TIP3     OH2      OT      -0.834000       15.9994           0
     42347 TIP3     6634     TIP3     H1       HT       0.417000       1.00800           0
     42348 TIP3     6634     TIP3     H2       HT       0.417000       1.00800           0
     42349 TIP3     6635     TIP3     OH2      OT      -0.834000       15.9994           0
     42350 TIP3     6635     TIP3     H1       HT       0.417000       1.00800           0
     42351 TIP3     6635     TIP3     H2       HT       0.417000       1.00800           0
     42352 TIP3     6636     TIP3     OH2      OT      -0.834000       15.9994           0
     42353 TIP3     6636     TIP3     H1       HT       0.417000       1.00800           0
     42354 TIP3     6636     TIP3     H2       HT       0.417000       1.00800           0
     42355 TIP3     6637     TIP3     OH2      OT      -0.834000       15.9994           0
     42356 TIP3     6637     TIP3     H1       HT       0.417000       1.00800           0
     42357 TIP3     6637     TIP3     H2       HT       0.417000       1.00800           0
     42358 TIP3     6638     TIP3     OH2      OT      -0.834000       15.9994           0
     42359 TIP3     6638     TIP3     H1       HT       0.417000       1.00800           0
     42360 TIP3     6638     TIP3     H2       HT       0.417000       1.00800           0
     42361 TIP3     6639     TIP3     OH2      OT      -0.834000       15.9994           0
     42362 TIP3     6639     TIP3     H1       HT       0.417000       1.00800           0
     42363 TIP3     6639     TIP3     H2       HT       0.417000       1.00800           0
     42364 TIP3     6640     TIP3     OH2      OT      -0.834000       15.9994           0
     42365 TIP3     6640     TIP3     H1       HT       0.417000       1.00800           0
     42366 TIP3     6640     TIP3     H2       HT       0.417000       1.00800           0
     42367 TIP3     6641     TIP3     OH2      OT      -0.834000       15.9994           0
     42368 TIP3     6641     TIP3     H1       HT       0.417000       1.00800           0
     42369 TIP3     6641     TIP3     H2       HT       0.417000       1.00800           0
     42370 TIP3     6642     TIP3     OH2      OT      -0.834000       15.9994           0
     42371 TIP3     6642     TIP3     H1       HT       0.417000       1.00800           0
     42372 TIP3     6642     TIP3     H2       HT       0.417000       1.00800           0
     42373 TIP3     6643     TIP3     OH2      OT      -0.834000       15.9994           0
     42374 TIP3     6643     TIP3     H1       HT       0.417000       1.00800           0
     42375 TIP3     6643     TIP3     H2       HT       0.417000       1.00800           0
     42376 TIP3     6644     TIP3     OH2      OT      -0.834000       15.9994           0
     42377 TIP3     6644     TIP3     H1       HT       0.417000       1.00800           0
     42378 TIP3     6644     TIP3     H2       HT       0.417000       1.00800           0
     42379 TIP3     6645     TIP3     OH2      OT      -0.834000       15.9994           0
     42380 TIP3     6645     TIP3     H1       HT       0.417000       1.00800           0
     42381 TIP3     6645     TIP3     H2       HT       0.417000       1.00800           0
     42382 TIP3     6646     TIP3     OH2      OT      -0.834000       15.9994           0
     42383 TIP3     6646     TIP3     H1       HT       0.417000       1.00800           0
     42384 TIP3     6646     TIP3     H2       HT       0.417000       1.00800           0
     42385 TIP3     6647     TIP3     OH2      OT      -0.834000       15.9994           0
     42386 TIP3     6647     TIP3     H1       HT       0.417000       1.00800           0
     42387 TIP3     6647     TIP3     H2       HT       0.417000       1.00800           0
     42388 TIP3     6648     TIP3     OH2      OT      -0.834000       15.9994           0
     42389 TIP3     6648     TIP3     H1       HT       0.417000       1.00800           0
     42390 TIP3     6648     TIP3     H2       HT       0.417000       1.00800           0
     42391 TIP3     6649     TIP3     OH2      OT      -0.834000       15.9994           0
     42392 TIP3     6649     TIP3     H1       HT       0.417000       1.00800           0
     42393 TIP3     6649     TIP3     H2       HT       0.417000       1.00800           0
     42394 TIP3     6650     TIP3     OH2      OT      -0.834000       15.9994           0
     42395 TIP3     6650     TIP3     H1       HT       0.417000       1.00800           0
     42396 TIP3     6650     TIP3     H2       HT       0.417000       1.00800           0
     42397 TIP3     6651     TIP3     OH2      OT      -0.834000       15.9994           0
     42398 TIP3     6651     TIP3     H1       HT       0.417000       1.00800           0
     42399 TIP3     6651     TIP3     H2       HT       0.417000       1.00800           0
     42400 TIP3     6652     TIP3     OH2      OT      -0.834000       15.9994           0
     42401 TIP3     6652     TIP3     H1       HT       0.417000       1.00800           0
     42402 TIP3     6652     TIP3     H2       HT       0.417000       1.00800           0
     42403 TIP3     6653     TIP3     OH2      OT      -0.834000       15.9994           0
     42404 TIP3     6653     TIP3     H1       HT       0.417000       1.00800           0
     42405 TIP3     6653     TIP3     H2       HT       0.417000       1.00800           0
     42406 TIP3     6654     TIP3     OH2      OT      -0.834000       15.9994           0
     42407 TIP3     6654     TIP3     H1       HT       0.417000       1.00800           0
     42408 TIP3     6654     TIP3     H2       HT       0.417000       1.00800           0
     42409 TIP3     6655     TIP3     OH2      OT      -0.834000       15.9994           0
     42410 TIP3     6655     TIP3     H1       HT       0.417000       1.00800           0
     42411 TIP3     6655     TIP3     H2       HT       0.417000       1.00800           0
     42412 TIP3     6656     TIP3     OH2      OT      -0.834000       15.9994           0
     42413 TIP3     6656     TIP3     H1       HT       0.417000       1.00800           0
     42414 TIP3     6656     TIP3     H2       HT       0.417000       1.00800           0
     42415 TIP3     6657     TIP3     OH2      OT      -0.834000       15.9994           0
     42416 TIP3     6657     TIP3     H1       HT       0.417000       1.00800           0
     42417 TIP3     6657     TIP3     H2       HT       0.417000       1.00800           0
     42418 TIP3     6658     TIP3     OH2      OT      -0.834000       15.9994           0
     42419 TIP3     6658     TIP3     H1       HT       0.417000       1.00800           0
     42420 TIP3     6658     TIP3     H2       HT       0.417000       1.00800           0
     42421 TIP3     6659     TIP3     OH2      OT      -0.834000       15.9994           0
     42422 TIP3     6659     TIP3     H1       HT       0.417000       1.00800           0
     42423 TIP3     6659     TIP3     H2       HT       0.417000       1.00800           0
     42424 TIP3     6660     TIP3     OH2      OT      -0.834000       15.9994           0
     42425 TIP3     6660     TIP3     H1       HT       0.417000       1.00800           0
     42426 TIP3     6660     TIP3     H2       HT       0.417000       1.00800           0
     42427 TIP3     6661     TIP3     OH2      OT      -0.834000       15.9994           0
     42428 TIP3     6661     TIP3     H1       HT       0.417000       1.00800           0
     42429 TIP3     6661     TIP3     H2       HT       0.417000       1.00800           0
     42430 TIP3     6662     TIP3     OH2      OT      -0.834000       15.9994           0
     42431 TIP3     6662     TIP3     H1       HT       0.417000       1.00800           0
     42432 TIP3     6662     TIP3     H2       HT       0.417000       1.00800           0
     42433 TIP3     6663     TIP3     OH2      OT      -0.834000       15.9994           0
     42434 TIP3     6663     TIP3     H1       HT       0.417000       1.00800           0
     42435 TIP3     6663     TIP3     H2       HT       0.417000       1.00800           0
     42436 TIP3     6664     TIP3     OH2      OT      -0.834000       15.9994           0
     42437 TIP3     6664     TIP3     H1       HT       0.417000       1.00800           0
     42438 TIP3     6664     TIP3     H2       HT       0.417000       1.00800           0
     42439 TIP3     6665     TIP3     OH2      OT      -0.834000       15.9994           0
     42440 TIP3     6665     TIP3     H1       HT       0.417000       1.00800           0
     42441 TIP3     6665     TIP3     H2       HT       0.417000       1.00800           0
     42442 TIP3     6666     TIP3     OH2      OT      -0.834000       15.9994           0
     42443 TIP3     6666     TIP3     H1       HT       0.417000       1.00800           0
     42444 TIP3     6666     TIP3     H2       HT       0.417000       1.00800           0
     42445 TIP3     6667     TIP3     OH2      OT      -0.834000       15.9994           0
     42446 TIP3     6667     TIP3     H1       HT       0.417000       1.00800           0
     42447 TIP3     6667     TIP3     H2       HT       0.417000       1.00800           0
     42448 TIP3     6668     TIP3     OH2      OT      -0.834000       15.9994           0
     42449 TIP3     6668     TIP3     H1       HT       0.417000       1.00800           0
     42450 TIP3     6668     TIP3     H2       HT       0.417000       1.00800           0
     42451 TIP3     6669     TIP3     OH2      OT      -0.834000       15.9994           0
     42452 TIP3     6669     TIP3     H1       HT       0.417000       1.00800           0
     42453 TIP3     6669     TIP3     H2       HT       0.417000       1.00800           0
     42454 TIP3     6670     TIP3     OH2      OT      -0.834000       15.9994           0
     42455 TIP3     6670     TIP3     H1       HT       0.417000       1.00800           0
     42456 TIP3     6670     TIP3     H2       HT       0.417000       1.00800           0
     42457 TIP3     6671     TIP3     OH2      OT      -0.834000       15.9994           0
     42458 TIP3     6671     TIP3     H1       HT       0.417000       1.00800           0
     42459 TIP3     6671     TIP3     H2       HT       0.417000       1.00800           0
     42460 TIP3     6672     TIP3     OH2      OT      -0.834000       15.9994           0
     42461 TIP3     6672     TIP3     H1       HT       0.417000       1.00800           0
     42462 TIP3     6672     TIP3     H2       HT       0.417000       1.00800           0
     42463 TIP3     6673     TIP3     OH2      OT      -0.834000       15.9994           0
     42464 TIP3     6673     TIP3     H1       HT       0.417000       1.00800           0
     42465 TIP3     6673     TIP3     H2       HT       0.417000       1.00800           0
     42466 TIP3     6674     TIP3     OH2      OT      -0.834000       15.9994           0
     42467 TIP3     6674     TIP3     H1       HT       0.417000       1.00800           0
     42468 TIP3     6674     TIP3     H2       HT       0.417000       1.00800           0
     42469 TIP3     6675     TIP3     OH2      OT      -0.834000       15.9994           0
     42470 TIP3     6675     TIP3     H1       HT       0.417000       1.00800           0
     42471 TIP3     6675     TIP3     H2       HT       0.417000       1.00800           0
     42472 TIP3     6676     TIP3     OH2      OT      -0.834000       15.9994           0
     42473 TIP3     6676     TIP3     H1       HT       0.417000       1.00800           0
     42474 TIP3     6676     TIP3     H2       HT       0.417000       1.00800           0
     42475 TIP3     6677     TIP3     OH2      OT      -0.834000       15.9994           0
     42476 TIP3     6677     TIP3     H1       HT       0.417000       1.00800           0
     42477 TIP3     6677     TIP3     H2       HT       0.417000       1.00800           0
     42478 TIP3     6678     TIP3     OH2      OT      -0.834000       15.9994           0
     42479 TIP3     6678     TIP3     H1       HT       0.417000       1.00800           0
     42480 TIP3     6678     TIP3     H2       HT       0.417000       1.00800           0
     42481 TIP3     6679     TIP3     OH2      OT      -0.834000       15.9994           0
     42482 TIP3     6679     TIP3     H1       HT       0.417000       1.00800           0
     42483 TIP3     6679     TIP3     H2       HT       0.417000       1.00800           0
     42484 TIP3     6680     TIP3     OH2      OT      -0.834000       15.9994           0
     42485 TIP3     6680     TIP3     H1       HT       0.417000       1.00800           0
     42486 TIP3     6680     TIP3     H2       HT       0.417000       1.00800           0
     42487 TIP3     6681     TIP3     OH2      OT      -0.834000       15.9994           0
     42488 TIP3     6681     TIP3     H1       HT       0.417000       1.00800           0
     42489 TIP3     6681     TIP3     H2       HT       0.417000       1.00800           0
     42490 TIP3     6682     TIP3     OH2      OT      -0.834000       15.9994           0
     42491 TIP3     6682     TIP3     H1       HT       0.417000       1.00800           0
     42492 TIP3     6682     TIP3     H2       HT       0.417000       1.00800           0
     42493 TIP3     6683     TIP3     OH2      OT      -0.834000       15.9994           0
     42494 TIP3     6683     TIP3     H1       HT       0.417000       1.00800           0
     42495 TIP3     6683     TIP3     H2       HT       0.417000       1.00800           0
     42496 TIP3     6684     TIP3     OH2      OT      -0.834000       15.9994           0
     42497 TIP3     6684     TIP3     H1       HT       0.417000       1.00800           0
     42498 TIP3     6684     TIP3     H2       HT       0.417000       1.00800           0
     42499 TIP3     6685     TIP3     OH2      OT      -0.834000       15.9994           0
     42500 TIP3     6685     TIP3     H1       HT       0.417000       1.00800           0
     42501 TIP3     6685     TIP3     H2       HT       0.417000       1.00800           0
     42502 TIP3     6686     TIP3     OH2      OT      -0.834000       15.9994           0
     42503 TIP3     6686     TIP3     H1       HT       0.417000       1.00800           0
     42504 TIP3     6686     TIP3     H2       HT       0.417000       1.00800           0
     42505 TIP3     6687     TIP3     OH2      OT      -0.834000       15.9994           0
     42506 TIP3     6687     TIP3     H1       HT       0.417000       1.00800           0
     42507 TIP3     6687     TIP3     H2       HT       0.417000       1.00800           0
     42508 TIP3     6688     TIP3     OH2      OT      -0.834000       15.9994           0
     42509 TIP3     6688     TIP3     H1       HT       0.417000       1.00800           0
     42510 TIP3     6688     TIP3     H2       HT       0.417000       1.00800           0
     42511 TIP3     6689     TIP3     OH2      OT      -0.834000       15.9994           0
     42512 TIP3     6689     TIP3     H1       HT       0.417000       1.00800           0
     42513 TIP3     6689     TIP3     H2       HT       0.417000       1.00800           0
     42514 TIP3     6690     TIP3     OH2      OT      -0.834000       15.9994           0
     42515 TIP3     6690     TIP3     H1       HT       0.417000       1.00800           0
     42516 TIP3     6690     TIP3     H2       HT       0.417000       1.00800           0
     42517 TIP3     6691     TIP3     OH2      OT      -0.834000       15.9994           0
     42518 TIP3     6691     TIP3     H1       HT       0.417000       1.00800           0
     42519 TIP3     6691     TIP3     H2       HT       0.417000       1.00800           0
     42520 TIP3     6692     TIP3     OH2      OT      -0.834000       15.9994           0
     42521 TIP3     6692     TIP3     H1       HT       0.417000       1.00800           0
     42522 TIP3     6692     TIP3     H2       HT       0.417000       1.00800           0
     42523 TIP3     6693     TIP3     OH2      OT      -0.834000       15.9994           0
     42524 TIP3     6693     TIP3     H1       HT       0.417000       1.00800           0
     42525 TIP3     6693     TIP3     H2       HT       0.417000       1.00800           0
     42526 TIP3     6694     TIP3     OH2      OT      -0.834000       15.9994           0
     42527 TIP3     6694     TIP3     H1       HT       0.417000       1.00800           0
     42528 TIP3     6694     TIP3     H2       HT       0.417000       1.00800           0
     42529 TIP3     6695     TIP3     OH2      OT      -0.834000       15.9994           0
     42530 TIP3     6695     TIP3     H1       HT       0.417000       1.00800           0
     42531 TIP3     6695     TIP3     H2       HT       0.417000       1.00800           0
     42532 TIP3     6696     TIP3     OH2      OT      -0.834000       15.9994           0
     42533 TIP3     6696     TIP3     H1       HT       0.417000       1.00800           0
     42534 TIP3     6696     TIP3     H2       HT       0.417000       1.00800           0
     42535 TIP3     6697     TIP3     OH2      OT      -0.834000       15.9994           0
     42536 TIP3     6697     TIP3     H1       HT       0.417000       1.00800           0
     42537 TIP3     6697     TIP3     H2       HT       0.417000       1.00800           0
     42538 TIP3     6698     TIP3     OH2      OT      -0.834000       15.9994           0
     42539 TIP3     6698     TIP3     H1       HT       0.417000       1.00800           0
     42540 TIP3     6698     TIP3     H2       HT       0.417000       1.00800           0
     42541 TIP3     6699     TIP3     OH2      OT      -0.834000       15.9994           0
     42542 TIP3     6699     TIP3     H1       HT       0.417000       1.00800           0
     42543 TIP3     6699     TIP3     H2       HT       0.417000       1.00800           0
     42544 TIP3     6700     TIP3     OH2      OT      -0.834000       15.9994           0
     42545 TIP3     6700     TIP3     H1       HT       0.417000       1.00800           0
     42546 TIP3     6700     TIP3     H2       HT       0.417000       1.00800           0
     42547 TIP3     6701     TIP3     OH2      OT      -0.834000       15.9994           0
     42548 TIP3     6701     TIP3     H1       HT       0.417000       1.00800           0
     42549 TIP3     6701     TIP3     H2       HT       0.417000       1.00800           0
     42550 TIP3     6702     TIP3     OH2      OT      -0.834000       15.9994           0
     42551 TIP3     6702     TIP3     H1       HT       0.417000       1.00800           0
     42552 TIP3     6702     TIP3     H2       HT       0.417000       1.00800           0
     42553 TIP3     6703     TIP3     OH2      OT      -0.834000       15.9994           0
     42554 TIP3     6703     TIP3     H1       HT       0.417000       1.00800           0
     42555 TIP3     6703     TIP3     H2       HT       0.417000       1.00800           0
     42556 TIP3     6704     TIP3     OH2      OT      -0.834000       15.9994           0
     42557 TIP3     6704     TIP3     H1       HT       0.417000       1.00800           0
     42558 TIP3     6704     TIP3     H2       HT       0.417000       1.00800           0
     42559 TIP3     6705     TIP3     OH2      OT      -0.834000       15.9994           0
     42560 TIP3     6705     TIP3     H1       HT       0.417000       1.00800           0
     42561 TIP3     6705     TIP3     H2       HT       0.417000       1.00800           0
     42562 TIP3     6706     TIP3     OH2      OT      -0.834000       15.9994           0
     42563 TIP3     6706     TIP3     H1       HT       0.417000       1.00800           0
     42564 TIP3     6706     TIP3     H2       HT       0.417000       1.00800           0
     42565 TIP3     6707     TIP3     OH2      OT      -0.834000       15.9994           0
     42566 TIP3     6707     TIP3     H1       HT       0.417000       1.00800           0
     42567 TIP3     6707     TIP3     H2       HT       0.417000       1.00800           0
     42568 TIP3     6708     TIP3     OH2      OT      -0.834000       15.9994           0
     42569 TIP3     6708     TIP3     H1       HT       0.417000       1.00800           0
     42570 TIP3     6708     TIP3     H2       HT       0.417000       1.00800           0
     42571 TIP3     6709     TIP3     OH2      OT      -0.834000       15.9994           0
     42572 TIP3     6709     TIP3     H1       HT       0.417000       1.00800           0
     42573 TIP3     6709     TIP3     H2       HT       0.417000       1.00800           0
     42574 TIP3     6710     TIP3     OH2      OT      -0.834000       15.9994           0
     42575 TIP3     6710     TIP3     H1       HT       0.417000       1.00800           0
     42576 TIP3     6710     TIP3     H2       HT       0.417000       1.00800           0
     42577 TIP3     6711     TIP3     OH2      OT      -0.834000       15.9994           0
     42578 TIP3     6711     TIP3     H1       HT       0.417000       1.00800           0
     42579 TIP3     6711     TIP3     H2       HT       0.417000       1.00800           0
     42580 TIP3     6712     TIP3     OH2      OT      -0.834000       15.9994           0
     42581 TIP3     6712     TIP3     H1       HT       0.417000       1.00800           0
     42582 TIP3     6712     TIP3     H2       HT       0.417000       1.00800           0
     42583 TIP3     6713     TIP3     OH2      OT      -0.834000       15.9994           0
     42584 TIP3     6713     TIP3     H1       HT       0.417000       1.00800           0
     42585 TIP3     6713     TIP3     H2       HT       0.417000       1.00800           0
     42586 TIP3     6714     TIP3     OH2      OT      -0.834000       15.9994           0
     42587 TIP3     6714     TIP3     H1       HT       0.417000       1.00800           0
     42588 TIP3     6714     TIP3     H2       HT       0.417000       1.00800           0
     42589 TIP3     6715     TIP3     OH2      OT      -0.834000       15.9994           0
     42590 TIP3     6715     TIP3     H1       HT       0.417000       1.00800           0
     42591 TIP3     6715     TIP3     H2       HT       0.417000       1.00800           0
     42592 TIP3     6716     TIP3     OH2      OT      -0.834000       15.9994           0
     42593 TIP3     6716     TIP3     H1       HT       0.417000       1.00800           0
     42594 TIP3     6716     TIP3     H2       HT       0.417000       1.00800           0
     42595 TIP3     6717     TIP3     OH2      OT      -0.834000       15.9994           0
     42596 TIP3     6717     TIP3     H1       HT       0.417000       1.00800           0
     42597 TIP3     6717     TIP3     H2       HT       0.417000       1.00800           0
     42598 TIP3     6718     TIP3     OH2      OT      -0.834000       15.9994           0
     42599 TIP3     6718     TIP3     H1       HT       0.417000       1.00800           0
     42600 TIP3     6718     TIP3     H2       HT       0.417000       1.00800           0
     42601 TIP3     6719     TIP3     OH2      OT      -0.834000       15.9994           0
     42602 TIP3     6719     TIP3     H1       HT       0.417000       1.00800           0
     42603 TIP3     6719     TIP3     H2       HT       0.417000       1.00800           0
     42604 TIP3     6720     TIP3     OH2      OT      -0.834000       15.9994           0
     42605 TIP3     6720     TIP3     H1       HT       0.417000       1.00800           0
     42606 TIP3     6720     TIP3     H2       HT       0.417000       1.00800           0
     42607 TIP3     6721     TIP3     OH2      OT      -0.834000       15.9994           0
     42608 TIP3     6721     TIP3     H1       HT       0.417000       1.00800           0
     42609 TIP3     6721     TIP3     H2       HT       0.417000       1.00800           0
     42610 TIP3     6722     TIP3     OH2      OT      -0.834000       15.9994           0
     42611 TIP3     6722     TIP3     H1       HT       0.417000       1.00800           0
     42612 TIP3     6722     TIP3     H2       HT       0.417000       1.00800           0
     42613 TIP3     6723     TIP3     OH2      OT      -0.834000       15.9994           0
     42614 TIP3     6723     TIP3     H1       HT       0.417000       1.00800           0
     42615 TIP3     6723     TIP3     H2       HT       0.417000       1.00800           0
     42616 TIP3     6724     TIP3     OH2      OT      -0.834000       15.9994           0
     42617 TIP3     6724     TIP3     H1       HT       0.417000       1.00800           0
     42618 TIP3     6724     TIP3     H2       HT       0.417000       1.00800           0
     42619 TIP3     6725     TIP3     OH2      OT      -0.834000       15.9994           0
     42620 TIP3     6725     TIP3     H1       HT       0.417000       1.00800           0
     42621 TIP3     6725     TIP3     H2       HT       0.417000       1.00800           0
     42622 TIP3     6726     TIP3     OH2      OT      -0.834000       15.9994           0
     42623 TIP3     6726     TIP3     H1       HT       0.417000       1.00800           0
     42624 TIP3     6726     TIP3     H2       HT       0.417000       1.00800           0
     42625 TIP3     6727     TIP3     OH2      OT      -0.834000       15.9994           0
     42626 TIP3     6727     TIP3     H1       HT       0.417000       1.00800           0
     42627 TIP3     6727     TIP3     H2       HT       0.417000       1.00800           0
     42628 TIP3     6728     TIP3     OH2      OT      -0.834000       15.9994           0
     42629 TIP3     6728     TIP3     H1       HT       0.417000       1.00800           0
     42630 TIP3     6728     TIP3     H2       HT       0.417000       1.00800           0
     42631 TIP3     6729     TIP3     OH2      OT      -0.834000       15.9994           0
     42632 TIP3     6729     TIP3     H1       HT       0.417000       1.00800           0
     42633 TIP3     6729     TIP3     H2       HT       0.417000       1.00800           0
     42634 TIP3     6730     TIP3     OH2      OT      -0.834000       15.9994           0
     42635 TIP3     6730     TIP3     H1       HT       0.417000       1.00800           0
     42636 TIP3     6730     TIP3     H2       HT       0.417000       1.00800           0
     42637 TIP3     6731     TIP3     OH2      OT      -0.834000       15.9994           0
     42638 TIP3     6731     TIP3     H1       HT       0.417000       1.00800           0
     42639 TIP3     6731     TIP3     H2       HT       0.417000       1.00800           0
     42640 TIP3     6732     TIP3     OH2      OT      -0.834000       15.9994           0
     42641 TIP3     6732     TIP3     H1       HT       0.417000       1.00800           0
     42642 TIP3     6732     TIP3     H2       HT       0.417000       1.00800           0
     42643 TIP3     6733     TIP3     OH2      OT      -0.834000       15.9994           0
     42644 TIP3     6733     TIP3     H1       HT       0.417000       1.00800           0
     42645 TIP3     6733     TIP3     H2       HT       0.417000       1.00800           0
     42646 TIP3     6734     TIP3     OH2      OT      -0.834000       15.9994           0
     42647 TIP3     6734     TIP3     H1       HT       0.417000       1.00800           0
     42648 TIP3     6734     TIP3     H2       HT       0.417000       1.00800           0
     42649 TIP3     6735     TIP3     OH2      OT      -0.834000       15.9994           0
     42650 TIP3     6735     TIP3     H1       HT       0.417000       1.00800           0
     42651 TIP3     6735     TIP3     H2       HT       0.417000       1.00800           0
     42652 TIP3     6736     TIP3     OH2      OT      -0.834000       15.9994           0
     42653 TIP3     6736     TIP3     H1       HT       0.417000       1.00800           0
     42654 TIP3     6736     TIP3     H2       HT       0.417000       1.00800           0
     42655 TIP3     6737     TIP3     OH2      OT      -0.834000       15.9994           0
     42656 TIP3     6737     TIP3     H1       HT       0.417000       1.00800           0
     42657 TIP3     6737     TIP3     H2       HT       0.417000       1.00800           0
     42658 TIP3     6738     TIP3     OH2      OT      -0.834000       15.9994           0
     42659 TIP3     6738     TIP3     H1       HT       0.417000       1.00800           0
     42660 TIP3     6738     TIP3     H2       HT       0.417000       1.00800           0
     42661 TIP3     6739     TIP3     OH2      OT      -0.834000       15.9994           0
     42662 TIP3     6739     TIP3     H1       HT       0.417000       1.00800           0
     42663 TIP3     6739     TIP3     H2       HT       0.417000       1.00800           0
     42664 TIP3     6740     TIP3     OH2      OT      -0.834000       15.9994           0
     42665 TIP3     6740     TIP3     H1       HT       0.417000       1.00800           0
     42666 TIP3     6740     TIP3     H2       HT       0.417000       1.00800           0
     42667 TIP3     6741     TIP3     OH2      OT      -0.834000       15.9994           0
     42668 TIP3     6741     TIP3     H1       HT       0.417000       1.00800           0
     42669 TIP3     6741     TIP3     H2       HT       0.417000       1.00800           0
     42670 TIP3     6742     TIP3     OH2      OT      -0.834000       15.9994           0
     42671 TIP3     6742     TIP3     H1       HT       0.417000       1.00800           0
     42672 TIP3     6742     TIP3     H2       HT       0.417000       1.00800           0
     42673 TIP3     6743     TIP3     OH2      OT      -0.834000       15.9994           0
     42674 TIP3     6743     TIP3     H1       HT       0.417000       1.00800           0
     42675 TIP3     6743     TIP3     H2       HT       0.417000       1.00800           0
     42676 TIP3     6744     TIP3     OH2      OT      -0.834000       15.9994           0
     42677 TIP3     6744     TIP3     H1       HT       0.417000       1.00800           0
     42678 TIP3     6744     TIP3     H2       HT       0.417000       1.00800           0
     42679 TIP3     6745     TIP3     OH2      OT      -0.834000       15.9994           0
     42680 TIP3     6745     TIP3     H1       HT       0.417000       1.00800           0
     42681 TIP3     6745     TIP3     H2       HT       0.417000       1.00800           0
     42682 TIP3     6746     TIP3     OH2      OT      -0.834000       15.9994           0
     42683 TIP3     6746     TIP3     H1       HT       0.417000       1.00800           0
     42684 TIP3     6746     TIP3     H2       HT       0.417000       1.00800           0
     42685 TIP3     6747     TIP3     OH2      OT      -0.834000       15.9994           0
     42686 TIP3     6747     TIP3     H1       HT       0.417000       1.00800           0
     42687 TIP3     6747     TIP3     H2       HT       0.417000       1.00800           0
     42688 TIP3     6748     TIP3     OH2      OT      -0.834000       15.9994           0
     42689 TIP3     6748     TIP3     H1       HT       0.417000       1.00800           0
     42690 TIP3     6748     TIP3     H2       HT       0.417000       1.00800           0
     42691 TIP3     6749     TIP3     OH2      OT      -0.834000       15.9994           0
     42692 TIP3     6749     TIP3     H1       HT       0.417000       1.00800           0
     42693 TIP3     6749     TIP3     H2       HT       0.417000       1.00800           0
     42694 TIP3     6750     TIP3     OH2      OT      -0.834000       15.9994           0
     42695 TIP3     6750     TIP3     H1       HT       0.417000       1.00800           0
     42696 TIP3     6750     TIP3     H2       HT       0.417000       1.00800           0
     42697 TIP3     6751     TIP3     OH2      OT      -0.834000       15.9994           0
     42698 TIP3     6751     TIP3     H1       HT       0.417000       1.00800           0
     42699 TIP3     6751     TIP3     H2       HT       0.417000       1.00800           0
     42700 TIP3     6752     TIP3     OH2      OT      -0.834000       15.9994           0
     42701 TIP3     6752     TIP3     H1       HT       0.417000       1.00800           0
     42702 TIP3     6752     TIP3     H2       HT       0.417000       1.00800           0
     42703 TIP3     6753     TIP3     OH2      OT      -0.834000       15.9994           0
     42704 TIP3     6753     TIP3     H1       HT       0.417000       1.00800           0
     42705 TIP3     6753     TIP3     H2       HT       0.417000       1.00800           0
     42706 TIP3     6754     TIP3     OH2      OT      -0.834000       15.9994           0
     42707 TIP3     6754     TIP3     H1       HT       0.417000       1.00800           0
     42708 TIP3     6754     TIP3     H2       HT       0.417000       1.00800           0
     42709 TIP3     6755     TIP3     OH2      OT      -0.834000       15.9994           0
     42710 TIP3     6755     TIP3     H1       HT       0.417000       1.00800           0
     42711 TIP3     6755     TIP3     H2       HT       0.417000       1.00800           0
     42712 TIP3     6756     TIP3     OH2      OT      -0.834000       15.9994           0
     42713 TIP3     6756     TIP3     H1       HT       0.417000       1.00800           0
     42714 TIP3     6756     TIP3     H2       HT       0.417000       1.00800           0
     42715 TIP3     6757     TIP3     OH2      OT      -0.834000       15.9994           0
     42716 TIP3     6757     TIP3     H1       HT       0.417000       1.00800           0
     42717 TIP3     6757     TIP3     H2       HT       0.417000       1.00800           0
     42718 TIP3     6758     TIP3     OH2      OT      -0.834000       15.9994           0
     42719 TIP3     6758     TIP3     H1       HT       0.417000       1.00800           0
     42720 TIP3     6758     TIP3     H2       HT       0.417000       1.00800           0
     42721 TIP3     6759     TIP3     OH2      OT      -0.834000       15.9994           0
     42722 TIP3     6759     TIP3     H1       HT       0.417000       1.00800           0
     42723 TIP3     6759     TIP3     H2       HT       0.417000       1.00800           0
     42724 TIP3     6760     TIP3     OH2      OT      -0.834000       15.9994           0
     42725 TIP3     6760     TIP3     H1       HT       0.417000       1.00800           0
     42726 TIP3     6760     TIP3     H2       HT       0.417000       1.00800           0
     42727 TIP3     6761     TIP3     OH2      OT      -0.834000       15.9994           0
     42728 TIP3     6761     TIP3     H1       HT       0.417000       1.00800           0
     42729 TIP3     6761     TIP3     H2       HT       0.417000       1.00800           0
     42730 TIP3     6762     TIP3     OH2      OT      -0.834000       15.9994           0
     42731 TIP3     6762     TIP3     H1       HT       0.417000       1.00800           0
     42732 TIP3     6762     TIP3     H2       HT       0.417000       1.00800           0
     42733 TIP3     6763     TIP3     OH2      OT      -0.834000       15.9994           0
     42734 TIP3     6763     TIP3     H1       HT       0.417000       1.00800           0
     42735 TIP3     6763     TIP3     H2       HT       0.417000       1.00800           0
     42736 TIP3     6764     TIP3     OH2      OT      -0.834000       15.9994           0
     42737 TIP3     6764     TIP3     H1       HT       0.417000       1.00800           0
     42738 TIP3     6764     TIP3     H2       HT       0.417000       1.00800           0
     42739 TIP3     6765     TIP3     OH2      OT      -0.834000       15.9994           0
     42740 TIP3     6765     TIP3     H1       HT       0.417000       1.00800           0
     42741 TIP3     6765     TIP3     H2       HT       0.417000       1.00800           0
     42742 TIP3     6766     TIP3     OH2      OT      -0.834000       15.9994           0
     42743 TIP3     6766     TIP3     H1       HT       0.417000       1.00800           0
     42744 TIP3     6766     TIP3     H2       HT       0.417000       1.00800           0
     42745 TIP3     6767     TIP3     OH2      OT      -0.834000       15.9994           0
     42746 TIP3     6767     TIP3     H1       HT       0.417000       1.00800           0
     42747 TIP3     6767     TIP3     H2       HT       0.417000       1.00800           0
     42748 TIP3     6768     TIP3     OH2      OT      -0.834000       15.9994           0
     42749 TIP3     6768     TIP3     H1       HT       0.417000       1.00800           0
     42750 TIP3     6768     TIP3     H2       HT       0.417000       1.00800           0
     42751 TIP3     6769     TIP3     OH2      OT      -0.834000       15.9994           0
     42752 TIP3     6769     TIP3     H1       HT       0.417000       1.00800           0
     42753 TIP3     6769     TIP3     H2       HT       0.417000       1.00800           0
     42754 TIP3     6770     TIP3     OH2      OT      -0.834000       15.9994           0
     42755 TIP3     6770     TIP3     H1       HT       0.417000       1.00800           0
     42756 TIP3     6770     TIP3     H2       HT       0.417000       1.00800           0
     42757 TIP3     6771     TIP3     OH2      OT      -0.834000       15.9994           0
     42758 TIP3     6771     TIP3     H1       HT       0.417000       1.00800           0
     42759 TIP3     6771     TIP3     H2       HT       0.417000       1.00800           0
     42760 TIP3     6772     TIP3     OH2      OT      -0.834000       15.9994           0
     42761 TIP3     6772     TIP3     H1       HT       0.417000       1.00800           0
     42762 TIP3     6772     TIP3     H2       HT       0.417000       1.00800           0
     42763 TIP3     6773     TIP3     OH2      OT      -0.834000       15.9994           0
     42764 TIP3     6773     TIP3     H1       HT       0.417000       1.00800           0
     42765 TIP3     6773     TIP3     H2       HT       0.417000       1.00800           0
     42766 TIP3     6774     TIP3     OH2      OT      -0.834000       15.9994           0
     42767 TIP3     6774     TIP3     H1       HT       0.417000       1.00800           0
     42768 TIP3     6774     TIP3     H2       HT       0.417000       1.00800           0
     42769 TIP3     6775     TIP3     OH2      OT      -0.834000       15.9994           0
     42770 TIP3     6775     TIP3     H1       HT       0.417000       1.00800           0
     42771 TIP3     6775     TIP3     H2       HT       0.417000       1.00800           0
     42772 TIP3     6776     TIP3     OH2      OT      -0.834000       15.9994           0
     42773 TIP3     6776     TIP3     H1       HT       0.417000       1.00800           0
     42774 TIP3     6776     TIP3     H2       HT       0.417000       1.00800           0
     42775 TIP3     6777     TIP3     OH2      OT      -0.834000       15.9994           0
     42776 TIP3     6777     TIP3     H1       HT       0.417000       1.00800           0
     42777 TIP3     6777     TIP3     H2       HT       0.417000       1.00800           0
     42778 TIP3     6778     TIP3     OH2      OT      -0.834000       15.9994           0
     42779 TIP3     6778     TIP3     H1       HT       0.417000       1.00800           0
     42780 TIP3     6778     TIP3     H2       HT       0.417000       1.00800           0
     42781 TIP3     6779     TIP3     OH2      OT      -0.834000       15.9994           0
     42782 TIP3     6779     TIP3     H1       HT       0.417000       1.00800           0
     42783 TIP3     6779     TIP3     H2       HT       0.417000       1.00800           0
     42784 TIP3     6780     TIP3     OH2      OT      -0.834000       15.9994           0
     42785 TIP3     6780     TIP3     H1       HT       0.417000       1.00800           0
     42786 TIP3     6780     TIP3     H2       HT       0.417000       1.00800           0
     42787 TIP3     6781     TIP3     OH2      OT      -0.834000       15.9994           0
     42788 TIP3     6781     TIP3     H1       HT       0.417000       1.00800           0
     42789 TIP3     6781     TIP3     H2       HT       0.417000       1.00800           0
     42790 TIP3     6782     TIP3     OH2      OT      -0.834000       15.9994           0
     42791 TIP3     6782     TIP3     H1       HT       0.417000       1.00800           0
     42792 TIP3     6782     TIP3     H2       HT       0.417000       1.00800           0
     42793 TIP3     6783     TIP3     OH2      OT      -0.834000       15.9994           0
     42794 TIP3     6783     TIP3     H1       HT       0.417000       1.00800           0
     42795 TIP3     6783     TIP3     H2       HT       0.417000       1.00800           0
     42796 TIP3     6784     TIP3     OH2      OT      -0.834000       15.9994           0
     42797 TIP3     6784     TIP3     H1       HT       0.417000       1.00800           0
     42798 TIP3     6784     TIP3     H2       HT       0.417000       1.00800           0
     42799 TIP3     6785     TIP3     OH2      OT      -0.834000       15.9994           0
     42800 TIP3     6785     TIP3     H1       HT       0.417000       1.00800           0
     42801 TIP3     6785     TIP3     H2       HT       0.417000       1.00800           0
     42802 TIP3     6786     TIP3     OH2      OT      -0.834000       15.9994           0
     42803 TIP3     6786     TIP3     H1       HT       0.417000       1.00800           0
     42804 TIP3     6786     TIP3     H2       HT       0.417000       1.00800           0
     42805 TIP3     6787     TIP3     OH2      OT      -0.834000       15.9994           0
     42806 TIP3     6787     TIP3     H1       HT       0.417000       1.00800           0
     42807 TIP3     6787     TIP3     H2       HT       0.417000       1.00800           0
     42808 TIP3     6788     TIP3     OH2      OT      -0.834000       15.9994           0
     42809 TIP3     6788     TIP3     H1       HT       0.417000       1.00800           0
     42810 TIP3     6788     TIP3     H2       HT       0.417000       1.00800           0
     42811 TIP3     6789     TIP3     OH2      OT      -0.834000       15.9994           0
     42812 TIP3     6789     TIP3     H1       HT       0.417000       1.00800           0
     42813 TIP3     6789     TIP3     H2       HT       0.417000       1.00800           0
     42814 TIP3     6790     TIP3     OH2      OT      -0.834000       15.9994           0
     42815 TIP3     6790     TIP3     H1       HT       0.417000       1.00800           0
     42816 TIP3     6790     TIP3     H2       HT       0.417000       1.00800           0
     42817 TIP3     6791     TIP3     OH2      OT      -0.834000       15.9994           0
     42818 TIP3     6791     TIP3     H1       HT       0.417000       1.00800           0
     42819 TIP3     6791     TIP3     H2       HT       0.417000       1.00800           0
     42820 TIP3     6792     TIP3     OH2      OT      -0.834000       15.9994           0
     42821 TIP3     6792     TIP3     H1       HT       0.417000       1.00800           0
     42822 TIP3     6792     TIP3     H2       HT       0.417000       1.00800           0
     42823 TIP3     6793     TIP3     OH2      OT      -0.834000       15.9994           0
     42824 TIP3     6793     TIP3     H1       HT       0.417000       1.00800           0
     42825 TIP3     6793     TIP3     H2       HT       0.417000       1.00800           0
     42826 TIP3     6794     TIP3     OH2      OT      -0.834000       15.9994           0
     42827 TIP3     6794     TIP3     H1       HT       0.417000       1.00800           0
     42828 TIP3     6794     TIP3     H2       HT       0.417000       1.00800           0
     42829 TIP3     6795     TIP3     OH2      OT      -0.834000       15.9994           0
     42830 TIP3     6795     TIP3     H1       HT       0.417000       1.00800           0
     42831 TIP3     6795     TIP3     H2       HT       0.417000       1.00800           0
     42832 TIP3     6796     TIP3     OH2      OT      -0.834000       15.9994           0
     42833 TIP3     6796     TIP3     H1       HT       0.417000       1.00800           0
     42834 TIP3     6796     TIP3     H2       HT       0.417000       1.00800           0
     42835 TIP3     6797     TIP3     OH2      OT      -0.834000       15.9994           0
     42836 TIP3     6797     TIP3     H1       HT       0.417000       1.00800           0
     42837 TIP3     6797     TIP3     H2       HT       0.417000       1.00800           0
     42838 TIP3     6798     TIP3     OH2      OT      -0.834000       15.9994           0
     42839 TIP3     6798     TIP3     H1       HT       0.417000       1.00800           0
     42840 TIP3     6798     TIP3     H2       HT       0.417000       1.00800           0
     42841 TIP3     6799     TIP3     OH2      OT      -0.834000       15.9994           0
     42842 TIP3     6799     TIP3     H1       HT       0.417000       1.00800           0
     42843 TIP3     6799     TIP3     H2       HT       0.417000       1.00800           0
     42844 TIP3     6800     TIP3     OH2      OT      -0.834000       15.9994           0
     42845 TIP3     6800     TIP3     H1       HT       0.417000       1.00800           0
     42846 TIP3     6800     TIP3     H2       HT       0.417000       1.00800           0
     42847 TIP3     6801     TIP3     OH2      OT      -0.834000       15.9994           0
     42848 TIP3     6801     TIP3     H1       HT       0.417000       1.00800           0
     42849 TIP3     6801     TIP3     H2       HT       0.417000       1.00800           0
     42850 TIP3     6802     TIP3     OH2      OT      -0.834000       15.9994           0
     42851 TIP3     6802     TIP3     H1       HT       0.417000       1.00800           0
     42852 TIP3     6802     TIP3     H2       HT       0.417000       1.00800           0
     42853 TIP3     6803     TIP3     OH2      OT      -0.834000       15.9994           0
     42854 TIP3     6803     TIP3     H1       HT       0.417000       1.00800           0
     42855 TIP3     6803     TIP3     H2       HT       0.417000       1.00800           0
     42856 TIP3     6804     TIP3     OH2      OT      -0.834000       15.9994           0
     42857 TIP3     6804     TIP3     H1       HT       0.417000       1.00800           0
     42858 TIP3     6804     TIP3     H2       HT       0.417000       1.00800           0
     42859 TIP3     6805     TIP3     OH2      OT      -0.834000       15.9994           0
     42860 TIP3     6805     TIP3     H1       HT       0.417000       1.00800           0
     42861 TIP3     6805     TIP3     H2       HT       0.417000       1.00800           0
     42862 TIP3     6806     TIP3     OH2      OT      -0.834000       15.9994           0
     42863 TIP3     6806     TIP3     H1       HT       0.417000       1.00800           0
     42864 TIP3     6806     TIP3     H2       HT       0.417000       1.00800           0
     42865 TIP3     6807     TIP3     OH2      OT      -0.834000       15.9994           0
     42866 TIP3     6807     TIP3     H1       HT       0.417000       1.00800           0
     42867 TIP3     6807     TIP3     H2       HT       0.417000       1.00800           0
     42868 TIP3     6808     TIP3     OH2      OT      -0.834000       15.9994           0
     42869 TIP3     6808     TIP3     H1       HT       0.417000       1.00800           0
     42870 TIP3     6808     TIP3     H2       HT       0.417000       1.00800           0
     42871 TIP3     6809     TIP3     OH2      OT      -0.834000       15.9994           0
     42872 TIP3     6809     TIP3     H1       HT       0.417000       1.00800           0
     42873 TIP3     6809     TIP3     H2       HT       0.417000       1.00800           0
     42874 TIP3     6810     TIP3     OH2      OT      -0.834000       15.9994           0
     42875 TIP3     6810     TIP3     H1       HT       0.417000       1.00800           0
     42876 TIP3     6810     TIP3     H2       HT       0.417000       1.00800           0
     42877 TIP3     6811     TIP3     OH2      OT      -0.834000       15.9994           0
     42878 TIP3     6811     TIP3     H1       HT       0.417000       1.00800           0
     42879 TIP3     6811     TIP3     H2       HT       0.417000       1.00800           0
     42880 TIP3     6812     TIP3     OH2      OT      -0.834000       15.9994           0
     42881 TIP3     6812     TIP3     H1       HT       0.417000       1.00800           0
     42882 TIP3     6812     TIP3     H2       HT       0.417000       1.00800           0
     42883 TIP3     6813     TIP3     OH2      OT      -0.834000       15.9994           0
     42884 TIP3     6813     TIP3     H1       HT       0.417000       1.00800           0
     42885 TIP3     6813     TIP3     H2       HT       0.417000       1.00800           0
     42886 TIP3     6814     TIP3     OH2      OT      -0.834000       15.9994           0
     42887 TIP3     6814     TIP3     H1       HT       0.417000       1.00800           0
     42888 TIP3     6814     TIP3     H2       HT       0.417000       1.00800           0
     42889 TIP3     6815     TIP3     OH2      OT      -0.834000       15.9994           0
     42890 TIP3     6815     TIP3     H1       HT       0.417000       1.00800           0
     42891 TIP3     6815     TIP3     H2       HT       0.417000       1.00800           0
     42892 TIP3     6816     TIP3     OH2      OT      -0.834000       15.9994           0
     42893 TIP3     6816     TIP3     H1       HT       0.417000       1.00800           0
     42894 TIP3     6816     TIP3     H2       HT       0.417000       1.00800           0
     42895 TIP3     6817     TIP3     OH2      OT      -0.834000       15.9994           0
     42896 TIP3     6817     TIP3     H1       HT       0.417000       1.00800           0
     42897 TIP3     6817     TIP3     H2       HT       0.417000       1.00800           0
     42898 TIP3     6818     TIP3     OH2      OT      -0.834000       15.9994           0
     42899 TIP3     6818     TIP3     H1       HT       0.417000       1.00800           0
     42900 TIP3     6818     TIP3     H2       HT       0.417000       1.00800           0
     42901 TIP3     6819     TIP3     OH2      OT      -0.834000       15.9994           0
     42902 TIP3     6819     TIP3     H1       HT       0.417000       1.00800           0
     42903 TIP3     6819     TIP3     H2       HT       0.417000       1.00800           0
     42904 TIP3     6820     TIP3     OH2      OT      -0.834000       15.9994           0
     42905 TIP3     6820     TIP3     H1       HT       0.417000       1.00800           0
     42906 TIP3     6820     TIP3     H2       HT       0.417000       1.00800           0
     42907 TIP3     6821     TIP3     OH2      OT      -0.834000       15.9994           0
     42908 TIP3     6821     TIP3     H1       HT       0.417000       1.00800           0
     42909 TIP3     6821     TIP3     H2       HT       0.417000       1.00800           0
     42910 TIP3     6822     TIP3     OH2      OT      -0.834000       15.9994           0
     42911 TIP3     6822     TIP3     H1       HT       0.417000       1.00800           0
     42912 TIP3     6822     TIP3     H2       HT       0.417000       1.00800           0
     42913 TIP3     6823     TIP3     OH2      OT      -0.834000       15.9994           0
     42914 TIP3     6823     TIP3     H1       HT       0.417000       1.00800           0
     42915 TIP3     6823     TIP3     H2       HT       0.417000       1.00800           0
     42916 TIP3     6824     TIP3     OH2      OT      -0.834000       15.9994           0
     42917 TIP3     6824     TIP3     H1       HT       0.417000       1.00800           0
     42918 TIP3     6824     TIP3     H2       HT       0.417000       1.00800           0
     42919 TIP3     6825     TIP3     OH2      OT      -0.834000       15.9994           0
     42920 TIP3     6825     TIP3     H1       HT       0.417000       1.00800           0
     42921 TIP3     6825     TIP3     H2       HT       0.417000       1.00800           0
     42922 TIP3     6826     TIP3     OH2      OT      -0.834000       15.9994           0
     42923 TIP3     6826     TIP3     H1       HT       0.417000       1.00800           0
     42924 TIP3     6826     TIP3     H2       HT       0.417000       1.00800           0
     42925 TIP3     6827     TIP3     OH2      OT      -0.834000       15.9994           0
     42926 TIP3     6827     TIP3     H1       HT       0.417000       1.00800           0
     42927 TIP3     6827     TIP3     H2       HT       0.417000       1.00800           0
     42928 TIP3     6828     TIP3     OH2      OT      -0.834000       15.9994           0
     42929 TIP3     6828     TIP3     H1       HT       0.417000       1.00800           0
     42930 TIP3     6828     TIP3     H2       HT       0.417000       1.00800           0
     42931 TIP3     6829     TIP3     OH2      OT      -0.834000       15.9994           0
     42932 TIP3     6829     TIP3     H1       HT       0.417000       1.00800           0
     42933 TIP3     6829     TIP3     H2       HT       0.417000       1.00800           0
     42934 TIP3     6830     TIP3     OH2      OT      -0.834000       15.9994           0
     42935 TIP3     6830     TIP3     H1       HT       0.417000       1.00800           0
     42936 TIP3     6830     TIP3     H2       HT       0.417000       1.00800           0
     42937 TIP3     6831     TIP3     OH2      OT      -0.834000       15.9994           0
     42938 TIP3     6831     TIP3     H1       HT       0.417000       1.00800           0
     42939 TIP3     6831     TIP3     H2       HT       0.417000       1.00800           0
     42940 TIP3     6832     TIP3     OH2      OT      -0.834000       15.9994           0
     42941 TIP3     6832     TIP3     H1       HT       0.417000       1.00800           0
     42942 TIP3     6832     TIP3     H2       HT       0.417000       1.00800           0
     42943 TIP3     6833     TIP3     OH2      OT      -0.834000       15.9994           0
     42944 TIP3     6833     TIP3     H1       HT       0.417000       1.00800           0
     42945 TIP3     6833     TIP3     H2       HT       0.417000       1.00800           0
     42946 TIP3     6834     TIP3     OH2      OT      -0.834000       15.9994           0
     42947 TIP3     6834     TIP3     H1       HT       0.417000       1.00800           0
     42948 TIP3     6834     TIP3     H2       HT       0.417000       1.00800           0
     42949 TIP3     6835     TIP3     OH2      OT      -0.834000       15.9994           0
     42950 TIP3     6835     TIP3     H1       HT       0.417000       1.00800           0
     42951 TIP3     6835     TIP3     H2       HT       0.417000       1.00800           0
     42952 TIP3     6836     TIP3     OH2      OT      -0.834000       15.9994           0
     42953 TIP3     6836     TIP3     H1       HT       0.417000       1.00800           0
     42954 TIP3     6836     TIP3     H2       HT       0.417000       1.00800           0
     42955 TIP3     6837     TIP3     OH2      OT      -0.834000       15.9994           0
     42956 TIP3     6837     TIP3     H1       HT       0.417000       1.00800           0
     42957 TIP3     6837     TIP3     H2       HT       0.417000       1.00800           0
     42958 TIP3     6838     TIP3     OH2      OT      -0.834000       15.9994           0
     42959 TIP3     6838     TIP3     H1       HT       0.417000       1.00800           0
     42960 TIP3     6838     TIP3     H2       HT       0.417000       1.00800           0
     42961 TIP3     6839     TIP3     OH2      OT      -0.834000       15.9994           0
     42962 TIP3     6839     TIP3     H1       HT       0.417000       1.00800           0
     42963 TIP3     6839     TIP3     H2       HT       0.417000       1.00800           0
     42964 TIP3     6840     TIP3     OH2      OT      -0.834000       15.9994           0
     42965 TIP3     6840     TIP3     H1       HT       0.417000       1.00800           0
     42966 TIP3     6840     TIP3     H2       HT       0.417000       1.00800           0
     42967 TIP3     6841     TIP3     OH2      OT      -0.834000       15.9994           0
     42968 TIP3     6841     TIP3     H1       HT       0.417000       1.00800           0
     42969 TIP3     6841     TIP3     H2       HT       0.417000       1.00800           0
     42970 TIP3     6842     TIP3     OH2      OT      -0.834000       15.9994           0
     42971 TIP3     6842     TIP3     H1       HT       0.417000       1.00800           0
     42972 TIP3     6842     TIP3     H2       HT       0.417000       1.00800           0
     42973 TIP3     6843     TIP3     OH2      OT      -0.834000       15.9994           0
     42974 TIP3     6843     TIP3     H1       HT       0.417000       1.00800           0
     42975 TIP3     6843     TIP3     H2       HT       0.417000       1.00800           0
     42976 TIP3     6844     TIP3     OH2      OT      -0.834000       15.9994           0
     42977 TIP3     6844     TIP3     H1       HT       0.417000       1.00800           0
     42978 TIP3     6844     TIP3     H2       HT       0.417000       1.00800           0
     42979 TIP3     6845     TIP3     OH2      OT      -0.834000       15.9994           0
     42980 TIP3     6845     TIP3     H1       HT       0.417000       1.00800           0
     42981 TIP3     6845     TIP3     H2       HT       0.417000       1.00800           0
     42982 TIP3     6846     TIP3     OH2      OT      -0.834000       15.9994           0
     42983 TIP3     6846     TIP3     H1       HT       0.417000       1.00800           0
     42984 TIP3     6846     TIP3     H2       HT       0.417000       1.00800           0
     42985 TIP3     6847     TIP3     OH2      OT      -0.834000       15.9994           0
     42986 TIP3     6847     TIP3     H1       HT       0.417000       1.00800           0
     42987 TIP3     6847     TIP3     H2       HT       0.417000       1.00800           0
     42988 TIP3     6848     TIP3     OH2      OT      -0.834000       15.9994           0
     42989 TIP3     6848     TIP3     H1       HT       0.417000       1.00800           0
     42990 TIP3     6848     TIP3     H2       HT       0.417000       1.00800           0
     42991 TIP3     6849     TIP3     OH2      OT      -0.834000       15.9994           0
     42992 TIP3     6849     TIP3     H1       HT       0.417000       1.00800           0
     42993 TIP3     6849     TIP3     H2       HT       0.417000       1.00800           0
     42994 TIP3     6850     TIP3     OH2      OT      -0.834000       15.9994           0
     42995 TIP3     6850     TIP3     H1       HT       0.417000       1.00800           0
     42996 TIP3     6850     TIP3     H2       HT       0.417000       1.00800           0
     42997 TIP3     6851     TIP3     OH2      OT      -0.834000       15.9994           0
     42998 TIP3     6851     TIP3     H1       HT       0.417000       1.00800           0
     42999 TIP3     6851     TIP3     H2       HT       0.417000       1.00800           0
     43000 TIP3     6852     TIP3     OH2      OT      -0.834000       15.9994           0
     43001 TIP3     6852     TIP3     H1       HT       0.417000       1.00800           0
     43002 TIP3     6852     TIP3     H2       HT       0.417000       1.00800           0
     43003 TIP3     6853     TIP3     OH2      OT      -0.834000       15.9994           0
     43004 TIP3     6853     TIP3     H1       HT       0.417000       1.00800           0
     43005 TIP3     6853     TIP3     H2       HT       0.417000       1.00800           0
     43006 TIP3     6854     TIP3     OH2      OT      -0.834000       15.9994           0
     43007 TIP3     6854     TIP3     H1       HT       0.417000       1.00800           0
     43008 TIP3     6854     TIP3     H2       HT       0.417000       1.00800           0
     43009 TIP3     6855     TIP3     OH2      OT      -0.834000       15.9994           0
     43010 TIP3     6855     TIP3     H1       HT       0.417000       1.00800           0
     43011 TIP3     6855     TIP3     H2       HT       0.417000       1.00800           0
     43012 TIP3     6856     TIP3     OH2      OT      -0.834000       15.9994           0
     43013 TIP3     6856     TIP3     H1       HT       0.417000       1.00800           0
     43014 TIP3     6856     TIP3     H2       HT       0.417000       1.00800           0
     43015 TIP3     6857     TIP3     OH2      OT      -0.834000       15.9994           0
     43016 TIP3     6857     TIP3     H1       HT       0.417000       1.00800           0
     43017 TIP3     6857     TIP3     H2       HT       0.417000       1.00800           0
     43018 TIP3     6858     TIP3     OH2      OT      -0.834000       15.9994           0
     43019 TIP3     6858     TIP3     H1       HT       0.417000       1.00800           0
     43020 TIP3     6858     TIP3     H2       HT       0.417000       1.00800           0
     43021 TIP3     6859     TIP3     OH2      OT      -0.834000       15.9994           0
     43022 TIP3     6859     TIP3     H1       HT       0.417000       1.00800           0
     43023 TIP3     6859     TIP3     H2       HT       0.417000       1.00800           0
     43024 TIP3     6860     TIP3     OH2      OT      -0.834000       15.9994           0
     43025 TIP3     6860     TIP3     H1       HT       0.417000       1.00800           0
     43026 TIP3     6860     TIP3     H2       HT       0.417000       1.00800           0
     43027 TIP3     6861     TIP3     OH2      OT      -0.834000       15.9994           0
     43028 TIP3     6861     TIP3     H1       HT       0.417000       1.00800           0
     43029 TIP3     6861     TIP3     H2       HT       0.417000       1.00800           0
     43030 TIP3     6862     TIP3     OH2      OT      -0.834000       15.9994           0
     43031 TIP3     6862     TIP3     H1       HT       0.417000       1.00800           0
     43032 TIP3     6862     TIP3     H2       HT       0.417000       1.00800           0
     43033 TIP3     6863     TIP3     OH2      OT      -0.834000       15.9994           0
     43034 TIP3     6863     TIP3     H1       HT       0.417000       1.00800           0
     43035 TIP3     6863     TIP3     H2       HT       0.417000       1.00800           0
     43036 TIP3     6864     TIP3     OH2      OT      -0.834000       15.9994           0
     43037 TIP3     6864     TIP3     H1       HT       0.417000       1.00800           0
     43038 TIP3     6864     TIP3     H2       HT       0.417000       1.00800           0
     43039 TIP3     6865     TIP3     OH2      OT      -0.834000       15.9994           0
     43040 TIP3     6865     TIP3     H1       HT       0.417000       1.00800           0
     43041 TIP3     6865     TIP3     H2       HT       0.417000       1.00800           0
     43042 TIP3     6866     TIP3     OH2      OT      -0.834000       15.9994           0
     43043 TIP3     6866     TIP3     H1       HT       0.417000       1.00800           0
     43044 TIP3     6866     TIP3     H2       HT       0.417000       1.00800           0
     43045 TIP3     6867     TIP3     OH2      OT      -0.834000       15.9994           0
     43046 TIP3     6867     TIP3     H1       HT       0.417000       1.00800           0
     43047 TIP3     6867     TIP3     H2       HT       0.417000       1.00800           0
     43048 TIP3     6868     TIP3     OH2      OT      -0.834000       15.9994           0
     43049 TIP3     6868     TIP3     H1       HT       0.417000       1.00800           0
     43050 TIP3     6868     TIP3     H2       HT       0.417000       1.00800           0
     43051 TIP3     6869     TIP3     OH2      OT      -0.834000       15.9994           0
     43052 TIP3     6869     TIP3     H1       HT       0.417000       1.00800           0
     43053 TIP3     6869     TIP3     H2       HT       0.417000       1.00800           0
     43054 TIP3     6870     TIP3     OH2      OT      -0.834000       15.9994           0
     43055 TIP3     6870     TIP3     H1       HT       0.417000       1.00800           0
     43056 TIP3     6870     TIP3     H2       HT       0.417000       1.00800           0
     43057 TIP3     6871     TIP3     OH2      OT      -0.834000       15.9994           0
     43058 TIP3     6871     TIP3     H1       HT       0.417000       1.00800           0
     43059 TIP3     6871     TIP3     H2       HT       0.417000       1.00800           0
     43060 TIP3     6872     TIP3     OH2      OT      -0.834000       15.9994           0
     43061 TIP3     6872     TIP3     H1       HT       0.417000       1.00800           0
     43062 TIP3     6872     TIP3     H2       HT       0.417000       1.00800           0
     43063 TIP3     6873     TIP3     OH2      OT      -0.834000       15.9994           0
     43064 TIP3     6873     TIP3     H1       HT       0.417000       1.00800           0
     43065 TIP3     6873     TIP3     H2       HT       0.417000       1.00800           0
     43066 TIP3     6874     TIP3     OH2      OT      -0.834000       15.9994           0
     43067 TIP3     6874     TIP3     H1       HT       0.417000       1.00800           0
     43068 TIP3     6874     TIP3     H2       HT       0.417000       1.00800           0
     43069 TIP3     6875     TIP3     OH2      OT      -0.834000       15.9994           0
     43070 TIP3     6875     TIP3     H1       HT       0.417000       1.00800           0
     43071 TIP3     6875     TIP3     H2       HT       0.417000       1.00800           0
     43072 TIP3     6876     TIP3     OH2      OT      -0.834000       15.9994           0
     43073 TIP3     6876     TIP3     H1       HT       0.417000       1.00800           0
     43074 TIP3     6876     TIP3     H2       HT       0.417000       1.00800           0
     43075 TIP3     6877     TIP3     OH2      OT      -0.834000       15.9994           0
     43076 TIP3     6877     TIP3     H1       HT       0.417000       1.00800           0
     43077 TIP3     6877     TIP3     H2       HT       0.417000       1.00800           0
     43078 TIP3     6878     TIP3     OH2      OT      -0.834000       15.9994           0
     43079 TIP3     6878     TIP3     H1       HT       0.417000       1.00800           0
     43080 TIP3     6878     TIP3     H2       HT       0.417000       1.00800           0
     43081 TIP3     6879     TIP3     OH2      OT      -0.834000       15.9994           0
     43082 TIP3     6879     TIP3     H1       HT       0.417000       1.00800           0
     43083 TIP3     6879     TIP3     H2       HT       0.417000       1.00800           0
     43084 TIP3     6880     TIP3     OH2      OT      -0.834000       15.9994           0
     43085 TIP3     6880     TIP3     H1       HT       0.417000       1.00800           0
     43086 TIP3     6880     TIP3     H2       HT       0.417000       1.00800           0
     43087 TIP3     6881     TIP3     OH2      OT      -0.834000       15.9994           0
     43088 TIP3     6881     TIP3     H1       HT       0.417000       1.00800           0
     43089 TIP3     6881     TIP3     H2       HT       0.417000       1.00800           0
     43090 TIP3     6882     TIP3     OH2      OT      -0.834000       15.9994           0
     43091 TIP3     6882     TIP3     H1       HT       0.417000       1.00800           0
     43092 TIP3     6882     TIP3     H2       HT       0.417000       1.00800           0
     43093 TIP3     6883     TIP3     OH2      OT      -0.834000       15.9994           0
     43094 TIP3     6883     TIP3     H1       HT       0.417000       1.00800           0
     43095 TIP3     6883     TIP3     H2       HT       0.417000       1.00800           0
     43096 TIP3     6884     TIP3     OH2      OT      -0.834000       15.9994           0
     43097 TIP3     6884     TIP3     H1       HT       0.417000       1.00800           0
     43098 TIP3     6884     TIP3     H2       HT       0.417000       1.00800           0
     43099 TIP3     6885     TIP3     OH2      OT      -0.834000       15.9994           0
     43100 TIP3     6885     TIP3     H1       HT       0.417000       1.00800           0
     43101 TIP3     6885     TIP3     H2       HT       0.417000       1.00800           0
     43102 TIP3     6886     TIP3     OH2      OT      -0.834000       15.9994           0
     43103 TIP3     6886     TIP3     H1       HT       0.417000       1.00800           0
     43104 TIP3     6886     TIP3     H2       HT       0.417000       1.00800           0
     43105 TIP3     6887     TIP3     OH2      OT      -0.834000       15.9994           0
     43106 TIP3     6887     TIP3     H1       HT       0.417000       1.00800           0
     43107 TIP3     6887     TIP3     H2       HT       0.417000       1.00800           0
     43108 TIP3     6888     TIP3     OH2      OT      -0.834000       15.9994           0
     43109 TIP3     6888     TIP3     H1       HT       0.417000       1.00800           0
     43110 TIP3     6888     TIP3     H2       HT       0.417000       1.00800           0
     43111 TIP3     6889     TIP3     OH2      OT      -0.834000       15.9994           0
     43112 TIP3     6889     TIP3     H1       HT       0.417000       1.00800           0
     43113 TIP3     6889     TIP3     H2       HT       0.417000       1.00800           0
     43114 TIP3     6890     TIP3     OH2      OT      -0.834000       15.9994           0
     43115 TIP3     6890     TIP3     H1       HT       0.417000       1.00800           0
     43116 TIP3     6890     TIP3     H2       HT       0.417000       1.00800           0
     43117 TIP3     6891     TIP3     OH2      OT      -0.834000       15.9994           0
     43118 TIP3     6891     TIP3     H1       HT       0.417000       1.00800           0
     43119 TIP3     6891     TIP3     H2       HT       0.417000       1.00800           0
     43120 TIP3     6892     TIP3     OH2      OT      -0.834000       15.9994           0
     43121 TIP3     6892     TIP3     H1       HT       0.417000       1.00800           0
     43122 TIP3     6892     TIP3     H2       HT       0.417000       1.00800           0
     43123 TIP3     6893     TIP3     OH2      OT      -0.834000       15.9994           0
     43124 TIP3     6893     TIP3     H1       HT       0.417000       1.00800           0
     43125 TIP3     6893     TIP3     H2       HT       0.417000       1.00800           0
     43126 TIP3     6894     TIP3     OH2      OT      -0.834000       15.9994           0
     43127 TIP3     6894     TIP3     H1       HT       0.417000       1.00800           0
     43128 TIP3     6894     TIP3     H2       HT       0.417000       1.00800           0
     43129 TIP3     6895     TIP3     OH2      OT      -0.834000       15.9994           0
     43130 TIP3     6895     TIP3     H1       HT       0.417000       1.00800           0
     43131 TIP3     6895     TIP3     H2       HT       0.417000       1.00800           0
     43132 TIP3     6896     TIP3     OH2      OT      -0.834000       15.9994           0
     43133 TIP3     6896     TIP3     H1       HT       0.417000       1.00800           0
     43134 TIP3     6896     TIP3     H2       HT       0.417000       1.00800           0
     43135 TIP3     6897     TIP3     OH2      OT      -0.834000       15.9994           0
     43136 TIP3     6897     TIP3     H1       HT       0.417000       1.00800           0
     43137 TIP3     6897     TIP3     H2       HT       0.417000       1.00800           0
     43138 TIP3     6898     TIP3     OH2      OT      -0.834000       15.9994           0
     43139 TIP3     6898     TIP3     H1       HT       0.417000       1.00800           0
     43140 TIP3     6898     TIP3     H2       HT       0.417000       1.00800           0
     43141 TIP3     6899     TIP3     OH2      OT      -0.834000       15.9994           0
     43142 TIP3     6899     TIP3     H1       HT       0.417000       1.00800           0
     43143 TIP3     6899     TIP3     H2       HT       0.417000       1.00800           0
     43144 TIP3     6900     TIP3     OH2      OT      -0.834000       15.9994           0
     43145 TIP3     6900     TIP3     H1       HT       0.417000       1.00800           0
     43146 TIP3     6900     TIP3     H2       HT       0.417000       1.00800           0
     43147 TIP3     6901     TIP3     OH2      OT      -0.834000       15.9994           0
     43148 TIP3     6901     TIP3     H1       HT       0.417000       1.00800           0
     43149 TIP3     6901     TIP3     H2       HT       0.417000       1.00800           0
     43150 TIP3     6902     TIP3     OH2      OT      -0.834000       15.9994           0
     43151 TIP3     6902     TIP3     H1       HT       0.417000       1.00800           0
     43152 TIP3     6902     TIP3     H2       HT       0.417000       1.00800           0
     43153 TIP3     6903     TIP3     OH2      OT      -0.834000       15.9994           0
     43154 TIP3     6903     TIP3     H1       HT       0.417000       1.00800           0
     43155 TIP3     6903     TIP3     H2       HT       0.417000       1.00800           0
     43156 TIP3     6904     TIP3     OH2      OT      -0.834000       15.9994           0
     43157 TIP3     6904     TIP3     H1       HT       0.417000       1.00800           0
     43158 TIP3     6904     TIP3     H2       HT       0.417000       1.00800           0
     43159 TIP3     6905     TIP3     OH2      OT      -0.834000       15.9994           0
     43160 TIP3     6905     TIP3     H1       HT       0.417000       1.00800           0
     43161 TIP3     6905     TIP3     H2       HT       0.417000       1.00800           0
     43162 TIP3     6906     TIP3     OH2      OT      -0.834000       15.9994           0
     43163 TIP3     6906     TIP3     H1       HT       0.417000       1.00800           0
     43164 TIP3     6906     TIP3     H2       HT       0.417000       1.00800           0
     43165 TIP3     6907     TIP3     OH2      OT      -0.834000       15.9994           0
     43166 TIP3     6907     TIP3     H1       HT       0.417000       1.00800           0
     43167 TIP3     6907     TIP3     H2       HT       0.417000       1.00800           0
     43168 TIP3     6908     TIP3     OH2      OT      -0.834000       15.9994           0
     43169 TIP3     6908     TIP3     H1       HT       0.417000       1.00800           0
     43170 TIP3     6908     TIP3     H2       HT       0.417000       1.00800           0
     43171 TIP3     6909     TIP3     OH2      OT      -0.834000       15.9994           0
     43172 TIP3     6909     TIP3     H1       HT       0.417000       1.00800           0
     43173 TIP3     6909     TIP3     H2       HT       0.417000       1.00800           0
     43174 TIP3     6910     TIP3     OH2      OT      -0.834000       15.9994           0
     43175 TIP3     6910     TIP3     H1       HT       0.417000       1.00800           0
     43176 TIP3     6910     TIP3     H2       HT       0.417000       1.00800           0
     43177 TIP3     6911     TIP3     OH2      OT      -0.834000       15.9994           0
     43178 TIP3     6911     TIP3     H1       HT       0.417000       1.00800           0
     43179 TIP3     6911     TIP3     H2       HT       0.417000       1.00800           0
     43180 TIP3     6912     TIP3     OH2      OT      -0.834000       15.9994           0
     43181 TIP3     6912     TIP3     H1       HT       0.417000       1.00800           0
     43182 TIP3     6912     TIP3     H2       HT       0.417000       1.00800           0
     43183 TIP3     6913     TIP3     OH2      OT      -0.834000       15.9994           0
     43184 TIP3     6913     TIP3     H1       HT       0.417000       1.00800           0
     43185 TIP3     6913     TIP3     H2       HT       0.417000       1.00800           0
     43186 TIP3     6914     TIP3     OH2      OT      -0.834000       15.9994           0
     43187 TIP3     6914     TIP3     H1       HT       0.417000       1.00800           0
     43188 TIP3     6914     TIP3     H2       HT       0.417000       1.00800           0
     43189 TIP3     6915     TIP3     OH2      OT      -0.834000       15.9994           0
     43190 TIP3     6915     TIP3     H1       HT       0.417000       1.00800           0
     43191 TIP3     6915     TIP3     H2       HT       0.417000       1.00800           0
     43192 TIP3     6916     TIP3     OH2      OT      -0.834000       15.9994           0
     43193 TIP3     6916     TIP3     H1       HT       0.417000       1.00800           0
     43194 TIP3     6916     TIP3     H2       HT       0.417000       1.00800           0
     43195 TIP3     6917     TIP3     OH2      OT      -0.834000       15.9994           0
     43196 TIP3     6917     TIP3     H1       HT       0.417000       1.00800           0
     43197 TIP3     6917     TIP3     H2       HT       0.417000       1.00800           0
     43198 TIP3     6918     TIP3     OH2      OT      -0.834000       15.9994           0
     43199 TIP3     6918     TIP3     H1       HT       0.417000       1.00800           0
     43200 TIP3     6918     TIP3     H2       HT       0.417000       1.00800           0
     43201 TIP3     6919     TIP3     OH2      OT      -0.834000       15.9994           0
     43202 TIP3     6919     TIP3     H1       HT       0.417000       1.00800           0
     43203 TIP3     6919     TIP3     H2       HT       0.417000       1.00800           0
     43204 TIP3     6920     TIP3     OH2      OT      -0.834000       15.9994           0
     43205 TIP3     6920     TIP3     H1       HT       0.417000       1.00800           0
     43206 TIP3     6920     TIP3     H2       HT       0.417000       1.00800           0
     43207 TIP3     6921     TIP3     OH2      OT      -0.834000       15.9994           0
     43208 TIP3     6921     TIP3     H1       HT       0.417000       1.00800           0
     43209 TIP3     6921     TIP3     H2       HT       0.417000       1.00800           0
     43210 TIP3     6922     TIP3     OH2      OT      -0.834000       15.9994           0
     43211 TIP3     6922     TIP3     H1       HT       0.417000       1.00800           0
     43212 TIP3     6922     TIP3     H2       HT       0.417000       1.00800           0
     43213 TIP3     6923     TIP3     OH2      OT      -0.834000       15.9994           0
     43214 TIP3     6923     TIP3     H1       HT       0.417000       1.00800           0
     43215 TIP3     6923     TIP3     H2       HT       0.417000       1.00800           0
     43216 TIP3     6924     TIP3     OH2      OT      -0.834000       15.9994           0
     43217 TIP3     6924     TIP3     H1       HT       0.417000       1.00800           0
     43218 TIP3     6924     TIP3     H2       HT       0.417000       1.00800           0
     43219 TIP3     6925     TIP3     OH2      OT      -0.834000       15.9994           0
     43220 TIP3     6925     TIP3     H1       HT       0.417000       1.00800           0
     43221 TIP3     6925     TIP3     H2       HT       0.417000       1.00800           0
     43222 TIP3     6926     TIP3     OH2      OT      -0.834000       15.9994           0
     43223 TIP3     6926     TIP3     H1       HT       0.417000       1.00800           0
     43224 TIP3     6926     TIP3     H2       HT       0.417000       1.00800           0
     43225 TIP3     6927     TIP3     OH2      OT      -0.834000       15.9994           0
     43226 TIP3     6927     TIP3     H1       HT       0.417000       1.00800           0
     43227 TIP3     6927     TIP3     H2       HT       0.417000       1.00800           0
     43228 TIP3     6928     TIP3     OH2      OT      -0.834000       15.9994           0
     43229 TIP3     6928     TIP3     H1       HT       0.417000       1.00800           0
     43230 TIP3     6928     TIP3     H2       HT       0.417000       1.00800           0
     43231 TIP3     6929     TIP3     OH2      OT      -0.834000       15.9994           0
     43232 TIP3     6929     TIP3     H1       HT       0.417000       1.00800           0
     43233 TIP3     6929     TIP3     H2       HT       0.417000       1.00800           0
     43234 TIP3     6930     TIP3     OH2      OT      -0.834000       15.9994           0
     43235 TIP3     6930     TIP3     H1       HT       0.417000       1.00800           0
     43236 TIP3     6930     TIP3     H2       HT       0.417000       1.00800           0
     43237 TIP3     6931     TIP3     OH2      OT      -0.834000       15.9994           0
     43238 TIP3     6931     TIP3     H1       HT       0.417000       1.00800           0
     43239 TIP3     6931     TIP3     H2       HT       0.417000       1.00800           0
     43240 TIP3     6932     TIP3     OH2      OT      -0.834000       15.9994           0
     43241 TIP3     6932     TIP3     H1       HT       0.417000       1.00800           0
     43242 TIP3     6932     TIP3     H2       HT       0.417000       1.00800           0
     43243 TIP3     6933     TIP3     OH2      OT      -0.834000       15.9994           0
     43244 TIP3     6933     TIP3     H1       HT       0.417000       1.00800           0
     43245 TIP3     6933     TIP3     H2       HT       0.417000       1.00800           0
     43246 TIP3     6934     TIP3     OH2      OT      -0.834000       15.9994           0
     43247 TIP3     6934     TIP3     H1       HT       0.417000       1.00800           0
     43248 TIP3     6934     TIP3     H2       HT       0.417000       1.00800           0
     43249 TIP3     6935     TIP3     OH2      OT      -0.834000       15.9994           0
     43250 TIP3     6935     TIP3     H1       HT       0.417000       1.00800           0
     43251 TIP3     6935     TIP3     H2       HT       0.417000       1.00800           0
     43252 TIP3     6936     TIP3     OH2      OT      -0.834000       15.9994           0
     43253 TIP3     6936     TIP3     H1       HT       0.417000       1.00800           0
     43254 TIP3     6936     TIP3     H2       HT       0.417000       1.00800           0
     43255 TIP3     6937     TIP3     OH2      OT      -0.834000       15.9994           0
     43256 TIP3     6937     TIP3     H1       HT       0.417000       1.00800           0
     43257 TIP3     6937     TIP3     H2       HT       0.417000       1.00800           0
     43258 TIP3     6938     TIP3     OH2      OT      -0.834000       15.9994           0
     43259 TIP3     6938     TIP3     H1       HT       0.417000       1.00800           0
     43260 TIP3     6938     TIP3     H2       HT       0.417000       1.00800           0
     43261 TIP3     6939     TIP3     OH2      OT      -0.834000       15.9994           0
     43262 TIP3     6939     TIP3     H1       HT       0.417000       1.00800           0
     43263 TIP3     6939     TIP3     H2       HT       0.417000       1.00800           0
     43264 TIP3     6940     TIP3     OH2      OT      -0.834000       15.9994           0
     43265 TIP3     6940     TIP3     H1       HT       0.417000       1.00800           0
     43266 TIP3     6940     TIP3     H2       HT       0.417000       1.00800           0
     43267 TIP3     6941     TIP3     OH2      OT      -0.834000       15.9994           0
     43268 TIP3     6941     TIP3     H1       HT       0.417000       1.00800           0
     43269 TIP3     6941     TIP3     H2       HT       0.417000       1.00800           0
     43270 TIP3     6942     TIP3     OH2      OT      -0.834000       15.9994           0
     43271 TIP3     6942     TIP3     H1       HT       0.417000       1.00800           0
     43272 TIP3     6942     TIP3     H2       HT       0.417000       1.00800           0
     43273 TIP3     6943     TIP3     OH2      OT      -0.834000       15.9994           0
     43274 TIP3     6943     TIP3     H1       HT       0.417000       1.00800           0
     43275 TIP3     6943     TIP3     H2       HT       0.417000       1.00800           0
     43276 TIP3     6944     TIP3     OH2      OT      -0.834000       15.9994           0
     43277 TIP3     6944     TIP3     H1       HT       0.417000       1.00800           0
     43278 TIP3     6944     TIP3     H2       HT       0.417000       1.00800           0
     43279 TIP3     6945     TIP3     OH2      OT      -0.834000       15.9994           0
     43280 TIP3     6945     TIP3     H1       HT       0.417000       1.00800           0
     43281 TIP3     6945     TIP3     H2       HT       0.417000       1.00800           0
     43282 TIP3     6946     TIP3     OH2      OT      -0.834000       15.9994           0
     43283 TIP3     6946     TIP3     H1       HT       0.417000       1.00800           0
     43284 TIP3     6946     TIP3     H2       HT       0.417000       1.00800           0
     43285 TIP3     6947     TIP3     OH2      OT      -0.834000       15.9994           0
     43286 TIP3     6947     TIP3     H1       HT       0.417000       1.00800           0
     43287 TIP3     6947     TIP3     H2       HT       0.417000       1.00800           0
     43288 TIP3     6948     TIP3     OH2      OT      -0.834000       15.9994           0
     43289 TIP3     6948     TIP3     H1       HT       0.417000       1.00800           0
     43290 TIP3     6948     TIP3     H2       HT       0.417000       1.00800           0
     43291 TIP3     6949     TIP3     OH2      OT      -0.834000       15.9994           0
     43292 TIP3     6949     TIP3     H1       HT       0.417000       1.00800           0
     43293 TIP3     6949     TIP3     H2       HT       0.417000       1.00800           0
     43294 TIP3     6950     TIP3     OH2      OT      -0.834000       15.9994           0
     43295 TIP3     6950     TIP3     H1       HT       0.417000       1.00800           0
     43296 TIP3     6950     TIP3     H2       HT       0.417000       1.00800           0
     43297 TIP3     6951     TIP3     OH2      OT      -0.834000       15.9994           0
     43298 TIP3     6951     TIP3     H1       HT       0.417000       1.00800           0
     43299 TIP3     6951     TIP3     H2       HT       0.417000       1.00800           0
     43300 TIP3     6952     TIP3     OH2      OT      -0.834000       15.9994           0
     43301 TIP3     6952     TIP3     H1       HT       0.417000       1.00800           0
     43302 TIP3     6952     TIP3     H2       HT       0.417000       1.00800           0
     43303 TIP3     6953     TIP3     OH2      OT      -0.834000       15.9994           0
     43304 TIP3     6953     TIP3     H1       HT       0.417000       1.00800           0
     43305 TIP3     6953     TIP3     H2       HT       0.417000       1.00800           0
     43306 TIP3     6954     TIP3     OH2      OT      -0.834000       15.9994           0
     43307 TIP3     6954     TIP3     H1       HT       0.417000       1.00800           0
     43308 TIP3     6954     TIP3     H2       HT       0.417000       1.00800           0
     43309 TIP3     6955     TIP3     OH2      OT      -0.834000       15.9994           0
     43310 TIP3     6955     TIP3     H1       HT       0.417000       1.00800           0
     43311 TIP3     6955     TIP3     H2       HT       0.417000       1.00800           0
     43312 TIP3     6956     TIP3     OH2      OT      -0.834000       15.9994           0
     43313 TIP3     6956     TIP3     H1       HT       0.417000       1.00800           0
     43314 TIP3     6956     TIP3     H2       HT       0.417000       1.00800           0
     43315 TIP3     6957     TIP3     OH2      OT      -0.834000       15.9994           0
     43316 TIP3     6957     TIP3     H1       HT       0.417000       1.00800           0
     43317 TIP3     6957     TIP3     H2       HT       0.417000       1.00800           0
     43318 TIP3     6958     TIP3     OH2      OT      -0.834000       15.9994           0
     43319 TIP3     6958     TIP3     H1       HT       0.417000       1.00800           0
     43320 TIP3     6958     TIP3     H2       HT       0.417000       1.00800           0
     43321 TIP3     6959     TIP3     OH2      OT      -0.834000       15.9994           0
     43322 TIP3     6959     TIP3     H1       HT       0.417000       1.00800           0
     43323 TIP3     6959     TIP3     H2       HT       0.417000       1.00800           0
     43324 TIP3     6960     TIP3     OH2      OT      -0.834000       15.9994           0
     43325 TIP3     6960     TIP3     H1       HT       0.417000       1.00800           0
     43326 TIP3     6960     TIP3     H2       HT       0.417000       1.00800           0
     43327 TIP3     6961     TIP3     OH2      OT      -0.834000       15.9994           0
     43328 TIP3     6961     TIP3     H1       HT       0.417000       1.00800           0
     43329 TIP3     6961     TIP3     H2       HT       0.417000       1.00800           0
     43330 TIP3     6962     TIP3     OH2      OT      -0.834000       15.9994           0
     43331 TIP3     6962     TIP3     H1       HT       0.417000       1.00800           0
     43332 TIP3     6962     TIP3     H2       HT       0.417000       1.00800           0
     43333 TIP3     6963     TIP3     OH2      OT      -0.834000       15.9994           0
     43334 TIP3     6963     TIP3     H1       HT       0.417000       1.00800           0
     43335 TIP3     6963     TIP3     H2       HT       0.417000       1.00800           0
     43336 TIP3     6964     TIP3     OH2      OT      -0.834000       15.9994           0
     43337 TIP3     6964     TIP3     H1       HT       0.417000       1.00800           0
     43338 TIP3     6964     TIP3     H2       HT       0.417000       1.00800           0
     43339 TIP3     6965     TIP3     OH2      OT      -0.834000       15.9994           0
     43340 TIP3     6965     TIP3     H1       HT       0.417000       1.00800           0
     43341 TIP3     6965     TIP3     H2       HT       0.417000       1.00800           0
     43342 TIP3     6966     TIP3     OH2      OT      -0.834000       15.9994           0
     43343 TIP3     6966     TIP3     H1       HT       0.417000       1.00800           0
     43344 TIP3     6966     TIP3     H2       HT       0.417000       1.00800           0
     43345 TIP3     6967     TIP3     OH2      OT      -0.834000       15.9994           0
     43346 TIP3     6967     TIP3     H1       HT       0.417000       1.00800           0
     43347 TIP3     6967     TIP3     H2       HT       0.417000       1.00800           0
     43348 TIP3     6968     TIP3     OH2      OT      -0.834000       15.9994           0
     43349 TIP3     6968     TIP3     H1       HT       0.417000       1.00800           0
     43350 TIP3     6968     TIP3     H2       HT       0.417000       1.00800           0
     43351 TIP3     6969     TIP3     OH2      OT      -0.834000       15.9994           0
     43352 TIP3     6969     TIP3     H1       HT       0.417000       1.00800           0
     43353 TIP3     6969     TIP3     H2       HT       0.417000       1.00800           0
     43354 TIP3     6970     TIP3     OH2      OT      -0.834000       15.9994           0
     43355 TIP3     6970     TIP3     H1       HT       0.417000       1.00800           0
     43356 TIP3     6970     TIP3     H2       HT       0.417000       1.00800           0
     43357 TIP3     6971     TIP3     OH2      OT      -0.834000       15.9994           0
     43358 TIP3     6971     TIP3     H1       HT       0.417000       1.00800           0
     43359 TIP3     6971     TIP3     H2       HT       0.417000       1.00800           0
     43360 TIP3     6972     TIP3     OH2      OT      -0.834000       15.9994           0
     43361 TIP3     6972     TIP3     H1       HT       0.417000       1.00800           0
     43362 TIP3     6972     TIP3     H2       HT       0.417000       1.00800           0
     43363 TIP3     6973     TIP3     OH2      OT      -0.834000       15.9994           0
     43364 TIP3     6973     TIP3     H1       HT       0.417000       1.00800           0
     43365 TIP3     6973     TIP3     H2       HT       0.417000       1.00800           0
     43366 TIP3     6974     TIP3     OH2      OT      -0.834000       15.9994           0
     43367 TIP3     6974     TIP3     H1       HT       0.417000       1.00800           0
     43368 TIP3     6974     TIP3     H2       HT       0.417000       1.00800           0
     43369 TIP3     6975     TIP3     OH2      OT      -0.834000       15.9994           0
     43370 TIP3     6975     TIP3     H1       HT       0.417000       1.00800           0
     43371 TIP3     6975     TIP3     H2       HT       0.417000       1.00800           0
     43372 TIP3     6976     TIP3     OH2      OT      -0.834000       15.9994           0
     43373 TIP3     6976     TIP3     H1       HT       0.417000       1.00800           0
     43374 TIP3     6976     TIP3     H2       HT       0.417000       1.00800           0
     43375 TIP3     6977     TIP3     OH2      OT      -0.834000       15.9994           0
     43376 TIP3     6977     TIP3     H1       HT       0.417000       1.00800           0
     43377 TIP3     6977     TIP3     H2       HT       0.417000       1.00800           0
     43378 TIP3     6978     TIP3     OH2      OT      -0.834000       15.9994           0
     43379 TIP3     6978     TIP3     H1       HT       0.417000       1.00800           0
     43380 TIP3     6978     TIP3     H2       HT       0.417000       1.00800           0
     43381 TIP3     6979     TIP3     OH2      OT      -0.834000       15.9994           0
     43382 TIP3     6979     TIP3     H1       HT       0.417000       1.00800           0
     43383 TIP3     6979     TIP3     H2       HT       0.417000       1.00800           0
     43384 TIP3     6980     TIP3     OH2      OT      -0.834000       15.9994           0
     43385 TIP3     6980     TIP3     H1       HT       0.417000       1.00800           0
     43386 TIP3     6980     TIP3     H2       HT       0.417000       1.00800           0
     43387 TIP3     6981     TIP3     OH2      OT      -0.834000       15.9994           0
     43388 TIP3     6981     TIP3     H1       HT       0.417000       1.00800           0
     43389 TIP3     6981     TIP3     H2       HT       0.417000       1.00800           0
     43390 TIP3     6982     TIP3     OH2      OT      -0.834000       15.9994           0
     43391 TIP3     6982     TIP3     H1       HT       0.417000       1.00800           0
     43392 TIP3     6982     TIP3     H2       HT       0.417000       1.00800           0
     43393 TIP3     6983     TIP3     OH2      OT      -0.834000       15.9994           0
     43394 TIP3     6983     TIP3     H1       HT       0.417000       1.00800           0
     43395 TIP3     6983     TIP3     H2       HT       0.417000       1.00800           0
     43396 TIP3     6984     TIP3     OH2      OT      -0.834000       15.9994           0
     43397 TIP3     6984     TIP3     H1       HT       0.417000       1.00800           0
     43398 TIP3     6984     TIP3     H2       HT       0.417000       1.00800           0
     43399 TIP3     6985     TIP3     OH2      OT      -0.834000       15.9994           0
     43400 TIP3     6985     TIP3     H1       HT       0.417000       1.00800           0
     43401 TIP3     6985     TIP3     H2       HT       0.417000       1.00800           0
     43402 TIP3     6986     TIP3     OH2      OT      -0.834000       15.9994           0
     43403 TIP3     6986     TIP3     H1       HT       0.417000       1.00800           0
     43404 TIP3     6986     TIP3     H2       HT       0.417000       1.00800           0
     43405 TIP3     6987     TIP3     OH2      OT      -0.834000       15.9994           0
     43406 TIP3     6987     TIP3     H1       HT       0.417000       1.00800           0
     43407 TIP3     6987     TIP3     H2       HT       0.417000       1.00800           0
     43408 TIP3     6988     TIP3     OH2      OT      -0.834000       15.9994           0
     43409 TIP3     6988     TIP3     H1       HT       0.417000       1.00800           0
     43410 TIP3     6988     TIP3     H2       HT       0.417000       1.00800           0
     43411 TIP3     6989     TIP3     OH2      OT      -0.834000       15.9994           0
     43412 TIP3     6989     TIP3     H1       HT       0.417000       1.00800           0
     43413 TIP3     6989     TIP3     H2       HT       0.417000       1.00800           0
     43414 TIP3     6990     TIP3     OH2      OT      -0.834000       15.9994           0
     43415 TIP3     6990     TIP3     H1       HT       0.417000       1.00800           0
     43416 TIP3     6990     TIP3     H2       HT       0.417000       1.00800           0
     43417 TIP3     6991     TIP3     OH2      OT      -0.834000       15.9994           0
     43418 TIP3     6991     TIP3     H1       HT       0.417000       1.00800           0
     43419 TIP3     6991     TIP3     H2       HT       0.417000       1.00800           0
     43420 TIP3     6992     TIP3     OH2      OT      -0.834000       15.9994           0
     43421 TIP3     6992     TIP3     H1       HT       0.417000       1.00800           0
     43422 TIP3     6992     TIP3     H2       HT       0.417000       1.00800           0
     43423 TIP3     6993     TIP3     OH2      OT      -0.834000       15.9994           0
     43424 TIP3     6993     TIP3     H1       HT       0.417000       1.00800           0
     43425 TIP3     6993     TIP3     H2       HT       0.417000       1.00800           0
     43426 TIP3     6994     TIP3     OH2      OT      -0.834000       15.9994           0
     43427 TIP3     6994     TIP3     H1       HT       0.417000       1.00800           0
     43428 TIP3     6994     TIP3     H2       HT       0.417000       1.00800           0
     43429 TIP3     6995     TIP3     OH2      OT      -0.834000       15.9994           0
     43430 TIP3     6995     TIP3     H1       HT       0.417000       1.00800           0
     43431 TIP3     6995     TIP3     H2       HT       0.417000       1.00800           0
     43432 TIP3     6996     TIP3     OH2      OT      -0.834000       15.9994           0
     43433 TIP3     6996     TIP3     H1       HT       0.417000       1.00800           0
     43434 TIP3     6996     TIP3     H2       HT       0.417000       1.00800           0
     43435 TIP3     6997     TIP3     OH2      OT      -0.834000       15.9994           0
     43436 TIP3     6997     TIP3     H1       HT       0.417000       1.00800           0
     43437 TIP3     6997     TIP3     H2       HT       0.417000       1.00800           0
     43438 TIP3     6998     TIP3     OH2      OT      -0.834000       15.9994           0
     43439 TIP3     6998     TIP3     H1       HT       0.417000       1.00800           0
     43440 TIP3     6998     TIP3     H2       HT       0.417000       1.00800           0
     43441 TIP3     6999     TIP3     OH2      OT      -0.834000       15.9994           0
     43442 TIP3     6999     TIP3     H1       HT       0.417000       1.00800           0
     43443 TIP3     6999     TIP3     H2       HT       0.417000       1.00800           0
     43444 TIP3     7000     TIP3     OH2      OT      -0.834000       15.9994           0
     43445 TIP3     7000     TIP3     H1       HT       0.417000       1.00800           0
     43446 TIP3     7000     TIP3     H2       HT       0.417000       1.00800           0
     43447 TIP3     7001     TIP3     OH2      OT      -0.834000       15.9994           0
     43448 TIP3     7001     TIP3     H1       HT       0.417000       1.00800           0
     43449 TIP3     7001     TIP3     H2       HT       0.417000       1.00800           0
     43450 TIP3     7002     TIP3     OH2      OT      -0.834000       15.9994           0
     43451 TIP3     7002     TIP3     H1       HT       0.417000       1.00800           0
     43452 TIP3     7002     TIP3     H2       HT       0.417000       1.00800           0
     43453 TIP3     7003     TIP3     OH2      OT      -0.834000       15.9994           0
     43454 TIP3     7003     TIP3     H1       HT       0.417000       1.00800           0
     43455 TIP3     7003     TIP3     H2       HT       0.417000       1.00800           0
     43456 TIP3     7004     TIP3     OH2      OT      -0.834000       15.9994           0
     43457 TIP3     7004     TIP3     H1       HT       0.417000       1.00800           0
     43458 TIP3     7004     TIP3     H2       HT       0.417000       1.00800           0
     43459 TIP3     7005     TIP3     OH2      OT      -0.834000       15.9994           0
     43460 TIP3     7005     TIP3     H1       HT       0.417000       1.00800           0
     43461 TIP3     7005     TIP3     H2       HT       0.417000       1.00800           0
     43462 TIP3     7006     TIP3     OH2      OT      -0.834000       15.9994           0
     43463 TIP3     7006     TIP3     H1       HT       0.417000       1.00800           0
     43464 TIP3     7006     TIP3     H2       HT       0.417000       1.00800           0
     43465 TIP3     7007     TIP3     OH2      OT      -0.834000       15.9994           0
     43466 TIP3     7007     TIP3     H1       HT       0.417000       1.00800           0
     43467 TIP3     7007     TIP3     H2       HT       0.417000       1.00800           0
     43468 TIP3     7008     TIP3     OH2      OT      -0.834000       15.9994           0
     43469 TIP3     7008     TIP3     H1       HT       0.417000       1.00800           0
     43470 TIP3     7008     TIP3     H2       HT       0.417000       1.00800           0
     43471 TIP3     7009     TIP3     OH2      OT      -0.834000       15.9994           0
     43472 TIP3     7009     TIP3     H1       HT       0.417000       1.00800           0
     43473 TIP3     7009     TIP3     H2       HT       0.417000       1.00800           0
     43474 TIP3     7010     TIP3     OH2      OT      -0.834000       15.9994           0
     43475 TIP3     7010     TIP3     H1       HT       0.417000       1.00800           0
     43476 TIP3     7010     TIP3     H2       HT       0.417000       1.00800           0
     43477 TIP3     7011     TIP3     OH2      OT      -0.834000       15.9994           0
     43478 TIP3     7011     TIP3     H1       HT       0.417000       1.00800           0
     43479 TIP3     7011     TIP3     H2       HT       0.417000       1.00800           0
     43480 TIP3     7012     TIP3     OH2      OT      -0.834000       15.9994           0
     43481 TIP3     7012     TIP3     H1       HT       0.417000       1.00800           0
     43482 TIP3     7012     TIP3     H2       HT       0.417000       1.00800           0
     43483 TIP3     7013     TIP3     OH2      OT      -0.834000       15.9994           0
     43484 TIP3     7013     TIP3     H1       HT       0.417000       1.00800           0
     43485 TIP3     7013     TIP3     H2       HT       0.417000       1.00800           0
     43486 TIP3     7014     TIP3     OH2      OT      -0.834000       15.9994           0
     43487 TIP3     7014     TIP3     H1       HT       0.417000       1.00800           0
     43488 TIP3     7014     TIP3     H2       HT       0.417000       1.00800           0
     43489 TIP3     7015     TIP3     OH2      OT      -0.834000       15.9994           0
     43490 TIP3     7015     TIP3     H1       HT       0.417000       1.00800           0
     43491 TIP3     7015     TIP3     H2       HT       0.417000       1.00800           0
     43492 TIP3     7016     TIP3     OH2      OT      -0.834000       15.9994           0
     43493 TIP3     7016     TIP3     H1       HT       0.417000       1.00800           0
     43494 TIP3     7016     TIP3     H2       HT       0.417000       1.00800           0
     43495 TIP3     7017     TIP3     OH2      OT      -0.834000       15.9994           0
     43496 TIP3     7017     TIP3     H1       HT       0.417000       1.00800           0
     43497 TIP3     7017     TIP3     H2       HT       0.417000       1.00800           0
     43498 TIP3     7018     TIP3     OH2      OT      -0.834000       15.9994           0
     43499 TIP3     7018     TIP3     H1       HT       0.417000       1.00800           0
     43500 TIP3     7018     TIP3     H2       HT       0.417000       1.00800           0
     43501 TIP3     7019     TIP3     OH2      OT      -0.834000       15.9994           0
     43502 TIP3     7019     TIP3     H1       HT       0.417000       1.00800           0
     43503 TIP3     7019     TIP3     H2       HT       0.417000       1.00800           0
     43504 TIP3     7020     TIP3     OH2      OT      -0.834000       15.9994           0
     43505 TIP3     7020     TIP3     H1       HT       0.417000       1.00800           0
     43506 TIP3     7020     TIP3     H2       HT       0.417000       1.00800           0
     43507 TIP3     7021     TIP3     OH2      OT      -0.834000       15.9994           0
     43508 TIP3     7021     TIP3     H1       HT       0.417000       1.00800           0
     43509 TIP3     7021     TIP3     H2       HT       0.417000       1.00800           0
     43510 TIP3     7022     TIP3     OH2      OT      -0.834000       15.9994           0
     43511 TIP3     7022     TIP3     H1       HT       0.417000       1.00800           0
     43512 TIP3     7022     TIP3     H2       HT       0.417000       1.00800           0
     43513 TIP3     7023     TIP3     OH2      OT      -0.834000       15.9994           0
     43514 TIP3     7023     TIP3     H1       HT       0.417000       1.00800           0
     43515 TIP3     7023     TIP3     H2       HT       0.417000       1.00800           0
     43516 TIP3     7024     TIP3     OH2      OT      -0.834000       15.9994           0
     43517 TIP3     7024     TIP3     H1       HT       0.417000       1.00800           0
     43518 TIP3     7024     TIP3     H2       HT       0.417000       1.00800           0
     43519 TIP3     7025     TIP3     OH2      OT      -0.834000       15.9994           0
     43520 TIP3     7025     TIP3     H1       HT       0.417000       1.00800           0
     43521 TIP3     7025     TIP3     H2       HT       0.417000       1.00800           0
     43522 TIP3     7026     TIP3     OH2      OT      -0.834000       15.9994           0
     43523 TIP3     7026     TIP3     H1       HT       0.417000       1.00800           0
     43524 TIP3     7026     TIP3     H2       HT       0.417000       1.00800           0
     43525 TIP3     7027     TIP3     OH2      OT      -0.834000       15.9994           0
     43526 TIP3     7027     TIP3     H1       HT       0.417000       1.00800           0
     43527 TIP3     7027     TIP3     H2       HT       0.417000       1.00800           0
     43528 TIP3     7028     TIP3     OH2      OT      -0.834000       15.9994           0
     43529 TIP3     7028     TIP3     H1       HT       0.417000       1.00800           0
     43530 TIP3     7028     TIP3     H2       HT       0.417000       1.00800           0
     43531 TIP3     7029     TIP3     OH2      OT      -0.834000       15.9994           0
     43532 TIP3     7029     TIP3     H1       HT       0.417000       1.00800           0
     43533 TIP3     7029     TIP3     H2       HT       0.417000       1.00800           0
     43534 TIP3     7030     TIP3     OH2      OT      -0.834000       15.9994           0
     43535 TIP3     7030     TIP3     H1       HT       0.417000       1.00800           0
     43536 TIP3     7030     TIP3     H2       HT       0.417000       1.00800           0
     43537 TIP3     7031     TIP3     OH2      OT      -0.834000       15.9994           0
     43538 TIP3     7031     TIP3     H1       HT       0.417000       1.00800           0
     43539 TIP3     7031     TIP3     H2       HT       0.417000       1.00800           0
     43540 TIP3     7032     TIP3     OH2      OT      -0.834000       15.9994           0
     43541 TIP3     7032     TIP3     H1       HT       0.417000       1.00800           0
     43542 TIP3     7032     TIP3     H2       HT       0.417000       1.00800           0
     43543 TIP3     7033     TIP3     OH2      OT      -0.834000       15.9994           0
     43544 TIP3     7033     TIP3     H1       HT       0.417000       1.00800           0
     43545 TIP3     7033     TIP3     H2       HT       0.417000       1.00800           0
     43546 TIP3     7034     TIP3     OH2      OT      -0.834000       15.9994           0
     43547 TIP3     7034     TIP3     H1       HT       0.417000       1.00800           0
     43548 TIP3     7034     TIP3     H2       HT       0.417000       1.00800           0
     43549 TIP3     7035     TIP3     OH2      OT      -0.834000       15.9994           0
     43550 TIP3     7035     TIP3     H1       HT       0.417000       1.00800           0
     43551 TIP3     7035     TIP3     H2       HT       0.417000       1.00800           0
     43552 TIP3     7036     TIP3     OH2      OT      -0.834000       15.9994           0
     43553 TIP3     7036     TIP3     H1       HT       0.417000       1.00800           0
     43554 TIP3     7036     TIP3     H2       HT       0.417000       1.00800           0
     43555 TIP3     7037     TIP3     OH2      OT      -0.834000       15.9994           0
     43556 TIP3     7037     TIP3     H1       HT       0.417000       1.00800           0
     43557 TIP3     7037     TIP3     H2       HT       0.417000       1.00800           0
     43558 TIP3     7038     TIP3     OH2      OT      -0.834000       15.9994           0
     43559 TIP3     7038     TIP3     H1       HT       0.417000       1.00800           0
     43560 TIP3     7038     TIP3     H2       HT       0.417000       1.00800           0
     43561 TIP3     7039     TIP3     OH2      OT      -0.834000       15.9994           0
     43562 TIP3     7039     TIP3     H1       HT       0.417000       1.00800           0
     43563 TIP3     7039     TIP3     H2       HT       0.417000       1.00800           0
     43564 TIP3     7040     TIP3     OH2      OT      -0.834000       15.9994           0
     43565 TIP3     7040     TIP3     H1       HT       0.417000       1.00800           0
     43566 TIP3     7040     TIP3     H2       HT       0.417000       1.00800           0
     43567 TIP3     7041     TIP3     OH2      OT      -0.834000       15.9994           0
     43568 TIP3     7041     TIP3     H1       HT       0.417000       1.00800           0
     43569 TIP3     7041     TIP3     H2       HT       0.417000       1.00800           0
     43570 TIP3     7042     TIP3     OH2      OT      -0.834000       15.9994           0
     43571 TIP3     7042     TIP3     H1       HT       0.417000       1.00800           0
     43572 TIP3     7042     TIP3     H2       HT       0.417000       1.00800           0
     43573 TIP3     7043     TIP3     OH2      OT      -0.834000       15.9994           0
     43574 TIP3     7043     TIP3     H1       HT       0.417000       1.00800           0
     43575 TIP3     7043     TIP3     H2       HT       0.417000       1.00800           0
     43576 TIP3     7044     TIP3     OH2      OT      -0.834000       15.9994           0
     43577 TIP3     7044     TIP3     H1       HT       0.417000       1.00800           0
     43578 TIP3     7044     TIP3     H2       HT       0.417000       1.00800           0
     43579 TIP3     7045     TIP3     OH2      OT      -0.834000       15.9994           0
     43580 TIP3     7045     TIP3     H1       HT       0.417000       1.00800           0
     43581 TIP3     7045     TIP3     H2       HT       0.417000       1.00800           0
     43582 TIP3     7046     TIP3     OH2      OT      -0.834000       15.9994           0
     43583 TIP3     7046     TIP3     H1       HT       0.417000       1.00800           0
     43584 TIP3     7046     TIP3     H2       HT       0.417000       1.00800           0
     43585 TIP3     7047     TIP3     OH2      OT      -0.834000       15.9994           0
     43586 TIP3     7047     TIP3     H1       HT       0.417000       1.00800           0
     43587 TIP3     7047     TIP3     H2       HT       0.417000       1.00800           0
     43588 TIP3     7048     TIP3     OH2      OT      -0.834000       15.9994           0
     43589 TIP3     7048     TIP3     H1       HT       0.417000       1.00800           0
     43590 TIP3     7048     TIP3     H2       HT       0.417000       1.00800           0
     43591 TIP3     7049     TIP3     OH2      OT      -0.834000       15.9994           0
     43592 TIP3     7049     TIP3     H1       HT       0.417000       1.00800           0
     43593 TIP3     7049     TIP3     H2       HT       0.417000       1.00800           0
     43594 TIP3     7050     TIP3     OH2      OT      -0.834000       15.9994           0
     43595 TIP3     7050     TIP3     H1       HT       0.417000       1.00800           0
     43596 TIP3     7050     TIP3     H2       HT       0.417000       1.00800           0
     43597 TIP3     7051     TIP3     OH2      OT      -0.834000       15.9994           0
     43598 TIP3     7051     TIP3     H1       HT       0.417000       1.00800           0
     43599 TIP3     7051     TIP3     H2       HT       0.417000       1.00800           0
     43600 TIP3     7052     TIP3     OH2      OT      -0.834000       15.9994           0
     43601 TIP3     7052     TIP3     H1       HT       0.417000       1.00800           0
     43602 TIP3     7052     TIP3     H2       HT       0.417000       1.00800           0
     43603 TIP3     7053     TIP3     OH2      OT      -0.834000       15.9994           0
     43604 TIP3     7053     TIP3     H1       HT       0.417000       1.00800           0
     43605 TIP3     7053     TIP3     H2       HT       0.417000       1.00800           0
     43606 TIP3     7054     TIP3     OH2      OT      -0.834000       15.9994           0
     43607 TIP3     7054     TIP3     H1       HT       0.417000       1.00800           0
     43608 TIP3     7054     TIP3     H2       HT       0.417000       1.00800           0
     43609 TIP3     7055     TIP3     OH2      OT      -0.834000       15.9994           0
     43610 TIP3     7055     TIP3     H1       HT       0.417000       1.00800           0
     43611 TIP3     7055     TIP3     H2       HT       0.417000       1.00800           0
     43612 TIP3     7056     TIP3     OH2      OT      -0.834000       15.9994           0
     43613 TIP3     7056     TIP3     H1       HT       0.417000       1.00800           0
     43614 TIP3     7056     TIP3     H2       HT       0.417000       1.00800           0
     43615 TIP3     7057     TIP3     OH2      OT      -0.834000       15.9994           0
     43616 TIP3     7057     TIP3     H1       HT       0.417000       1.00800           0
     43617 TIP3     7057     TIP3     H2       HT       0.417000       1.00800           0
     43618 TIP3     7058     TIP3     OH2      OT      -0.834000       15.9994           0
     43619 TIP3     7058     TIP3     H1       HT       0.417000       1.00800           0
     43620 TIP3     7058     TIP3     H2       HT       0.417000       1.00800           0
     43621 TIP3     7059     TIP3     OH2      OT      -0.834000       15.9994           0
     43622 TIP3     7059     TIP3     H1       HT       0.417000       1.00800           0
     43623 TIP3     7059     TIP3     H2       HT       0.417000       1.00800           0
     43624 TIP3     7060     TIP3     OH2      OT      -0.834000       15.9994           0
     43625 TIP3     7060     TIP3     H1       HT       0.417000       1.00800           0
     43626 TIP3     7060     TIP3     H2       HT       0.417000       1.00800           0
     43627 TIP3     7061     TIP3     OH2      OT      -0.834000       15.9994           0
     43628 TIP3     7061     TIP3     H1       HT       0.417000       1.00800           0
     43629 TIP3     7061     TIP3     H2       HT       0.417000       1.00800           0
     43630 TIP3     7062     TIP3     OH2      OT      -0.834000       15.9994           0
     43631 TIP3     7062     TIP3     H1       HT       0.417000       1.00800           0
     43632 TIP3     7062     TIP3     H2       HT       0.417000       1.00800           0
     43633 TIP3     7063     TIP3     OH2      OT      -0.834000       15.9994           0
     43634 TIP3     7063     TIP3     H1       HT       0.417000       1.00800           0
     43635 TIP3     7063     TIP3     H2       HT       0.417000       1.00800           0
     43636 TIP3     7064     TIP3     OH2      OT      -0.834000       15.9994           0
     43637 TIP3     7064     TIP3     H1       HT       0.417000       1.00800           0
     43638 TIP3     7064     TIP3     H2       HT       0.417000       1.00800           0
     43639 TIP3     7065     TIP3     OH2      OT      -0.834000       15.9994           0
     43640 TIP3     7065     TIP3     H1       HT       0.417000       1.00800           0
     43641 TIP3     7065     TIP3     H2       HT       0.417000       1.00800           0
     43642 TIP3     7066     TIP3     OH2      OT      -0.834000       15.9994           0
     43643 TIP3     7066     TIP3     H1       HT       0.417000       1.00800           0
     43644 TIP3     7066     TIP3     H2       HT       0.417000       1.00800           0
     43645 TIP3     7067     TIP3     OH2      OT      -0.834000       15.9994           0
     43646 TIP3     7067     TIP3     H1       HT       0.417000       1.00800           0
     43647 TIP3     7067     TIP3     H2       HT       0.417000       1.00800           0
     43648 TIP3     7068     TIP3     OH2      OT      -0.834000       15.9994           0
     43649 TIP3     7068     TIP3     H1       HT       0.417000       1.00800           0
     43650 TIP3     7068     TIP3     H2       HT       0.417000       1.00800           0
     43651 TIP3     7069     TIP3     OH2      OT      -0.834000       15.9994           0
     43652 TIP3     7069     TIP3     H1       HT       0.417000       1.00800           0
     43653 TIP3     7069     TIP3     H2       HT       0.417000       1.00800           0
     43654 TIP3     7070     TIP3     OH2      OT      -0.834000       15.9994           0
     43655 TIP3     7070     TIP3     H1       HT       0.417000       1.00800           0
     43656 TIP3     7070     TIP3     H2       HT       0.417000       1.00800           0
     43657 TIP3     7071     TIP3     OH2      OT      -0.834000       15.9994           0
     43658 TIP3     7071     TIP3     H1       HT       0.417000       1.00800           0
     43659 TIP3     7071     TIP3     H2       HT       0.417000       1.00800           0
     43660 TIP3     7072     TIP3     OH2      OT      -0.834000       15.9994           0
     43661 TIP3     7072     TIP3     H1       HT       0.417000       1.00800           0
     43662 TIP3     7072     TIP3     H2       HT       0.417000       1.00800           0
     43663 TIP3     7073     TIP3     OH2      OT      -0.834000       15.9994           0
     43664 TIP3     7073     TIP3     H1       HT       0.417000       1.00800           0
     43665 TIP3     7073     TIP3     H2       HT       0.417000       1.00800           0
     43666 TIP3     7074     TIP3     OH2      OT      -0.834000       15.9994           0
     43667 TIP3     7074     TIP3     H1       HT       0.417000       1.00800           0
     43668 TIP3     7074     TIP3     H2       HT       0.417000       1.00800           0
     43669 TIP3     7075     TIP3     OH2      OT      -0.834000       15.9994           0
     43670 TIP3     7075     TIP3     H1       HT       0.417000       1.00800           0
     43671 TIP3     7075     TIP3     H2       HT       0.417000       1.00800           0
     43672 TIP3     7076     TIP3     OH2      OT      -0.834000       15.9994           0
     43673 TIP3     7076     TIP3     H1       HT       0.417000       1.00800           0
     43674 TIP3     7076     TIP3     H2       HT       0.417000       1.00800           0
     43675 TIP3     7077     TIP3     OH2      OT      -0.834000       15.9994           0
     43676 TIP3     7077     TIP3     H1       HT       0.417000       1.00800           0
     43677 TIP3     7077     TIP3     H2       HT       0.417000       1.00800           0
     43678 TIP3     7078     TIP3     OH2      OT      -0.834000       15.9994           0
     43679 TIP3     7078     TIP3     H1       HT       0.417000       1.00800           0
     43680 TIP3     7078     TIP3     H2       HT       0.417000       1.00800           0
     43681 TIP3     7079     TIP3     OH2      OT      -0.834000       15.9994           0
     43682 TIP3     7079     TIP3     H1       HT       0.417000       1.00800           0
     43683 TIP3     7079     TIP3     H2       HT       0.417000       1.00800           0
     43684 TIP3     7080     TIP3     OH2      OT      -0.834000       15.9994           0
     43685 TIP3     7080     TIP3     H1       HT       0.417000       1.00800           0
     43686 TIP3     7080     TIP3     H2       HT       0.417000       1.00800           0
     43687 TIP3     7081     TIP3     OH2      OT      -0.834000       15.9994           0
     43688 TIP3     7081     TIP3     H1       HT       0.417000       1.00800           0
     43689 TIP3     7081     TIP3     H2       HT       0.417000       1.00800           0
     43690 TIP3     7082     TIP3     OH2      OT      -0.834000       15.9994           0
     43691 TIP3     7082     TIP3     H1       HT       0.417000       1.00800           0
     43692 TIP3     7082     TIP3     H2       HT       0.417000       1.00800           0
     43693 TIP3     7083     TIP3     OH2      OT      -0.834000       15.9994           0
     43694 TIP3     7083     TIP3     H1       HT       0.417000       1.00800           0
     43695 TIP3     7083     TIP3     H2       HT       0.417000       1.00800           0
     43696 TIP3     7084     TIP3     OH2      OT      -0.834000       15.9994           0
     43697 TIP3     7084     TIP3     H1       HT       0.417000       1.00800           0
     43698 TIP3     7084     TIP3     H2       HT       0.417000       1.00800           0
     43699 TIP3     7085     TIP3     OH2      OT      -0.834000       15.9994           0
     43700 TIP3     7085     TIP3     H1       HT       0.417000       1.00800           0
     43701 TIP3     7085     TIP3     H2       HT       0.417000       1.00800           0
     43702 TIP3     7086     TIP3     OH2      OT      -0.834000       15.9994           0
     43703 TIP3     7086     TIP3     H1       HT       0.417000       1.00800           0
     43704 TIP3     7086     TIP3     H2       HT       0.417000       1.00800           0
     43705 TIP3     7087     TIP3     OH2      OT      -0.834000       15.9994           0
     43706 TIP3     7087     TIP3     H1       HT       0.417000       1.00800           0
     43707 TIP3     7087     TIP3     H2       HT       0.417000       1.00800           0
     43708 TIP3     7088     TIP3     OH2      OT      -0.834000       15.9994           0
     43709 TIP3     7088     TIP3     H1       HT       0.417000       1.00800           0
     43710 TIP3     7088     TIP3     H2       HT       0.417000       1.00800           0
     43711 TIP3     7089     TIP3     OH2      OT      -0.834000       15.9994           0
     43712 TIP3     7089     TIP3     H1       HT       0.417000       1.00800           0
     43713 TIP3     7089     TIP3     H2       HT       0.417000       1.00800           0
     43714 TIP3     7090     TIP3     OH2      OT      -0.834000       15.9994           0
     43715 TIP3     7090     TIP3     H1       HT       0.417000       1.00800           0
     43716 TIP3     7090     TIP3     H2       HT       0.417000       1.00800           0
     43717 TIP3     7091     TIP3     OH2      OT      -0.834000       15.9994           0
     43718 TIP3     7091     TIP3     H1       HT       0.417000       1.00800           0
     43719 TIP3     7091     TIP3     H2       HT       0.417000       1.00800           0
     43720 TIP3     7092     TIP3     OH2      OT      -0.834000       15.9994           0
     43721 TIP3     7092     TIP3     H1       HT       0.417000       1.00800           0
     43722 TIP3     7092     TIP3     H2       HT       0.417000       1.00800           0
     43723 TIP3     7093     TIP3     OH2      OT      -0.834000       15.9994           0
     43724 TIP3     7093     TIP3     H1       HT       0.417000       1.00800           0
     43725 TIP3     7093     TIP3     H2       HT       0.417000       1.00800           0
     43726 TIP3     7094     TIP3     OH2      OT      -0.834000       15.9994           0
     43727 TIP3     7094     TIP3     H1       HT       0.417000       1.00800           0
     43728 TIP3     7094     TIP3     H2       HT       0.417000       1.00800           0
     43729 TIP3     7095     TIP3     OH2      OT      -0.834000       15.9994           0
     43730 TIP3     7095     TIP3     H1       HT       0.417000       1.00800           0
     43731 TIP3     7095     TIP3     H2       HT       0.417000       1.00800           0
     43732 TIP3     7096     TIP3     OH2      OT      -0.834000       15.9994           0
     43733 TIP3     7096     TIP3     H1       HT       0.417000       1.00800           0
     43734 TIP3     7096     TIP3     H2       HT       0.417000       1.00800           0
     43735 TIP3     7097     TIP3     OH2      OT      -0.834000       15.9994           0
     43736 TIP3     7097     TIP3     H1       HT       0.417000       1.00800           0
     43737 TIP3     7097     TIP3     H2       HT       0.417000       1.00800           0
     43738 TIP3     7098     TIP3     OH2      OT      -0.834000       15.9994           0
     43739 TIP3     7098     TIP3     H1       HT       0.417000       1.00800           0
     43740 TIP3     7098     TIP3     H2       HT       0.417000       1.00800           0
     43741 TIP3     7099     TIP3     OH2      OT      -0.834000       15.9994           0
     43742 TIP3     7099     TIP3     H1       HT       0.417000       1.00800           0
     43743 TIP3     7099     TIP3     H2       HT       0.417000       1.00800           0
     43744 TIP3     7100     TIP3     OH2      OT      -0.834000       15.9994           0
     43745 TIP3     7100     TIP3     H1       HT       0.417000       1.00800           0
     43746 TIP3     7100     TIP3     H2       HT       0.417000       1.00800           0
     43747 TIP3     7101     TIP3     OH2      OT      -0.834000       15.9994           0
     43748 TIP3     7101     TIP3     H1       HT       0.417000       1.00800           0
     43749 TIP3     7101     TIP3     H2       HT       0.417000       1.00800           0
     43750 TIP3     7102     TIP3     OH2      OT      -0.834000       15.9994           0
     43751 TIP3     7102     TIP3     H1       HT       0.417000       1.00800           0
     43752 TIP3     7102     TIP3     H2       HT       0.417000       1.00800           0
     43753 TIP3     7103     TIP3     OH2      OT      -0.834000       15.9994           0
     43754 TIP3     7103     TIP3     H1       HT       0.417000       1.00800           0
     43755 TIP3     7103     TIP3     H2       HT       0.417000       1.00800           0
     43756 TIP3     7104     TIP3     OH2      OT      -0.834000       15.9994           0
     43757 TIP3     7104     TIP3     H1       HT       0.417000       1.00800           0
     43758 TIP3     7104     TIP3     H2       HT       0.417000       1.00800           0
     43759 TIP3     7105     TIP3     OH2      OT      -0.834000       15.9994           0
     43760 TIP3     7105     TIP3     H1       HT       0.417000       1.00800           0
     43761 TIP3     7105     TIP3     H2       HT       0.417000       1.00800           0
     43762 TIP3     7106     TIP3     OH2      OT      -0.834000       15.9994           0
     43763 TIP3     7106     TIP3     H1       HT       0.417000       1.00800           0
     43764 TIP3     7106     TIP3     H2       HT       0.417000       1.00800           0
     43765 TIP3     7107     TIP3     OH2      OT      -0.834000       15.9994           0
     43766 TIP3     7107     TIP3     H1       HT       0.417000       1.00800           0
     43767 TIP3     7107     TIP3     H2       HT       0.417000       1.00800           0
     43768 TIP3     7108     TIP3     OH2      OT      -0.834000       15.9994           0
     43769 TIP3     7108     TIP3     H1       HT       0.417000       1.00800           0
     43770 TIP3     7108     TIP3     H2       HT       0.417000       1.00800           0
     43771 TIP3     7109     TIP3     OH2      OT      -0.834000       15.9994           0
     43772 TIP3     7109     TIP3     H1       HT       0.417000       1.00800           0
     43773 TIP3     7109     TIP3     H2       HT       0.417000       1.00800           0
     43774 TIP3     7110     TIP3     OH2      OT      -0.834000       15.9994           0
     43775 TIP3     7110     TIP3     H1       HT       0.417000       1.00800           0
     43776 TIP3     7110     TIP3     H2       HT       0.417000       1.00800           0
     43777 TIP3     7111     TIP3     OH2      OT      -0.834000       15.9994           0
     43778 TIP3     7111     TIP3     H1       HT       0.417000       1.00800           0
     43779 TIP3     7111     TIP3     H2       HT       0.417000       1.00800           0
     43780 TIP3     7112     TIP3     OH2      OT      -0.834000       15.9994           0
     43781 TIP3     7112     TIP3     H1       HT       0.417000       1.00800           0
     43782 TIP3     7112     TIP3     H2       HT       0.417000       1.00800           0
     43783 TIP3     7113     TIP3     OH2      OT      -0.834000       15.9994           0
     43784 TIP3     7113     TIP3     H1       HT       0.417000       1.00800           0
     43785 TIP3     7113     TIP3     H2       HT       0.417000       1.00800           0
     43786 TIP3     7114     TIP3     OH2      OT      -0.834000       15.9994           0
     43787 TIP3     7114     TIP3     H1       HT       0.417000       1.00800           0
     43788 TIP3     7114     TIP3     H2       HT       0.417000       1.00800           0
     43789 TIP3     7115     TIP3     OH2      OT      -0.834000       15.9994           0
     43790 TIP3     7115     TIP3     H1       HT       0.417000       1.00800           0
     43791 TIP3     7115     TIP3     H2       HT       0.417000       1.00800           0
     43792 TIP3     7116     TIP3     OH2      OT      -0.834000       15.9994           0
     43793 TIP3     7116     TIP3     H1       HT       0.417000       1.00800           0
     43794 TIP3     7116     TIP3     H2       HT       0.417000       1.00800           0
     43795 TIP3     7117     TIP3     OH2      OT      -0.834000       15.9994           0
     43796 TIP3     7117     TIP3     H1       HT       0.417000       1.00800           0
     43797 TIP3     7117     TIP3     H2       HT       0.417000       1.00800           0
     43798 TIP3     7118     TIP3     OH2      OT      -0.834000       15.9994           0
     43799 TIP3     7118     TIP3     H1       HT       0.417000       1.00800           0
     43800 TIP3     7118     TIP3     H2       HT       0.417000       1.00800           0
     43801 TIP3     7119     TIP3     OH2      OT      -0.834000       15.9994           0
     43802 TIP3     7119     TIP3     H1       HT       0.417000       1.00800           0
     43803 TIP3     7119     TIP3     H2       HT       0.417000       1.00800           0
     43804 TIP3     7120     TIP3     OH2      OT      -0.834000       15.9994           0
     43805 TIP3     7120     TIP3     H1       HT       0.417000       1.00800           0
     43806 TIP3     7120     TIP3     H2       HT       0.417000       1.00800           0
     43807 TIP3     7121     TIP3     OH2      OT      -0.834000       15.9994           0
     43808 TIP3     7121     TIP3     H1       HT       0.417000       1.00800           0
     43809 TIP3     7121     TIP3     H2       HT       0.417000       1.00800           0
     43810 TIP3     7122     TIP3     OH2      OT      -0.834000       15.9994           0
     43811 TIP3     7122     TIP3     H1       HT       0.417000       1.00800           0
     43812 TIP3     7122     TIP3     H2       HT       0.417000       1.00800           0
     43813 TIP3     7123     TIP3     OH2      OT      -0.834000       15.9994           0
     43814 TIP3     7123     TIP3     H1       HT       0.417000       1.00800           0
     43815 TIP3     7123     TIP3     H2       HT       0.417000       1.00800           0
     43816 TIP3     7124     TIP3     OH2      OT      -0.834000       15.9994           0
     43817 TIP3     7124     TIP3     H1       HT       0.417000       1.00800           0
     43818 TIP3     7124     TIP3     H2       HT       0.417000       1.00800           0
     43819 TIP3     7125     TIP3     OH2      OT      -0.834000       15.9994           0
     43820 TIP3     7125     TIP3     H1       HT       0.417000       1.00800           0
     43821 TIP3     7125     TIP3     H2       HT       0.417000       1.00800           0
     43822 TIP3     7126     TIP3     OH2      OT      -0.834000       15.9994           0
     43823 TIP3     7126     TIP3     H1       HT       0.417000       1.00800           0
     43824 TIP3     7126     TIP3     H2       HT       0.417000       1.00800           0
     43825 TIP3     7127     TIP3     OH2      OT      -0.834000       15.9994           0
     43826 TIP3     7127     TIP3     H1       HT       0.417000       1.00800           0
     43827 TIP3     7127     TIP3     H2       HT       0.417000       1.00800           0
     43828 TIP3     7128     TIP3     OH2      OT      -0.834000       15.9994           0
     43829 TIP3     7128     TIP3     H1       HT       0.417000       1.00800           0
     43830 TIP3     7128     TIP3     H2       HT       0.417000       1.00800           0
     43831 TIP3     7129     TIP3     OH2      OT      -0.834000       15.9994           0
     43832 TIP3     7129     TIP3     H1       HT       0.417000       1.00800           0
     43833 TIP3     7129     TIP3     H2       HT       0.417000       1.00800           0
     43834 TIP3     7130     TIP3     OH2      OT      -0.834000       15.9994           0
     43835 TIP3     7130     TIP3     H1       HT       0.417000       1.00800           0
     43836 TIP3     7130     TIP3     H2       HT       0.417000       1.00800           0
     43837 TIP3     7131     TIP3     OH2      OT      -0.834000       15.9994           0
     43838 TIP3     7131     TIP3     H1       HT       0.417000       1.00800           0
     43839 TIP3     7131     TIP3     H2       HT       0.417000       1.00800           0
     43840 TIP3     7132     TIP3     OH2      OT      -0.834000       15.9994           0
     43841 TIP3     7132     TIP3     H1       HT       0.417000       1.00800           0
     43842 TIP3     7132     TIP3     H2       HT       0.417000       1.00800           0
     43843 TIP3     7133     TIP3     OH2      OT      -0.834000       15.9994           0
     43844 TIP3     7133     TIP3     H1       HT       0.417000       1.00800           0
     43845 TIP3     7133     TIP3     H2       HT       0.417000       1.00800           0
     43846 TIP3     7134     TIP3     OH2      OT      -0.834000       15.9994           0
     43847 TIP3     7134     TIP3     H1       HT       0.417000       1.00800           0
     43848 TIP3     7134     TIP3     H2       HT       0.417000       1.00800           0
     43849 TIP3     7135     TIP3     OH2      OT      -0.834000       15.9994           0
     43850 TIP3     7135     TIP3     H1       HT       0.417000       1.00800           0
     43851 TIP3     7135     TIP3     H2       HT       0.417000       1.00800           0
     43852 TIP3     7136     TIP3     OH2      OT      -0.834000       15.9994           0
     43853 TIP3     7136     TIP3     H1       HT       0.417000       1.00800           0
     43854 TIP3     7136     TIP3     H2       HT       0.417000       1.00800           0
     43855 TIP3     7137     TIP3     OH2      OT      -0.834000       15.9994           0
     43856 TIP3     7137     TIP3     H1       HT       0.417000       1.00800           0
     43857 TIP3     7137     TIP3     H2       HT       0.417000       1.00800           0
     43858 TIP3     7138     TIP3     OH2      OT      -0.834000       15.9994           0
     43859 TIP3     7138     TIP3     H1       HT       0.417000       1.00800           0
     43860 TIP3     7138     TIP3     H2       HT       0.417000       1.00800           0
     43861 TIP3     7139     TIP3     OH2      OT      -0.834000       15.9994           0
     43862 TIP3     7139     TIP3     H1       HT       0.417000       1.00800           0
     43863 TIP3     7139     TIP3     H2       HT       0.417000       1.00800           0
     43864 TIP3     7140     TIP3     OH2      OT      -0.834000       15.9994           0
     43865 TIP3     7140     TIP3     H1       HT       0.417000       1.00800           0
     43866 TIP3     7140     TIP3     H2       HT       0.417000       1.00800           0
     43867 TIP3     7141     TIP3     OH2      OT      -0.834000       15.9994           0
     43868 TIP3     7141     TIP3     H1       HT       0.417000       1.00800           0
     43869 TIP3     7141     TIP3     H2       HT       0.417000       1.00800           0
     43870 TIP3     7142     TIP3     OH2      OT      -0.834000       15.9994           0
     43871 TIP3     7142     TIP3     H1       HT       0.417000       1.00800           0
     43872 TIP3     7142     TIP3     H2       HT       0.417000       1.00800           0
     43873 TIP3     7143     TIP3     OH2      OT      -0.834000       15.9994           0
     43874 TIP3     7143     TIP3     H1       HT       0.417000       1.00800           0
     43875 TIP3     7143     TIP3     H2       HT       0.417000       1.00800           0
     43876 TIP3     7144     TIP3     OH2      OT      -0.834000       15.9994           0
     43877 TIP3     7144     TIP3     H1       HT       0.417000       1.00800           0
     43878 TIP3     7144     TIP3     H2       HT       0.417000       1.00800           0
     43879 TIP3     7145     TIP3     OH2      OT      -0.834000       15.9994           0
     43880 TIP3     7145     TIP3     H1       HT       0.417000       1.00800           0
     43881 TIP3     7145     TIP3     H2       HT       0.417000       1.00800           0
     43882 TIP3     7146     TIP3     OH2      OT      -0.834000       15.9994           0
     43883 TIP3     7146     TIP3     H1       HT       0.417000       1.00800           0
     43884 TIP3     7146     TIP3     H2       HT       0.417000       1.00800           0
     43885 TIP3     7147     TIP3     OH2      OT      -0.834000       15.9994           0
     43886 TIP3     7147     TIP3     H1       HT       0.417000       1.00800           0
     43887 TIP3     7147     TIP3     H2       HT       0.417000       1.00800           0
     43888 TIP3     7148     TIP3     OH2      OT      -0.834000       15.9994           0
     43889 TIP3     7148     TIP3     H1       HT       0.417000       1.00800           0
     43890 TIP3     7148     TIP3     H2       HT       0.417000       1.00800           0
     43891 TIP3     7149     TIP3     OH2      OT      -0.834000       15.9994           0
     43892 TIP3     7149     TIP3     H1       HT       0.417000       1.00800           0
     43893 TIP3     7149     TIP3     H2       HT       0.417000       1.00800           0
     43894 TIP3     7150     TIP3     OH2      OT      -0.834000       15.9994           0
     43895 TIP3     7150     TIP3     H1       HT       0.417000       1.00800           0
     43896 TIP3     7150     TIP3     H2       HT       0.417000       1.00800           0
     43897 TIP3     7151     TIP3     OH2      OT      -0.834000       15.9994           0
     43898 TIP3     7151     TIP3     H1       HT       0.417000       1.00800           0
     43899 TIP3     7151     TIP3     H2       HT       0.417000       1.00800           0
     43900 TIP3     7152     TIP3     OH2      OT      -0.834000       15.9994           0
     43901 TIP3     7152     TIP3     H1       HT       0.417000       1.00800           0
     43902 TIP3     7152     TIP3     H2       HT       0.417000       1.00800           0
     43903 TIP3     7153     TIP3     OH2      OT      -0.834000       15.9994           0
     43904 TIP3     7153     TIP3     H1       HT       0.417000       1.00800           0
     43905 TIP3     7153     TIP3     H2       HT       0.417000       1.00800           0
     43906 TIP3     7154     TIP3     OH2      OT      -0.834000       15.9994           0
     43907 TIP3     7154     TIP3     H1       HT       0.417000       1.00800           0
     43908 TIP3     7154     TIP3     H2       HT       0.417000       1.00800           0
     43909 TIP3     7155     TIP3     OH2      OT      -0.834000       15.9994           0
     43910 TIP3     7155     TIP3     H1       HT       0.417000       1.00800           0
     43911 TIP3     7155     TIP3     H2       HT       0.417000       1.00800           0
     43912 TIP3     7156     TIP3     OH2      OT      -0.834000       15.9994           0
     43913 TIP3     7156     TIP3     H1       HT       0.417000       1.00800           0
     43914 TIP3     7156     TIP3     H2       HT       0.417000       1.00800           0
     43915 TIP3     7157     TIP3     OH2      OT      -0.834000       15.9994           0
     43916 TIP3     7157     TIP3     H1       HT       0.417000       1.00800           0
     43917 TIP3     7157     TIP3     H2       HT       0.417000       1.00800           0
     43918 TIP3     7158     TIP3     OH2      OT      -0.834000       15.9994           0
     43919 TIP3     7158     TIP3     H1       HT       0.417000       1.00800           0
     43920 TIP3     7158     TIP3     H2       HT       0.417000       1.00800           0
     43921 TIP3     7159     TIP3     OH2      OT      -0.834000       15.9994           0
     43922 TIP3     7159     TIP3     H1       HT       0.417000       1.00800           0
     43923 TIP3     7159     TIP3     H2       HT       0.417000       1.00800           0
     43924 TIP3     7160     TIP3     OH2      OT      -0.834000       15.9994           0
     43925 TIP3     7160     TIP3     H1       HT       0.417000       1.00800           0
     43926 TIP3     7160     TIP3     H2       HT       0.417000       1.00800           0
     43927 TIP3     7161     TIP3     OH2      OT      -0.834000       15.9994           0
     43928 TIP3     7161     TIP3     H1       HT       0.417000       1.00800           0
     43929 TIP3     7161     TIP3     H2       HT       0.417000       1.00800           0
     43930 TIP3     7162     TIP3     OH2      OT      -0.834000       15.9994           0
     43931 TIP3     7162     TIP3     H1       HT       0.417000       1.00800           0
     43932 TIP3     7162     TIP3     H2       HT       0.417000       1.00800           0
     43933 TIP3     7163     TIP3     OH2      OT      -0.834000       15.9994           0
     43934 TIP3     7163     TIP3     H1       HT       0.417000       1.00800           0
     43935 TIP3     7163     TIP3     H2       HT       0.417000       1.00800           0
     43936 TIP3     7164     TIP3     OH2      OT      -0.834000       15.9994           0
     43937 TIP3     7164     TIP3     H1       HT       0.417000       1.00800           0
     43938 TIP3     7164     TIP3     H2       HT       0.417000       1.00800           0
     43939 TIP3     7165     TIP3     OH2      OT      -0.834000       15.9994           0
     43940 TIP3     7165     TIP3     H1       HT       0.417000       1.00800           0
     43941 TIP3     7165     TIP3     H2       HT       0.417000       1.00800           0
     43942 TIP3     7166     TIP3     OH2      OT      -0.834000       15.9994           0
     43943 TIP3     7166     TIP3     H1       HT       0.417000       1.00800           0
     43944 TIP3     7166     TIP3     H2       HT       0.417000       1.00800           0
     43945 TIP3     7167     TIP3     OH2      OT      -0.834000       15.9994           0
     43946 TIP3     7167     TIP3     H1       HT       0.417000       1.00800           0
     43947 TIP3     7167     TIP3     H2       HT       0.417000       1.00800           0
     43948 TIP3     7168     TIP3     OH2      OT      -0.834000       15.9994           0
     43949 TIP3     7168     TIP3     H1       HT       0.417000       1.00800           0
     43950 TIP3     7168     TIP3     H2       HT       0.417000       1.00800           0
     43951 TIP3     7169     TIP3     OH2      OT      -0.834000       15.9994           0
     43952 TIP3     7169     TIP3     H1       HT       0.417000       1.00800           0
     43953 TIP3     7169     TIP3     H2       HT       0.417000       1.00800           0
     43954 TIP3     7170     TIP3     OH2      OT      -0.834000       15.9994           0
     43955 TIP3     7170     TIP3     H1       HT       0.417000       1.00800           0
     43956 TIP3     7170     TIP3     H2       HT       0.417000       1.00800           0
     43957 TIP3     7171     TIP3     OH2      OT      -0.834000       15.9994           0
     43958 TIP3     7171     TIP3     H1       HT       0.417000       1.00800           0
     43959 TIP3     7171     TIP3     H2       HT       0.417000       1.00800           0
     43960 TIP3     7172     TIP3     OH2      OT      -0.834000       15.9994           0
     43961 TIP3     7172     TIP3     H1       HT       0.417000       1.00800           0
     43962 TIP3     7172     TIP3     H2       HT       0.417000       1.00800           0
     43963 TIP3     7173     TIP3     OH2      OT      -0.834000       15.9994           0
     43964 TIP3     7173     TIP3     H1       HT       0.417000       1.00800           0
     43965 TIP3     7173     TIP3     H2       HT       0.417000       1.00800           0
     43966 TIP3     7174     TIP3     OH2      OT      -0.834000       15.9994           0
     43967 TIP3     7174     TIP3     H1       HT       0.417000       1.00800           0
     43968 TIP3     7174     TIP3     H2       HT       0.417000       1.00800           0
     43969 TIP3     7175     TIP3     OH2      OT      -0.834000       15.9994           0
     43970 TIP3     7175     TIP3     H1       HT       0.417000       1.00800           0
     43971 TIP3     7175     TIP3     H2       HT       0.417000       1.00800           0
     43972 TIP3     7176     TIP3     OH2      OT      -0.834000       15.9994           0
     43973 TIP3     7176     TIP3     H1       HT       0.417000       1.00800           0
     43974 TIP3     7176     TIP3     H2       HT       0.417000       1.00800           0
     43975 TIP3     7177     TIP3     OH2      OT      -0.834000       15.9994           0
     43976 TIP3     7177     TIP3     H1       HT       0.417000       1.00800           0
     43977 TIP3     7177     TIP3     H2       HT       0.417000       1.00800           0
     43978 TIP3     7178     TIP3     OH2      OT      -0.834000       15.9994           0
     43979 TIP3     7178     TIP3     H1       HT       0.417000       1.00800           0
     43980 TIP3     7178     TIP3     H2       HT       0.417000       1.00800           0
     43981 TIP3     7179     TIP3     OH2      OT      -0.834000       15.9994           0
     43982 TIP3     7179     TIP3     H1       HT       0.417000       1.00800           0
     43983 TIP3     7179     TIP3     H2       HT       0.417000       1.00800           0
     43984 TIP3     7180     TIP3     OH2      OT      -0.834000       15.9994           0
     43985 TIP3     7180     TIP3     H1       HT       0.417000       1.00800           0
     43986 TIP3     7180     TIP3     H2       HT       0.417000       1.00800           0
     43987 TIP3     7181     TIP3     OH2      OT      -0.834000       15.9994           0
     43988 TIP3     7181     TIP3     H1       HT       0.417000       1.00800           0
     43989 TIP3     7181     TIP3     H2       HT       0.417000       1.00800           0
     43990 TIP3     7182     TIP3     OH2      OT      -0.834000       15.9994           0
     43991 TIP3     7182     TIP3     H1       HT       0.417000       1.00800           0
     43992 TIP3     7182     TIP3     H2       HT       0.417000       1.00800           0
     43993 TIP3     7183     TIP3     OH2      OT      -0.834000       15.9994           0
     43994 TIP3     7183     TIP3     H1       HT       0.417000       1.00800           0
     43995 TIP3     7183     TIP3     H2       HT       0.417000       1.00800           0
     43996 TIP3     7184     TIP3     OH2      OT      -0.834000       15.9994           0
     43997 TIP3     7184     TIP3     H1       HT       0.417000       1.00800           0
     43998 TIP3     7184     TIP3     H2       HT       0.417000       1.00800           0
     43999 TIP3     7185     TIP3     OH2      OT      -0.834000       15.9994           0
     44000 TIP3     7185     TIP3     H1       HT       0.417000       1.00800           0
     44001 TIP3     7185     TIP3     H2       HT       0.417000       1.00800           0
     44002 TIP3     7186     TIP3     OH2      OT      -0.834000       15.9994           0
     44003 TIP3     7186     TIP3     H1       HT       0.417000       1.00800           0
     44004 TIP3     7186     TIP3     H2       HT       0.417000       1.00800           0
     44005 TIP3     7187     TIP3     OH2      OT      -0.834000       15.9994           0
     44006 TIP3     7187     TIP3     H1       HT       0.417000       1.00800           0
     44007 TIP3     7187     TIP3     H2       HT       0.417000       1.00800           0
     44008 TIP3     7188     TIP3     OH2      OT      -0.834000       15.9994           0
     44009 TIP3     7188     TIP3     H1       HT       0.417000       1.00800           0
     44010 TIP3     7188     TIP3     H2       HT       0.417000       1.00800           0
     44011 TIP3     7189     TIP3     OH2      OT      -0.834000       15.9994           0
     44012 TIP3     7189     TIP3     H1       HT       0.417000       1.00800           0
     44013 TIP3     7189     TIP3     H2       HT       0.417000       1.00800           0
     44014 TIP3     7190     TIP3     OH2      OT      -0.834000       15.9994           0
     44015 TIP3     7190     TIP3     H1       HT       0.417000       1.00800           0
     44016 TIP3     7190     TIP3     H2       HT       0.417000       1.00800           0
     44017 TIP3     7191     TIP3     OH2      OT      -0.834000       15.9994           0
     44018 TIP3     7191     TIP3     H1       HT       0.417000       1.00800           0
     44019 TIP3     7191     TIP3     H2       HT       0.417000       1.00800           0
     44020 TIP3     7192     TIP3     OH2      OT      -0.834000       15.9994           0
     44021 TIP3     7192     TIP3     H1       HT       0.417000       1.00800           0
     44022 TIP3     7192     TIP3     H2       HT       0.417000       1.00800           0
     44023 TIP3     7193     TIP3     OH2      OT      -0.834000       15.9994           0
     44024 TIP3     7193     TIP3     H1       HT       0.417000       1.00800           0
     44025 TIP3     7193     TIP3     H2       HT       0.417000       1.00800           0
     44026 TIP3     7194     TIP3     OH2      OT      -0.834000       15.9994           0
     44027 TIP3     7194     TIP3     H1       HT       0.417000       1.00800           0
     44028 TIP3     7194     TIP3     H2       HT       0.417000       1.00800           0
     44029 TIP3     7195     TIP3     OH2      OT      -0.834000       15.9994           0
     44030 TIP3     7195     TIP3     H1       HT       0.417000       1.00800           0
     44031 TIP3     7195     TIP3     H2       HT       0.417000       1.00800           0
     44032 TIP3     7196     TIP3     OH2      OT      -0.834000       15.9994           0
     44033 TIP3     7196     TIP3     H1       HT       0.417000       1.00800           0
     44034 TIP3     7196     TIP3     H2       HT       0.417000       1.00800           0
     44035 TIP3     7197     TIP3     OH2      OT      -0.834000       15.9994           0
     44036 TIP3     7197     TIP3     H1       HT       0.417000       1.00800           0
     44037 TIP3     7197     TIP3     H2       HT       0.417000       1.00800           0
     44038 TIP3     7198     TIP3     OH2      OT      -0.834000       15.9994           0
     44039 TIP3     7198     TIP3     H1       HT       0.417000       1.00800           0
     44040 TIP3     7198     TIP3     H2       HT       0.417000       1.00800           0
     44041 TIP3     7199     TIP3     OH2      OT      -0.834000       15.9994           0
     44042 TIP3     7199     TIP3     H1       HT       0.417000       1.00800           0
     44043 TIP3     7199     TIP3     H2       HT       0.417000       1.00800           0
     44044 TIP3     7200     TIP3     OH2      OT      -0.834000       15.9994           0
     44045 TIP3     7200     TIP3     H1       HT       0.417000       1.00800           0
     44046 TIP3     7200     TIP3     H2       HT       0.417000       1.00800           0
     44047 TIP3     7201     TIP3     OH2      OT      -0.834000       15.9994           0
     44048 TIP3     7201     TIP3     H1       HT       0.417000       1.00800           0
     44049 TIP3     7201     TIP3     H2       HT       0.417000       1.00800           0
     44050 TIP3     7202     TIP3     OH2      OT      -0.834000       15.9994           0
     44051 TIP3     7202     TIP3     H1       HT       0.417000       1.00800           0
     44052 TIP3     7202     TIP3     H2       HT       0.417000       1.00800           0
     44053 TIP3     7203     TIP3     OH2      OT      -0.834000       15.9994           0
     44054 TIP3     7203     TIP3     H1       HT       0.417000       1.00800           0
     44055 TIP3     7203     TIP3     H2       HT       0.417000       1.00800           0
     44056 TIP3     7204     TIP3     OH2      OT      -0.834000       15.9994           0
     44057 TIP3     7204     TIP3     H1       HT       0.417000       1.00800           0
     44058 TIP3     7204     TIP3     H2       HT       0.417000       1.00800           0
     44059 TIP3     7205     TIP3     OH2      OT      -0.834000       15.9994           0
     44060 TIP3     7205     TIP3     H1       HT       0.417000       1.00800           0
     44061 TIP3     7205     TIP3     H2       HT       0.417000       1.00800           0
     44062 TIP3     7206     TIP3     OH2      OT      -0.834000       15.9994           0
     44063 TIP3     7206     TIP3     H1       HT       0.417000       1.00800           0
     44064 TIP3     7206     TIP3     H2       HT       0.417000       1.00800           0
     44065 TIP3     7207     TIP3     OH2      OT      -0.834000       15.9994           0
     44066 TIP3     7207     TIP3     H1       HT       0.417000       1.00800           0
     44067 TIP3     7207     TIP3     H2       HT       0.417000       1.00800           0
     44068 TIP3     7208     TIP3     OH2      OT      -0.834000       15.9994           0
     44069 TIP3     7208     TIP3     H1       HT       0.417000       1.00800           0
     44070 TIP3     7208     TIP3     H2       HT       0.417000       1.00800           0
     44071 TIP3     7209     TIP3     OH2      OT      -0.834000       15.9994           0
     44072 TIP3     7209     TIP3     H1       HT       0.417000       1.00800           0
     44073 TIP3     7209     TIP3     H2       HT       0.417000       1.00800           0
     44074 TIP3     7210     TIP3     OH2      OT      -0.834000       15.9994           0
     44075 TIP3     7210     TIP3     H1       HT       0.417000       1.00800           0
     44076 TIP3     7210     TIP3     H2       HT       0.417000       1.00800           0
     44077 TIP3     7211     TIP3     OH2      OT      -0.834000       15.9994           0
     44078 TIP3     7211     TIP3     H1       HT       0.417000       1.00800           0
     44079 TIP3     7211     TIP3     H2       HT       0.417000       1.00800           0
     44080 TIP3     7212     TIP3     OH2      OT      -0.834000       15.9994           0
     44081 TIP3     7212     TIP3     H1       HT       0.417000       1.00800           0
     44082 TIP3     7212     TIP3     H2       HT       0.417000       1.00800           0
     44083 TIP3     7213     TIP3     OH2      OT      -0.834000       15.9994           0
     44084 TIP3     7213     TIP3     H1       HT       0.417000       1.00800           0
     44085 TIP3     7213     TIP3     H2       HT       0.417000       1.00800           0
     44086 TIP3     7214     TIP3     OH2      OT      -0.834000       15.9994           0
     44087 TIP3     7214     TIP3     H1       HT       0.417000       1.00800           0
     44088 TIP3     7214     TIP3     H2       HT       0.417000       1.00800           0
     44089 TIP3     7215     TIP3     OH2      OT      -0.834000       15.9994           0
     44090 TIP3     7215     TIP3     H1       HT       0.417000       1.00800           0
     44091 TIP3     7215     TIP3     H2       HT       0.417000       1.00800           0
     44092 TIP3     7216     TIP3     OH2      OT      -0.834000       15.9994           0
     44093 TIP3     7216     TIP3     H1       HT       0.417000       1.00800           0
     44094 TIP3     7216     TIP3     H2       HT       0.417000       1.00800           0
     44095 TIP3     7217     TIP3     OH2      OT      -0.834000       15.9994           0
     44096 TIP3     7217     TIP3     H1       HT       0.417000       1.00800           0
     44097 TIP3     7217     TIP3     H2       HT       0.417000       1.00800           0
     44098 TIP3     7218     TIP3     OH2      OT      -0.834000       15.9994           0
     44099 TIP3     7218     TIP3     H1       HT       0.417000       1.00800           0
     44100 TIP3     7218     TIP3     H2       HT       0.417000       1.00800           0
     44101 TIP3     7219     TIP3     OH2      OT      -0.834000       15.9994           0
     44102 TIP3     7219     TIP3     H1       HT       0.417000       1.00800           0
     44103 TIP3     7219     TIP3     H2       HT       0.417000       1.00800           0
     44104 TIP3     7220     TIP3     OH2      OT      -0.834000       15.9994           0
     44105 TIP3     7220     TIP3     H1       HT       0.417000       1.00800           0
     44106 TIP3     7220     TIP3     H2       HT       0.417000       1.00800           0
     44107 TIP3     7221     TIP3     OH2      OT      -0.834000       15.9994           0
     44108 TIP3     7221     TIP3     H1       HT       0.417000       1.00800           0
     44109 TIP3     7221     TIP3     H2       HT       0.417000       1.00800           0
     44110 TIP3     7222     TIP3     OH2      OT      -0.834000       15.9994           0
     44111 TIP3     7222     TIP3     H1       HT       0.417000       1.00800           0
     44112 TIP3     7222     TIP3     H2       HT       0.417000       1.00800           0
     44113 TIP3     7223     TIP3     OH2      OT      -0.834000       15.9994           0
     44114 TIP3     7223     TIP3     H1       HT       0.417000       1.00800           0
     44115 TIP3     7223     TIP3     H2       HT       0.417000       1.00800           0
     44116 TIP3     7224     TIP3     OH2      OT      -0.834000       15.9994           0
     44117 TIP3     7224     TIP3     H1       HT       0.417000       1.00800           0
     44118 TIP3     7224     TIP3     H2       HT       0.417000       1.00800           0
     44119 TIP3     7225     TIP3     OH2      OT      -0.834000       15.9994           0
     44120 TIP3     7225     TIP3     H1       HT       0.417000       1.00800           0
     44121 TIP3     7225     TIP3     H2       HT       0.417000       1.00800           0
     44122 TIP3     7226     TIP3     OH2      OT      -0.834000       15.9994           0
     44123 TIP3     7226     TIP3     H1       HT       0.417000       1.00800           0
     44124 TIP3     7226     TIP3     H2       HT       0.417000       1.00800           0
     44125 TIP3     7227     TIP3     OH2      OT      -0.834000       15.9994           0
     44126 TIP3     7227     TIP3     H1       HT       0.417000       1.00800           0
     44127 TIP3     7227     TIP3     H2       HT       0.417000       1.00800           0
     44128 TIP3     7228     TIP3     OH2      OT      -0.834000       15.9994           0
     44129 TIP3     7228     TIP3     H1       HT       0.417000       1.00800           0
     44130 TIP3     7228     TIP3     H2       HT       0.417000       1.00800           0
     44131 TIP3     7229     TIP3     OH2      OT      -0.834000       15.9994           0
     44132 TIP3     7229     TIP3     H1       HT       0.417000       1.00800           0
     44133 TIP3     7229     TIP3     H2       HT       0.417000       1.00800           0
     44134 TIP3     7230     TIP3     OH2      OT      -0.834000       15.9994           0
     44135 TIP3     7230     TIP3     H1       HT       0.417000       1.00800           0
     44136 TIP3     7230     TIP3     H2       HT       0.417000       1.00800           0
     44137 TIP3     7231     TIP3     OH2      OT      -0.834000       15.9994           0
     44138 TIP3     7231     TIP3     H1       HT       0.417000       1.00800           0
     44139 TIP3     7231     TIP3     H2       HT       0.417000       1.00800           0
     44140 TIP3     7232     TIP3     OH2      OT      -0.834000       15.9994           0
     44141 TIP3     7232     TIP3     H1       HT       0.417000       1.00800           0
     44142 TIP3     7232     TIP3     H2       HT       0.417000       1.00800           0
     44143 TIP3     7233     TIP3     OH2      OT      -0.834000       15.9994           0
     44144 TIP3     7233     TIP3     H1       HT       0.417000       1.00800           0
     44145 TIP3     7233     TIP3     H2       HT       0.417000       1.00800           0
     44146 TIP3     7234     TIP3     OH2      OT      -0.834000       15.9994           0
     44147 TIP3     7234     TIP3     H1       HT       0.417000       1.00800           0
     44148 TIP3     7234     TIP3     H2       HT       0.417000       1.00800           0
     44149 TIP3     7235     TIP3     OH2      OT      -0.834000       15.9994           0
     44150 TIP3     7235     TIP3     H1       HT       0.417000       1.00800           0
     44151 TIP3     7235     TIP3     H2       HT       0.417000       1.00800           0
     44152 TIP3     7236     TIP3     OH2      OT      -0.834000       15.9994           0
     44153 TIP3     7236     TIP3     H1       HT       0.417000       1.00800           0
     44154 TIP3     7236     TIP3     H2       HT       0.417000       1.00800           0
     44155 TIP3     7237     TIP3     OH2      OT      -0.834000       15.9994           0
     44156 TIP3     7237     TIP3     H1       HT       0.417000       1.00800           0
     44157 TIP3     7237     TIP3     H2       HT       0.417000       1.00800           0
     44158 TIP3     7238     TIP3     OH2      OT      -0.834000       15.9994           0
     44159 TIP3     7238     TIP3     H1       HT       0.417000       1.00800           0
     44160 TIP3     7238     TIP3     H2       HT       0.417000       1.00800           0
     44161 TIP3     7239     TIP3     OH2      OT      -0.834000       15.9994           0
     44162 TIP3     7239     TIP3     H1       HT       0.417000       1.00800           0
     44163 TIP3     7239     TIP3     H2       HT       0.417000       1.00800           0
     44164 TIP3     7240     TIP3     OH2      OT      -0.834000       15.9994           0
     44165 TIP3     7240     TIP3     H1       HT       0.417000       1.00800           0
     44166 TIP3     7240     TIP3     H2       HT       0.417000       1.00800           0
     44167 TIP3     7241     TIP3     OH2      OT      -0.834000       15.9994           0
     44168 TIP3     7241     TIP3     H1       HT       0.417000       1.00800           0
     44169 TIP3     7241     TIP3     H2       HT       0.417000       1.00800           0
     44170 TIP3     7242     TIP3     OH2      OT      -0.834000       15.9994           0
     44171 TIP3     7242     TIP3     H1       HT       0.417000       1.00800           0
     44172 TIP3     7242     TIP3     H2       HT       0.417000       1.00800           0
     44173 TIP3     7243     TIP3     OH2      OT      -0.834000       15.9994           0
     44174 TIP3     7243     TIP3     H1       HT       0.417000       1.00800           0
     44175 TIP3     7243     TIP3     H2       HT       0.417000       1.00800           0
     44176 TIP3     7244     TIP3     OH2      OT      -0.834000       15.9994           0
     44177 TIP3     7244     TIP3     H1       HT       0.417000       1.00800           0
     44178 TIP3     7244     TIP3     H2       HT       0.417000       1.00800           0
     44179 TIP3     7245     TIP3     OH2      OT      -0.834000       15.9994           0
     44180 TIP3     7245     TIP3     H1       HT       0.417000       1.00800           0
     44181 TIP3     7245     TIP3     H2       HT       0.417000       1.00800           0
     44182 TIP3     7246     TIP3     OH2      OT      -0.834000       15.9994           0
     44183 TIP3     7246     TIP3     H1       HT       0.417000       1.00800           0
     44184 TIP3     7246     TIP3     H2       HT       0.417000       1.00800           0
     44185 TIP3     7247     TIP3     OH2      OT      -0.834000       15.9994           0
     44186 TIP3     7247     TIP3     H1       HT       0.417000       1.00800           0
     44187 TIP3     7247     TIP3     H2       HT       0.417000       1.00800           0
     44188 TIP3     7248     TIP3     OH2      OT      -0.834000       15.9994           0
     44189 TIP3     7248     TIP3     H1       HT       0.417000       1.00800           0
     44190 TIP3     7248     TIP3     H2       HT       0.417000       1.00800           0
     44191 TIP3     7249     TIP3     OH2      OT      -0.834000       15.9994           0
     44192 TIP3     7249     TIP3     H1       HT       0.417000       1.00800           0
     44193 TIP3     7249     TIP3     H2       HT       0.417000       1.00800           0
     44194 TIP3     7250     TIP3     OH2      OT      -0.834000       15.9994           0
     44195 TIP3     7250     TIP3     H1       HT       0.417000       1.00800           0
     44196 TIP3     7250     TIP3     H2       HT       0.417000       1.00800           0
     44197 TIP3     7251     TIP3     OH2      OT      -0.834000       15.9994           0
     44198 TIP3     7251     TIP3     H1       HT       0.417000       1.00800           0
     44199 TIP3     7251     TIP3     H2       HT       0.417000       1.00800           0
     44200 TIP3     7252     TIP3     OH2      OT      -0.834000       15.9994           0
     44201 TIP3     7252     TIP3     H1       HT       0.417000       1.00800           0
     44202 TIP3     7252     TIP3     H2       HT       0.417000       1.00800           0
     44203 TIP3     7253     TIP3     OH2      OT      -0.834000       15.9994           0
     44204 TIP3     7253     TIP3     H1       HT       0.417000       1.00800           0
     44205 TIP3     7253     TIP3     H2       HT       0.417000       1.00800           0
     44206 TIP3     7254     TIP3     OH2      OT      -0.834000       15.9994           0
     44207 TIP3     7254     TIP3     H1       HT       0.417000       1.00800           0
     44208 TIP3     7254     TIP3     H2       HT       0.417000       1.00800           0
     44209 TIP3     7255     TIP3     OH2      OT      -0.834000       15.9994           0
     44210 TIP3     7255     TIP3     H1       HT       0.417000       1.00800           0
     44211 TIP3     7255     TIP3     H2       HT       0.417000       1.00800           0
     44212 TIP3     7256     TIP3     OH2      OT      -0.834000       15.9994           0
     44213 TIP3     7256     TIP3     H1       HT       0.417000       1.00800           0
     44214 TIP3     7256     TIP3     H2       HT       0.417000       1.00800           0
     44215 TIP3     7257     TIP3     OH2      OT      -0.834000       15.9994           0
     44216 TIP3     7257     TIP3     H1       HT       0.417000       1.00800           0
     44217 TIP3     7257     TIP3     H2       HT       0.417000       1.00800           0
     44218 TIP3     7258     TIP3     OH2      OT      -0.834000       15.9994           0
     44219 TIP3     7258     TIP3     H1       HT       0.417000       1.00800           0
     44220 TIP3     7258     TIP3     H2       HT       0.417000       1.00800           0
     44221 TIP3     7259     TIP3     OH2      OT      -0.834000       15.9994           0
     44222 TIP3     7259     TIP3     H1       HT       0.417000       1.00800           0
     44223 TIP3     7259     TIP3     H2       HT       0.417000       1.00800           0
     44224 TIP3     7260     TIP3     OH2      OT      -0.834000       15.9994           0
     44225 TIP3     7260     TIP3     H1       HT       0.417000       1.00800           0
     44226 TIP3     7260     TIP3     H2       HT       0.417000       1.00800           0
     44227 TIP3     7261     TIP3     OH2      OT      -0.834000       15.9994           0
     44228 TIP3     7261     TIP3     H1       HT       0.417000       1.00800           0
     44229 TIP3     7261     TIP3     H2       HT       0.417000       1.00800           0
     44230 TIP3     7262     TIP3     OH2      OT      -0.834000       15.9994           0
     44231 TIP3     7262     TIP3     H1       HT       0.417000       1.00800           0
     44232 TIP3     7262     TIP3     H2       HT       0.417000       1.00800           0
     44233 TIP3     7263     TIP3     OH2      OT      -0.834000       15.9994           0
     44234 TIP3     7263     TIP3     H1       HT       0.417000       1.00800           0
     44235 TIP3     7263     TIP3     H2       HT       0.417000       1.00800           0
     44236 TIP3     7264     TIP3     OH2      OT      -0.834000       15.9994           0
     44237 TIP3     7264     TIP3     H1       HT       0.417000       1.00800           0
     44238 TIP3     7264     TIP3     H2       HT       0.417000       1.00800           0
     44239 TIP3     7265     TIP3     OH2      OT      -0.834000       15.9994           0
     44240 TIP3     7265     TIP3     H1       HT       0.417000       1.00800           0
     44241 TIP3     7265     TIP3     H2       HT       0.417000       1.00800           0
     44242 TIP3     7266     TIP3     OH2      OT      -0.834000       15.9994           0
     44243 TIP3     7266     TIP3     H1       HT       0.417000       1.00800           0
     44244 TIP3     7266     TIP3     H2       HT       0.417000       1.00800           0
     44245 TIP3     7267     TIP3     OH2      OT      -0.834000       15.9994           0
     44246 TIP3     7267     TIP3     H1       HT       0.417000       1.00800           0
     44247 TIP3     7267     TIP3     H2       HT       0.417000       1.00800           0
     44248 TIP3     7268     TIP3     OH2      OT      -0.834000       15.9994           0
     44249 TIP3     7268     TIP3     H1       HT       0.417000       1.00800           0
     44250 TIP3     7268     TIP3     H2       HT       0.417000       1.00800           0
     44251 TIP3     7269     TIP3     OH2      OT      -0.834000       15.9994           0
     44252 TIP3     7269     TIP3     H1       HT       0.417000       1.00800           0
     44253 TIP3     7269     TIP3     H2       HT       0.417000       1.00800           0
     44254 TIP3     7270     TIP3     OH2      OT      -0.834000       15.9994           0
     44255 TIP3     7270     TIP3     H1       HT       0.417000       1.00800           0
     44256 TIP3     7270     TIP3     H2       HT       0.417000       1.00800           0
     44257 TIP3     7271     TIP3     OH2      OT      -0.834000       15.9994           0
     44258 TIP3     7271     TIP3     H1       HT       0.417000       1.00800           0
     44259 TIP3     7271     TIP3     H2       HT       0.417000       1.00800           0
     44260 TIP3     7272     TIP3     OH2      OT      -0.834000       15.9994           0
     44261 TIP3     7272     TIP3     H1       HT       0.417000       1.00800           0
     44262 TIP3     7272     TIP3     H2       HT       0.417000       1.00800           0
     44263 TIP3     7273     TIP3     OH2      OT      -0.834000       15.9994           0
     44264 TIP3     7273     TIP3     H1       HT       0.417000       1.00800           0
     44265 TIP3     7273     TIP3     H2       HT       0.417000       1.00800           0
     44266 TIP3     7274     TIP3     OH2      OT      -0.834000       15.9994           0
     44267 TIP3     7274     TIP3     H1       HT       0.417000       1.00800           0
     44268 TIP3     7274     TIP3     H2       HT       0.417000       1.00800           0
     44269 TIP3     7275     TIP3     OH2      OT      -0.834000       15.9994           0
     44270 TIP3     7275     TIP3     H1       HT       0.417000       1.00800           0
     44271 TIP3     7275     TIP3     H2       HT       0.417000       1.00800           0
     44272 TIP3     7276     TIP3     OH2      OT      -0.834000       15.9994           0
     44273 TIP3     7276     TIP3     H1       HT       0.417000       1.00800           0
     44274 TIP3     7276     TIP3     H2       HT       0.417000       1.00800           0
     44275 TIP3     7277     TIP3     OH2      OT      -0.834000       15.9994           0
     44276 TIP3     7277     TIP3     H1       HT       0.417000       1.00800           0
     44277 TIP3     7277     TIP3     H2       HT       0.417000       1.00800           0
     44278 TIP3     7278     TIP3     OH2      OT      -0.834000       15.9994           0
     44279 TIP3     7278     TIP3     H1       HT       0.417000       1.00800           0
     44280 TIP3     7278     TIP3     H2       HT       0.417000       1.00800           0
     44281 TIP3     7279     TIP3     OH2      OT      -0.834000       15.9994           0
     44282 TIP3     7279     TIP3     H1       HT       0.417000       1.00800           0
     44283 TIP3     7279     TIP3     H2       HT       0.417000       1.00800           0
     44284 TIP3     7280     TIP3     OH2      OT      -0.834000       15.9994           0
     44285 TIP3     7280     TIP3     H1       HT       0.417000       1.00800           0
     44286 TIP3     7280     TIP3     H2       HT       0.417000       1.00800           0
     44287 TIP3     7281     TIP3     OH2      OT      -0.834000       15.9994           0
     44288 TIP3     7281     TIP3     H1       HT       0.417000       1.00800           0
     44289 TIP3     7281     TIP3     H2       HT       0.417000       1.00800           0
     44290 TIP3     7282     TIP3     OH2      OT      -0.834000       15.9994           0
     44291 TIP3     7282     TIP3     H1       HT       0.417000       1.00800           0
     44292 TIP3     7282     TIP3     H2       HT       0.417000       1.00800           0
     44293 TIP3     7283     TIP3     OH2      OT      -0.834000       15.9994           0
     44294 TIP3     7283     TIP3     H1       HT       0.417000       1.00800           0
     44295 TIP3     7283     TIP3     H2       HT       0.417000       1.00800           0
     44296 TIP3     7284     TIP3     OH2      OT      -0.834000       15.9994           0
     44297 TIP3     7284     TIP3     H1       HT       0.417000       1.00800           0
     44298 TIP3     7284     TIP3     H2       HT       0.417000       1.00800           0
     44299 TIP3     7285     TIP3     OH2      OT      -0.834000       15.9994           0
     44300 TIP3     7285     TIP3     H1       HT       0.417000       1.00800           0
     44301 TIP3     7285     TIP3     H2       HT       0.417000       1.00800           0
     44302 TIP3     7286     TIP3     OH2      OT      -0.834000       15.9994           0
     44303 TIP3     7286     TIP3     H1       HT       0.417000       1.00800           0
     44304 TIP3     7286     TIP3     H2       HT       0.417000       1.00800           0
     44305 TIP3     7287     TIP3     OH2      OT      -0.834000       15.9994           0
     44306 TIP3     7287     TIP3     H1       HT       0.417000       1.00800           0
     44307 TIP3     7287     TIP3     H2       HT       0.417000       1.00800           0
     44308 TIP3     7288     TIP3     OH2      OT      -0.834000       15.9994           0
     44309 TIP3     7288     TIP3     H1       HT       0.417000       1.00800           0
     44310 TIP3     7288     TIP3     H2       HT       0.417000       1.00800           0
     44311 TIP3     7289     TIP3     OH2      OT      -0.834000       15.9994           0
     44312 TIP3     7289     TIP3     H1       HT       0.417000       1.00800           0
     44313 TIP3     7289     TIP3     H2       HT       0.417000       1.00800           0
     44314 TIP3     7290     TIP3     OH2      OT      -0.834000       15.9994           0
     44315 TIP3     7290     TIP3     H1       HT       0.417000       1.00800           0
     44316 TIP3     7290     TIP3     H2       HT       0.417000       1.00800           0
     44317 TIP3     7291     TIP3     OH2      OT      -0.834000       15.9994           0
     44318 TIP3     7291     TIP3     H1       HT       0.417000       1.00800           0
     44319 TIP3     7291     TIP3     H2       HT       0.417000       1.00800           0
     44320 TIP3     7292     TIP3     OH2      OT      -0.834000       15.9994           0
     44321 TIP3     7292     TIP3     H1       HT       0.417000       1.00800           0
     44322 TIP3     7292     TIP3     H2       HT       0.417000       1.00800           0
     44323 TIP3     7293     TIP3     OH2      OT      -0.834000       15.9994           0
     44324 TIP3     7293     TIP3     H1       HT       0.417000       1.00800           0
     44325 TIP3     7293     TIP3     H2       HT       0.417000       1.00800           0
     44326 TIP3     7294     TIP3     OH2      OT      -0.834000       15.9994           0
     44327 TIP3     7294     TIP3     H1       HT       0.417000       1.00800           0
     44328 TIP3     7294     TIP3     H2       HT       0.417000       1.00800           0
     44329 TIP3     7295     TIP3     OH2      OT      -0.834000       15.9994           0
     44330 TIP3     7295     TIP3     H1       HT       0.417000       1.00800           0
     44331 TIP3     7295     TIP3     H2       HT       0.417000       1.00800           0
     44332 TIP3     7296     TIP3     OH2      OT      -0.834000       15.9994           0
     44333 TIP3     7296     TIP3     H1       HT       0.417000       1.00800           0
     44334 TIP3     7296     TIP3     H2       HT       0.417000       1.00800           0
     44335 TIP3     7297     TIP3     OH2      OT      -0.834000       15.9994           0
     44336 TIP3     7297     TIP3     H1       HT       0.417000       1.00800           0
     44337 TIP3     7297     TIP3     H2       HT       0.417000       1.00800           0
     44338 TIP3     7298     TIP3     OH2      OT      -0.834000       15.9994           0
     44339 TIP3     7298     TIP3     H1       HT       0.417000       1.00800           0
     44340 TIP3     7298     TIP3     H2       HT       0.417000       1.00800           0
     44341 TIP3     7299     TIP3     OH2      OT      -0.834000       15.9994           0
     44342 TIP3     7299     TIP3     H1       HT       0.417000       1.00800           0
     44343 TIP3     7299     TIP3     H2       HT       0.417000       1.00800           0
     44344 TIP3     7300     TIP3     OH2      OT      -0.834000       15.9994           0
     44345 TIP3     7300     TIP3     H1       HT       0.417000       1.00800           0
     44346 TIP3     7300     TIP3     H2       HT       0.417000       1.00800           0
     44347 TIP3     7301     TIP3     OH2      OT      -0.834000       15.9994           0
     44348 TIP3     7301     TIP3     H1       HT       0.417000       1.00800           0
     44349 TIP3     7301     TIP3     H2       HT       0.417000       1.00800           0
     44350 TIP3     7302     TIP3     OH2      OT      -0.834000       15.9994           0
     44351 TIP3     7302     TIP3     H1       HT       0.417000       1.00800           0
     44352 TIP3     7302     TIP3     H2       HT       0.417000       1.00800           0
     44353 TIP3     7303     TIP3     OH2      OT      -0.834000       15.9994           0
     44354 TIP3     7303     TIP3     H1       HT       0.417000       1.00800           0
     44355 TIP3     7303     TIP3     H2       HT       0.417000       1.00800           0
     44356 TIP3     7304     TIP3     OH2      OT      -0.834000       15.9994           0
     44357 TIP3     7304     TIP3     H1       HT       0.417000       1.00800           0
     44358 TIP3     7304     TIP3     H2       HT       0.417000       1.00800           0
     44359 TIP3     7305     TIP3     OH2      OT      -0.834000       15.9994           0
     44360 TIP3     7305     TIP3     H1       HT       0.417000       1.00800           0
     44361 TIP3     7305     TIP3     H2       HT       0.417000       1.00800           0
     44362 TIP3     7306     TIP3     OH2      OT      -0.834000       15.9994           0
     44363 TIP3     7306     TIP3     H1       HT       0.417000       1.00800           0
     44364 TIP3     7306     TIP3     H2       HT       0.417000       1.00800           0
     44365 TIP3     7307     TIP3     OH2      OT      -0.834000       15.9994           0
     44366 TIP3     7307     TIP3     H1       HT       0.417000       1.00800           0
     44367 TIP3     7307     TIP3     H2       HT       0.417000       1.00800           0
     44368 TIP3     7308     TIP3     OH2      OT      -0.834000       15.9994           0
     44369 TIP3     7308     TIP3     H1       HT       0.417000       1.00800           0
     44370 TIP3     7308     TIP3     H2       HT       0.417000       1.00800           0
     44371 TIP3     7309     TIP3     OH2      OT      -0.834000       15.9994           0
     44372 TIP3     7309     TIP3     H1       HT       0.417000       1.00800           0
     44373 TIP3     7309     TIP3     H2       HT       0.417000       1.00800           0
     44374 TIP3     7310     TIP3     OH2      OT      -0.834000       15.9994           0
     44375 TIP3     7310     TIP3     H1       HT       0.417000       1.00800           0
     44376 TIP3     7310     TIP3     H2       HT       0.417000       1.00800           0
     44377 TIP3     7311     TIP3     OH2      OT      -0.834000       15.9994           0
     44378 TIP3     7311     TIP3     H1       HT       0.417000       1.00800           0
     44379 TIP3     7311     TIP3     H2       HT       0.417000       1.00800           0
     44380 TIP3     7312     TIP3     OH2      OT      -0.834000       15.9994           0
     44381 TIP3     7312     TIP3     H1       HT       0.417000       1.00800           0
     44382 TIP3     7312     TIP3     H2       HT       0.417000       1.00800           0
     44383 TIP3     7313     TIP3     OH2      OT      -0.834000       15.9994           0
     44384 TIP3     7313     TIP3     H1       HT       0.417000       1.00800           0
     44385 TIP3     7313     TIP3     H2       HT       0.417000       1.00800           0
     44386 TIP3     7314     TIP3     OH2      OT      -0.834000       15.9994           0
     44387 TIP3     7314     TIP3     H1       HT       0.417000       1.00800           0
     44388 TIP3     7314     TIP3     H2       HT       0.417000       1.00800           0
     44389 TIP3     7315     TIP3     OH2      OT      -0.834000       15.9994           0
     44390 TIP3     7315     TIP3     H1       HT       0.417000       1.00800           0
     44391 TIP3     7315     TIP3     H2       HT       0.417000       1.00800           0
     44392 TIP3     7316     TIP3     OH2      OT      -0.834000       15.9994           0
     44393 TIP3     7316     TIP3     H1       HT       0.417000       1.00800           0
     44394 TIP3     7316     TIP3     H2       HT       0.417000       1.00800           0
     44395 TIP3     7317     TIP3     OH2      OT      -0.834000       15.9994           0
     44396 TIP3     7317     TIP3     H1       HT       0.417000       1.00800           0
     44397 TIP3     7317     TIP3     H2       HT       0.417000       1.00800           0
     44398 TIP3     7318     TIP3     OH2      OT      -0.834000       15.9994           0
     44399 TIP3     7318     TIP3     H1       HT       0.417000       1.00800           0
     44400 TIP3     7318     TIP3     H2       HT       0.417000       1.00800           0
     44401 TIP3     7319     TIP3     OH2      OT      -0.834000       15.9994           0
     44402 TIP3     7319     TIP3     H1       HT       0.417000       1.00800           0
     44403 TIP3     7319     TIP3     H2       HT       0.417000       1.00800           0
     44404 TIP3     7320     TIP3     OH2      OT      -0.834000       15.9994           0
     44405 TIP3     7320     TIP3     H1       HT       0.417000       1.00800           0
     44406 TIP3     7320     TIP3     H2       HT       0.417000       1.00800           0
     44407 TIP3     7321     TIP3     OH2      OT      -0.834000       15.9994           0
     44408 TIP3     7321     TIP3     H1       HT       0.417000       1.00800           0
     44409 TIP3     7321     TIP3     H2       HT       0.417000       1.00800           0
     44410 TIP3     7322     TIP3     OH2      OT      -0.834000       15.9994           0
     44411 TIP3     7322     TIP3     H1       HT       0.417000       1.00800           0
     44412 TIP3     7322     TIP3     H2       HT       0.417000       1.00800           0
     44413 TIP3     7323     TIP3     OH2      OT      -0.834000       15.9994           0
     44414 TIP3     7323     TIP3     H1       HT       0.417000       1.00800           0
     44415 TIP3     7323     TIP3     H2       HT       0.417000       1.00800           0
     44416 TIP3     7324     TIP3     OH2      OT      -0.834000       15.9994           0
     44417 TIP3     7324     TIP3     H1       HT       0.417000       1.00800           0
     44418 TIP3     7324     TIP3     H2       HT       0.417000       1.00800           0
     44419 TIP3     7325     TIP3     OH2      OT      -0.834000       15.9994           0
     44420 TIP3     7325     TIP3     H1       HT       0.417000       1.00800           0
     44421 TIP3     7325     TIP3     H2       HT       0.417000       1.00800           0
     44422 TIP3     7326     TIP3     OH2      OT      -0.834000       15.9994           0
     44423 TIP3     7326     TIP3     H1       HT       0.417000       1.00800           0
     44424 TIP3     7326     TIP3     H2       HT       0.417000       1.00800           0
     44425 TIP3     7327     TIP3     OH2      OT      -0.834000       15.9994           0
     44426 TIP3     7327     TIP3     H1       HT       0.417000       1.00800           0
     44427 TIP3     7327     TIP3     H2       HT       0.417000       1.00800           0
     44428 TIP3     7328     TIP3     OH2      OT      -0.834000       15.9994           0
     44429 TIP3     7328     TIP3     H1       HT       0.417000       1.00800           0
     44430 TIP3     7328     TIP3     H2       HT       0.417000       1.00800           0
     44431 TIP3     7329     TIP3     OH2      OT      -0.834000       15.9994           0
     44432 TIP3     7329     TIP3     H1       HT       0.417000       1.00800           0
     44433 TIP3     7329     TIP3     H2       HT       0.417000       1.00800           0
     44434 TIP3     7330     TIP3     OH2      OT      -0.834000       15.9994           0
     44435 TIP3     7330     TIP3     H1       HT       0.417000       1.00800           0
     44436 TIP3     7330     TIP3     H2       HT       0.417000       1.00800           0
     44437 TIP3     7331     TIP3     OH2      OT      -0.834000       15.9994           0
     44438 TIP3     7331     TIP3     H1       HT       0.417000       1.00800           0
     44439 TIP3     7331     TIP3     H2       HT       0.417000       1.00800           0
     44440 TIP3     7332     TIP3     OH2      OT      -0.834000       15.9994           0
     44441 TIP3     7332     TIP3     H1       HT       0.417000       1.00800           0
     44442 TIP3     7332     TIP3     H2       HT       0.417000       1.00800           0
     44443 TIP3     7333     TIP3     OH2      OT      -0.834000       15.9994           0
     44444 TIP3     7333     TIP3     H1       HT       0.417000       1.00800           0
     44445 TIP3     7333     TIP3     H2       HT       0.417000       1.00800           0
     44446 TIP3     7334     TIP3     OH2      OT      -0.834000       15.9994           0
     44447 TIP3     7334     TIP3     H1       HT       0.417000       1.00800           0
     44448 TIP3     7334     TIP3     H2       HT       0.417000       1.00800           0
     44449 TIP3     7335     TIP3     OH2      OT      -0.834000       15.9994           0
     44450 TIP3     7335     TIP3     H1       HT       0.417000       1.00800           0
     44451 TIP3     7335     TIP3     H2       HT       0.417000       1.00800           0
     44452 TIP3     7336     TIP3     OH2      OT      -0.834000       15.9994           0
     44453 TIP3     7336     TIP3     H1       HT       0.417000       1.00800           0
     44454 TIP3     7336     TIP3     H2       HT       0.417000       1.00800           0
     44455 TIP3     7337     TIP3     OH2      OT      -0.834000       15.9994           0
     44456 TIP3     7337     TIP3     H1       HT       0.417000       1.00800           0
     44457 TIP3     7337     TIP3     H2       HT       0.417000       1.00800           0
     44458 TIP3     7338     TIP3     OH2      OT      -0.834000       15.9994           0
     44459 TIP3     7338     TIP3     H1       HT       0.417000       1.00800           0
     44460 TIP3     7338     TIP3     H2       HT       0.417000       1.00800           0
     44461 TIP3     7339     TIP3     OH2      OT      -0.834000       15.9994           0
     44462 TIP3     7339     TIP3     H1       HT       0.417000       1.00800           0
     44463 TIP3     7339     TIP3     H2       HT       0.417000       1.00800           0
     44464 TIP3     7340     TIP3     OH2      OT      -0.834000       15.9994           0
     44465 TIP3     7340     TIP3     H1       HT       0.417000       1.00800           0
     44466 TIP3     7340     TIP3     H2       HT       0.417000       1.00800           0
     44467 TIP3     7341     TIP3     OH2      OT      -0.834000       15.9994           0
     44468 TIP3     7341     TIP3     H1       HT       0.417000       1.00800           0
     44469 TIP3     7341     TIP3     H2       HT       0.417000       1.00800           0
     44470 TIP3     7342     TIP3     OH2      OT      -0.834000       15.9994           0
     44471 TIP3     7342     TIP3     H1       HT       0.417000       1.00800           0
     44472 TIP3     7342     TIP3     H2       HT       0.417000       1.00800           0
     44473 TIP3     7343     TIP3     OH2      OT      -0.834000       15.9994           0
     44474 TIP3     7343     TIP3     H1       HT       0.417000       1.00800           0
     44475 TIP3     7343     TIP3     H2       HT       0.417000       1.00800           0
     44476 TIP3     7344     TIP3     OH2      OT      -0.834000       15.9994           0
     44477 TIP3     7344     TIP3     H1       HT       0.417000       1.00800           0
     44478 TIP3     7344     TIP3     H2       HT       0.417000       1.00800           0
     44479 TIP3     7345     TIP3     OH2      OT      -0.834000       15.9994           0
     44480 TIP3     7345     TIP3     H1       HT       0.417000       1.00800           0
     44481 TIP3     7345     TIP3     H2       HT       0.417000       1.00800           0
     44482 TIP3     7346     TIP3     OH2      OT      -0.834000       15.9994           0
     44483 TIP3     7346     TIP3     H1       HT       0.417000       1.00800           0
     44484 TIP3     7346     TIP3     H2       HT       0.417000       1.00800           0
     44485 TIP3     7347     TIP3     OH2      OT      -0.834000       15.9994           0
     44486 TIP3     7347     TIP3     H1       HT       0.417000       1.00800           0
     44487 TIP3     7347     TIP3     H2       HT       0.417000       1.00800           0
     44488 TIP3     7348     TIP3     OH2      OT      -0.834000       15.9994           0
     44489 TIP3     7348     TIP3     H1       HT       0.417000       1.00800           0
     44490 TIP3     7348     TIP3     H2       HT       0.417000       1.00800           0
     44491 TIP3     7349     TIP3     OH2      OT      -0.834000       15.9994           0
     44492 TIP3     7349     TIP3     H1       HT       0.417000       1.00800           0
     44493 TIP3     7349     TIP3     H2       HT       0.417000       1.00800           0
     44494 TIP3     7350     TIP3     OH2      OT      -0.834000       15.9994           0
     44495 TIP3     7350     TIP3     H1       HT       0.417000       1.00800           0
     44496 TIP3     7350     TIP3     H2       HT       0.417000       1.00800           0
     44497 TIP3     7351     TIP3     OH2      OT      -0.834000       15.9994           0
     44498 TIP3     7351     TIP3     H1       HT       0.417000       1.00800           0
     44499 TIP3     7351     TIP3     H2       HT       0.417000       1.00800           0
     44500 TIP3     7352     TIP3     OH2      OT      -0.834000       15.9994           0
     44501 TIP3     7352     TIP3     H1       HT       0.417000       1.00800           0
     44502 TIP3     7352     TIP3     H2       HT       0.417000       1.00800           0
     44503 TIP3     7353     TIP3     OH2      OT      -0.834000       15.9994           0
     44504 TIP3     7353     TIP3     H1       HT       0.417000       1.00800           0
     44505 TIP3     7353     TIP3     H2       HT       0.417000       1.00800           0
     44506 TIP3     7354     TIP3     OH2      OT      -0.834000       15.9994           0
     44507 TIP3     7354     TIP3     H1       HT       0.417000       1.00800           0
     44508 TIP3     7354     TIP3     H2       HT       0.417000       1.00800           0
     44509 TIP3     7355     TIP3     OH2      OT      -0.834000       15.9994           0
     44510 TIP3     7355     TIP3     H1       HT       0.417000       1.00800           0
     44511 TIP3     7355     TIP3     H2       HT       0.417000       1.00800           0
     44512 TIP3     7356     TIP3     OH2      OT      -0.834000       15.9994           0
     44513 TIP3     7356     TIP3     H1       HT       0.417000       1.00800           0
     44514 TIP3     7356     TIP3     H2       HT       0.417000       1.00800           0
     44515 TIP3     7357     TIP3     OH2      OT      -0.834000       15.9994           0
     44516 TIP3     7357     TIP3     H1       HT       0.417000       1.00800           0
     44517 TIP3     7357     TIP3     H2       HT       0.417000       1.00800           0
     44518 TIP3     7358     TIP3     OH2      OT      -0.834000       15.9994           0
     44519 TIP3     7358     TIP3     H1       HT       0.417000       1.00800           0
     44520 TIP3     7358     TIP3     H2       HT       0.417000       1.00800           0
     44521 TIP3     7359     TIP3     OH2      OT      -0.834000       15.9994           0
     44522 TIP3     7359     TIP3     H1       HT       0.417000       1.00800           0
     44523 TIP3     7359     TIP3     H2       HT       0.417000       1.00800           0
     44524 TIP3     7360     TIP3     OH2      OT      -0.834000       15.9994           0
     44525 TIP3     7360     TIP3     H1       HT       0.417000       1.00800           0
     44526 TIP3     7360     TIP3     H2       HT       0.417000       1.00800           0
     44527 TIP3     7361     TIP3     OH2      OT      -0.834000       15.9994           0
     44528 TIP3     7361     TIP3     H1       HT       0.417000       1.00800           0
     44529 TIP3     7361     TIP3     H2       HT       0.417000       1.00800           0
     44530 TIP3     7362     TIP3     OH2      OT      -0.834000       15.9994           0
     44531 TIP3     7362     TIP3     H1       HT       0.417000       1.00800           0
     44532 TIP3     7362     TIP3     H2       HT       0.417000       1.00800           0
     44533 TIP3     7363     TIP3     OH2      OT      -0.834000       15.9994           0
     44534 TIP3     7363     TIP3     H1       HT       0.417000       1.00800           0
     44535 TIP3     7363     TIP3     H2       HT       0.417000       1.00800           0
     44536 TIP3     7364     TIP3     OH2      OT      -0.834000       15.9994           0
     44537 TIP3     7364     TIP3     H1       HT       0.417000       1.00800           0
     44538 TIP3     7364     TIP3     H2       HT       0.417000       1.00800           0
     44539 TIP3     7365     TIP3     OH2      OT      -0.834000       15.9994           0
     44540 TIP3     7365     TIP3     H1       HT       0.417000       1.00800           0
     44541 TIP3     7365     TIP3     H2       HT       0.417000       1.00800           0
     44542 TIP3     7366     TIP3     OH2      OT      -0.834000       15.9994           0
     44543 TIP3     7366     TIP3     H1       HT       0.417000       1.00800           0
     44544 TIP3     7366     TIP3     H2       HT       0.417000       1.00800           0
     44545 TIP3     7367     TIP3     OH2      OT      -0.834000       15.9994           0
     44546 TIP3     7367     TIP3     H1       HT       0.417000       1.00800           0
     44547 TIP3     7367     TIP3     H2       HT       0.417000       1.00800           0
     44548 TIP3     7368     TIP3     OH2      OT      -0.834000       15.9994           0
     44549 TIP3     7368     TIP3     H1       HT       0.417000       1.00800           0
     44550 TIP3     7368     TIP3     H2       HT       0.417000       1.00800           0
     44551 TIP3     7369     TIP3     OH2      OT      -0.834000       15.9994           0
     44552 TIP3     7369     TIP3     H1       HT       0.417000       1.00800           0
     44553 TIP3     7369     TIP3     H2       HT       0.417000       1.00800           0
     44554 TIP3     7370     TIP3     OH2      OT      -0.834000       15.9994           0
     44555 TIP3     7370     TIP3     H1       HT       0.417000       1.00800           0
     44556 TIP3     7370     TIP3     H2       HT       0.417000       1.00800           0
     44557 TIP3     7371     TIP3     OH2      OT      -0.834000       15.9994           0
     44558 TIP3     7371     TIP3     H1       HT       0.417000       1.00800           0
     44559 TIP3     7371     TIP3     H2       HT       0.417000       1.00800           0
     44560 TIP3     7372     TIP3     OH2      OT      -0.834000       15.9994           0
     44561 TIP3     7372     TIP3     H1       HT       0.417000       1.00800           0
     44562 TIP3     7372     TIP3     H2       HT       0.417000       1.00800           0
     44563 TIP3     7373     TIP3     OH2      OT      -0.834000       15.9994           0
     44564 TIP3     7373     TIP3     H1       HT       0.417000       1.00800           0
     44565 TIP3     7373     TIP3     H2       HT       0.417000       1.00800           0
     44566 TIP3     7374     TIP3     OH2      OT      -0.834000       15.9994           0
     44567 TIP3     7374     TIP3     H1       HT       0.417000       1.00800           0
     44568 TIP3     7374     TIP3     H2       HT       0.417000       1.00800           0
     44569 TIP3     7375     TIP3     OH2      OT      -0.834000       15.9994           0
     44570 TIP3     7375     TIP3     H1       HT       0.417000       1.00800           0
     44571 TIP3     7375     TIP3     H2       HT       0.417000       1.00800           0
     44572 TIP3     7376     TIP3     OH2      OT      -0.834000       15.9994           0
     44573 TIP3     7376     TIP3     H1       HT       0.417000       1.00800           0
     44574 TIP3     7376     TIP3     H2       HT       0.417000       1.00800           0
     44575 TIP3     7377     TIP3     OH2      OT      -0.834000       15.9994           0
     44576 TIP3     7377     TIP3     H1       HT       0.417000       1.00800           0
     44577 TIP3     7377     TIP3     H2       HT       0.417000       1.00800           0
     44578 TIP3     7378     TIP3     OH2      OT      -0.834000       15.9994           0
     44579 TIP3     7378     TIP3     H1       HT       0.417000       1.00800           0
     44580 TIP3     7378     TIP3     H2       HT       0.417000       1.00800           0
     44581 TIP3     7379     TIP3     OH2      OT      -0.834000       15.9994           0
     44582 TIP3     7379     TIP3     H1       HT       0.417000       1.00800           0
     44583 TIP3     7379     TIP3     H2       HT       0.417000       1.00800           0
     44584 TIP3     7380     TIP3     OH2      OT      -0.834000       15.9994           0
     44585 TIP3     7380     TIP3     H1       HT       0.417000       1.00800           0
     44586 TIP3     7380     TIP3     H2       HT       0.417000       1.00800           0
     44587 TIP3     7381     TIP3     OH2      OT      -0.834000       15.9994           0
     44588 TIP3     7381     TIP3     H1       HT       0.417000       1.00800           0
     44589 TIP3     7381     TIP3     H2       HT       0.417000       1.00800           0
     44590 TIP3     7382     TIP3     OH2      OT      -0.834000       15.9994           0
     44591 TIP3     7382     TIP3     H1       HT       0.417000       1.00800           0
     44592 TIP3     7382     TIP3     H2       HT       0.417000       1.00800           0
     44593 TIP3     7383     TIP3     OH2      OT      -0.834000       15.9994           0
     44594 TIP3     7383     TIP3     H1       HT       0.417000       1.00800           0
     44595 TIP3     7383     TIP3     H2       HT       0.417000       1.00800           0
     44596 TIP3     7384     TIP3     OH2      OT      -0.834000       15.9994           0
     44597 TIP3     7384     TIP3     H1       HT       0.417000       1.00800           0
     44598 TIP3     7384     TIP3     H2       HT       0.417000       1.00800           0
     44599 TIP3     7385     TIP3     OH2      OT      -0.834000       15.9994           0
     44600 TIP3     7385     TIP3     H1       HT       0.417000       1.00800           0
     44601 TIP3     7385     TIP3     H2       HT       0.417000       1.00800           0
     44602 TIP3     7386     TIP3     OH2      OT      -0.834000       15.9994           0
     44603 TIP3     7386     TIP3     H1       HT       0.417000       1.00800           0
     44604 TIP3     7386     TIP3     H2       HT       0.417000       1.00800           0
     44605 TIP3     7387     TIP3     OH2      OT      -0.834000       15.9994           0
     44606 TIP3     7387     TIP3     H1       HT       0.417000       1.00800           0
     44607 TIP3     7387     TIP3     H2       HT       0.417000       1.00800           0
     44608 TIP3     7388     TIP3     OH2      OT      -0.834000       15.9994           0
     44609 TIP3     7388     TIP3     H1       HT       0.417000       1.00800           0
     44610 TIP3     7388     TIP3     H2       HT       0.417000       1.00800           0
     44611 TIP3     7389     TIP3     OH2      OT      -0.834000       15.9994           0
     44612 TIP3     7389     TIP3     H1       HT       0.417000       1.00800           0
     44613 TIP3     7389     TIP3     H2       HT       0.417000       1.00800           0
     44614 TIP3     7390     TIP3     OH2      OT      -0.834000       15.9994           0
     44615 TIP3     7390     TIP3     H1       HT       0.417000       1.00800           0
     44616 TIP3     7390     TIP3     H2       HT       0.417000       1.00800           0
     44617 TIP3     7391     TIP3     OH2      OT      -0.834000       15.9994           0
     44618 TIP3     7391     TIP3     H1       HT       0.417000       1.00800           0
     44619 TIP3     7391     TIP3     H2       HT       0.417000       1.00800           0
     44620 TIP3     7392     TIP3     OH2      OT      -0.834000       15.9994           0
     44621 TIP3     7392     TIP3     H1       HT       0.417000       1.00800           0
     44622 TIP3     7392     TIP3     H2       HT       0.417000       1.00800           0
     44623 TIP3     7393     TIP3     OH2      OT      -0.834000       15.9994           0
     44624 TIP3     7393     TIP3     H1       HT       0.417000       1.00800           0
     44625 TIP3     7393     TIP3     H2       HT       0.417000       1.00800           0
     44626 TIP3     7394     TIP3     OH2      OT      -0.834000       15.9994           0
     44627 TIP3     7394     TIP3     H1       HT       0.417000       1.00800           0
     44628 TIP3     7394     TIP3     H2       HT       0.417000       1.00800           0
     44629 TIP3     7395     TIP3     OH2      OT      -0.834000       15.9994           0
     44630 TIP3     7395     TIP3     H1       HT       0.417000       1.00800           0
     44631 TIP3     7395     TIP3     H2       HT       0.417000       1.00800           0
     44632 TIP3     7396     TIP3     OH2      OT      -0.834000       15.9994           0
     44633 TIP3     7396     TIP3     H1       HT       0.417000       1.00800           0
     44634 TIP3     7396     TIP3     H2       HT       0.417000       1.00800           0
     44635 TIP3     7397     TIP3     OH2      OT      -0.834000       15.9994           0
     44636 TIP3     7397     TIP3     H1       HT       0.417000       1.00800           0
     44637 TIP3     7397     TIP3     H2       HT       0.417000       1.00800           0
     44638 TIP3     7398     TIP3     OH2      OT      -0.834000       15.9994           0
     44639 TIP3     7398     TIP3     H1       HT       0.417000       1.00800           0
     44640 TIP3     7398     TIP3     H2       HT       0.417000       1.00800           0
     44641 TIP3     7399     TIP3     OH2      OT      -0.834000       15.9994           0
     44642 TIP3     7399     TIP3     H1       HT       0.417000       1.00800           0
     44643 TIP3     7399     TIP3     H2       HT       0.417000       1.00800           0
     44644 TIP3     7400     TIP3     OH2      OT      -0.834000       15.9994           0
     44645 TIP3     7400     TIP3     H1       HT       0.417000       1.00800           0
     44646 TIP3     7400     TIP3     H2       HT       0.417000       1.00800           0
     44647 TIP3     7401     TIP3     OH2      OT      -0.834000       15.9994           0
     44648 TIP3     7401     TIP3     H1       HT       0.417000       1.00800           0
     44649 TIP3     7401     TIP3     H2       HT       0.417000       1.00800           0
     44650 TIP3     7402     TIP3     OH2      OT      -0.834000       15.9994           0
     44651 TIP3     7402     TIP3     H1       HT       0.417000       1.00800           0
     44652 TIP3     7402     TIP3     H2       HT       0.417000       1.00800           0
     44653 TIP3     7403     TIP3     OH2      OT      -0.834000       15.9994           0
     44654 TIP3     7403     TIP3     H1       HT       0.417000       1.00800           0
     44655 TIP3     7403     TIP3     H2       HT       0.417000       1.00800           0
     44656 TIP3     7404     TIP3     OH2      OT      -0.834000       15.9994           0
     44657 TIP3     7404     TIP3     H1       HT       0.417000       1.00800           0
     44658 TIP3     7404     TIP3     H2       HT       0.417000       1.00800           0
     44659 TIP3     7405     TIP3     OH2      OT      -0.834000       15.9994           0
     44660 TIP3     7405     TIP3     H1       HT       0.417000       1.00800           0
     44661 TIP3     7405     TIP3     H2       HT       0.417000       1.00800           0
     44662 TIP3     7406     TIP3     OH2      OT      -0.834000       15.9994           0
     44663 TIP3     7406     TIP3     H1       HT       0.417000       1.00800           0
     44664 TIP3     7406     TIP3     H2       HT       0.417000       1.00800           0
     44665 TIP3     7407     TIP3     OH2      OT      -0.834000       15.9994           0
     44666 TIP3     7407     TIP3     H1       HT       0.417000       1.00800           0
     44667 TIP3     7407     TIP3     H2       HT       0.417000       1.00800           0
     44668 TIP3     7408     TIP3     OH2      OT      -0.834000       15.9994           0
     44669 TIP3     7408     TIP3     H1       HT       0.417000       1.00800           0
     44670 TIP3     7408     TIP3     H2       HT       0.417000       1.00800           0
     44671 TIP3     7409     TIP3     OH2      OT      -0.834000       15.9994           0
     44672 TIP3     7409     TIP3     H1       HT       0.417000       1.00800           0
     44673 TIP3     7409     TIP3     H2       HT       0.417000       1.00800           0
     44674 TIP3     7410     TIP3     OH2      OT      -0.834000       15.9994           0
     44675 TIP3     7410     TIP3     H1       HT       0.417000       1.00800           0
     44676 TIP3     7410     TIP3     H2       HT       0.417000       1.00800           0
     44677 TIP3     7411     TIP3     OH2      OT      -0.834000       15.9994           0
     44678 TIP3     7411     TIP3     H1       HT       0.417000       1.00800           0
     44679 TIP3     7411     TIP3     H2       HT       0.417000       1.00800           0
     44680 TIP3     7412     TIP3     OH2      OT      -0.834000       15.9994           0
     44681 TIP3     7412     TIP3     H1       HT       0.417000       1.00800           0
     44682 TIP3     7412     TIP3     H2       HT       0.417000       1.00800           0
     44683 TIP3     7413     TIP3     OH2      OT      -0.834000       15.9994           0
     44684 TIP3     7413     TIP3     H1       HT       0.417000       1.00800           0
     44685 TIP3     7413     TIP3     H2       HT       0.417000       1.00800           0
     44686 TIP3     7414     TIP3     OH2      OT      -0.834000       15.9994           0
     44687 TIP3     7414     TIP3     H1       HT       0.417000       1.00800           0
     44688 TIP3     7414     TIP3     H2       HT       0.417000       1.00800           0
     44689 TIP3     7415     TIP3     OH2      OT      -0.834000       15.9994           0
     44690 TIP3     7415     TIP3     H1       HT       0.417000       1.00800           0
     44691 TIP3     7415     TIP3     H2       HT       0.417000       1.00800           0
     44692 TIP3     7416     TIP3     OH2      OT      -0.834000       15.9994           0
     44693 TIP3     7416     TIP3     H1       HT       0.417000       1.00800           0
     44694 TIP3     7416     TIP3     H2       HT       0.417000       1.00800           0
     44695 TIP3     7417     TIP3     OH2      OT      -0.834000       15.9994           0
     44696 TIP3     7417     TIP3     H1       HT       0.417000       1.00800           0
     44697 TIP3     7417     TIP3     H2       HT       0.417000       1.00800           0
     44698 TIP3     7418     TIP3     OH2      OT      -0.834000       15.9994           0
     44699 TIP3     7418     TIP3     H1       HT       0.417000       1.00800           0
     44700 TIP3     7418     TIP3     H2       HT       0.417000       1.00800           0
     44701 TIP3     7419     TIP3     OH2      OT      -0.834000       15.9994           0
     44702 TIP3     7419     TIP3     H1       HT       0.417000       1.00800           0
     44703 TIP3     7419     TIP3     H2       HT       0.417000       1.00800           0
     44704 TIP3     7420     TIP3     OH2      OT      -0.834000       15.9994           0
     44705 TIP3     7420     TIP3     H1       HT       0.417000       1.00800           0
     44706 TIP3     7420     TIP3     H2       HT       0.417000       1.00800           0
     44707 TIP3     7421     TIP3     OH2      OT      -0.834000       15.9994           0
     44708 TIP3     7421     TIP3     H1       HT       0.417000       1.00800           0
     44709 TIP3     7421     TIP3     H2       HT       0.417000       1.00800           0
     44710 TIP3     7422     TIP3     OH2      OT      -0.834000       15.9994           0
     44711 TIP3     7422     TIP3     H1       HT       0.417000       1.00800           0
     44712 TIP3     7422     TIP3     H2       HT       0.417000       1.00800           0
     44713 TIP3     7423     TIP3     OH2      OT      -0.834000       15.9994           0
     44714 TIP3     7423     TIP3     H1       HT       0.417000       1.00800           0
     44715 TIP3     7423     TIP3     H2       HT       0.417000       1.00800           0
     44716 TIP3     7424     TIP3     OH2      OT      -0.834000       15.9994           0
     44717 TIP3     7424     TIP3     H1       HT       0.417000       1.00800           0
     44718 TIP3     7424     TIP3     H2       HT       0.417000       1.00800           0
     44719 TIP3     7425     TIP3     OH2      OT      -0.834000       15.9994           0
     44720 TIP3     7425     TIP3     H1       HT       0.417000       1.00800           0
     44721 TIP3     7425     TIP3     H2       HT       0.417000       1.00800           0
     44722 TIP3     7426     TIP3     OH2      OT      -0.834000       15.9994           0
     44723 TIP3     7426     TIP3     H1       HT       0.417000       1.00800           0
     44724 TIP3     7426     TIP3     H2       HT       0.417000       1.00800           0
     44725 TIP3     7427     TIP3     OH2      OT      -0.834000       15.9994           0
     44726 TIP3     7427     TIP3     H1       HT       0.417000       1.00800           0
     44727 TIP3     7427     TIP3     H2       HT       0.417000       1.00800           0
     44728 TIP3     7428     TIP3     OH2      OT      -0.834000       15.9994           0
     44729 TIP3     7428     TIP3     H1       HT       0.417000       1.00800           0
     44730 TIP3     7428     TIP3     H2       HT       0.417000       1.00800           0
     44731 TIP3     7429     TIP3     OH2      OT      -0.834000       15.9994           0
     44732 TIP3     7429     TIP3     H1       HT       0.417000       1.00800           0
     44733 TIP3     7429     TIP3     H2       HT       0.417000       1.00800           0
     44734 TIP3     7430     TIP3     OH2      OT      -0.834000       15.9994           0
     44735 TIP3     7430     TIP3     H1       HT       0.417000       1.00800           0
     44736 TIP3     7430     TIP3     H2       HT       0.417000       1.00800           0
     44737 TIP3     7431     TIP3     OH2      OT      -0.834000       15.9994           0
     44738 TIP3     7431     TIP3     H1       HT       0.417000       1.00800           0
     44739 TIP3     7431     TIP3     H2       HT       0.417000       1.00800           0
     44740 TIP3     7432     TIP3     OH2      OT      -0.834000       15.9994           0
     44741 TIP3     7432     TIP3     H1       HT       0.417000       1.00800           0
     44742 TIP3     7432     TIP3     H2       HT       0.417000       1.00800           0
     44743 TIP3     7433     TIP3     OH2      OT      -0.834000       15.9994           0
     44744 TIP3     7433     TIP3     H1       HT       0.417000       1.00800           0
     44745 TIP3     7433     TIP3     H2       HT       0.417000       1.00800           0
     44746 TIP3     7434     TIP3     OH2      OT      -0.834000       15.9994           0
     44747 TIP3     7434     TIP3     H1       HT       0.417000       1.00800           0
     44748 TIP3     7434     TIP3     H2       HT       0.417000       1.00800           0
     44749 TIP3     7435     TIP3     OH2      OT      -0.834000       15.9994           0
     44750 TIP3     7435     TIP3     H1       HT       0.417000       1.00800           0
     44751 TIP3     7435     TIP3     H2       HT       0.417000       1.00800           0
     44752 TIP3     7436     TIP3     OH2      OT      -0.834000       15.9994           0
     44753 TIP3     7436     TIP3     H1       HT       0.417000       1.00800           0
     44754 TIP3     7436     TIP3     H2       HT       0.417000       1.00800           0
     44755 TIP3     7437     TIP3     OH2      OT      -0.834000       15.9994           0
     44756 TIP3     7437     TIP3     H1       HT       0.417000       1.00800           0
     44757 TIP3     7437     TIP3     H2       HT       0.417000       1.00800           0
     44758 TIP3     7438     TIP3     OH2      OT      -0.834000       15.9994           0
     44759 TIP3     7438     TIP3     H1       HT       0.417000       1.00800           0
     44760 TIP3     7438     TIP3     H2       HT       0.417000       1.00800           0
     44761 TIP3     7439     TIP3     OH2      OT      -0.834000       15.9994           0
     44762 TIP3     7439     TIP3     H1       HT       0.417000       1.00800           0
     44763 TIP3     7439     TIP3     H2       HT       0.417000       1.00800           0
     44764 TIP3     7440     TIP3     OH2      OT      -0.834000       15.9994           0
     44765 TIP3     7440     TIP3     H1       HT       0.417000       1.00800           0
     44766 TIP3     7440     TIP3     H2       HT       0.417000       1.00800           0
     44767 TIP3     7441     TIP3     OH2      OT      -0.834000       15.9994           0
     44768 TIP3     7441     TIP3     H1       HT       0.417000       1.00800           0
     44769 TIP3     7441     TIP3     H2       HT       0.417000       1.00800           0
     44770 TIP3     7442     TIP3     OH2      OT      -0.834000       15.9994           0
     44771 TIP3     7442     TIP3     H1       HT       0.417000       1.00800           0
     44772 TIP3     7442     TIP3     H2       HT       0.417000       1.00800           0
     44773 TIP3     7443     TIP3     OH2      OT      -0.834000       15.9994           0
     44774 TIP3     7443     TIP3     H1       HT       0.417000       1.00800           0
     44775 TIP3     7443     TIP3     H2       HT       0.417000       1.00800           0
     44776 TIP3     7444     TIP3     OH2      OT      -0.834000       15.9994           0
     44777 TIP3     7444     TIP3     H1       HT       0.417000       1.00800           0
     44778 TIP3     7444     TIP3     H2       HT       0.417000       1.00800           0
     44779 TIP3     7445     TIP3     OH2      OT      -0.834000       15.9994           0
     44780 TIP3     7445     TIP3     H1       HT       0.417000       1.00800           0
     44781 TIP3     7445     TIP3     H2       HT       0.417000       1.00800           0
     44782 TIP3     7446     TIP3     OH2      OT      -0.834000       15.9994           0
     44783 TIP3     7446     TIP3     H1       HT       0.417000       1.00800           0
     44784 TIP3     7446     TIP3     H2       HT       0.417000       1.00800           0
     44785 TIP3     7447     TIP3     OH2      OT      -0.834000       15.9994           0
     44786 TIP3     7447     TIP3     H1       HT       0.417000       1.00800           0
     44787 TIP3     7447     TIP3     H2       HT       0.417000       1.00800           0
     44788 TIP3     7448     TIP3     OH2      OT      -0.834000       15.9994           0
     44789 TIP3     7448     TIP3     H1       HT       0.417000       1.00800           0
     44790 TIP3     7448     TIP3     H2       HT       0.417000       1.00800           0
     44791 TIP3     7449     TIP3     OH2      OT      -0.834000       15.9994           0
     44792 TIP3     7449     TIP3     H1       HT       0.417000       1.00800           0
     44793 TIP3     7449     TIP3     H2       HT       0.417000       1.00800           0
     44794 TIP3     7450     TIP3     OH2      OT      -0.834000       15.9994           0
     44795 TIP3     7450     TIP3     H1       HT       0.417000       1.00800           0
     44796 TIP3     7450     TIP3     H2       HT       0.417000       1.00800           0
     44797 TIP3     7451     TIP3     OH2      OT      -0.834000       15.9994           0
     44798 TIP3     7451     TIP3     H1       HT       0.417000       1.00800           0
     44799 TIP3     7451     TIP3     H2       HT       0.417000       1.00800           0
     44800 TIP3     7452     TIP3     OH2      OT      -0.834000       15.9994           0
     44801 TIP3     7452     TIP3     H1       HT       0.417000       1.00800           0
     44802 TIP3     7452     TIP3     H2       HT       0.417000       1.00800           0
     44803 TIP3     7453     TIP3     OH2      OT      -0.834000       15.9994           0
     44804 TIP3     7453     TIP3     H1       HT       0.417000       1.00800           0
     44805 TIP3     7453     TIP3     H2       HT       0.417000       1.00800           0
     44806 TIP3     7454     TIP3     OH2      OT      -0.834000       15.9994           0
     44807 TIP3     7454     TIP3     H1       HT       0.417000       1.00800           0
     44808 TIP3     7454     TIP3     H2       HT       0.417000       1.00800           0
     44809 TIP3     7455     TIP3     OH2      OT      -0.834000       15.9994           0
     44810 TIP3     7455     TIP3     H1       HT       0.417000       1.00800           0
     44811 TIP3     7455     TIP3     H2       HT       0.417000       1.00800           0
     44812 TIP3     7456     TIP3     OH2      OT      -0.834000       15.9994           0
     44813 TIP3     7456     TIP3     H1       HT       0.417000       1.00800           0
     44814 TIP3     7456     TIP3     H2       HT       0.417000       1.00800           0
     44815 TIP3     7457     TIP3     OH2      OT      -0.834000       15.9994           0
     44816 TIP3     7457     TIP3     H1       HT       0.417000       1.00800           0
     44817 TIP3     7457     TIP3     H2       HT       0.417000       1.00800           0
     44818 TIP3     7458     TIP3     OH2      OT      -0.834000       15.9994           0
     44819 TIP3     7458     TIP3     H1       HT       0.417000       1.00800           0
     44820 TIP3     7458     TIP3     H2       HT       0.417000       1.00800           0
     44821 TIP3     7459     TIP3     OH2      OT      -0.834000       15.9994           0
     44822 TIP3     7459     TIP3     H1       HT       0.417000       1.00800           0
     44823 TIP3     7459     TIP3     H2       HT       0.417000       1.00800           0
     44824 TIP3     7460     TIP3     OH2      OT      -0.834000       15.9994           0
     44825 TIP3     7460     TIP3     H1       HT       0.417000       1.00800           0
     44826 TIP3     7460     TIP3     H2       HT       0.417000       1.00800           0
     44827 TIP3     7461     TIP3     OH2      OT      -0.834000       15.9994           0
     44828 TIP3     7461     TIP3     H1       HT       0.417000       1.00800           0
     44829 TIP3     7461     TIP3     H2       HT       0.417000       1.00800           0
     44830 TIP3     7462     TIP3     OH2      OT      -0.834000       15.9994           0
     44831 TIP3     7462     TIP3     H1       HT       0.417000       1.00800           0
     44832 TIP3     7462     TIP3     H2       HT       0.417000       1.00800           0
     44833 TIP3     7463     TIP3     OH2      OT      -0.834000       15.9994           0
     44834 TIP3     7463     TIP3     H1       HT       0.417000       1.00800           0
     44835 TIP3     7463     TIP3     H2       HT       0.417000       1.00800           0
     44836 TIP3     7464     TIP3     OH2      OT      -0.834000       15.9994           0
     44837 TIP3     7464     TIP3     H1       HT       0.417000       1.00800           0
     44838 TIP3     7464     TIP3     H2       HT       0.417000       1.00800           0
     44839 TIP3     7465     TIP3     OH2      OT      -0.834000       15.9994           0
     44840 TIP3     7465     TIP3     H1       HT       0.417000       1.00800           0
     44841 TIP3     7465     TIP3     H2       HT       0.417000       1.00800           0
     44842 TIP3     7466     TIP3     OH2      OT      -0.834000       15.9994           0
     44843 TIP3     7466     TIP3     H1       HT       0.417000       1.00800           0
     44844 TIP3     7466     TIP3     H2       HT       0.417000       1.00800           0
     44845 TIP3     7467     TIP3     OH2      OT      -0.834000       15.9994           0
     44846 TIP3     7467     TIP3     H1       HT       0.417000       1.00800           0
     44847 TIP3     7467     TIP3     H2       HT       0.417000       1.00800           0
     44848 TIP3     7468     TIP3     OH2      OT      -0.834000       15.9994           0
     44849 TIP3     7468     TIP3     H1       HT       0.417000       1.00800           0
     44850 TIP3     7468     TIP3     H2       HT       0.417000       1.00800           0
     44851 TIP3     7469     TIP3     OH2      OT      -0.834000       15.9994           0
     44852 TIP3     7469     TIP3     H1       HT       0.417000       1.00800           0
     44853 TIP3     7469     TIP3     H2       HT       0.417000       1.00800           0
     44854 TIP3     7470     TIP3     OH2      OT      -0.834000       15.9994           0
     44855 TIP3     7470     TIP3     H1       HT       0.417000       1.00800           0
     44856 TIP3     7470     TIP3     H2       HT       0.417000       1.00800           0
     44857 TIP3     7471     TIP3     OH2      OT      -0.834000       15.9994           0
     44858 TIP3     7471     TIP3     H1       HT       0.417000       1.00800           0
     44859 TIP3     7471     TIP3     H2       HT       0.417000       1.00800           0
     44860 TIP3     7472     TIP3     OH2      OT      -0.834000       15.9994           0
     44861 TIP3     7472     TIP3     H1       HT       0.417000       1.00800           0
     44862 TIP3     7472     TIP3     H2       HT       0.417000       1.00800           0
     44863 TIP3     7473     TIP3     OH2      OT      -0.834000       15.9994           0
     44864 TIP3     7473     TIP3     H1       HT       0.417000       1.00800           0
     44865 TIP3     7473     TIP3     H2       HT       0.417000       1.00800           0
     44866 TIP3     7474     TIP3     OH2      OT      -0.834000       15.9994           0
     44867 TIP3     7474     TIP3     H1       HT       0.417000       1.00800           0
     44868 TIP3     7474     TIP3     H2       HT       0.417000       1.00800           0
     44869 TIP3     7475     TIP3     OH2      OT      -0.834000       15.9994           0
     44870 TIP3     7475     TIP3     H1       HT       0.417000       1.00800           0
     44871 TIP3     7475     TIP3     H2       HT       0.417000       1.00800           0
     44872 TIP3     7476     TIP3     OH2      OT      -0.834000       15.9994           0
     44873 TIP3     7476     TIP3     H1       HT       0.417000       1.00800           0
     44874 TIP3     7476     TIP3     H2       HT       0.417000       1.00800           0
     44875 TIP3     7477     TIP3     OH2      OT      -0.834000       15.9994           0
     44876 TIP3     7477     TIP3     H1       HT       0.417000       1.00800           0
     44877 TIP3     7477     TIP3     H2       HT       0.417000       1.00800           0
     44878 TIP3     7478     TIP3     OH2      OT      -0.834000       15.9994           0
     44879 TIP3     7478     TIP3     H1       HT       0.417000       1.00800           0
     44880 TIP3     7478     TIP3     H2       HT       0.417000       1.00800           0
     44881 TIP3     7479     TIP3     OH2      OT      -0.834000       15.9994           0
     44882 TIP3     7479     TIP3     H1       HT       0.417000       1.00800           0
     44883 TIP3     7479     TIP3     H2       HT       0.417000       1.00800           0
     44884 TIP3     7480     TIP3     OH2      OT      -0.834000       15.9994           0
     44885 TIP3     7480     TIP3     H1       HT       0.417000       1.00800           0
     44886 TIP3     7480     TIP3     H2       HT       0.417000       1.00800           0
     44887 TIP3     7481     TIP3     OH2      OT      -0.834000       15.9994           0
     44888 TIP3     7481     TIP3     H1       HT       0.417000       1.00800           0
     44889 TIP3     7481     TIP3     H2       HT       0.417000       1.00800           0
     44890 TIP3     7482     TIP3     OH2      OT      -0.834000       15.9994           0
     44891 TIP3     7482     TIP3     H1       HT       0.417000       1.00800           0
     44892 TIP3     7482     TIP3     H2       HT       0.417000       1.00800           0
     44893 TIP3     7483     TIP3     OH2      OT      -0.834000       15.9994           0
     44894 TIP3     7483     TIP3     H1       HT       0.417000       1.00800           0
     44895 TIP3     7483     TIP3     H2       HT       0.417000       1.00800           0
     44896 TIP3     7484     TIP3     OH2      OT      -0.834000       15.9994           0
     44897 TIP3     7484     TIP3     H1       HT       0.417000       1.00800           0
     44898 TIP3     7484     TIP3     H2       HT       0.417000       1.00800           0
     44899 TIP3     7485     TIP3     OH2      OT      -0.834000       15.9994           0
     44900 TIP3     7485     TIP3     H1       HT       0.417000       1.00800           0
     44901 TIP3     7485     TIP3     H2       HT       0.417000       1.00800           0
     44902 TIP3     7486     TIP3     OH2      OT      -0.834000       15.9994           0
     44903 TIP3     7486     TIP3     H1       HT       0.417000       1.00800           0
     44904 TIP3     7486     TIP3     H2       HT       0.417000       1.00800           0
     44905 TIP3     7487     TIP3     OH2      OT      -0.834000       15.9994           0
     44906 TIP3     7487     TIP3     H1       HT       0.417000       1.00800           0
     44907 TIP3     7487     TIP3     H2       HT       0.417000       1.00800           0
     44908 TIP3     7488     TIP3     OH2      OT      -0.834000       15.9994           0
     44909 TIP3     7488     TIP3     H1       HT       0.417000       1.00800           0
     44910 TIP3     7488     TIP3     H2       HT       0.417000       1.00800           0
     44911 TIP3     7489     TIP3     OH2      OT      -0.834000       15.9994           0
     44912 TIP3     7489     TIP3     H1       HT       0.417000       1.00800           0
     44913 TIP3     7489     TIP3     H2       HT       0.417000       1.00800           0
     44914 TIP3     7490     TIP3     OH2      OT      -0.834000       15.9994           0
     44915 TIP3     7490     TIP3     H1       HT       0.417000       1.00800           0
     44916 TIP3     7490     TIP3     H2       HT       0.417000       1.00800           0
     44917 TIP3     7491     TIP3     OH2      OT      -0.834000       15.9994           0
     44918 TIP3     7491     TIP3     H1       HT       0.417000       1.00800           0
     44919 TIP3     7491     TIP3     H2       HT       0.417000       1.00800           0
     44920 TIP3     7492     TIP3     OH2      OT      -0.834000       15.9994           0
     44921 TIP3     7492     TIP3     H1       HT       0.417000       1.00800           0
     44922 TIP3     7492     TIP3     H2       HT       0.417000       1.00800           0
     44923 TIP3     7493     TIP3     OH2      OT      -0.834000       15.9994           0
     44924 TIP3     7493     TIP3     H1       HT       0.417000       1.00800           0
     44925 TIP3     7493     TIP3     H2       HT       0.417000       1.00800           0
     44926 TIP3     7494     TIP3     OH2      OT      -0.834000       15.9994           0
     44927 TIP3     7494     TIP3     H1       HT       0.417000       1.00800           0
     44928 TIP3     7494     TIP3     H2       HT       0.417000       1.00800           0
     44929 TIP3     7495     TIP3     OH2      OT      -0.834000       15.9994           0
     44930 TIP3     7495     TIP3     H1       HT       0.417000       1.00800           0
     44931 TIP3     7495     TIP3     H2       HT       0.417000       1.00800           0
     44932 TIP3     7496     TIP3     OH2      OT      -0.834000       15.9994           0
     44933 TIP3     7496     TIP3     H1       HT       0.417000       1.00800           0
     44934 TIP3     7496     TIP3     H2       HT       0.417000       1.00800           0
     44935 TIP3     7497     TIP3     OH2      OT      -0.834000       15.9994           0
     44936 TIP3     7497     TIP3     H1       HT       0.417000       1.00800           0
     44937 TIP3     7497     TIP3     H2       HT       0.417000       1.00800           0
     44938 TIP3     7498     TIP3     OH2      OT      -0.834000       15.9994           0
     44939 TIP3     7498     TIP3     H1       HT       0.417000       1.00800           0
     44940 TIP3     7498     TIP3     H2       HT       0.417000       1.00800           0
     44941 TIP3     7499     TIP3     OH2      OT      -0.834000       15.9994           0
     44942 TIP3     7499     TIP3     H1       HT       0.417000       1.00800           0
     44943 TIP3     7499     TIP3     H2       HT       0.417000       1.00800           0
     44944 TIP3     7500     TIP3     OH2      OT      -0.834000       15.9994           0
     44945 TIP3     7500     TIP3     H1       HT       0.417000       1.00800           0
     44946 TIP3     7500     TIP3     H2       HT       0.417000       1.00800           0
     44947 TIP3     7501     TIP3     OH2      OT      -0.834000       15.9994           0
     44948 TIP3     7501     TIP3     H1       HT       0.417000       1.00800           0
     44949 TIP3     7501     TIP3     H2       HT       0.417000       1.00800           0
     44950 TIP3     7502     TIP3     OH2      OT      -0.834000       15.9994           0
     44951 TIP3     7502     TIP3     H1       HT       0.417000       1.00800           0
     44952 TIP3     7502     TIP3     H2       HT       0.417000       1.00800           0
     44953 TIP3     7503     TIP3     OH2      OT      -0.834000       15.9994           0
     44954 TIP3     7503     TIP3     H1       HT       0.417000       1.00800           0
     44955 TIP3     7503     TIP3     H2       HT       0.417000       1.00800           0
     44956 TIP3     7504     TIP3     OH2      OT      -0.834000       15.9994           0
     44957 TIP3     7504     TIP3     H1       HT       0.417000       1.00800           0
     44958 TIP3     7504     TIP3     H2       HT       0.417000       1.00800           0
     44959 TIP3     7505     TIP3     OH2      OT      -0.834000       15.9994           0
     44960 TIP3     7505     TIP3     H1       HT       0.417000       1.00800           0
     44961 TIP3     7505     TIP3     H2       HT       0.417000       1.00800           0
     44962 TIP3     7506     TIP3     OH2      OT      -0.834000       15.9994           0
     44963 TIP3     7506     TIP3     H1       HT       0.417000       1.00800           0
     44964 TIP3     7506     TIP3     H2       HT       0.417000       1.00800           0
     44965 TIP3     7507     TIP3     OH2      OT      -0.834000       15.9994           0
     44966 TIP3     7507     TIP3     H1       HT       0.417000       1.00800           0
     44967 TIP3     7507     TIP3     H2       HT       0.417000       1.00800           0
     44968 TIP3     7508     TIP3     OH2      OT      -0.834000       15.9994           0
     44969 TIP3     7508     TIP3     H1       HT       0.417000       1.00800           0
     44970 TIP3     7508     TIP3     H2       HT       0.417000       1.00800           0
     44971 TIP3     7509     TIP3     OH2      OT      -0.834000       15.9994           0
     44972 TIP3     7509     TIP3     H1       HT       0.417000       1.00800           0
     44973 TIP3     7509     TIP3     H2       HT       0.417000       1.00800           0
     44974 TIP3     7510     TIP3     OH2      OT      -0.834000       15.9994           0
     44975 TIP3     7510     TIP3     H1       HT       0.417000       1.00800           0
     44976 TIP3     7510     TIP3     H2       HT       0.417000       1.00800           0
     44977 TIP3     7511     TIP3     OH2      OT      -0.834000       15.9994           0
     44978 TIP3     7511     TIP3     H1       HT       0.417000       1.00800           0
     44979 TIP3     7511     TIP3     H2       HT       0.417000       1.00800           0
     44980 TIP3     7512     TIP3     OH2      OT      -0.834000       15.9994           0
     44981 TIP3     7512     TIP3     H1       HT       0.417000       1.00800           0
     44982 TIP3     7512     TIP3     H2       HT       0.417000       1.00800           0
     44983 TIP3     7513     TIP3     OH2      OT      -0.834000       15.9994           0
     44984 TIP3     7513     TIP3     H1       HT       0.417000       1.00800           0
     44985 TIP3     7513     TIP3     H2       HT       0.417000       1.00800           0
     44986 TIP3     7514     TIP3     OH2      OT      -0.834000       15.9994           0
     44987 TIP3     7514     TIP3     H1       HT       0.417000       1.00800           0
     44988 TIP3     7514     TIP3     H2       HT       0.417000       1.00800           0
     44989 TIP3     7515     TIP3     OH2      OT      -0.834000       15.9994           0
     44990 TIP3     7515     TIP3     H1       HT       0.417000       1.00800           0
     44991 TIP3     7515     TIP3     H2       HT       0.417000       1.00800           0
     44992 TIP3     7516     TIP3     OH2      OT      -0.834000       15.9994           0
     44993 TIP3     7516     TIP3     H1       HT       0.417000       1.00800           0
     44994 TIP3     7516     TIP3     H2       HT       0.417000       1.00800           0
     44995 TIP3     7517     TIP3     OH2      OT      -0.834000       15.9994           0
     44996 TIP3     7517     TIP3     H1       HT       0.417000       1.00800           0
     44997 TIP3     7517     TIP3     H2       HT       0.417000       1.00800           0
     44998 TIP3     7518     TIP3     OH2      OT      -0.834000       15.9994           0
     44999 TIP3     7518     TIP3     H1       HT       0.417000       1.00800           0
     45000 TIP3     7518     TIP3     H2       HT       0.417000       1.00800           0
     45001 TIP3     7519     TIP3     OH2      OT      -0.834000       15.9994           0
     45002 TIP3     7519     TIP3     H1       HT       0.417000       1.00800           0
     45003 TIP3     7519     TIP3     H2       HT       0.417000       1.00800           0
     45004 TIP3     7520     TIP3     OH2      OT      -0.834000       15.9994           0
     45005 TIP3     7520     TIP3     H1       HT       0.417000       1.00800           0
     45006 TIP3     7520     TIP3     H2       HT       0.417000       1.00800           0
     45007 TIP3     7521     TIP3     OH2      OT      -0.834000       15.9994           0
     45008 TIP3     7521     TIP3     H1       HT       0.417000       1.00800           0
     45009 TIP3     7521     TIP3     H2       HT       0.417000       1.00800           0
     45010 TIP3     7522     TIP3     OH2      OT      -0.834000       15.9994           0
     45011 TIP3     7522     TIP3     H1       HT       0.417000       1.00800           0
     45012 TIP3     7522     TIP3     H2       HT       0.417000       1.00800           0
     45013 TIP3     7523     TIP3     OH2      OT      -0.834000       15.9994           0
     45014 TIP3     7523     TIP3     H1       HT       0.417000       1.00800           0
     45015 TIP3     7523     TIP3     H2       HT       0.417000       1.00800           0
     45016 TIP3     7524     TIP3     OH2      OT      -0.834000       15.9994           0
     45017 TIP3     7524     TIP3     H1       HT       0.417000       1.00800           0
     45018 TIP3     7524     TIP3     H2       HT       0.417000       1.00800           0
     45019 TIP3     7525     TIP3     OH2      OT      -0.834000       15.9994           0
     45020 TIP3     7525     TIP3     H1       HT       0.417000       1.00800           0
     45021 TIP3     7525     TIP3     H2       HT       0.417000       1.00800           0
     45022 TIP3     7526     TIP3     OH2      OT      -0.834000       15.9994           0
     45023 TIP3     7526     TIP3     H1       HT       0.417000       1.00800           0
     45024 TIP3     7526     TIP3     H2       HT       0.417000       1.00800           0
     45025 TIP3     7527     TIP3     OH2      OT      -0.834000       15.9994           0
     45026 TIP3     7527     TIP3     H1       HT       0.417000       1.00800           0
     45027 TIP3     7527     TIP3     H2       HT       0.417000       1.00800           0
     45028 TIP3     7528     TIP3     OH2      OT      -0.834000       15.9994           0
     45029 TIP3     7528     TIP3     H1       HT       0.417000       1.00800           0
     45030 TIP3     7528     TIP3     H2       HT       0.417000       1.00800           0
     45031 TIP3     7529     TIP3     OH2      OT      -0.834000       15.9994           0
     45032 TIP3     7529     TIP3     H1       HT       0.417000       1.00800           0
     45033 TIP3     7529     TIP3     H2       HT       0.417000       1.00800           0
     45034 TIP3     7530     TIP3     OH2      OT      -0.834000       15.9994           0
     45035 TIP3     7530     TIP3     H1       HT       0.417000       1.00800           0
     45036 TIP3     7530     TIP3     H2       HT       0.417000       1.00800           0
     45037 TIP3     7531     TIP3     OH2      OT      -0.834000       15.9994           0
     45038 TIP3     7531     TIP3     H1       HT       0.417000       1.00800           0
     45039 TIP3     7531     TIP3     H2       HT       0.417000       1.00800           0
     45040 TIP3     7532     TIP3     OH2      OT      -0.834000       15.9994           0
     45041 TIP3     7532     TIP3     H1       HT       0.417000       1.00800           0
     45042 TIP3     7532     TIP3     H2       HT       0.417000       1.00800           0
     45043 TIP3     7533     TIP3     OH2      OT      -0.834000       15.9994           0
     45044 TIP3     7533     TIP3     H1       HT       0.417000       1.00800           0
     45045 TIP3     7533     TIP3     H2       HT       0.417000       1.00800           0
     45046 TIP3     7534     TIP3     OH2      OT      -0.834000       15.9994           0
     45047 TIP3     7534     TIP3     H1       HT       0.417000       1.00800           0
     45048 TIP3     7534     TIP3     H2       HT       0.417000       1.00800           0
     45049 TIP3     7535     TIP3     OH2      OT      -0.834000       15.9994           0
     45050 TIP3     7535     TIP3     H1       HT       0.417000       1.00800           0
     45051 TIP3     7535     TIP3     H2       HT       0.417000       1.00800           0
     45052 TIP3     7536     TIP3     OH2      OT      -0.834000       15.9994           0
     45053 TIP3     7536     TIP3     H1       HT       0.417000       1.00800           0
     45054 TIP3     7536     TIP3     H2       HT       0.417000       1.00800           0
     45055 TIP3     7537     TIP3     OH2      OT      -0.834000       15.9994           0
     45056 TIP3     7537     TIP3     H1       HT       0.417000       1.00800           0
     45057 TIP3     7537     TIP3     H2       HT       0.417000       1.00800           0
     45058 TIP3     7538     TIP3     OH2      OT      -0.834000       15.9994           0
     45059 TIP3     7538     TIP3     H1       HT       0.417000       1.00800           0
     45060 TIP3     7538     TIP3     H2       HT       0.417000       1.00800           0
     45061 TIP3     7539     TIP3     OH2      OT      -0.834000       15.9994           0
     45062 TIP3     7539     TIP3     H1       HT       0.417000       1.00800           0
     45063 TIP3     7539     TIP3     H2       HT       0.417000       1.00800           0
     45064 TIP3     7540     TIP3     OH2      OT      -0.834000       15.9994           0
     45065 TIP3     7540     TIP3     H1       HT       0.417000       1.00800           0
     45066 TIP3     7540     TIP3     H2       HT       0.417000       1.00800           0
     45067 TIP3     7541     TIP3     OH2      OT      -0.834000       15.9994           0
     45068 TIP3     7541     TIP3     H1       HT       0.417000       1.00800           0
     45069 TIP3     7541     TIP3     H2       HT       0.417000       1.00800           0
     45070 TIP3     7542     TIP3     OH2      OT      -0.834000       15.9994           0
     45071 TIP3     7542     TIP3     H1       HT       0.417000       1.00800           0
     45072 TIP3     7542     TIP3     H2       HT       0.417000       1.00800           0
     45073 TIP3     7543     TIP3     OH2      OT      -0.834000       15.9994           0
     45074 TIP3     7543     TIP3     H1       HT       0.417000       1.00800           0
     45075 TIP3     7543     TIP3     H2       HT       0.417000       1.00800           0
     45076 TIP3     7544     TIP3     OH2      OT      -0.834000       15.9994           0
     45077 TIP3     7544     TIP3     H1       HT       0.417000       1.00800           0
     45078 TIP3     7544     TIP3     H2       HT       0.417000       1.00800           0
     45079 TIP3     7545     TIP3     OH2      OT      -0.834000       15.9994           0
     45080 TIP3     7545     TIP3     H1       HT       0.417000       1.00800           0
     45081 TIP3     7545     TIP3     H2       HT       0.417000       1.00800           0
     45082 TIP3     7546     TIP3     OH2      OT      -0.834000       15.9994           0
     45083 TIP3     7546     TIP3     H1       HT       0.417000       1.00800           0
     45084 TIP3     7546     TIP3     H2       HT       0.417000       1.00800           0
     45085 TIP3     7547     TIP3     OH2      OT      -0.834000       15.9994           0
     45086 TIP3     7547     TIP3     H1       HT       0.417000       1.00800           0
     45087 TIP3     7547     TIP3     H2       HT       0.417000       1.00800           0
     45088 TIP3     7548     TIP3     OH2      OT      -0.834000       15.9994           0
     45089 TIP3     7548     TIP3     H1       HT       0.417000       1.00800           0
     45090 TIP3     7548     TIP3     H2       HT       0.417000       1.00800           0
     45091 TIP3     7549     TIP3     OH2      OT      -0.834000       15.9994           0
     45092 TIP3     7549     TIP3     H1       HT       0.417000       1.00800           0
     45093 TIP3     7549     TIP3     H2       HT       0.417000       1.00800           0
     45094 TIP3     7550     TIP3     OH2      OT      -0.834000       15.9994           0
     45095 TIP3     7550     TIP3     H1       HT       0.417000       1.00800           0
     45096 TIP3     7550     TIP3     H2       HT       0.417000       1.00800           0
     45097 TIP3     7551     TIP3     OH2      OT      -0.834000       15.9994           0
     45098 TIP3     7551     TIP3     H1       HT       0.417000       1.00800           0
     45099 TIP3     7551     TIP3     H2       HT       0.417000       1.00800           0
     45100 TIP3     7552     TIP3     OH2      OT      -0.834000       15.9994           0
     45101 TIP3     7552     TIP3     H1       HT       0.417000       1.00800           0
     45102 TIP3     7552     TIP3     H2       HT       0.417000       1.00800           0
     45103 TIP3     7553     TIP3     OH2      OT      -0.834000       15.9994           0
     45104 TIP3     7553     TIP3     H1       HT       0.417000       1.00800           0
     45105 TIP3     7553     TIP3     H2       HT       0.417000       1.00800           0
     45106 TIP3     7554     TIP3     OH2      OT      -0.834000       15.9994           0
     45107 TIP3     7554     TIP3     H1       HT       0.417000       1.00800           0
     45108 TIP3     7554     TIP3     H2       HT       0.417000       1.00800           0
     45109 TIP3     7555     TIP3     OH2      OT      -0.834000       15.9994           0
     45110 TIP3     7555     TIP3     H1       HT       0.417000       1.00800           0
     45111 TIP3     7555     TIP3     H2       HT       0.417000       1.00800           0
     45112 TIP3     7556     TIP3     OH2      OT      -0.834000       15.9994           0
     45113 TIP3     7556     TIP3     H1       HT       0.417000       1.00800           0
     45114 TIP3     7556     TIP3     H2       HT       0.417000       1.00800           0
     45115 TIP3     7557     TIP3     OH2      OT      -0.834000       15.9994           0
     45116 TIP3     7557     TIP3     H1       HT       0.417000       1.00800           0
     45117 TIP3     7557     TIP3     H2       HT       0.417000       1.00800           0
     45118 TIP3     7558     TIP3     OH2      OT      -0.834000       15.9994           0
     45119 TIP3     7558     TIP3     H1       HT       0.417000       1.00800           0
     45120 TIP3     7558     TIP3     H2       HT       0.417000       1.00800           0
     45121 TIP3     7559     TIP3     OH2      OT      -0.834000       15.9994           0
     45122 TIP3     7559     TIP3     H1       HT       0.417000       1.00800           0
     45123 TIP3     7559     TIP3     H2       HT       0.417000       1.00800           0
     45124 TIP3     7560     TIP3     OH2      OT      -0.834000       15.9994           0
     45125 TIP3     7560     TIP3     H1       HT       0.417000       1.00800           0
     45126 TIP3     7560     TIP3     H2       HT       0.417000       1.00800           0
     45127 TIP3     7561     TIP3     OH2      OT      -0.834000       15.9994           0
     45128 TIP3     7561     TIP3     H1       HT       0.417000       1.00800           0
     45129 TIP3     7561     TIP3     H2       HT       0.417000       1.00800           0
     45130 TIP3     7562     TIP3     OH2      OT      -0.834000       15.9994           0
     45131 TIP3     7562     TIP3     H1       HT       0.417000       1.00800           0
     45132 TIP3     7562     TIP3     H2       HT       0.417000       1.00800           0
     45133 TIP3     7563     TIP3     OH2      OT      -0.834000       15.9994           0
     45134 TIP3     7563     TIP3     H1       HT       0.417000       1.00800           0
     45135 TIP3     7563     TIP3     H2       HT       0.417000       1.00800           0
     45136 TIP3     7564     TIP3     OH2      OT      -0.834000       15.9994           0
     45137 TIP3     7564     TIP3     H1       HT       0.417000       1.00800           0
     45138 TIP3     7564     TIP3     H2       HT       0.417000       1.00800           0
     45139 TIP3     7565     TIP3     OH2      OT      -0.834000       15.9994           0
     45140 TIP3     7565     TIP3     H1       HT       0.417000       1.00800           0
     45141 TIP3     7565     TIP3     H2       HT       0.417000       1.00800           0
     45142 TIP3     7566     TIP3     OH2      OT      -0.834000       15.9994           0
     45143 TIP3     7566     TIP3     H1       HT       0.417000       1.00800           0
     45144 TIP3     7566     TIP3     H2       HT       0.417000       1.00800           0
     45145 TIP3     7567     TIP3     OH2      OT      -0.834000       15.9994           0
     45146 TIP3     7567     TIP3     H1       HT       0.417000       1.00800           0
     45147 TIP3     7567     TIP3     H2       HT       0.417000       1.00800           0
     45148 TIP3     7568     TIP3     OH2      OT      -0.834000       15.9994           0
     45149 TIP3     7568     TIP3     H1       HT       0.417000       1.00800           0
     45150 TIP3     7568     TIP3     H2       HT       0.417000       1.00800           0
     45151 TIP3     7569     TIP3     OH2      OT      -0.834000       15.9994           0
     45152 TIP3     7569     TIP3     H1       HT       0.417000       1.00800           0
     45153 TIP3     7569     TIP3     H2       HT       0.417000       1.00800           0
     45154 TIP3     7570     TIP3     OH2      OT      -0.834000       15.9994           0
     45155 TIP3     7570     TIP3     H1       HT       0.417000       1.00800           0
     45156 TIP3     7570     TIP3     H2       HT       0.417000       1.00800           0
     45157 TIP3     7571     TIP3     OH2      OT      -0.834000       15.9994           0
     45158 TIP3     7571     TIP3     H1       HT       0.417000       1.00800           0
     45159 TIP3     7571     TIP3     H2       HT       0.417000       1.00800           0
     45160 TIP3     7572     TIP3     OH2      OT      -0.834000       15.9994           0
     45161 TIP3     7572     TIP3     H1       HT       0.417000       1.00800           0
     45162 TIP3     7572     TIP3     H2       HT       0.417000       1.00800           0
     45163 TIP3     7573     TIP3     OH2      OT      -0.834000       15.9994           0
     45164 TIP3     7573     TIP3     H1       HT       0.417000       1.00800           0
     45165 TIP3     7573     TIP3     H2       HT       0.417000       1.00800           0
     45166 TIP3     7574     TIP3     OH2      OT      -0.834000       15.9994           0
     45167 TIP3     7574     TIP3     H1       HT       0.417000       1.00800           0
     45168 TIP3     7574     TIP3     H2       HT       0.417000       1.00800           0
     45169 TIP3     7575     TIP3     OH2      OT      -0.834000       15.9994           0
     45170 TIP3     7575     TIP3     H1       HT       0.417000       1.00800           0
     45171 TIP3     7575     TIP3     H2       HT       0.417000       1.00800           0
     45172 TIP3     7576     TIP3     OH2      OT      -0.834000       15.9994           0
     45173 TIP3     7576     TIP3     H1       HT       0.417000       1.00800           0
     45174 TIP3     7576     TIP3     H2       HT       0.417000       1.00800           0
     45175 TIP3     7577     TIP3     OH2      OT      -0.834000       15.9994           0
     45176 TIP3     7577     TIP3     H1       HT       0.417000       1.00800           0
     45177 TIP3     7577     TIP3     H2       HT       0.417000       1.00800           0
     45178 TIP3     7578     TIP3     OH2      OT      -0.834000       15.9994           0
     45179 TIP3     7578     TIP3     H1       HT       0.417000       1.00800           0
     45180 TIP3     7578     TIP3     H2       HT       0.417000       1.00800           0
     45181 TIP3     7579     TIP3     OH2      OT      -0.834000       15.9994           0
     45182 TIP3     7579     TIP3     H1       HT       0.417000       1.00800           0
     45183 TIP3     7579     TIP3     H2       HT       0.417000       1.00800           0
     45184 TIP3     7580     TIP3     OH2      OT      -0.834000       15.9994           0
     45185 TIP3     7580     TIP3     H1       HT       0.417000       1.00800           0
     45186 TIP3     7580     TIP3     H2       HT       0.417000       1.00800           0
     45187 TIP3     7581     TIP3     OH2      OT      -0.834000       15.9994           0
     45188 TIP3     7581     TIP3     H1       HT       0.417000       1.00800           0
     45189 TIP3     7581     TIP3     H2       HT       0.417000       1.00800           0
     45190 TIP3     7582     TIP3     OH2      OT      -0.834000       15.9994           0
     45191 TIP3     7582     TIP3     H1       HT       0.417000       1.00800           0
     45192 TIP3     7582     TIP3     H2       HT       0.417000       1.00800           0
     45193 TIP3     7583     TIP3     OH2      OT      -0.834000       15.9994           0
     45194 TIP3     7583     TIP3     H1       HT       0.417000       1.00800           0
     45195 TIP3     7583     TIP3     H2       HT       0.417000       1.00800           0
     45196 TIP3     7584     TIP3     OH2      OT      -0.834000       15.9994           0
     45197 TIP3     7584     TIP3     H1       HT       0.417000       1.00800           0
     45198 TIP3     7584     TIP3     H2       HT       0.417000       1.00800           0
     45199 TIP3     7585     TIP3     OH2      OT      -0.834000       15.9994           0
     45200 TIP3     7585     TIP3     H1       HT       0.417000       1.00800           0
     45201 TIP3     7585     TIP3     H2       HT       0.417000       1.00800           0
     45202 TIP3     7586     TIP3     OH2      OT      -0.834000       15.9994           0
     45203 TIP3     7586     TIP3     H1       HT       0.417000       1.00800           0
     45204 TIP3     7586     TIP3     H2       HT       0.417000       1.00800           0
     45205 TIP3     7587     TIP3     OH2      OT      -0.834000       15.9994           0
     45206 TIP3     7587     TIP3     H1       HT       0.417000       1.00800           0
     45207 TIP3     7587     TIP3     H2       HT       0.417000       1.00800           0
     45208 TIP3     7588     TIP3     OH2      OT      -0.834000       15.9994           0
     45209 TIP3     7588     TIP3     H1       HT       0.417000       1.00800           0
     45210 TIP3     7588     TIP3     H2       HT       0.417000       1.00800           0
     45211 TIP3     7589     TIP3     OH2      OT      -0.834000       15.9994           0
     45212 TIP3     7589     TIP3     H1       HT       0.417000       1.00800           0
     45213 TIP3     7589     TIP3     H2       HT       0.417000       1.00800           0
     45214 TIP3     7590     TIP3     OH2      OT      -0.834000       15.9994           0
     45215 TIP3     7590     TIP3     H1       HT       0.417000       1.00800           0
     45216 TIP3     7590     TIP3     H2       HT       0.417000       1.00800           0
     45217 TIP3     7591     TIP3     OH2      OT      -0.834000       15.9994           0
     45218 TIP3     7591     TIP3     H1       HT       0.417000       1.00800           0
     45219 TIP3     7591     TIP3     H2       HT       0.417000       1.00800           0
     45220 TIP3     7592     TIP3     OH2      OT      -0.834000       15.9994           0
     45221 TIP3     7592     TIP3     H1       HT       0.417000       1.00800           0
     45222 TIP3     7592     TIP3     H2       HT       0.417000       1.00800           0
     45223 TIP3     7593     TIP3     OH2      OT      -0.834000       15.9994           0
     45224 TIP3     7593     TIP3     H1       HT       0.417000       1.00800           0
     45225 TIP3     7593     TIP3     H2       HT       0.417000       1.00800           0
     45226 TIP3     7594     TIP3     OH2      OT      -0.834000       15.9994           0
     45227 TIP3     7594     TIP3     H1       HT       0.417000       1.00800           0
     45228 TIP3     7594     TIP3     H2       HT       0.417000       1.00800           0
     45229 TIP3     7595     TIP3     OH2      OT      -0.834000       15.9994           0
     45230 TIP3     7595     TIP3     H1       HT       0.417000       1.00800           0
     45231 TIP3     7595     TIP3     H2       HT       0.417000       1.00800           0
     45232 TIP3     7596     TIP3     OH2      OT      -0.834000       15.9994           0
     45233 TIP3     7596     TIP3     H1       HT       0.417000       1.00800           0
     45234 TIP3     7596     TIP3     H2       HT       0.417000       1.00800           0
     45235 TIP3     7597     TIP3     OH2      OT      -0.834000       15.9994           0
     45236 TIP3     7597     TIP3     H1       HT       0.417000       1.00800           0
     45237 TIP3     7597     TIP3     H2       HT       0.417000       1.00800           0
     45238 TIP3     7598     TIP3     OH2      OT      -0.834000       15.9994           0
     45239 TIP3     7598     TIP3     H1       HT       0.417000       1.00800           0
     45240 TIP3     7598     TIP3     H2       HT       0.417000       1.00800           0
     45241 TIP3     7599     TIP3     OH2      OT      -0.834000       15.9994           0
     45242 TIP3     7599     TIP3     H1       HT       0.417000       1.00800           0
     45243 TIP3     7599     TIP3     H2       HT       0.417000       1.00800           0
     45244 TIP3     7600     TIP3     OH2      OT      -0.834000       15.9994           0
     45245 TIP3     7600     TIP3     H1       HT       0.417000       1.00800           0
     45246 TIP3     7600     TIP3     H2       HT       0.417000       1.00800           0
     45247 TIP3     7601     TIP3     OH2      OT      -0.834000       15.9994           0
     45248 TIP3     7601     TIP3     H1       HT       0.417000       1.00800           0
     45249 TIP3     7601     TIP3     H2       HT       0.417000       1.00800           0
     45250 TIP3     7602     TIP3     OH2      OT      -0.834000       15.9994           0
     45251 TIP3     7602     TIP3     H1       HT       0.417000       1.00800           0
     45252 TIP3     7602     TIP3     H2       HT       0.417000       1.00800           0
     45253 TIP3     7603     TIP3     OH2      OT      -0.834000       15.9994           0
     45254 TIP3     7603     TIP3     H1       HT       0.417000       1.00800           0
     45255 TIP3     7603     TIP3     H2       HT       0.417000       1.00800           0
     45256 TIP3     7604     TIP3     OH2      OT      -0.834000       15.9994           0
     45257 TIP3     7604     TIP3     H1       HT       0.417000       1.00800           0
     45258 TIP3     7604     TIP3     H2       HT       0.417000       1.00800           0
     45259 TIP3     7605     TIP3     OH2      OT      -0.834000       15.9994           0
     45260 TIP3     7605     TIP3     H1       HT       0.417000       1.00800           0
     45261 TIP3     7605     TIP3     H2       HT       0.417000       1.00800           0
     45262 TIP3     7606     TIP3     OH2      OT      -0.834000       15.9994           0
     45263 TIP3     7606     TIP3     H1       HT       0.417000       1.00800           0
     45264 TIP3     7606     TIP3     H2       HT       0.417000       1.00800           0
     45265 TIP3     7607     TIP3     OH2      OT      -0.834000       15.9994           0
     45266 TIP3     7607     TIP3     H1       HT       0.417000       1.00800           0
     45267 TIP3     7607     TIP3     H2       HT       0.417000       1.00800           0
     45268 TIP3     7608     TIP3     OH2      OT      -0.834000       15.9994           0
     45269 TIP3     7608     TIP3     H1       HT       0.417000       1.00800           0
     45270 TIP3     7608     TIP3     H2       HT       0.417000       1.00800           0
     45271 TIP3     7609     TIP3     OH2      OT      -0.834000       15.9994           0
     45272 TIP3     7609     TIP3     H1       HT       0.417000       1.00800           0
     45273 TIP3     7609     TIP3     H2       HT       0.417000       1.00800           0
     45274 TIP3     7610     TIP3     OH2      OT      -0.834000       15.9994           0
     45275 TIP3     7610     TIP3     H1       HT       0.417000       1.00800           0
     45276 TIP3     7610     TIP3     H2       HT       0.417000       1.00800           0
     45277 TIP3     7611     TIP3     OH2      OT      -0.834000       15.9994           0
     45278 TIP3     7611     TIP3     H1       HT       0.417000       1.00800           0
     45279 TIP3     7611     TIP3     H2       HT       0.417000       1.00800           0
     45280 TIP3     7612     TIP3     OH2      OT      -0.834000       15.9994           0
     45281 TIP3     7612     TIP3     H1       HT       0.417000       1.00800           0
     45282 TIP3     7612     TIP3     H2       HT       0.417000       1.00800           0
     45283 TIP3     7613     TIP3     OH2      OT      -0.834000       15.9994           0
     45284 TIP3     7613     TIP3     H1       HT       0.417000       1.00800           0
     45285 TIP3     7613     TIP3     H2       HT       0.417000       1.00800           0
     45286 TIP3     7614     TIP3     OH2      OT      -0.834000       15.9994           0
     45287 TIP3     7614     TIP3     H1       HT       0.417000       1.00800           0
     45288 TIP3     7614     TIP3     H2       HT       0.417000       1.00800           0
     45289 TIP3     7615     TIP3     OH2      OT      -0.834000       15.9994           0
     45290 TIP3     7615     TIP3     H1       HT       0.417000       1.00800           0
     45291 TIP3     7615     TIP3     H2       HT       0.417000       1.00800           0
     45292 TIP3     7616     TIP3     OH2      OT      -0.834000       15.9994           0
     45293 TIP3     7616     TIP3     H1       HT       0.417000       1.00800           0
     45294 TIP3     7616     TIP3     H2       HT       0.417000       1.00800           0
     45295 TIP3     7617     TIP3     OH2      OT      -0.834000       15.9994           0
     45296 TIP3     7617     TIP3     H1       HT       0.417000       1.00800           0
     45297 TIP3     7617     TIP3     H2       HT       0.417000       1.00800           0
     45298 TIP3     7618     TIP3     OH2      OT      -0.834000       15.9994           0
     45299 TIP3     7618     TIP3     H1       HT       0.417000       1.00800           0
     45300 TIP3     7618     TIP3     H2       HT       0.417000       1.00800           0
     45301 TIP3     7619     TIP3     OH2      OT      -0.834000       15.9994           0
     45302 TIP3     7619     TIP3     H1       HT       0.417000       1.00800           0
     45303 TIP3     7619     TIP3     H2       HT       0.417000       1.00800           0
     45304 TIP3     7620     TIP3     OH2      OT      -0.834000       15.9994           0
     45305 TIP3     7620     TIP3     H1       HT       0.417000       1.00800           0
     45306 TIP3     7620     TIP3     H2       HT       0.417000       1.00800           0
     45307 TIP3     7621     TIP3     OH2      OT      -0.834000       15.9994           0
     45308 TIP3     7621     TIP3     H1       HT       0.417000       1.00800           0
     45309 TIP3     7621     TIP3     H2       HT       0.417000       1.00800           0
     45310 TIP3     7622     TIP3     OH2      OT      -0.834000       15.9994           0
     45311 TIP3     7622     TIP3     H1       HT       0.417000       1.00800           0
     45312 TIP3     7622     TIP3     H2       HT       0.417000       1.00800           0
     45313 TIP3     7623     TIP3     OH2      OT      -0.834000       15.9994           0
     45314 TIP3     7623     TIP3     H1       HT       0.417000       1.00800           0
     45315 TIP3     7623     TIP3     H2       HT       0.417000       1.00800           0
     45316 TIP3     7624     TIP3     OH2      OT      -0.834000       15.9994           0
     45317 TIP3     7624     TIP3     H1       HT       0.417000       1.00800           0
     45318 TIP3     7624     TIP3     H2       HT       0.417000       1.00800           0
     45319 TIP3     7625     TIP3     OH2      OT      -0.834000       15.9994           0
     45320 TIP3     7625     TIP3     H1       HT       0.417000       1.00800           0
     45321 TIP3     7625     TIP3     H2       HT       0.417000       1.00800           0
     45322 TIP3     7626     TIP3     OH2      OT      -0.834000       15.9994           0
     45323 TIP3     7626     TIP3     H1       HT       0.417000       1.00800           0
     45324 TIP3     7626     TIP3     H2       HT       0.417000       1.00800           0
     45325 TIP3     7627     TIP3     OH2      OT      -0.834000       15.9994           0
     45326 TIP3     7627     TIP3     H1       HT       0.417000       1.00800           0
     45327 TIP3     7627     TIP3     H2       HT       0.417000       1.00800           0
     45328 TIP3     7628     TIP3     OH2      OT      -0.834000       15.9994           0
     45329 TIP3     7628     TIP3     H1       HT       0.417000       1.00800           0
     45330 TIP3     7628     TIP3     H2       HT       0.417000       1.00800           0
     45331 TIP3     7629     TIP3     OH2      OT      -0.834000       15.9994           0
     45332 TIP3     7629     TIP3     H1       HT       0.417000       1.00800           0
     45333 TIP3     7629     TIP3     H2       HT       0.417000       1.00800           0
     45334 TIP3     7630     TIP3     OH2      OT      -0.834000       15.9994           0
     45335 TIP3     7630     TIP3     H1       HT       0.417000       1.00800           0
     45336 TIP3     7630     TIP3     H2       HT       0.417000       1.00800           0
     45337 TIP3     7631     TIP3     OH2      OT      -0.834000       15.9994           0
     45338 TIP3     7631     TIP3     H1       HT       0.417000       1.00800           0
     45339 TIP3     7631     TIP3     H2       HT       0.417000       1.00800           0
     45340 TIP3     7632     TIP3     OH2      OT      -0.834000       15.9994           0
     45341 TIP3     7632     TIP3     H1       HT       0.417000       1.00800           0
     45342 TIP3     7632     TIP3     H2       HT       0.417000       1.00800           0
     45343 TIP3     7633     TIP3     OH2      OT      -0.834000       15.9994           0
     45344 TIP3     7633     TIP3     H1       HT       0.417000       1.00800           0
     45345 TIP3     7633     TIP3     H2       HT       0.417000       1.00800           0
     45346 TIP3     7634     TIP3     OH2      OT      -0.834000       15.9994           0
     45347 TIP3     7634     TIP3     H1       HT       0.417000       1.00800           0
     45348 TIP3     7634     TIP3     H2       HT       0.417000       1.00800           0
     45349 TIP3     7635     TIP3     OH2      OT      -0.834000       15.9994           0
     45350 TIP3     7635     TIP3     H1       HT       0.417000       1.00800           0
     45351 TIP3     7635     TIP3     H2       HT       0.417000       1.00800           0
     45352 TIP3     7636     TIP3     OH2      OT      -0.834000       15.9994           0
     45353 TIP3     7636     TIP3     H1       HT       0.417000       1.00800           0
     45354 TIP3     7636     TIP3     H2       HT       0.417000       1.00800           0
     45355 TIP3     7637     TIP3     OH2      OT      -0.834000       15.9994           0
     45356 TIP3     7637     TIP3     H1       HT       0.417000       1.00800           0
     45357 TIP3     7637     TIP3     H2       HT       0.417000       1.00800           0
     45358 TIP3     7638     TIP3     OH2      OT      -0.834000       15.9994           0
     45359 TIP3     7638     TIP3     H1       HT       0.417000       1.00800           0
     45360 TIP3     7638     TIP3     H2       HT       0.417000       1.00800           0
     45361 TIP3     7639     TIP3     OH2      OT      -0.834000       15.9994           0
     45362 TIP3     7639     TIP3     H1       HT       0.417000       1.00800           0
     45363 TIP3     7639     TIP3     H2       HT       0.417000       1.00800           0
     45364 TIP3     7640     TIP3     OH2      OT      -0.834000       15.9994           0
     45365 TIP3     7640     TIP3     H1       HT       0.417000       1.00800           0
     45366 TIP3     7640     TIP3     H2       HT       0.417000       1.00800           0
     45367 TIP3     7641     TIP3     OH2      OT      -0.834000       15.9994           0
     45368 TIP3     7641     TIP3     H1       HT       0.417000       1.00800           0
     45369 TIP3     7641     TIP3     H2       HT       0.417000       1.00800           0
     45370 TIP3     7642     TIP3     OH2      OT      -0.834000       15.9994           0
     45371 TIP3     7642     TIP3     H1       HT       0.417000       1.00800           0
     45372 TIP3     7642     TIP3     H2       HT       0.417000       1.00800           0
     45373 TIP3     7643     TIP3     OH2      OT      -0.834000       15.9994           0
     45374 TIP3     7643     TIP3     H1       HT       0.417000       1.00800           0
     45375 TIP3     7643     TIP3     H2       HT       0.417000       1.00800           0
     45376 TIP3     7644     TIP3     OH2      OT      -0.834000       15.9994           0
     45377 TIP3     7644     TIP3     H1       HT       0.417000       1.00800           0
     45378 TIP3     7644     TIP3     H2       HT       0.417000       1.00800           0
     45379 TIP3     7645     TIP3     OH2      OT      -0.834000       15.9994           0
     45380 TIP3     7645     TIP3     H1       HT       0.417000       1.00800           0
     45381 TIP3     7645     TIP3     H2       HT       0.417000       1.00800           0
     45382 TIP3     7646     TIP3     OH2      OT      -0.834000       15.9994           0
     45383 TIP3     7646     TIP3     H1       HT       0.417000       1.00800           0
     45384 TIP3     7646     TIP3     H2       HT       0.417000       1.00800           0
     45385 TIP3     7647     TIP3     OH2      OT      -0.834000       15.9994           0
     45386 TIP3     7647     TIP3     H1       HT       0.417000       1.00800           0
     45387 TIP3     7647     TIP3     H2       HT       0.417000       1.00800           0
     45388 TIP3     7648     TIP3     OH2      OT      -0.834000       15.9994           0
     45389 TIP3     7648     TIP3     H1       HT       0.417000       1.00800           0
     45390 TIP3     7648     TIP3     H2       HT       0.417000       1.00800           0
     45391 TIP3     7649     TIP3     OH2      OT      -0.834000       15.9994           0
     45392 TIP3     7649     TIP3     H1       HT       0.417000       1.00800           0
     45393 TIP3     7649     TIP3     H2       HT       0.417000       1.00800           0
     45394 TIP3     7650     TIP3     OH2      OT      -0.834000       15.9994           0
     45395 TIP3     7650     TIP3     H1       HT       0.417000       1.00800           0
     45396 TIP3     7650     TIP3     H2       HT       0.417000       1.00800           0
     45397 TIP3     7651     TIP3     OH2      OT      -0.834000       15.9994           0
     45398 TIP3     7651     TIP3     H1       HT       0.417000       1.00800           0
     45399 TIP3     7651     TIP3     H2       HT       0.417000       1.00800           0
     45400 TIP3     7652     TIP3     OH2      OT      -0.834000       15.9994           0
     45401 TIP3     7652     TIP3     H1       HT       0.417000       1.00800           0
     45402 TIP3     7652     TIP3     H2       HT       0.417000       1.00800           0
     45403 TIP3     7653     TIP3     OH2      OT      -0.834000       15.9994           0
     45404 TIP3     7653     TIP3     H1       HT       0.417000       1.00800           0
     45405 TIP3     7653     TIP3     H2       HT       0.417000       1.00800           0
     45406 TIP3     7654     TIP3     OH2      OT      -0.834000       15.9994           0
     45407 TIP3     7654     TIP3     H1       HT       0.417000       1.00800           0
     45408 TIP3     7654     TIP3     H2       HT       0.417000       1.00800           0
     45409 TIP3     7655     TIP3     OH2      OT      -0.834000       15.9994           0
     45410 TIP3     7655     TIP3     H1       HT       0.417000       1.00800           0
     45411 TIP3     7655     TIP3     H2       HT       0.417000       1.00800           0
     45412 TIP3     7656     TIP3     OH2      OT      -0.834000       15.9994           0
     45413 TIP3     7656     TIP3     H1       HT       0.417000       1.00800           0
     45414 TIP3     7656     TIP3     H2       HT       0.417000       1.00800           0
     45415 TIP3     7657     TIP3     OH2      OT      -0.834000       15.9994           0
     45416 TIP3     7657     TIP3     H1       HT       0.417000       1.00800           0
     45417 TIP3     7657     TIP3     H2       HT       0.417000       1.00800           0
     45418 TIP3     7658     TIP3     OH2      OT      -0.834000       15.9994           0
     45419 TIP3     7658     TIP3     H1       HT       0.417000       1.00800           0
     45420 TIP3     7658     TIP3     H2       HT       0.417000       1.00800           0
     45421 TIP3     7659     TIP3     OH2      OT      -0.834000       15.9994           0
     45422 TIP3     7659     TIP3     H1       HT       0.417000       1.00800           0
     45423 TIP3     7659     TIP3     H2       HT       0.417000       1.00800           0
     45424 TIP3     7660     TIP3     OH2      OT      -0.834000       15.9994           0
     45425 TIP3     7660     TIP3     H1       HT       0.417000       1.00800           0
     45426 TIP3     7660     TIP3     H2       HT       0.417000       1.00800           0
     45427 TIP3     7661     TIP3     OH2      OT      -0.834000       15.9994           0
     45428 TIP3     7661     TIP3     H1       HT       0.417000       1.00800           0
     45429 TIP3     7661     TIP3     H2       HT       0.417000       1.00800           0
     45430 TIP3     7662     TIP3     OH2      OT      -0.834000       15.9994           0
     45431 TIP3     7662     TIP3     H1       HT       0.417000       1.00800           0
     45432 TIP3     7662     TIP3     H2       HT       0.417000       1.00800           0
     45433 TIP3     7663     TIP3     OH2      OT      -0.834000       15.9994           0
     45434 TIP3     7663     TIP3     H1       HT       0.417000       1.00800           0
     45435 TIP3     7663     TIP3     H2       HT       0.417000       1.00800           0
     45436 TIP3     7664     TIP3     OH2      OT      -0.834000       15.9994           0
     45437 TIP3     7664     TIP3     H1       HT       0.417000       1.00800           0
     45438 TIP3     7664     TIP3     H2       HT       0.417000       1.00800           0
     45439 TIP3     7665     TIP3     OH2      OT      -0.834000       15.9994           0
     45440 TIP3     7665     TIP3     H1       HT       0.417000       1.00800           0
     45441 TIP3     7665     TIP3     H2       HT       0.417000       1.00800           0
     45442 TIP3     7666     TIP3     OH2      OT      -0.834000       15.9994           0
     45443 TIP3     7666     TIP3     H1       HT       0.417000       1.00800           0
     45444 TIP3     7666     TIP3     H2       HT       0.417000       1.00800           0
     45445 TIP3     7667     TIP3     OH2      OT      -0.834000       15.9994           0
     45446 TIP3     7667     TIP3     H1       HT       0.417000       1.00800           0
     45447 TIP3     7667     TIP3     H2       HT       0.417000       1.00800           0
     45448 TIP3     7668     TIP3     OH2      OT      -0.834000       15.9994           0
     45449 TIP3     7668     TIP3     H1       HT       0.417000       1.00800           0
     45450 TIP3     7668     TIP3     H2       HT       0.417000       1.00800           0
     45451 TIP3     7669     TIP3     OH2      OT      -0.834000       15.9994           0
     45452 TIP3     7669     TIP3     H1       HT       0.417000       1.00800           0
     45453 TIP3     7669     TIP3     H2       HT       0.417000       1.00800           0
     45454 TIP3     7670     TIP3     OH2      OT      -0.834000       15.9994           0
     45455 TIP3     7670     TIP3     H1       HT       0.417000       1.00800           0
     45456 TIP3     7670     TIP3     H2       HT       0.417000       1.00800           0
     45457 TIP3     7671     TIP3     OH2      OT      -0.834000       15.9994           0
     45458 TIP3     7671     TIP3     H1       HT       0.417000       1.00800           0
     45459 TIP3     7671     TIP3     H2       HT       0.417000       1.00800           0
     45460 TIP3     7672     TIP3     OH2      OT      -0.834000       15.9994           0
     45461 TIP3     7672     TIP3     H1       HT       0.417000       1.00800           0
     45462 TIP3     7672     TIP3     H2       HT       0.417000       1.00800           0
     45463 TIP3     7673     TIP3     OH2      OT      -0.834000       15.9994           0
     45464 TIP3     7673     TIP3     H1       HT       0.417000       1.00800           0
     45465 TIP3     7673     TIP3     H2       HT       0.417000       1.00800           0
     45466 TIP3     7674     TIP3     OH2      OT      -0.834000       15.9994           0
     45467 TIP3     7674     TIP3     H1       HT       0.417000       1.00800           0
     45468 TIP3     7674     TIP3     H2       HT       0.417000       1.00800           0
     45469 TIP3     7675     TIP3     OH2      OT      -0.834000       15.9994           0
     45470 TIP3     7675     TIP3     H1       HT       0.417000       1.00800           0
     45471 TIP3     7675     TIP3     H2       HT       0.417000       1.00800           0
     45472 TIP3     7676     TIP3     OH2      OT      -0.834000       15.9994           0
     45473 TIP3     7676     TIP3     H1       HT       0.417000       1.00800           0
     45474 TIP3     7676     TIP3     H2       HT       0.417000       1.00800           0
     45475 TIP3     7677     TIP3     OH2      OT      -0.834000       15.9994           0
     45476 TIP3     7677     TIP3     H1       HT       0.417000       1.00800           0
     45477 TIP3     7677     TIP3     H2       HT       0.417000       1.00800           0
     45478 TIP3     7678     TIP3     OH2      OT      -0.834000       15.9994           0
     45479 TIP3     7678     TIP3     H1       HT       0.417000       1.00800           0
     45480 TIP3     7678     TIP3     H2       HT       0.417000       1.00800           0
     45481 TIP3     7679     TIP3     OH2      OT      -0.834000       15.9994           0
     45482 TIP3     7679     TIP3     H1       HT       0.417000       1.00800           0
     45483 TIP3     7679     TIP3     H2       HT       0.417000       1.00800           0
     45484 TIP3     7680     TIP3     OH2      OT      -0.834000       15.9994           0
     45485 TIP3     7680     TIP3     H1       HT       0.417000       1.00800           0
     45486 TIP3     7680     TIP3     H2       HT       0.417000       1.00800           0
     45487 TIP3     7681     TIP3     OH2      OT      -0.834000       15.9994           0
     45488 TIP3     7681     TIP3     H1       HT       0.417000       1.00800           0
     45489 TIP3     7681     TIP3     H2       HT       0.417000       1.00800           0
     45490 TIP3     7682     TIP3     OH2      OT      -0.834000       15.9994           0
     45491 TIP3     7682     TIP3     H1       HT       0.417000       1.00800           0
     45492 TIP3     7682     TIP3     H2       HT       0.417000       1.00800           0
     45493 TIP3     7683     TIP3     OH2      OT      -0.834000       15.9994           0
     45494 TIP3     7683     TIP3     H1       HT       0.417000       1.00800           0
     45495 TIP3     7683     TIP3     H2       HT       0.417000       1.00800           0
     45496 TIP3     7684     TIP3     OH2      OT      -0.834000       15.9994           0
     45497 TIP3     7684     TIP3     H1       HT       0.417000       1.00800           0
     45498 TIP3     7684     TIP3     H2       HT       0.417000       1.00800           0
     45499 TIP3     7685     TIP3     OH2      OT      -0.834000       15.9994           0
     45500 TIP3     7685     TIP3     H1       HT       0.417000       1.00800           0
     45501 TIP3     7685     TIP3     H2       HT       0.417000       1.00800           0
     45502 TIP3     7686     TIP3     OH2      OT      -0.834000       15.9994           0
     45503 TIP3     7686     TIP3     H1       HT       0.417000       1.00800           0
     45504 TIP3     7686     TIP3     H2       HT       0.417000       1.00800           0
     45505 TIP3     7687     TIP3     OH2      OT      -0.834000       15.9994           0
     45506 TIP3     7687     TIP3     H1       HT       0.417000       1.00800           0
     45507 TIP3     7687     TIP3     H2       HT       0.417000       1.00800           0
     45508 TIP3     7688     TIP3     OH2      OT      -0.834000       15.9994           0
     45509 TIP3     7688     TIP3     H1       HT       0.417000       1.00800           0
     45510 TIP3     7688     TIP3     H2       HT       0.417000       1.00800           0
     45511 TIP3     7689     TIP3     OH2      OT      -0.834000       15.9994           0
     45512 TIP3     7689     TIP3     H1       HT       0.417000       1.00800           0
     45513 TIP3     7689     TIP3     H2       HT       0.417000       1.00800           0
     45514 TIP3     7690     TIP3     OH2      OT      -0.834000       15.9994           0
     45515 TIP3     7690     TIP3     H1       HT       0.417000       1.00800           0
     45516 TIP3     7690     TIP3     H2       HT       0.417000       1.00800           0
     45517 TIP3     7691     TIP3     OH2      OT      -0.834000       15.9994           0
     45518 TIP3     7691     TIP3     H1       HT       0.417000       1.00800           0
     45519 TIP3     7691     TIP3     H2       HT       0.417000       1.00800           0
     45520 TIP3     7692     TIP3     OH2      OT      -0.834000       15.9994           0
     45521 TIP3     7692     TIP3     H1       HT       0.417000       1.00800           0
     45522 TIP3     7692     TIP3     H2       HT       0.417000       1.00800           0
     45523 TIP3     7693     TIP3     OH2      OT      -0.834000       15.9994           0
     45524 TIP3     7693     TIP3     H1       HT       0.417000       1.00800           0
     45525 TIP3     7693     TIP3     H2       HT       0.417000       1.00800           0
     45526 TIP3     7694     TIP3     OH2      OT      -0.834000       15.9994           0
     45527 TIP3     7694     TIP3     H1       HT       0.417000       1.00800           0
     45528 TIP3     7694     TIP3     H2       HT       0.417000       1.00800           0
     45529 TIP3     7695     TIP3     OH2      OT      -0.834000       15.9994           0
     45530 TIP3     7695     TIP3     H1       HT       0.417000       1.00800           0
     45531 TIP3     7695     TIP3     H2       HT       0.417000       1.00800           0
     45532 TIP3     7696     TIP3     OH2      OT      -0.834000       15.9994           0
     45533 TIP3     7696     TIP3     H1       HT       0.417000       1.00800           0
     45534 TIP3     7696     TIP3     H2       HT       0.417000       1.00800           0
     45535 TIP3     7697     TIP3     OH2      OT      -0.834000       15.9994           0
     45536 TIP3     7697     TIP3     H1       HT       0.417000       1.00800           0
     45537 TIP3     7697     TIP3     H2       HT       0.417000       1.00800           0
     45538 TIP3     7698     TIP3     OH2      OT      -0.834000       15.9994           0
     45539 TIP3     7698     TIP3     H1       HT       0.417000       1.00800           0
     45540 TIP3     7698     TIP3     H2       HT       0.417000       1.00800           0
     45541 TIP3     7699     TIP3     OH2      OT      -0.834000       15.9994           0
     45542 TIP3     7699     TIP3     H1       HT       0.417000       1.00800           0
     45543 TIP3     7699     TIP3     H2       HT       0.417000       1.00800           0
     45544 TIP3     7700     TIP3     OH2      OT      -0.834000       15.9994           0
     45545 TIP3     7700     TIP3     H1       HT       0.417000       1.00800           0
     45546 TIP3     7700     TIP3     H2       HT       0.417000       1.00800           0
     45547 TIP3     7701     TIP3     OH2      OT      -0.834000       15.9994           0
     45548 TIP3     7701     TIP3     H1       HT       0.417000       1.00800           0
     45549 TIP3     7701     TIP3     H2       HT       0.417000       1.00800           0
     45550 TIP3     7702     TIP3     OH2      OT      -0.834000       15.9994           0
     45551 TIP3     7702     TIP3     H1       HT       0.417000       1.00800           0
     45552 TIP3     7702     TIP3     H2       HT       0.417000       1.00800           0
     45553 TIP3     7703     TIP3     OH2      OT      -0.834000       15.9994           0
     45554 TIP3     7703     TIP3     H1       HT       0.417000       1.00800           0
     45555 TIP3     7703     TIP3     H2       HT       0.417000       1.00800           0
     45556 TIP3     7704     TIP3     OH2      OT      -0.834000       15.9994           0
     45557 TIP3     7704     TIP3     H1       HT       0.417000       1.00800           0
     45558 TIP3     7704     TIP3     H2       HT       0.417000       1.00800           0
     45559 TIP3     7705     TIP3     OH2      OT      -0.834000       15.9994           0
     45560 TIP3     7705     TIP3     H1       HT       0.417000       1.00800           0
     45561 TIP3     7705     TIP3     H2       HT       0.417000       1.00800           0
     45562 TIP3     7706     TIP3     OH2      OT      -0.834000       15.9994           0
     45563 TIP3     7706     TIP3     H1       HT       0.417000       1.00800           0
     45564 TIP3     7706     TIP3     H2       HT       0.417000       1.00800           0
     45565 TIP3     7707     TIP3     OH2      OT      -0.834000       15.9994           0
     45566 TIP3     7707     TIP3     H1       HT       0.417000       1.00800           0
     45567 TIP3     7707     TIP3     H2       HT       0.417000       1.00800           0
     45568 TIP3     7708     TIP3     OH2      OT      -0.834000       15.9994           0
     45569 TIP3     7708     TIP3     H1       HT       0.417000       1.00800           0
     45570 TIP3     7708     TIP3     H2       HT       0.417000       1.00800           0
     45571 TIP3     7709     TIP3     OH2      OT      -0.834000       15.9994           0
     45572 TIP3     7709     TIP3     H1       HT       0.417000       1.00800           0
     45573 TIP3     7709     TIP3     H2       HT       0.417000       1.00800           0
     45574 TIP3     7710     TIP3     OH2      OT      -0.834000       15.9994           0
     45575 TIP3     7710     TIP3     H1       HT       0.417000       1.00800           0
     45576 TIP3     7710     TIP3     H2       HT       0.417000       1.00800           0
     45577 TIP3     7711     TIP3     OH2      OT      -0.834000       15.9994           0
     45578 TIP3     7711     TIP3     H1       HT       0.417000       1.00800           0
     45579 TIP3     7711     TIP3     H2       HT       0.417000       1.00800           0
     45580 TIP3     7712     TIP3     OH2      OT      -0.834000       15.9994           0
     45581 TIP3     7712     TIP3     H1       HT       0.417000       1.00800           0
     45582 TIP3     7712     TIP3     H2       HT       0.417000       1.00800           0
     45583 TIP3     7713     TIP3     OH2      OT      -0.834000       15.9994           0
     45584 TIP3     7713     TIP3     H1       HT       0.417000       1.00800           0
     45585 TIP3     7713     TIP3     H2       HT       0.417000       1.00800           0
     45586 TIP3     7714     TIP3     OH2      OT      -0.834000       15.9994           0
     45587 TIP3     7714     TIP3     H1       HT       0.417000       1.00800           0
     45588 TIP3     7714     TIP3     H2       HT       0.417000       1.00800           0
     45589 TIP3     7715     TIP3     OH2      OT      -0.834000       15.9994           0
     45590 TIP3     7715     TIP3     H1       HT       0.417000       1.00800           0
     45591 TIP3     7715     TIP3     H2       HT       0.417000       1.00800           0
     45592 TIP3     7716     TIP3     OH2      OT      -0.834000       15.9994           0
     45593 TIP3     7716     TIP3     H1       HT       0.417000       1.00800           0
     45594 TIP3     7716     TIP3     H2       HT       0.417000       1.00800           0
     45595 TIP3     7717     TIP3     OH2      OT      -0.834000       15.9994           0
     45596 TIP3     7717     TIP3     H1       HT       0.417000       1.00800           0
     45597 TIP3     7717     TIP3     H2       HT       0.417000       1.00800           0
     45598 TIP3     7718     TIP3     OH2      OT      -0.834000       15.9994           0
     45599 TIP3     7718     TIP3     H1       HT       0.417000       1.00800           0
     45600 TIP3     7718     TIP3     H2       HT       0.417000       1.00800           0
     45601 TIP3     7719     TIP3     OH2      OT      -0.834000       15.9994           0
     45602 TIP3     7719     TIP3     H1       HT       0.417000       1.00800           0
     45603 TIP3     7719     TIP3     H2       HT       0.417000       1.00800           0
     45604 TIP3     7720     TIP3     OH2      OT      -0.834000       15.9994           0
     45605 TIP3     7720     TIP3     H1       HT       0.417000       1.00800           0
     45606 TIP3     7720     TIP3     H2       HT       0.417000       1.00800           0
     45607 TIP3     7721     TIP3     OH2      OT      -0.834000       15.9994           0
     45608 TIP3     7721     TIP3     H1       HT       0.417000       1.00800           0
     45609 TIP3     7721     TIP3     H2       HT       0.417000       1.00800           0
     45610 TIP3     7722     TIP3     OH2      OT      -0.834000       15.9994           0
     45611 TIP3     7722     TIP3     H1       HT       0.417000       1.00800           0
     45612 TIP3     7722     TIP3     H2       HT       0.417000       1.00800           0
     45613 TIP3     7723     TIP3     OH2      OT      -0.834000       15.9994           0
     45614 TIP3     7723     TIP3     H1       HT       0.417000       1.00800           0
     45615 TIP3     7723     TIP3     H2       HT       0.417000       1.00800           0
     45616 TIP3     7724     TIP3     OH2      OT      -0.834000       15.9994           0
     45617 TIP3     7724     TIP3     H1       HT       0.417000       1.00800           0
     45618 TIP3     7724     TIP3     H2       HT       0.417000       1.00800           0
     45619 TIP3     7725     TIP3     OH2      OT      -0.834000       15.9994           0
     45620 TIP3     7725     TIP3     H1       HT       0.417000       1.00800           0
     45621 TIP3     7725     TIP3     H2       HT       0.417000       1.00800           0
     45622 TIP3     7726     TIP3     OH2      OT      -0.834000       15.9994           0
     45623 TIP3     7726     TIP3     H1       HT       0.417000       1.00800           0
     45624 TIP3     7726     TIP3     H2       HT       0.417000       1.00800           0
     45625 TIP3     7727     TIP3     OH2      OT      -0.834000       15.9994           0
     45626 TIP3     7727     TIP3     H1       HT       0.417000       1.00800           0
     45627 TIP3     7727     TIP3     H2       HT       0.417000       1.00800           0
     45628 TIP3     7728     TIP3     OH2      OT      -0.834000       15.9994           0
     45629 TIP3     7728     TIP3     H1       HT       0.417000       1.00800           0
     45630 TIP3     7728     TIP3     H2       HT       0.417000       1.00800           0
     45631 TIP3     7729     TIP3     OH2      OT      -0.834000       15.9994           0
     45632 TIP3     7729     TIP3     H1       HT       0.417000       1.00800           0
     45633 TIP3     7729     TIP3     H2       HT       0.417000       1.00800           0
     45634 TIP3     7730     TIP3     OH2      OT      -0.834000       15.9994           0
     45635 TIP3     7730     TIP3     H1       HT       0.417000       1.00800           0
     45636 TIP3     7730     TIP3     H2       HT       0.417000       1.00800           0
     45637 TIP3     7731     TIP3     OH2      OT      -0.834000       15.9994           0
     45638 TIP3     7731     TIP3     H1       HT       0.417000       1.00800           0
     45639 TIP3     7731     TIP3     H2       HT       0.417000       1.00800           0
     45640 TIP3     7732     TIP3     OH2      OT      -0.834000       15.9994           0
     45641 TIP3     7732     TIP3     H1       HT       0.417000       1.00800           0
     45642 TIP3     7732     TIP3     H2       HT       0.417000       1.00800           0
     45643 TIP3     7733     TIP3     OH2      OT      -0.834000       15.9994           0
     45644 TIP3     7733     TIP3     H1       HT       0.417000       1.00800           0
     45645 TIP3     7733     TIP3     H2       HT       0.417000       1.00800           0
     45646 TIP3     7734     TIP3     OH2      OT      -0.834000       15.9994           0
     45647 TIP3     7734     TIP3     H1       HT       0.417000       1.00800           0
     45648 TIP3     7734     TIP3     H2       HT       0.417000       1.00800           0
     45649 TIP3     7735     TIP3     OH2      OT      -0.834000       15.9994           0
     45650 TIP3     7735     TIP3     H1       HT       0.417000       1.00800           0
     45651 TIP3     7735     TIP3     H2       HT       0.417000       1.00800           0
     45652 TIP3     7736     TIP3     OH2      OT      -0.834000       15.9994           0
     45653 TIP3     7736     TIP3     H1       HT       0.417000       1.00800           0
     45654 TIP3     7736     TIP3     H2       HT       0.417000       1.00800           0
     45655 TIP3     7737     TIP3     OH2      OT      -0.834000       15.9994           0
     45656 TIP3     7737     TIP3     H1       HT       0.417000       1.00800           0
     45657 TIP3     7737     TIP3     H2       HT       0.417000       1.00800           0
     45658 TIP3     7738     TIP3     OH2      OT      -0.834000       15.9994           0
     45659 TIP3     7738     TIP3     H1       HT       0.417000       1.00800           0
     45660 TIP3     7738     TIP3     H2       HT       0.417000       1.00800           0
     45661 TIP3     7739     TIP3     OH2      OT      -0.834000       15.9994           0
     45662 TIP3     7739     TIP3     H1       HT       0.417000       1.00800           0
     45663 TIP3     7739     TIP3     H2       HT       0.417000       1.00800           0
     45664 TIP3     7740     TIP3     OH2      OT      -0.834000       15.9994           0
     45665 TIP3     7740     TIP3     H1       HT       0.417000       1.00800           0
     45666 TIP3     7740     TIP3     H2       HT       0.417000       1.00800           0
     45667 TIP3     7741     TIP3     OH2      OT      -0.834000       15.9994           0
     45668 TIP3     7741     TIP3     H1       HT       0.417000       1.00800           0
     45669 TIP3     7741     TIP3     H2       HT       0.417000       1.00800           0
     45670 TIP3     7742     TIP3     OH2      OT      -0.834000       15.9994           0
     45671 TIP3     7742     TIP3     H1       HT       0.417000       1.00800           0
     45672 TIP3     7742     TIP3     H2       HT       0.417000       1.00800           0
     45673 TIP3     7743     TIP3     OH2      OT      -0.834000       15.9994           0
     45674 TIP3     7743     TIP3     H1       HT       0.417000       1.00800           0
     45675 TIP3     7743     TIP3     H2       HT       0.417000       1.00800           0
     45676 TIP3     7744     TIP3     OH2      OT      -0.834000       15.9994           0
     45677 TIP3     7744     TIP3     H1       HT       0.417000       1.00800           0
     45678 TIP3     7744     TIP3     H2       HT       0.417000       1.00800           0
     45679 TIP3     7745     TIP3     OH2      OT      -0.834000       15.9994           0
     45680 TIP3     7745     TIP3     H1       HT       0.417000       1.00800           0
     45681 TIP3     7745     TIP3     H2       HT       0.417000       1.00800           0
     45682 TIP3     7746     TIP3     OH2      OT      -0.834000       15.9994           0
     45683 TIP3     7746     TIP3     H1       HT       0.417000       1.00800           0
     45684 TIP3     7746     TIP3     H2       HT       0.417000       1.00800           0
     45685 TIP3     7747     TIP3     OH2      OT      -0.834000       15.9994           0
     45686 TIP3     7747     TIP3     H1       HT       0.417000       1.00800           0
     45687 TIP3     7747     TIP3     H2       HT       0.417000       1.00800           0
     45688 TIP3     7748     TIP3     OH2      OT      -0.834000       15.9994           0
     45689 TIP3     7748     TIP3     H1       HT       0.417000       1.00800           0
     45690 TIP3     7748     TIP3     H2       HT       0.417000       1.00800           0
     45691 TIP3     7749     TIP3     OH2      OT      -0.834000       15.9994           0
     45692 TIP3     7749     TIP3     H1       HT       0.417000       1.00800           0
     45693 TIP3     7749     TIP3     H2       HT       0.417000       1.00800           0
     45694 TIP3     7750     TIP3     OH2      OT      -0.834000       15.9994           0
     45695 TIP3     7750     TIP3     H1       HT       0.417000       1.00800           0
     45696 TIP3     7750     TIP3     H2       HT       0.417000       1.00800           0
     45697 TIP3     7751     TIP3     OH2      OT      -0.834000       15.9994           0
     45698 TIP3     7751     TIP3     H1       HT       0.417000       1.00800           0
     45699 TIP3     7751     TIP3     H2       HT       0.417000       1.00800           0
     45700 TIP3     7752     TIP3     OH2      OT      -0.834000       15.9994           0
     45701 TIP3     7752     TIP3     H1       HT       0.417000       1.00800           0
     45702 TIP3     7752     TIP3     H2       HT       0.417000       1.00800           0
     45703 TIP3     7753     TIP3     OH2      OT      -0.834000       15.9994           0
     45704 TIP3     7753     TIP3     H1       HT       0.417000       1.00800           0
     45705 TIP3     7753     TIP3     H2       HT       0.417000       1.00800           0
     45706 TIP3     7754     TIP3     OH2      OT      -0.834000       15.9994           0
     45707 TIP3     7754     TIP3     H1       HT       0.417000       1.00800           0
     45708 TIP3     7754     TIP3     H2       HT       0.417000       1.00800           0
     45709 TIP3     7755     TIP3     OH2      OT      -0.834000       15.9994           0
     45710 TIP3     7755     TIP3     H1       HT       0.417000       1.00800           0
     45711 TIP3     7755     TIP3     H2       HT       0.417000       1.00800           0
     45712 TIP3     7756     TIP3     OH2      OT      -0.834000       15.9994           0
     45713 TIP3     7756     TIP3     H1       HT       0.417000       1.00800           0
     45714 TIP3     7756     TIP3     H2       HT       0.417000       1.00800           0
     45715 TIP3     7757     TIP3     OH2      OT      -0.834000       15.9994           0
     45716 TIP3     7757     TIP3     H1       HT       0.417000       1.00800           0
     45717 TIP3     7757     TIP3     H2       HT       0.417000       1.00800           0
     45718 TIP3     7758     TIP3     OH2      OT      -0.834000       15.9994           0
     45719 TIP3     7758     TIP3     H1       HT       0.417000       1.00800           0
     45720 TIP3     7758     TIP3     H2       HT       0.417000       1.00800           0
     45721 TIP3     7759     TIP3     OH2      OT      -0.834000       15.9994           0
     45722 TIP3     7759     TIP3     H1       HT       0.417000       1.00800           0
     45723 TIP3     7759     TIP3     H2       HT       0.417000       1.00800           0
     45724 TIP3     7760     TIP3     OH2      OT      -0.834000       15.9994           0
     45725 TIP3     7760     TIP3     H1       HT       0.417000       1.00800           0
     45726 TIP3     7760     TIP3     H2       HT       0.417000       1.00800           0
     45727 TIP3     7761     TIP3     OH2      OT      -0.834000       15.9994           0
     45728 TIP3     7761     TIP3     H1       HT       0.417000       1.00800           0
     45729 TIP3     7761     TIP3     H2       HT       0.417000       1.00800           0
     45730 TIP3     7762     TIP3     OH2      OT      -0.834000       15.9994           0
     45731 TIP3     7762     TIP3     H1       HT       0.417000       1.00800           0
     45732 TIP3     7762     TIP3     H2       HT       0.417000       1.00800           0
     45733 TIP3     7763     TIP3     OH2      OT      -0.834000       15.9994           0
     45734 TIP3     7763     TIP3     H1       HT       0.417000       1.00800           0
     45735 TIP3     7763     TIP3     H2       HT       0.417000       1.00800           0
     45736 TIP3     7764     TIP3     OH2      OT      -0.834000       15.9994           0
     45737 TIP3     7764     TIP3     H1       HT       0.417000       1.00800           0
     45738 TIP3     7764     TIP3     H2       HT       0.417000       1.00800           0
     45739 TIP3     7765     TIP3     OH2      OT      -0.834000       15.9994           0
     45740 TIP3     7765     TIP3     H1       HT       0.417000       1.00800           0
     45741 TIP3     7765     TIP3     H2       HT       0.417000       1.00800           0
     45742 TIP3     7766     TIP3     OH2      OT      -0.834000       15.9994           0
     45743 TIP3     7766     TIP3     H1       HT       0.417000       1.00800           0
     45744 TIP3     7766     TIP3     H2       HT       0.417000       1.00800           0
     45745 TIP3     7767     TIP3     OH2      OT      -0.834000       15.9994           0
     45746 TIP3     7767     TIP3     H1       HT       0.417000       1.00800           0
     45747 TIP3     7767     TIP3     H2       HT       0.417000       1.00800           0
     45748 TIP3     7768     TIP3     OH2      OT      -0.834000       15.9994           0
     45749 TIP3     7768     TIP3     H1       HT       0.417000       1.00800           0
     45750 TIP3     7768     TIP3     H2       HT       0.417000       1.00800           0
     45751 TIP3     7769     TIP3     OH2      OT      -0.834000       15.9994           0
     45752 TIP3     7769     TIP3     H1       HT       0.417000       1.00800           0
     45753 TIP3     7769     TIP3     H2       HT       0.417000       1.00800           0
     45754 TIP3     7770     TIP3     OH2      OT      -0.834000       15.9994           0
     45755 TIP3     7770     TIP3     H1       HT       0.417000       1.00800           0
     45756 TIP3     7770     TIP3     H2       HT       0.417000       1.00800           0
     45757 TIP3     7771     TIP3     OH2      OT      -0.834000       15.9994           0
     45758 TIP3     7771     TIP3     H1       HT       0.417000       1.00800           0
     45759 TIP3     7771     TIP3     H2       HT       0.417000       1.00800           0
     45760 TIP3     7772     TIP3     OH2      OT      -0.834000       15.9994           0
     45761 TIP3     7772     TIP3     H1       HT       0.417000       1.00800           0
     45762 TIP3     7772     TIP3     H2       HT       0.417000       1.00800           0
     45763 TIP3     7773     TIP3     OH2      OT      -0.834000       15.9994           0
     45764 TIP3     7773     TIP3     H1       HT       0.417000       1.00800           0
     45765 TIP3     7773     TIP3     H2       HT       0.417000       1.00800           0
     45766 TIP3     7774     TIP3     OH2      OT      -0.834000       15.9994           0
     45767 TIP3     7774     TIP3     H1       HT       0.417000       1.00800           0
     45768 TIP3     7774     TIP3     H2       HT       0.417000       1.00800           0
     45769 TIP3     7775     TIP3     OH2      OT      -0.834000       15.9994           0
     45770 TIP3     7775     TIP3     H1       HT       0.417000       1.00800           0
     45771 TIP3     7775     TIP3     H2       HT       0.417000       1.00800           0
     45772 TIP3     7776     TIP3     OH2      OT      -0.834000       15.9994           0
     45773 TIP3     7776     TIP3     H1       HT       0.417000       1.00800           0
     45774 TIP3     7776     TIP3     H2       HT       0.417000       1.00800           0
     45775 TIP3     7777     TIP3     OH2      OT      -0.834000       15.9994           0
     45776 TIP3     7777     TIP3     H1       HT       0.417000       1.00800           0
     45777 TIP3     7777     TIP3     H2       HT       0.417000       1.00800           0
     45778 TIP3     7778     TIP3     OH2      OT      -0.834000       15.9994           0
     45779 TIP3     7778     TIP3     H1       HT       0.417000       1.00800           0
     45780 TIP3     7778     TIP3     H2       HT       0.417000       1.00800           0
     45781 TIP3     7779     TIP3     OH2      OT      -0.834000       15.9994           0
     45782 TIP3     7779     TIP3     H1       HT       0.417000       1.00800           0
     45783 TIP3     7779     TIP3     H2       HT       0.417000       1.00800           0
     45784 TIP3     7780     TIP3     OH2      OT      -0.834000       15.9994           0
     45785 TIP3     7780     TIP3     H1       HT       0.417000       1.00800           0
     45786 TIP3     7780     TIP3     H2       HT       0.417000       1.00800           0
     45787 TIP3     7781     TIP3     OH2      OT      -0.834000       15.9994           0
     45788 TIP3     7781     TIP3     H1       HT       0.417000       1.00800           0
     45789 TIP3     7781     TIP3     H2       HT       0.417000       1.00800           0
     45790 TIP3     7782     TIP3     OH2      OT      -0.834000       15.9994           0
     45791 TIP3     7782     TIP3     H1       HT       0.417000       1.00800           0
     45792 TIP3     7782     TIP3     H2       HT       0.417000       1.00800           0
     45793 TIP3     7783     TIP3     OH2      OT      -0.834000       15.9994           0
     45794 TIP3     7783     TIP3     H1       HT       0.417000       1.00800           0
     45795 TIP3     7783     TIP3     H2       HT       0.417000       1.00800           0
     45796 TIP3     7784     TIP3     OH2      OT      -0.834000       15.9994           0
     45797 TIP3     7784     TIP3     H1       HT       0.417000       1.00800           0
     45798 TIP3     7784     TIP3     H2       HT       0.417000       1.00800           0
     45799 TIP3     7785     TIP3     OH2      OT      -0.834000       15.9994           0
     45800 TIP3     7785     TIP3     H1       HT       0.417000       1.00800           0
     45801 TIP3     7785     TIP3     H2       HT       0.417000       1.00800           0
     45802 TIP3     7786     TIP3     OH2      OT      -0.834000       15.9994           0
     45803 TIP3     7786     TIP3     H1       HT       0.417000       1.00800           0
     45804 TIP3     7786     TIP3     H2       HT       0.417000       1.00800           0
     45805 TIP3     7787     TIP3     OH2      OT      -0.834000       15.9994           0
     45806 TIP3     7787     TIP3     H1       HT       0.417000       1.00800           0
     45807 TIP3     7787     TIP3     H2       HT       0.417000       1.00800           0
     45808 TIP3     7788     TIP3     OH2      OT      -0.834000       15.9994           0
     45809 TIP3     7788     TIP3     H1       HT       0.417000       1.00800           0
     45810 TIP3     7788     TIP3     H2       HT       0.417000       1.00800           0
     45811 TIP3     7789     TIP3     OH2      OT      -0.834000       15.9994           0
     45812 TIP3     7789     TIP3     H1       HT       0.417000       1.00800           0
     45813 TIP3     7789     TIP3     H2       HT       0.417000       1.00800           0
     45814 TIP3     7790     TIP3     OH2      OT      -0.834000       15.9994           0
     45815 TIP3     7790     TIP3     H1       HT       0.417000       1.00800           0
     45816 TIP3     7790     TIP3     H2       HT       0.417000       1.00800           0
     45817 TIP3     7791     TIP3     OH2      OT      -0.834000       15.9994           0
     45818 TIP3     7791     TIP3     H1       HT       0.417000       1.00800           0
     45819 TIP3     7791     TIP3     H2       HT       0.417000       1.00800           0
     45820 TIP3     7792     TIP3     OH2      OT      -0.834000       15.9994           0
     45821 TIP3     7792     TIP3     H1       HT       0.417000       1.00800           0
     45822 TIP3     7792     TIP3     H2       HT       0.417000       1.00800           0
     45823 TIP3     7793     TIP3     OH2      OT      -0.834000       15.9994           0
     45824 TIP3     7793     TIP3     H1       HT       0.417000       1.00800           0
     45825 TIP3     7793     TIP3     H2       HT       0.417000       1.00800           0
     45826 TIP3     7794     TIP3     OH2      OT      -0.834000       15.9994           0
     45827 TIP3     7794     TIP3     H1       HT       0.417000       1.00800           0
     45828 TIP3     7794     TIP3     H2       HT       0.417000       1.00800           0
     45829 TIP3     7795     TIP3     OH2      OT      -0.834000       15.9994           0
     45830 TIP3     7795     TIP3     H1       HT       0.417000       1.00800           0
     45831 TIP3     7795     TIP3     H2       HT       0.417000       1.00800           0
     45832 TIP3     7796     TIP3     OH2      OT      -0.834000       15.9994           0
     45833 TIP3     7796     TIP3     H1       HT       0.417000       1.00800           0
     45834 TIP3     7796     TIP3     H2       HT       0.417000       1.00800           0
     45835 TIP3     7797     TIP3     OH2      OT      -0.834000       15.9994           0
     45836 TIP3     7797     TIP3     H1       HT       0.417000       1.00800           0
     45837 TIP3     7797     TIP3     H2       HT       0.417000       1.00800           0
     45838 TIP3     7798     TIP3     OH2      OT      -0.834000       15.9994           0
     45839 TIP3     7798     TIP3     H1       HT       0.417000       1.00800           0
     45840 TIP3     7798     TIP3     H2       HT       0.417000       1.00800           0
     45841 TIP3     7799     TIP3     OH2      OT      -0.834000       15.9994           0
     45842 TIP3     7799     TIP3     H1       HT       0.417000       1.00800           0
     45843 TIP3     7799     TIP3     H2       HT       0.417000       1.00800           0
     45844 TIP3     7800     TIP3     OH2      OT      -0.834000       15.9994           0
     45845 TIP3     7800     TIP3     H1       HT       0.417000       1.00800           0
     45846 TIP3     7800     TIP3     H2       HT       0.417000       1.00800           0
     45847 TIP3     7801     TIP3     OH2      OT      -0.834000       15.9994           0
     45848 TIP3     7801     TIP3     H1       HT       0.417000       1.00800           0
     45849 TIP3     7801     TIP3     H2       HT       0.417000       1.00800           0
     45850 TIP3     7802     TIP3     OH2      OT      -0.834000       15.9994           0
     45851 TIP3     7802     TIP3     H1       HT       0.417000       1.00800           0
     45852 TIP3     7802     TIP3     H2       HT       0.417000       1.00800           0
     45853 TIP3     7803     TIP3     OH2      OT      -0.834000       15.9994           0
     45854 TIP3     7803     TIP3     H1       HT       0.417000       1.00800           0
     45855 TIP3     7803     TIP3     H2       HT       0.417000       1.00800           0
     45856 TIP3     7804     TIP3     OH2      OT      -0.834000       15.9994           0
     45857 TIP3     7804     TIP3     H1       HT       0.417000       1.00800           0
     45858 TIP3     7804     TIP3     H2       HT       0.417000       1.00800           0
     45859 TIP3     7805     TIP3     OH2      OT      -0.834000       15.9994           0
     45860 TIP3     7805     TIP3     H1       HT       0.417000       1.00800           0
     45861 TIP3     7805     TIP3     H2       HT       0.417000       1.00800           0
     45862 TIP3     7806     TIP3     OH2      OT      -0.834000       15.9994           0
     45863 TIP3     7806     TIP3     H1       HT       0.417000       1.00800           0
     45864 TIP3     7806     TIP3     H2       HT       0.417000       1.00800           0
     45865 TIP3     7807     TIP3     OH2      OT      -0.834000       15.9994           0
     45866 TIP3     7807     TIP3     H1       HT       0.417000       1.00800           0
     45867 TIP3     7807     TIP3     H2       HT       0.417000       1.00800           0
     45868 TIP3     7808     TIP3     OH2      OT      -0.834000       15.9994           0
     45869 TIP3     7808     TIP3     H1       HT       0.417000       1.00800           0
     45870 TIP3     7808     TIP3     H2       HT       0.417000       1.00800           0
     45871 TIP3     7809     TIP3     OH2      OT      -0.834000       15.9994           0
     45872 TIP3     7809     TIP3     H1       HT       0.417000       1.00800           0
     45873 TIP3     7809     TIP3     H2       HT       0.417000       1.00800           0
     45874 TIP3     7810     TIP3     OH2      OT      -0.834000       15.9994           0
     45875 TIP3     7810     TIP3     H1       HT       0.417000       1.00800           0
     45876 TIP3     7810     TIP3     H2       HT       0.417000       1.00800           0
     45877 TIP3     7811     TIP3     OH2      OT      -0.834000       15.9994           0
     45878 TIP3     7811     TIP3     H1       HT       0.417000       1.00800           0
     45879 TIP3     7811     TIP3     H2       HT       0.417000       1.00800           0
     45880 TIP3     7812     TIP3     OH2      OT      -0.834000       15.9994           0
     45881 TIP3     7812     TIP3     H1       HT       0.417000       1.00800           0
     45882 TIP3     7812     TIP3     H2       HT       0.417000       1.00800           0
     45883 TIP3     7813     TIP3     OH2      OT      -0.834000       15.9994           0
     45884 TIP3     7813     TIP3     H1       HT       0.417000       1.00800           0
     45885 TIP3     7813     TIP3     H2       HT       0.417000       1.00800           0
     45886 TIP3     7814     TIP3     OH2      OT      -0.834000       15.9994           0
     45887 TIP3     7814     TIP3     H1       HT       0.417000       1.00800           0
     45888 TIP3     7814     TIP3     H2       HT       0.417000       1.00800           0
     45889 TIP3     7815     TIP3     OH2      OT      -0.834000       15.9994           0
     45890 TIP3     7815     TIP3     H1       HT       0.417000       1.00800           0
     45891 TIP3     7815     TIP3     H2       HT       0.417000       1.00800           0
     45892 TIP3     7816     TIP3     OH2      OT      -0.834000       15.9994           0
     45893 TIP3     7816     TIP3     H1       HT       0.417000       1.00800           0
     45894 TIP3     7816     TIP3     H2       HT       0.417000       1.00800           0
     45895 TIP3     7817     TIP3     OH2      OT      -0.834000       15.9994           0
     45896 TIP3     7817     TIP3     H1       HT       0.417000       1.00800           0
     45897 TIP3     7817     TIP3     H2       HT       0.417000       1.00800           0
     45898 TIP3     7818     TIP3     OH2      OT      -0.834000       15.9994           0
     45899 TIP3     7818     TIP3     H1       HT       0.417000       1.00800           0
     45900 TIP3     7818     TIP3     H2       HT       0.417000       1.00800           0
     45901 TIP3     7819     TIP3     OH2      OT      -0.834000       15.9994           0
     45902 TIP3     7819     TIP3     H1       HT       0.417000       1.00800           0
     45903 TIP3     7819     TIP3     H2       HT       0.417000       1.00800           0
     45904 TIP3     7820     TIP3     OH2      OT      -0.834000       15.9994           0
     45905 TIP3     7820     TIP3     H1       HT       0.417000       1.00800           0
     45906 TIP3     7820     TIP3     H2       HT       0.417000       1.00800           0
     45907 TIP3     7821     TIP3     OH2      OT      -0.834000       15.9994           0
     45908 TIP3     7821     TIP3     H1       HT       0.417000       1.00800           0
     45909 TIP3     7821     TIP3     H2       HT       0.417000       1.00800           0
     45910 TIP3     7822     TIP3     OH2      OT      -0.834000       15.9994           0
     45911 TIP3     7822     TIP3     H1       HT       0.417000       1.00800           0
     45912 TIP3     7822     TIP3     H2       HT       0.417000       1.00800           0
     45913 TIP3     7823     TIP3     OH2      OT      -0.834000       15.9994           0
     45914 TIP3     7823     TIP3     H1       HT       0.417000       1.00800           0
     45915 TIP3     7823     TIP3     H2       HT       0.417000       1.00800           0
     45916 TIP3     7824     TIP3     OH2      OT      -0.834000       15.9994           0
     45917 TIP3     7824     TIP3     H1       HT       0.417000       1.00800           0
     45918 TIP3     7824     TIP3     H2       HT       0.417000       1.00800           0
     45919 TIP3     7825     TIP3     OH2      OT      -0.834000       15.9994           0
     45920 TIP3     7825     TIP3     H1       HT       0.417000       1.00800           0
     45921 TIP3     7825     TIP3     H2       HT       0.417000       1.00800           0
     45922 TIP3     7826     TIP3     OH2      OT      -0.834000       15.9994           0
     45923 TIP3     7826     TIP3     H1       HT       0.417000       1.00800           0
     45924 TIP3     7826     TIP3     H2       HT       0.417000       1.00800           0
     45925 TIP3     7827     TIP3     OH2      OT      -0.834000       15.9994           0
     45926 TIP3     7827     TIP3     H1       HT       0.417000       1.00800           0
     45927 TIP3     7827     TIP3     H2       HT       0.417000       1.00800           0
     45928 TIP3     7828     TIP3     OH2      OT      -0.834000       15.9994           0
     45929 TIP3     7828     TIP3     H1       HT       0.417000       1.00800           0
     45930 TIP3     7828     TIP3     H2       HT       0.417000       1.00800           0
     45931 TIP3     7829     TIP3     OH2      OT      -0.834000       15.9994           0
     45932 TIP3     7829     TIP3     H1       HT       0.417000       1.00800           0
     45933 TIP3     7829     TIP3     H2       HT       0.417000       1.00800           0
     45934 TIP3     7830     TIP3     OH2      OT      -0.834000       15.9994           0
     45935 TIP3     7830     TIP3     H1       HT       0.417000       1.00800           0
     45936 TIP3     7830     TIP3     H2       HT       0.417000       1.00800           0
     45937 TIP3     7831     TIP3     OH2      OT      -0.834000       15.9994           0
     45938 TIP3     7831     TIP3     H1       HT       0.417000       1.00800           0
     45939 TIP3     7831     TIP3     H2       HT       0.417000       1.00800           0
     45940 TIP3     7832     TIP3     OH2      OT      -0.834000       15.9994           0
     45941 TIP3     7832     TIP3     H1       HT       0.417000       1.00800           0
     45942 TIP3     7832     TIP3     H2       HT       0.417000       1.00800           0
     45943 TIP3     7833     TIP3     OH2      OT      -0.834000       15.9994           0
     45944 TIP3     7833     TIP3     H1       HT       0.417000       1.00800           0
     45945 TIP3     7833     TIP3     H2       HT       0.417000       1.00800           0
     45946 TIP3     7834     TIP3     OH2      OT      -0.834000       15.9994           0
     45947 TIP3     7834     TIP3     H1       HT       0.417000       1.00800           0
     45948 TIP3     7834     TIP3     H2       HT       0.417000       1.00800           0
     45949 TIP3     7835     TIP3     OH2      OT      -0.834000       15.9994           0
     45950 TIP3     7835     TIP3     H1       HT       0.417000       1.00800           0
     45951 TIP3     7835     TIP3     H2       HT       0.417000       1.00800           0
     45952 TIP3     7836     TIP3     OH2      OT      -0.834000       15.9994           0
     45953 TIP3     7836     TIP3     H1       HT       0.417000       1.00800           0
     45954 TIP3     7836     TIP3     H2       HT       0.417000       1.00800           0
     45955 TIP3     7837     TIP3     OH2      OT      -0.834000       15.9994           0
     45956 TIP3     7837     TIP3     H1       HT       0.417000       1.00800           0
     45957 TIP3     7837     TIP3     H2       HT       0.417000       1.00800           0
     45958 TIP3     7838     TIP3     OH2      OT      -0.834000       15.9994           0
     45959 TIP3     7838     TIP3     H1       HT       0.417000       1.00800           0
     45960 TIP3     7838     TIP3     H2       HT       0.417000       1.00800           0
     45961 TIP3     7839     TIP3     OH2      OT      -0.834000       15.9994           0
     45962 TIP3     7839     TIP3     H1       HT       0.417000       1.00800           0
     45963 TIP3     7839     TIP3     H2       HT       0.417000       1.00800           0
     45964 TIP3     7840     TIP3     OH2      OT      -0.834000       15.9994           0
     45965 TIP3     7840     TIP3     H1       HT       0.417000       1.00800           0
     45966 TIP3     7840     TIP3     H2       HT       0.417000       1.00800           0
     45967 TIP3     7841     TIP3     OH2      OT      -0.834000       15.9994           0
     45968 TIP3     7841     TIP3     H1       HT       0.417000       1.00800           0
     45969 TIP3     7841     TIP3     H2       HT       0.417000       1.00800           0
     45970 TIP3     7842     TIP3     OH2      OT      -0.834000       15.9994           0
     45971 TIP3     7842     TIP3     H1       HT       0.417000       1.00800           0
     45972 TIP3     7842     TIP3     H2       HT       0.417000       1.00800           0
     45973 TIP3     7843     TIP3     OH2      OT      -0.834000       15.9994           0
     45974 TIP3     7843     TIP3     H1       HT       0.417000       1.00800           0
     45975 TIP3     7843     TIP3     H2       HT       0.417000       1.00800           0
     45976 TIP3     7844     TIP3     OH2      OT      -0.834000       15.9994           0
     45977 TIP3     7844     TIP3     H1       HT       0.417000       1.00800           0
     45978 TIP3     7844     TIP3     H2       HT       0.417000       1.00800           0
     45979 TIP3     7845     TIP3     OH2      OT      -0.834000       15.9994           0
     45980 TIP3     7845     TIP3     H1       HT       0.417000       1.00800           0
     45981 TIP3     7845     TIP3     H2       HT       0.417000       1.00800           0
     45982 TIP3     7846     TIP3     OH2      OT      -0.834000       15.9994           0
     45983 TIP3     7846     TIP3     H1       HT       0.417000       1.00800           0
     45984 TIP3     7846     TIP3     H2       HT       0.417000       1.00800           0
     45985 TIP3     7847     TIP3     OH2      OT      -0.834000       15.9994           0
     45986 TIP3     7847     TIP3     H1       HT       0.417000       1.00800           0
     45987 TIP3     7847     TIP3     H2       HT       0.417000       1.00800           0
     45988 TIP3     7848     TIP3     OH2      OT      -0.834000       15.9994           0
     45989 TIP3     7848     TIP3     H1       HT       0.417000       1.00800           0
     45990 TIP3     7848     TIP3     H2       HT       0.417000       1.00800           0
     45991 TIP3     7849     TIP3     OH2      OT      -0.834000       15.9994           0
     45992 TIP3     7849     TIP3     H1       HT       0.417000       1.00800           0
     45993 TIP3     7849     TIP3     H2       HT       0.417000       1.00800           0
     45994 TIP3     7850     TIP3     OH2      OT      -0.834000       15.9994           0
     45995 TIP3     7850     TIP3     H1       HT       0.417000       1.00800           0
     45996 TIP3     7850     TIP3     H2       HT       0.417000       1.00800           0
     45997 TIP3     7851     TIP3     OH2      OT      -0.834000       15.9994           0
     45998 TIP3     7851     TIP3     H1       HT       0.417000       1.00800           0
     45999 TIP3     7851     TIP3     H2       HT       0.417000       1.00800           0
     46000 TIP3     7852     TIP3     OH2      OT      -0.834000       15.9994           0
     46001 TIP3     7852     TIP3     H1       HT       0.417000       1.00800           0
     46002 TIP3     7852     TIP3     H2       HT       0.417000       1.00800           0
     46003 TIP3     7853     TIP3     OH2      OT      -0.834000       15.9994           0
     46004 TIP3     7853     TIP3     H1       HT       0.417000       1.00800           0
     46005 TIP3     7853     TIP3     H2       HT       0.417000       1.00800           0
     46006 TIP3     7854     TIP3     OH2      OT      -0.834000       15.9994           0
     46007 TIP3     7854     TIP3     H1       HT       0.417000       1.00800           0
     46008 TIP3     7854     TIP3     H2       HT       0.417000       1.00800           0
     46009 TIP3     7855     TIP3     OH2      OT      -0.834000       15.9994           0
     46010 TIP3     7855     TIP3     H1       HT       0.417000       1.00800           0
     46011 TIP3     7855     TIP3     H2       HT       0.417000       1.00800           0
     46012 TIP3     7856     TIP3     OH2      OT      -0.834000       15.9994           0
     46013 TIP3     7856     TIP3     H1       HT       0.417000       1.00800           0
     46014 TIP3     7856     TIP3     H2       HT       0.417000       1.00800           0
     46015 TIP3     7857     TIP3     OH2      OT      -0.834000       15.9994           0
     46016 TIP3     7857     TIP3     H1       HT       0.417000       1.00800           0
     46017 TIP3     7857     TIP3     H2       HT       0.417000       1.00800           0
     46018 TIP3     7858     TIP3     OH2      OT      -0.834000       15.9994           0
     46019 TIP3     7858     TIP3     H1       HT       0.417000       1.00800           0
     46020 TIP3     7858     TIP3     H2       HT       0.417000       1.00800           0
     46021 TIP3     7859     TIP3     OH2      OT      -0.834000       15.9994           0
     46022 TIP3     7859     TIP3     H1       HT       0.417000       1.00800           0
     46023 TIP3     7859     TIP3     H2       HT       0.417000       1.00800           0
     46024 TIP3     7860     TIP3     OH2      OT      -0.834000       15.9994           0
     46025 TIP3     7860     TIP3     H1       HT       0.417000       1.00800           0
     46026 TIP3     7860     TIP3     H2       HT       0.417000       1.00800           0
     46027 TIP3     7861     TIP3     OH2      OT      -0.834000       15.9994           0
     46028 TIP3     7861     TIP3     H1       HT       0.417000       1.00800           0
     46029 TIP3     7861     TIP3     H2       HT       0.417000       1.00800           0
     46030 TIP3     7862     TIP3     OH2      OT      -0.834000       15.9994           0
     46031 TIP3     7862     TIP3     H1       HT       0.417000       1.00800           0
     46032 TIP3     7862     TIP3     H2       HT       0.417000       1.00800           0
     46033 TIP3     7863     TIP3     OH2      OT      -0.834000       15.9994           0
     46034 TIP3     7863     TIP3     H1       HT       0.417000       1.00800           0
     46035 TIP3     7863     TIP3     H2       HT       0.417000       1.00800           0
     46036 TIP3     7864     TIP3     OH2      OT      -0.834000       15.9994           0
     46037 TIP3     7864     TIP3     H1       HT       0.417000       1.00800           0
     46038 TIP3     7864     TIP3     H2       HT       0.417000       1.00800           0
     46039 TIP3     7865     TIP3     OH2      OT      -0.834000       15.9994           0
     46040 TIP3     7865     TIP3     H1       HT       0.417000       1.00800           0
     46041 TIP3     7865     TIP3     H2       HT       0.417000       1.00800           0
     46042 TIP3     7866     TIP3     OH2      OT      -0.834000       15.9994           0
     46043 TIP3     7866     TIP3     H1       HT       0.417000       1.00800           0
     46044 TIP3     7866     TIP3     H2       HT       0.417000       1.00800           0
     46045 TIP3     7867     TIP3     OH2      OT      -0.834000       15.9994           0
     46046 TIP3     7867     TIP3     H1       HT       0.417000       1.00800           0
     46047 TIP3     7867     TIP3     H2       HT       0.417000       1.00800           0
     46048 TIP3     7868     TIP3     OH2      OT      -0.834000       15.9994           0
     46049 TIP3     7868     TIP3     H1       HT       0.417000       1.00800           0
     46050 TIP3     7868     TIP3     H2       HT       0.417000       1.00800           0
     46051 TIP3     7869     TIP3     OH2      OT      -0.834000       15.9994           0
     46052 TIP3     7869     TIP3     H1       HT       0.417000       1.00800           0
     46053 TIP3     7869     TIP3     H2       HT       0.417000       1.00800           0
     46054 TIP3     7870     TIP3     OH2      OT      -0.834000       15.9994           0
     46055 TIP3     7870     TIP3     H1       HT       0.417000       1.00800           0
     46056 TIP3     7870     TIP3     H2       HT       0.417000       1.00800           0
     46057 TIP3     7871     TIP3     OH2      OT      -0.834000       15.9994           0
     46058 TIP3     7871     TIP3     H1       HT       0.417000       1.00800           0
     46059 TIP3     7871     TIP3     H2       HT       0.417000       1.00800           0
     46060 TIP3     7872     TIP3     OH2      OT      -0.834000       15.9994           0
     46061 TIP3     7872     TIP3     H1       HT       0.417000       1.00800           0
     46062 TIP3     7872     TIP3     H2       HT       0.417000       1.00800           0
     46063 TIP3     7873     TIP3     OH2      OT      -0.834000       15.9994           0
     46064 TIP3     7873     TIP3     H1       HT       0.417000       1.00800           0
     46065 TIP3     7873     TIP3     H2       HT       0.417000       1.00800           0
     46066 TIP3     7874     TIP3     OH2      OT      -0.834000       15.9994           0
     46067 TIP3     7874     TIP3     H1       HT       0.417000       1.00800           0
     46068 TIP3     7874     TIP3     H2       HT       0.417000       1.00800           0
     46069 TIP3     7875     TIP3     OH2      OT      -0.834000       15.9994           0
     46070 TIP3     7875     TIP3     H1       HT       0.417000       1.00800           0
     46071 TIP3     7875     TIP3     H2       HT       0.417000       1.00800           0
     46072 TIP3     7876     TIP3     OH2      OT      -0.834000       15.9994           0
     46073 TIP3     7876     TIP3     H1       HT       0.417000       1.00800           0
     46074 TIP3     7876     TIP3     H2       HT       0.417000       1.00800           0
     46075 TIP3     7877     TIP3     OH2      OT      -0.834000       15.9994           0
     46076 TIP3     7877     TIP3     H1       HT       0.417000       1.00800           0
     46077 TIP3     7877     TIP3     H2       HT       0.417000       1.00800           0
     46078 TIP3     7878     TIP3     OH2      OT      -0.834000       15.9994           0
     46079 TIP3     7878     TIP3     H1       HT       0.417000       1.00800           0
     46080 TIP3     7878     TIP3     H2       HT       0.417000       1.00800           0
     46081 TIP3     7879     TIP3     OH2      OT      -0.834000       15.9994           0
     46082 TIP3     7879     TIP3     H1       HT       0.417000       1.00800           0
     46083 TIP3     7879     TIP3     H2       HT       0.417000       1.00800           0
     46084 TIP3     7880     TIP3     OH2      OT      -0.834000       15.9994           0
     46085 TIP3     7880     TIP3     H1       HT       0.417000       1.00800           0
     46086 TIP3     7880     TIP3     H2       HT       0.417000       1.00800           0
     46087 TIP3     7881     TIP3     OH2      OT      -0.834000       15.9994           0
     46088 TIP3     7881     TIP3     H1       HT       0.417000       1.00800           0
     46089 TIP3     7881     TIP3     H2       HT       0.417000       1.00800           0
     46090 TIP3     7882     TIP3     OH2      OT      -0.834000       15.9994           0
     46091 TIP3     7882     TIP3     H1       HT       0.417000       1.00800           0
     46092 TIP3     7882     TIP3     H2       HT       0.417000       1.00800           0
     46093 TIP3     7883     TIP3     OH2      OT      -0.834000       15.9994           0
     46094 TIP3     7883     TIP3     H1       HT       0.417000       1.00800           0
     46095 TIP3     7883     TIP3     H2       HT       0.417000       1.00800           0
     46096 TIP3     7884     TIP3     OH2      OT      -0.834000       15.9994           0
     46097 TIP3     7884     TIP3     H1       HT       0.417000       1.00800           0
     46098 TIP3     7884     TIP3     H2       HT       0.417000       1.00800           0
     46099 TIP3     7885     TIP3     OH2      OT      -0.834000       15.9994           0
     46100 TIP3     7885     TIP3     H1       HT       0.417000       1.00800           0
     46101 TIP3     7885     TIP3     H2       HT       0.417000       1.00800           0
     46102 TIP3     7886     TIP3     OH2      OT      -0.834000       15.9994           0
     46103 TIP3     7886     TIP3     H1       HT       0.417000       1.00800           0
     46104 TIP3     7886     TIP3     H2       HT       0.417000       1.00800           0
     46105 TIP3     7887     TIP3     OH2      OT      -0.834000       15.9994           0
     46106 TIP3     7887     TIP3     H1       HT       0.417000       1.00800           0
     46107 TIP3     7887     TIP3     H2       HT       0.417000       1.00800           0
     46108 TIP3     7888     TIP3     OH2      OT      -0.834000       15.9994           0
     46109 TIP3     7888     TIP3     H1       HT       0.417000       1.00800           0
     46110 TIP3     7888     TIP3     H2       HT       0.417000       1.00800           0
     46111 TIP3     7889     TIP3     OH2      OT      -0.834000       15.9994           0
     46112 TIP3     7889     TIP3     H1       HT       0.417000       1.00800           0
     46113 TIP3     7889     TIP3     H2       HT       0.417000       1.00800           0
     46114 TIP3     7890     TIP3     OH2      OT      -0.834000       15.9994           0
     46115 TIP3     7890     TIP3     H1       HT       0.417000       1.00800           0
     46116 TIP3     7890     TIP3     H2       HT       0.417000       1.00800           0
     46117 TIP3     7891     TIP3     OH2      OT      -0.834000       15.9994           0
     46118 TIP3     7891     TIP3     H1       HT       0.417000       1.00800           0
     46119 TIP3     7891     TIP3     H2       HT       0.417000       1.00800           0
     46120 TIP3     7892     TIP3     OH2      OT      -0.834000       15.9994           0
     46121 TIP3     7892     TIP3     H1       HT       0.417000       1.00800           0
     46122 TIP3     7892     TIP3     H2       HT       0.417000       1.00800           0
     46123 TIP3     7893     TIP3     OH2      OT      -0.834000       15.9994           0
     46124 TIP3     7893     TIP3     H1       HT       0.417000       1.00800           0
     46125 TIP3     7893     TIP3     H2       HT       0.417000       1.00800           0
     46126 TIP3     7894     TIP3     OH2      OT      -0.834000       15.9994           0
     46127 TIP3     7894     TIP3     H1       HT       0.417000       1.00800           0
     46128 TIP3     7894     TIP3     H2       HT       0.417000       1.00800           0
     46129 TIP3     7895     TIP3     OH2      OT      -0.834000       15.9994           0
     46130 TIP3     7895     TIP3     H1       HT       0.417000       1.00800           0
     46131 TIP3     7895     TIP3     H2       HT       0.417000       1.00800           0
     46132 TIP3     7896     TIP3     OH2      OT      -0.834000       15.9994           0
     46133 TIP3     7896     TIP3     H1       HT       0.417000       1.00800           0
     46134 TIP3     7896     TIP3     H2       HT       0.417000       1.00800           0
     46135 TIP3     7897     TIP3     OH2      OT      -0.834000       15.9994           0
     46136 TIP3     7897     TIP3     H1       HT       0.417000       1.00800           0
     46137 TIP3     7897     TIP3     H2       HT       0.417000       1.00800           0
     46138 TIP3     7898     TIP3     OH2      OT      -0.834000       15.9994           0
     46139 TIP3     7898     TIP3     H1       HT       0.417000       1.00800           0
     46140 TIP3     7898     TIP3     H2       HT       0.417000       1.00800           0
     46141 TIP3     7899     TIP3     OH2      OT      -0.834000       15.9994           0
     46142 TIP3     7899     TIP3     H1       HT       0.417000       1.00800           0
     46143 TIP3     7899     TIP3     H2       HT       0.417000       1.00800           0
     46144 TIP3     7900     TIP3     OH2      OT      -0.834000       15.9994           0
     46145 TIP3     7900     TIP3     H1       HT       0.417000       1.00800           0
     46146 TIP3     7900     TIP3     H2       HT       0.417000       1.00800           0
     46147 TIP3     7901     TIP3     OH2      OT      -0.834000       15.9994           0
     46148 TIP3     7901     TIP3     H1       HT       0.417000       1.00800           0
     46149 TIP3     7901     TIP3     H2       HT       0.417000       1.00800           0
     46150 TIP3     7902     TIP3     OH2      OT      -0.834000       15.9994           0
     46151 TIP3     7902     TIP3     H1       HT       0.417000       1.00800           0
     46152 TIP3     7902     TIP3     H2       HT       0.417000       1.00800           0
     46153 TIP3     7903     TIP3     OH2      OT      -0.834000       15.9994           0
     46154 TIP3     7903     TIP3     H1       HT       0.417000       1.00800           0
     46155 TIP3     7903     TIP3     H2       HT       0.417000       1.00800           0
     46156 TIP3     7904     TIP3     OH2      OT      -0.834000       15.9994           0
     46157 TIP3     7904     TIP3     H1       HT       0.417000       1.00800           0
     46158 TIP3     7904     TIP3     H2       HT       0.417000       1.00800           0
     46159 TIP3     7905     TIP3     OH2      OT      -0.834000       15.9994           0
     46160 TIP3     7905     TIP3     H1       HT       0.417000       1.00800           0
     46161 TIP3     7905     TIP3     H2       HT       0.417000       1.00800           0
     46162 TIP3     7906     TIP3     OH2      OT      -0.834000       15.9994           0
     46163 TIP3     7906     TIP3     H1       HT       0.417000       1.00800           0
     46164 TIP3     7906     TIP3     H2       HT       0.417000       1.00800           0
     46165 TIP3     7907     TIP3     OH2      OT      -0.834000       15.9994           0
     46166 TIP3     7907     TIP3     H1       HT       0.417000       1.00800           0
     46167 TIP3     7907     TIP3     H2       HT       0.417000       1.00800           0
     46168 TIP3     7908     TIP3     OH2      OT      -0.834000       15.9994           0
     46169 TIP3     7908     TIP3     H1       HT       0.417000       1.00800           0
     46170 TIP3     7908     TIP3     H2       HT       0.417000       1.00800           0
     46171 TIP3     7909     TIP3     OH2      OT      -0.834000       15.9994           0
     46172 TIP3     7909     TIP3     H1       HT       0.417000       1.00800           0
     46173 TIP3     7909     TIP3     H2       HT       0.417000       1.00800           0
     46174 TIP3     7910     TIP3     OH2      OT      -0.834000       15.9994           0
     46175 TIP3     7910     TIP3     H1       HT       0.417000       1.00800           0
     46176 TIP3     7910     TIP3     H2       HT       0.417000       1.00800           0
     46177 TIP3     7911     TIP3     OH2      OT      -0.834000       15.9994           0
     46178 TIP3     7911     TIP3     H1       HT       0.417000       1.00800           0
     46179 TIP3     7911     TIP3     H2       HT       0.417000       1.00800           0
     46180 TIP3     7912     TIP3     OH2      OT      -0.834000       15.9994           0
     46181 TIP3     7912     TIP3     H1       HT       0.417000       1.00800           0
     46182 TIP3     7912     TIP3     H2       HT       0.417000       1.00800           0
     46183 TIP3     7913     TIP3     OH2      OT      -0.834000       15.9994           0
     46184 TIP3     7913     TIP3     H1       HT       0.417000       1.00800           0
     46185 TIP3     7913     TIP3     H2       HT       0.417000       1.00800           0
     46186 TIP3     7914     TIP3     OH2      OT      -0.834000       15.9994           0
     46187 TIP3     7914     TIP3     H1       HT       0.417000       1.00800           0
     46188 TIP3     7914     TIP3     H2       HT       0.417000       1.00800           0
     46189 TIP3     7915     TIP3     OH2      OT      -0.834000       15.9994           0
     46190 TIP3     7915     TIP3     H1       HT       0.417000       1.00800           0
     46191 TIP3     7915     TIP3     H2       HT       0.417000       1.00800           0
     46192 TIP3     7916     TIP3     OH2      OT      -0.834000       15.9994           0
     46193 TIP3     7916     TIP3     H1       HT       0.417000       1.00800           0
     46194 TIP3     7916     TIP3     H2       HT       0.417000       1.00800           0
     46195 TIP3     7917     TIP3     OH2      OT      -0.834000       15.9994           0
     46196 TIP3     7917     TIP3     H1       HT       0.417000       1.00800           0
     46197 TIP3     7917     TIP3     H2       HT       0.417000       1.00800           0
     46198 TIP3     7918     TIP3     OH2      OT      -0.834000       15.9994           0
     46199 TIP3     7918     TIP3     H1       HT       0.417000       1.00800           0
     46200 TIP3     7918     TIP3     H2       HT       0.417000       1.00800           0
     46201 TIP3     7919     TIP3     OH2      OT      -0.834000       15.9994           0
     46202 TIP3     7919     TIP3     H1       HT       0.417000       1.00800           0
     46203 TIP3     7919     TIP3     H2       HT       0.417000       1.00800           0
     46204 TIP3     7920     TIP3     OH2      OT      -0.834000       15.9994           0
     46205 TIP3     7920     TIP3     H1       HT       0.417000       1.00800           0
     46206 TIP3     7920     TIP3     H2       HT       0.417000       1.00800           0
     46207 TIP3     7921     TIP3     OH2      OT      -0.834000       15.9994           0
     46208 TIP3     7921     TIP3     H1       HT       0.417000       1.00800           0
     46209 TIP3     7921     TIP3     H2       HT       0.417000       1.00800           0
     46210 TIP3     7922     TIP3     OH2      OT      -0.834000       15.9994           0
     46211 TIP3     7922     TIP3     H1       HT       0.417000       1.00800           0
     46212 TIP3     7922     TIP3     H2       HT       0.417000       1.00800           0
     46213 TIP3     7923     TIP3     OH2      OT      -0.834000       15.9994           0
     46214 TIP3     7923     TIP3     H1       HT       0.417000       1.00800           0
     46215 TIP3     7923     TIP3     H2       HT       0.417000       1.00800           0
     46216 TIP3     7924     TIP3     OH2      OT      -0.834000       15.9994           0
     46217 TIP3     7924     TIP3     H1       HT       0.417000       1.00800           0
     46218 TIP3     7924     TIP3     H2       HT       0.417000       1.00800           0
     46219 TIP3     7925     TIP3     OH2      OT      -0.834000       15.9994           0
     46220 TIP3     7925     TIP3     H1       HT       0.417000       1.00800           0
     46221 TIP3     7925     TIP3     H2       HT       0.417000       1.00800           0
     46222 TIP3     7926     TIP3     OH2      OT      -0.834000       15.9994           0
     46223 TIP3     7926     TIP3     H1       HT       0.417000       1.00800           0
     46224 TIP3     7926     TIP3     H2       HT       0.417000       1.00800           0
     46225 TIP3     7927     TIP3     OH2      OT      -0.834000       15.9994           0
     46226 TIP3     7927     TIP3     H1       HT       0.417000       1.00800           0
     46227 TIP3     7927     TIP3     H2       HT       0.417000       1.00800           0
     46228 TIP3     7928     TIP3     OH2      OT      -0.834000       15.9994           0
     46229 TIP3     7928     TIP3     H1       HT       0.417000       1.00800           0
     46230 TIP3     7928     TIP3     H2       HT       0.417000       1.00800           0
     46231 TIP3     7929     TIP3     OH2      OT      -0.834000       15.9994           0
     46232 TIP3     7929     TIP3     H1       HT       0.417000       1.00800           0
     46233 TIP3     7929     TIP3     H2       HT       0.417000       1.00800           0
     46234 TIP3     7930     TIP3     OH2      OT      -0.834000       15.9994           0
     46235 TIP3     7930     TIP3     H1       HT       0.417000       1.00800           0
     46236 TIP3     7930     TIP3     H2       HT       0.417000       1.00800           0
     46237 TIP3     7931     TIP3     OH2      OT      -0.834000       15.9994           0
     46238 TIP3     7931     TIP3     H1       HT       0.417000       1.00800           0
     46239 TIP3     7931     TIP3     H2       HT       0.417000       1.00800           0
     46240 TIP3     7932     TIP3     OH2      OT      -0.834000       15.9994           0
     46241 TIP3     7932     TIP3     H1       HT       0.417000       1.00800           0
     46242 TIP3     7932     TIP3     H2       HT       0.417000       1.00800           0
     46243 TIP3     7933     TIP3     OH2      OT      -0.834000       15.9994           0
     46244 TIP3     7933     TIP3     H1       HT       0.417000       1.00800           0
     46245 TIP3     7933     TIP3     H2       HT       0.417000       1.00800           0
     46246 TIP3     7934     TIP3     OH2      OT      -0.834000       15.9994           0
     46247 TIP3     7934     TIP3     H1       HT       0.417000       1.00800           0
     46248 TIP3     7934     TIP3     H2       HT       0.417000       1.00800           0
     46249 TIP3     7935     TIP3     OH2      OT      -0.834000       15.9994           0
     46250 TIP3     7935     TIP3     H1       HT       0.417000       1.00800           0
     46251 TIP3     7935     TIP3     H2       HT       0.417000       1.00800           0
     46252 TIP3     7936     TIP3     OH2      OT      -0.834000       15.9994           0
     46253 TIP3     7936     TIP3     H1       HT       0.417000       1.00800           0
     46254 TIP3     7936     TIP3     H2       HT       0.417000       1.00800           0
     46255 TIP3     7937     TIP3     OH2      OT      -0.834000       15.9994           0
     46256 TIP3     7937     TIP3     H1       HT       0.417000       1.00800           0
     46257 TIP3     7937     TIP3     H2       HT       0.417000       1.00800           0
     46258 TIP3     7938     TIP3     OH2      OT      -0.834000       15.9994           0
     46259 TIP3     7938     TIP3     H1       HT       0.417000       1.00800           0
     46260 TIP3     7938     TIP3     H2       HT       0.417000       1.00800           0
     46261 TIP3     7939     TIP3     OH2      OT      -0.834000       15.9994           0
     46262 TIP3     7939     TIP3     H1       HT       0.417000       1.00800           0
     46263 TIP3     7939     TIP3     H2       HT       0.417000       1.00800           0
     46264 TIP3     7940     TIP3     OH2      OT      -0.834000       15.9994           0
     46265 TIP3     7940     TIP3     H1       HT       0.417000       1.00800           0
     46266 TIP3     7940     TIP3     H2       HT       0.417000       1.00800           0
     46267 TIP3     7941     TIP3     OH2      OT      -0.834000       15.9994           0
     46268 TIP3     7941     TIP3     H1       HT       0.417000       1.00800           0
     46269 TIP3     7941     TIP3     H2       HT       0.417000       1.00800           0
     46270 TIP3     7942     TIP3     OH2      OT      -0.834000       15.9994           0
     46271 TIP3     7942     TIP3     H1       HT       0.417000       1.00800           0
     46272 TIP3     7942     TIP3     H2       HT       0.417000       1.00800           0
     46273 TIP3     7943     TIP3     OH2      OT      -0.834000       15.9994           0
     46274 TIP3     7943     TIP3     H1       HT       0.417000       1.00800           0
     46275 TIP3     7943     TIP3     H2       HT       0.417000       1.00800           0
     46276 TIP3     7944     TIP3     OH2      OT      -0.834000       15.9994           0
     46277 TIP3     7944     TIP3     H1       HT       0.417000       1.00800           0
     46278 TIP3     7944     TIP3     H2       HT       0.417000       1.00800           0
     46279 TIP3     7945     TIP3     OH2      OT      -0.834000       15.9994           0
     46280 TIP3     7945     TIP3     H1       HT       0.417000       1.00800           0
     46281 TIP3     7945     TIP3     H2       HT       0.417000       1.00800           0
     46282 TIP3     7946     TIP3     OH2      OT      -0.834000       15.9994           0
     46283 TIP3     7946     TIP3     H1       HT       0.417000       1.00800           0
     46284 TIP3     7946     TIP3     H2       HT       0.417000       1.00800           0
     46285 TIP3     7947     TIP3     OH2      OT      -0.834000       15.9994           0
     46286 TIP3     7947     TIP3     H1       HT       0.417000       1.00800           0
     46287 TIP3     7947     TIP3     H2       HT       0.417000       1.00800           0
     46288 TIP3     7948     TIP3     OH2      OT      -0.834000       15.9994           0
     46289 TIP3     7948     TIP3     H1       HT       0.417000       1.00800           0
     46290 TIP3     7948     TIP3     H2       HT       0.417000       1.00800           0
     46291 TIP3     7949     TIP3     OH2      OT      -0.834000       15.9994           0
     46292 TIP3     7949     TIP3     H1       HT       0.417000       1.00800           0
     46293 TIP3     7949     TIP3     H2       HT       0.417000       1.00800           0
     46294 TIP3     7950     TIP3     OH2      OT      -0.834000       15.9994           0
     46295 TIP3     7950     TIP3     H1       HT       0.417000       1.00800           0
     46296 TIP3     7950     TIP3     H2       HT       0.417000       1.00800           0
     46297 TIP3     7951     TIP3     OH2      OT      -0.834000       15.9994           0
     46298 TIP3     7951     TIP3     H1       HT       0.417000       1.00800           0
     46299 TIP3     7951     TIP3     H2       HT       0.417000       1.00800           0
     46300 TIP3     7952     TIP3     OH2      OT      -0.834000       15.9994           0
     46301 TIP3     7952     TIP3     H1       HT       0.417000       1.00800           0
     46302 TIP3     7952     TIP3     H2       HT       0.417000       1.00800           0
     46303 TIP3     7953     TIP3     OH2      OT      -0.834000       15.9994           0
     46304 TIP3     7953     TIP3     H1       HT       0.417000       1.00800           0
     46305 TIP3     7953     TIP3     H2       HT       0.417000       1.00800           0
     46306 TIP3     7954     TIP3     OH2      OT      -0.834000       15.9994           0
     46307 TIP3     7954     TIP3     H1       HT       0.417000       1.00800           0
     46308 TIP3     7954     TIP3     H2       HT       0.417000       1.00800           0
     46309 TIP3     7955     TIP3     OH2      OT      -0.834000       15.9994           0
     46310 TIP3     7955     TIP3     H1       HT       0.417000       1.00800           0
     46311 TIP3     7955     TIP3     H2       HT       0.417000       1.00800           0
     46312 TIP3     7956     TIP3     OH2      OT      -0.834000       15.9994           0
     46313 TIP3     7956     TIP3     H1       HT       0.417000       1.00800           0
     46314 TIP3     7956     TIP3     H2       HT       0.417000       1.00800           0
     46315 TIP3     7957     TIP3     OH2      OT      -0.834000       15.9994           0
     46316 TIP3     7957     TIP3     H1       HT       0.417000       1.00800           0
     46317 TIP3     7957     TIP3     H2       HT       0.417000       1.00800           0
     46318 TIP3     7958     TIP3     OH2      OT      -0.834000       15.9994           0
     46319 TIP3     7958     TIP3     H1       HT       0.417000       1.00800           0
     46320 TIP3     7958     TIP3     H2       HT       0.417000       1.00800           0
     46321 TIP3     7959     TIP3     OH2      OT      -0.834000       15.9994           0
     46322 TIP3     7959     TIP3     H1       HT       0.417000       1.00800           0
     46323 TIP3     7959     TIP3     H2       HT       0.417000       1.00800           0
     46324 TIP3     7960     TIP3     OH2      OT      -0.834000       15.9994           0
     46325 TIP3     7960     TIP3     H1       HT       0.417000       1.00800           0
     46326 TIP3     7960     TIP3     H2       HT       0.417000       1.00800           0
     46327 TIP3     7961     TIP3     OH2      OT      -0.834000       15.9994           0
     46328 TIP3     7961     TIP3     H1       HT       0.417000       1.00800           0
     46329 TIP3     7961     TIP3     H2       HT       0.417000       1.00800           0
     46330 TIP3     7962     TIP3     OH2      OT      -0.834000       15.9994           0
     46331 TIP3     7962     TIP3     H1       HT       0.417000       1.00800           0
     46332 TIP3     7962     TIP3     H2       HT       0.417000       1.00800           0
     46333 TIP3     7963     TIP3     OH2      OT      -0.834000       15.9994           0
     46334 TIP3     7963     TIP3     H1       HT       0.417000       1.00800           0
     46335 TIP3     7963     TIP3     H2       HT       0.417000       1.00800           0
     46336 TIP3     7964     TIP3     OH2      OT      -0.834000       15.9994           0
     46337 TIP3     7964     TIP3     H1       HT       0.417000       1.00800           0
     46338 TIP3     7964     TIP3     H2       HT       0.417000       1.00800           0
     46339 TIP3     7965     TIP3     OH2      OT      -0.834000       15.9994           0
     46340 TIP3     7965     TIP3     H1       HT       0.417000       1.00800           0
     46341 TIP3     7965     TIP3     H2       HT       0.417000       1.00800           0
     46342 TIP3     7966     TIP3     OH2      OT      -0.834000       15.9994           0
     46343 TIP3     7966     TIP3     H1       HT       0.417000       1.00800           0
     46344 TIP3     7966     TIP3     H2       HT       0.417000       1.00800           0
     46345 TIP3     7967     TIP3     OH2      OT      -0.834000       15.9994           0
     46346 TIP3     7967     TIP3     H1       HT       0.417000       1.00800           0
     46347 TIP3     7967     TIP3     H2       HT       0.417000       1.00800           0
     46348 TIP3     7968     TIP3     OH2      OT      -0.834000       15.9994           0
     46349 TIP3     7968     TIP3     H1       HT       0.417000       1.00800           0
     46350 TIP3     7968     TIP3     H2       HT       0.417000       1.00800           0
     46351 TIP3     7969     TIP3     OH2      OT      -0.834000       15.9994           0
     46352 TIP3     7969     TIP3     H1       HT       0.417000       1.00800           0
     46353 TIP3     7969     TIP3     H2       HT       0.417000       1.00800           0
     46354 TIP3     7970     TIP3     OH2      OT      -0.834000       15.9994           0
     46355 TIP3     7970     TIP3     H1       HT       0.417000       1.00800           0
     46356 TIP3     7970     TIP3     H2       HT       0.417000       1.00800           0
     46357 TIP3     7971     TIP3     OH2      OT      -0.834000       15.9994           0
     46358 TIP3     7971     TIP3     H1       HT       0.417000       1.00800           0
     46359 TIP3     7971     TIP3     H2       HT       0.417000       1.00800           0
     46360 TIP3     7972     TIP3     OH2      OT      -0.834000       15.9994           0
     46361 TIP3     7972     TIP3     H1       HT       0.417000       1.00800           0
     46362 TIP3     7972     TIP3     H2       HT       0.417000       1.00800           0
     46363 TIP3     7973     TIP3     OH2      OT      -0.834000       15.9994           0
     46364 TIP3     7973     TIP3     H1       HT       0.417000       1.00800           0
     46365 TIP3     7973     TIP3     H2       HT       0.417000       1.00800           0
     46366 TIP3     7974     TIP3     OH2      OT      -0.834000       15.9994           0
     46367 TIP3     7974     TIP3     H1       HT       0.417000       1.00800           0
     46368 TIP3     7974     TIP3     H2       HT       0.417000       1.00800           0
     46369 TIP3     7975     TIP3     OH2      OT      -0.834000       15.9994           0
     46370 TIP3     7975     TIP3     H1       HT       0.417000       1.00800           0
     46371 TIP3     7975     TIP3     H2       HT       0.417000       1.00800           0
     46372 TIP3     7976     TIP3     OH2      OT      -0.834000       15.9994           0
     46373 TIP3     7976     TIP3     H1       HT       0.417000       1.00800           0
     46374 TIP3     7976     TIP3     H2       HT       0.417000       1.00800           0
     46375 TIP3     7977     TIP3     OH2      OT      -0.834000       15.9994           0
     46376 TIP3     7977     TIP3     H1       HT       0.417000       1.00800           0
     46377 TIP3     7977     TIP3     H2       HT       0.417000       1.00800           0
     46378 TIP3     7978     TIP3     OH2      OT      -0.834000       15.9994           0
     46379 TIP3     7978     TIP3     H1       HT       0.417000       1.00800           0
     46380 TIP3     7978     TIP3     H2       HT       0.417000       1.00800           0
     46381 TIP3     7979     TIP3     OH2      OT      -0.834000       15.9994           0
     46382 TIP3     7979     TIP3     H1       HT       0.417000       1.00800           0
     46383 TIP3     7979     TIP3     H2       HT       0.417000       1.00800           0
     46384 TIP3     7980     TIP3     OH2      OT      -0.834000       15.9994           0
     46385 TIP3     7980     TIP3     H1       HT       0.417000       1.00800           0
     46386 TIP3     7980     TIP3     H2       HT       0.417000       1.00800           0
     46387 TIP3     7981     TIP3     OH2      OT      -0.834000       15.9994           0
     46388 TIP3     7981     TIP3     H1       HT       0.417000       1.00800           0
     46389 TIP3     7981     TIP3     H2       HT       0.417000       1.00800           0
     46390 TIP3     7982     TIP3     OH2      OT      -0.834000       15.9994           0
     46391 TIP3     7982     TIP3     H1       HT       0.417000       1.00800           0
     46392 TIP3     7982     TIP3     H2       HT       0.417000       1.00800           0
     46393 TIP3     7983     TIP3     OH2      OT      -0.834000       15.9994           0
     46394 TIP3     7983     TIP3     H1       HT       0.417000       1.00800           0
     46395 TIP3     7983     TIP3     H2       HT       0.417000       1.00800           0
     46396 TIP3     7984     TIP3     OH2      OT      -0.834000       15.9994           0
     46397 TIP3     7984     TIP3     H1       HT       0.417000       1.00800           0
     46398 TIP3     7984     TIP3     H2       HT       0.417000       1.00800           0
     46399 TIP3     7985     TIP3     OH2      OT      -0.834000       15.9994           0
     46400 TIP3     7985     TIP3     H1       HT       0.417000       1.00800           0
     46401 TIP3     7985     TIP3     H2       HT       0.417000       1.00800           0
     46402 TIP3     7986     TIP3     OH2      OT      -0.834000       15.9994           0
     46403 TIP3     7986     TIP3     H1       HT       0.417000       1.00800           0
     46404 TIP3     7986     TIP3     H2       HT       0.417000       1.00800           0
     46405 TIP3     7987     TIP3     OH2      OT      -0.834000       15.9994           0
     46406 TIP3     7987     TIP3     H1       HT       0.417000       1.00800           0
     46407 TIP3     7987     TIP3     H2       HT       0.417000       1.00800           0
     46408 TIP3     7988     TIP3     OH2      OT      -0.834000       15.9994           0
     46409 TIP3     7988     TIP3     H1       HT       0.417000       1.00800           0
     46410 TIP3     7988     TIP3     H2       HT       0.417000       1.00800           0
     46411 TIP3     7989     TIP3     OH2      OT      -0.834000       15.9994           0
     46412 TIP3     7989     TIP3     H1       HT       0.417000       1.00800           0
     46413 TIP3     7989     TIP3     H2       HT       0.417000       1.00800           0
     46414 TIP3     7990     TIP3     OH2      OT      -0.834000       15.9994           0
     46415 TIP3     7990     TIP3     H1       HT       0.417000       1.00800           0
     46416 TIP3     7990     TIP3     H2       HT       0.417000       1.00800           0
     46417 TIP3     7991     TIP3     OH2      OT      -0.834000       15.9994           0
     46418 TIP3     7991     TIP3     H1       HT       0.417000       1.00800           0
     46419 TIP3     7991     TIP3     H2       HT       0.417000       1.00800           0
     46420 TIP3     7992     TIP3     OH2      OT      -0.834000       15.9994           0
     46421 TIP3     7992     TIP3     H1       HT       0.417000       1.00800           0
     46422 TIP3     7992     TIP3     H2       HT       0.417000       1.00800           0
     46423 TIP3     7993     TIP3     OH2      OT      -0.834000       15.9994           0
     46424 TIP3     7993     TIP3     H1       HT       0.417000       1.00800           0
     46425 TIP3     7993     TIP3     H2       HT       0.417000       1.00800           0
     46426 TIP3     7994     TIP3     OH2      OT      -0.834000       15.9994           0
     46427 TIP3     7994     TIP3     H1       HT       0.417000       1.00800           0
     46428 TIP3     7994     TIP3     H2       HT       0.417000       1.00800           0
     46429 TIP3     7995     TIP3     OH2      OT      -0.834000       15.9994           0
     46430 TIP3     7995     TIP3     H1       HT       0.417000       1.00800           0
     46431 TIP3     7995     TIP3     H2       HT       0.417000       1.00800           0
     46432 TIP3     7996     TIP3     OH2      OT      -0.834000       15.9994           0
     46433 TIP3     7996     TIP3     H1       HT       0.417000       1.00800           0
     46434 TIP3     7996     TIP3     H2       HT       0.417000       1.00800           0
     46435 TIP3     7997     TIP3     OH2      OT      -0.834000       15.9994           0
     46436 TIP3     7997     TIP3     H1       HT       0.417000       1.00800           0
     46437 TIP3     7997     TIP3     H2       HT       0.417000       1.00800           0
     46438 TIP3     7998     TIP3     OH2      OT      -0.834000       15.9994           0
     46439 TIP3     7998     TIP3     H1       HT       0.417000       1.00800           0
     46440 TIP3     7998     TIP3     H2       HT       0.417000       1.00800           0
     46441 TIP3     7999     TIP3     OH2      OT      -0.834000       15.9994           0
     46442 TIP3     7999     TIP3     H1       HT       0.417000       1.00800           0
     46443 TIP3     7999     TIP3     H2       HT       0.417000       1.00800           0
     46444 TIP3     8000     TIP3     OH2      OT      -0.834000       15.9994           0
     46445 TIP3     8000     TIP3     H1       HT       0.417000       1.00800           0
     46446 TIP3     8000     TIP3     H2       HT       0.417000       1.00800           0
     46447 TIP3     8001     TIP3     OH2      OT      -0.834000       15.9994           0
     46448 TIP3     8001     TIP3     H1       HT       0.417000       1.00800           0
     46449 TIP3     8001     TIP3     H2       HT       0.417000       1.00800           0
     46450 TIP3     8002     TIP3     OH2      OT      -0.834000       15.9994           0
     46451 TIP3     8002     TIP3     H1       HT       0.417000       1.00800           0
     46452 TIP3     8002     TIP3     H2       HT       0.417000       1.00800           0
     46453 TIP3     8003     TIP3     OH2      OT      -0.834000       15.9994           0
     46454 TIP3     8003     TIP3     H1       HT       0.417000       1.00800           0
     46455 TIP3     8003     TIP3     H2       HT       0.417000       1.00800           0
     46456 TIP3     8004     TIP3     OH2      OT      -0.834000       15.9994           0
     46457 TIP3     8004     TIP3     H1       HT       0.417000       1.00800           0
     46458 TIP3     8004     TIP3     H2       HT       0.417000       1.00800           0
     46459 TIP3     8005     TIP3     OH2      OT      -0.834000       15.9994           0
     46460 TIP3     8005     TIP3     H1       HT       0.417000       1.00800           0
     46461 TIP3     8005     TIP3     H2       HT       0.417000       1.00800           0
     46462 TIP3     8006     TIP3     OH2      OT      -0.834000       15.9994           0
     46463 TIP3     8006     TIP3     H1       HT       0.417000       1.00800           0
     46464 TIP3     8006     TIP3     H2       HT       0.417000       1.00800           0
     46465 TIP3     8007     TIP3     OH2      OT      -0.834000       15.9994           0
     46466 TIP3     8007     TIP3     H1       HT       0.417000       1.00800           0
     46467 TIP3     8007     TIP3     H2       HT       0.417000       1.00800           0
     46468 TIP3     8008     TIP3     OH2      OT      -0.834000       15.9994           0
     46469 TIP3     8008     TIP3     H1       HT       0.417000       1.00800           0
     46470 TIP3     8008     TIP3     H2       HT       0.417000       1.00800           0
     46471 TIP3     8009     TIP3     OH2      OT      -0.834000       15.9994           0
     46472 TIP3     8009     TIP3     H1       HT       0.417000       1.00800           0
     46473 TIP3     8009     TIP3     H2       HT       0.417000       1.00800           0
     46474 TIP3     8010     TIP3     OH2      OT      -0.834000       15.9994           0
     46475 TIP3     8010     TIP3     H1       HT       0.417000       1.00800           0
     46476 TIP3     8010     TIP3     H2       HT       0.417000       1.00800           0
     46477 TIP3     8011     TIP3     OH2      OT      -0.834000       15.9994           0
     46478 TIP3     8011     TIP3     H1       HT       0.417000       1.00800           0
     46479 TIP3     8011     TIP3     H2       HT       0.417000       1.00800           0
     46480 TIP3     8012     TIP3     OH2      OT      -0.834000       15.9994           0
     46481 TIP3     8012     TIP3     H1       HT       0.417000       1.00800           0
     46482 TIP3     8012     TIP3     H2       HT       0.417000       1.00800           0
     46483 TIP3     8013     TIP3     OH2      OT      -0.834000       15.9994           0
     46484 TIP3     8013     TIP3     H1       HT       0.417000       1.00800           0
     46485 TIP3     8013     TIP3     H2       HT       0.417000       1.00800           0
     46486 TIP3     8014     TIP3     OH2      OT      -0.834000       15.9994           0
     46487 TIP3     8014     TIP3     H1       HT       0.417000       1.00800           0
     46488 TIP3     8014     TIP3     H2       HT       0.417000       1.00800           0
     46489 TIP3     8015     TIP3     OH2      OT      -0.834000       15.9994           0
     46490 TIP3     8015     TIP3     H1       HT       0.417000       1.00800           0
     46491 TIP3     8015     TIP3     H2       HT       0.417000       1.00800           0
     46492 TIP3     8016     TIP3     OH2      OT      -0.834000       15.9994           0
     46493 TIP3     8016     TIP3     H1       HT       0.417000       1.00800           0
     46494 TIP3     8016     TIP3     H2       HT       0.417000       1.00800           0
     46495 TIP3     8017     TIP3     OH2      OT      -0.834000       15.9994           0
     46496 TIP3     8017     TIP3     H1       HT       0.417000       1.00800           0
     46497 TIP3     8017     TIP3     H2       HT       0.417000       1.00800           0
     46498 TIP3     8018     TIP3     OH2      OT      -0.834000       15.9994           0
     46499 TIP3     8018     TIP3     H1       HT       0.417000       1.00800           0
     46500 TIP3     8018     TIP3     H2       HT       0.417000       1.00800           0
     46501 TIP3     8019     TIP3     OH2      OT      -0.834000       15.9994           0
     46502 TIP3     8019     TIP3     H1       HT       0.417000       1.00800           0
     46503 TIP3     8019     TIP3     H2       HT       0.417000       1.00800           0
     46504 TIP3     8020     TIP3     OH2      OT      -0.834000       15.9994           0
     46505 TIP3     8020     TIP3     H1       HT       0.417000       1.00800           0
     46506 TIP3     8020     TIP3     H2       HT       0.417000       1.00800           0
     46507 TIP3     8021     TIP3     OH2      OT      -0.834000       15.9994           0
     46508 TIP3     8021     TIP3     H1       HT       0.417000       1.00800           0
     46509 TIP3     8021     TIP3     H2       HT       0.417000       1.00800           0
     46510 TIP3     8022     TIP3     OH2      OT      -0.834000       15.9994           0
     46511 TIP3     8022     TIP3     H1       HT       0.417000       1.00800           0
     46512 TIP3     8022     TIP3     H2       HT       0.417000       1.00800           0
     46513 TIP3     8023     TIP3     OH2      OT      -0.834000       15.9994           0
     46514 TIP3     8023     TIP3     H1       HT       0.417000       1.00800           0
     46515 TIP3     8023     TIP3     H2       HT       0.417000       1.00800           0
     46516 TIP3     8024     TIP3     OH2      OT      -0.834000       15.9994           0
     46517 TIP3     8024     TIP3     H1       HT       0.417000       1.00800           0
     46518 TIP3     8024     TIP3     H2       HT       0.417000       1.00800           0
     46519 TIP3     8025     TIP3     OH2      OT      -0.834000       15.9994           0
     46520 TIP3     8025     TIP3     H1       HT       0.417000       1.00800           0
     46521 TIP3     8025     TIP3     H2       HT       0.417000       1.00800           0
     46522 TIP3     8026     TIP3     OH2      OT      -0.834000       15.9994           0
     46523 TIP3     8026     TIP3     H1       HT       0.417000       1.00800           0
     46524 TIP3     8026     TIP3     H2       HT       0.417000       1.00800           0
     46525 TIP3     8027     TIP3     OH2      OT      -0.834000       15.9994           0
     46526 TIP3     8027     TIP3     H1       HT       0.417000       1.00800           0
     46527 TIP3     8027     TIP3     H2       HT       0.417000       1.00800           0
     46528 TIP3     8028     TIP3     OH2      OT      -0.834000       15.9994           0
     46529 TIP3     8028     TIP3     H1       HT       0.417000       1.00800           0
     46530 TIP3     8028     TIP3     H2       HT       0.417000       1.00800           0
     46531 TIP3     8029     TIP3     OH2      OT      -0.834000       15.9994           0
     46532 TIP3     8029     TIP3     H1       HT       0.417000       1.00800           0
     46533 TIP3     8029     TIP3     H2       HT       0.417000       1.00800           0
     46534 TIP3     8030     TIP3     OH2      OT      -0.834000       15.9994           0
     46535 TIP3     8030     TIP3     H1       HT       0.417000       1.00800           0
     46536 TIP3     8030     TIP3     H2       HT       0.417000       1.00800           0
     46537 TIP3     8031     TIP3     OH2      OT      -0.834000       15.9994           0
     46538 TIP3     8031     TIP3     H1       HT       0.417000       1.00800           0
     46539 TIP3     8031     TIP3     H2       HT       0.417000       1.00800           0
     46540 TIP3     8032     TIP3     OH2      OT      -0.834000       15.9994           0
     46541 TIP3     8032     TIP3     H1       HT       0.417000       1.00800           0
     46542 TIP3     8032     TIP3     H2       HT       0.417000       1.00800           0
     46543 TIP3     8033     TIP3     OH2      OT      -0.834000       15.9994           0
     46544 TIP3     8033     TIP3     H1       HT       0.417000       1.00800           0
     46545 TIP3     8033     TIP3     H2       HT       0.417000       1.00800           0
     46546 TIP3     8034     TIP3     OH2      OT      -0.834000       15.9994           0
     46547 TIP3     8034     TIP3     H1       HT       0.417000       1.00800           0
     46548 TIP3     8034     TIP3     H2       HT       0.417000       1.00800           0
     46549 TIP3     8035     TIP3     OH2      OT      -0.834000       15.9994           0
     46550 TIP3     8035     TIP3     H1       HT       0.417000       1.00800           0
     46551 TIP3     8035     TIP3     H2       HT       0.417000       1.00800           0
     46552 TIP3     8036     TIP3     OH2      OT      -0.834000       15.9994           0
     46553 TIP3     8036     TIP3     H1       HT       0.417000       1.00800           0
     46554 TIP3     8036     TIP3     H2       HT       0.417000       1.00800           0
     46555 TIP3     8037     TIP3     OH2      OT      -0.834000       15.9994           0
     46556 TIP3     8037     TIP3     H1       HT       0.417000       1.00800           0
     46557 TIP3     8037     TIP3     H2       HT       0.417000       1.00800           0
     46558 TIP3     8038     TIP3     OH2      OT      -0.834000       15.9994           0
     46559 TIP3     8038     TIP3     H1       HT       0.417000       1.00800           0
     46560 TIP3     8038     TIP3     H2       HT       0.417000       1.00800           0
     46561 TIP3     8039     TIP3     OH2      OT      -0.834000       15.9994           0
     46562 TIP3     8039     TIP3     H1       HT       0.417000       1.00800           0
     46563 TIP3     8039     TIP3     H2       HT       0.417000       1.00800           0
     46564 TIP3     8040     TIP3     OH2      OT      -0.834000       15.9994           0
     46565 TIP3     8040     TIP3     H1       HT       0.417000       1.00800           0
     46566 TIP3     8040     TIP3     H2       HT       0.417000       1.00800           0
     46567 TIP3     8041     TIP3     OH2      OT      -0.834000       15.9994           0
     46568 TIP3     8041     TIP3     H1       HT       0.417000       1.00800           0
     46569 TIP3     8041     TIP3     H2       HT       0.417000       1.00800           0
     46570 TIP3     8042     TIP3     OH2      OT      -0.834000       15.9994           0
     46571 TIP3     8042     TIP3     H1       HT       0.417000       1.00800           0
     46572 TIP3     8042     TIP3     H2       HT       0.417000       1.00800           0
     46573 TIP3     8043     TIP3     OH2      OT      -0.834000       15.9994           0
     46574 TIP3     8043     TIP3     H1       HT       0.417000       1.00800           0
     46575 TIP3     8043     TIP3     H2       HT       0.417000       1.00800           0
     46576 TIP3     8044     TIP3     OH2      OT      -0.834000       15.9994           0
     46577 TIP3     8044     TIP3     H1       HT       0.417000       1.00800           0
     46578 TIP3     8044     TIP3     H2       HT       0.417000       1.00800           0
     46579 TIP3     8045     TIP3     OH2      OT      -0.834000       15.9994           0
     46580 TIP3     8045     TIP3     H1       HT       0.417000       1.00800           0
     46581 TIP3     8045     TIP3     H2       HT       0.417000       1.00800           0
     46582 TIP3     8046     TIP3     OH2      OT      -0.834000       15.9994           0
     46583 TIP3     8046     TIP3     H1       HT       0.417000       1.00800           0
     46584 TIP3     8046     TIP3     H2       HT       0.417000       1.00800           0
     46585 TIP3     8047     TIP3     OH2      OT      -0.834000       15.9994           0
     46586 TIP3     8047     TIP3     H1       HT       0.417000       1.00800           0
     46587 TIP3     8047     TIP3     H2       HT       0.417000       1.00800           0
     46588 TIP3     8048     TIP3     OH2      OT      -0.834000       15.9994           0
     46589 TIP3     8048     TIP3     H1       HT       0.417000       1.00800           0
     46590 TIP3     8048     TIP3     H2       HT       0.417000       1.00800           0
     46591 TIP3     8049     TIP3     OH2      OT      -0.834000       15.9994           0
     46592 TIP3     8049     TIP3     H1       HT       0.417000       1.00800           0
     46593 TIP3     8049     TIP3     H2       HT       0.417000       1.00800           0
     46594 TIP3     8050     TIP3     OH2      OT      -0.834000       15.9994           0
     46595 TIP3     8050     TIP3     H1       HT       0.417000       1.00800           0
     46596 TIP3     8050     TIP3     H2       HT       0.417000       1.00800           0
     46597 TIP3     8051     TIP3     OH2      OT      -0.834000       15.9994           0
     46598 TIP3     8051     TIP3     H1       HT       0.417000       1.00800           0
     46599 TIP3     8051     TIP3     H2       HT       0.417000       1.00800           0
     46600 TIP3     8052     TIP3     OH2      OT      -0.834000       15.9994           0
     46601 TIP3     8052     TIP3     H1       HT       0.417000       1.00800           0
     46602 TIP3     8052     TIP3     H2       HT       0.417000       1.00800           0
     46603 TIP3     8053     TIP3     OH2      OT      -0.834000       15.9994           0
     46604 TIP3     8053     TIP3     H1       HT       0.417000       1.00800           0
     46605 TIP3     8053     TIP3     H2       HT       0.417000       1.00800           0
     46606 TIP3     8054     TIP3     OH2      OT      -0.834000       15.9994           0
     46607 TIP3     8054     TIP3     H1       HT       0.417000       1.00800           0
     46608 TIP3     8054     TIP3     H2       HT       0.417000       1.00800           0
     46609 TIP3     8055     TIP3     OH2      OT      -0.834000       15.9994           0
     46610 TIP3     8055     TIP3     H1       HT       0.417000       1.00800           0
     46611 TIP3     8055     TIP3     H2       HT       0.417000       1.00800           0
     46612 TIP3     8056     TIP3     OH2      OT      -0.834000       15.9994           0
     46613 TIP3     8056     TIP3     H1       HT       0.417000       1.00800           0
     46614 TIP3     8056     TIP3     H2       HT       0.417000       1.00800           0
     46615 TIP3     8057     TIP3     OH2      OT      -0.834000       15.9994           0
     46616 TIP3     8057     TIP3     H1       HT       0.417000       1.00800           0
     46617 TIP3     8057     TIP3     H2       HT       0.417000       1.00800           0
     46618 TIP3     8058     TIP3     OH2      OT      -0.834000       15.9994           0
     46619 TIP3     8058     TIP3     H1       HT       0.417000       1.00800           0
     46620 TIP3     8058     TIP3     H2       HT       0.417000       1.00800           0
     46621 TIP3     8059     TIP3     OH2      OT      -0.834000       15.9994           0
     46622 TIP3     8059     TIP3     H1       HT       0.417000       1.00800           0
     46623 TIP3     8059     TIP3     H2       HT       0.417000       1.00800           0
     46624 TIP3     8060     TIP3     OH2      OT      -0.834000       15.9994           0
     46625 TIP3     8060     TIP3     H1       HT       0.417000       1.00800           0
     46626 TIP3     8060     TIP3     H2       HT       0.417000       1.00800           0
     46627 TIP3     8061     TIP3     OH2      OT      -0.834000       15.9994           0
     46628 TIP3     8061     TIP3     H1       HT       0.417000       1.00800           0
     46629 TIP3     8061     TIP3     H2       HT       0.417000       1.00800           0
     46630 TIP3     8062     TIP3     OH2      OT      -0.834000       15.9994           0
     46631 TIP3     8062     TIP3     H1       HT       0.417000       1.00800           0
     46632 TIP3     8062     TIP3     H2       HT       0.417000       1.00800           0
     46633 TIP3     8063     TIP3     OH2      OT      -0.834000       15.9994           0
     46634 TIP3     8063     TIP3     H1       HT       0.417000       1.00800           0
     46635 TIP3     8063     TIP3     H2       HT       0.417000       1.00800           0
     46636 TIP3     8064     TIP3     OH2      OT      -0.834000       15.9994           0
     46637 TIP3     8064     TIP3     H1       HT       0.417000       1.00800           0
     46638 TIP3     8064     TIP3     H2       HT       0.417000       1.00800           0
     46639 TIP3     8065     TIP3     OH2      OT      -0.834000       15.9994           0
     46640 TIP3     8065     TIP3     H1       HT       0.417000       1.00800           0
     46641 TIP3     8065     TIP3     H2       HT       0.417000       1.00800           0
     46642 TIP3     8066     TIP3     OH2      OT      -0.834000       15.9994           0
     46643 TIP3     8066     TIP3     H1       HT       0.417000       1.00800           0
     46644 TIP3     8066     TIP3     H2       HT       0.417000       1.00800           0
     46645 TIP3     8067     TIP3     OH2      OT      -0.834000       15.9994           0
     46646 TIP3     8067     TIP3     H1       HT       0.417000       1.00800           0
     46647 TIP3     8067     TIP3     H2       HT       0.417000       1.00800           0
     46648 TIP3     8068     TIP3     OH2      OT      -0.834000       15.9994           0
     46649 TIP3     8068     TIP3     H1       HT       0.417000       1.00800           0
     46650 TIP3     8068     TIP3     H2       HT       0.417000       1.00800           0
     46651 TIP3     8069     TIP3     OH2      OT      -0.834000       15.9994           0
     46652 TIP3     8069     TIP3     H1       HT       0.417000       1.00800           0
     46653 TIP3     8069     TIP3     H2       HT       0.417000       1.00800           0
     46654 TIP3     8070     TIP3     OH2      OT      -0.834000       15.9994           0
     46655 TIP3     8070     TIP3     H1       HT       0.417000       1.00800           0
     46656 TIP3     8070     TIP3     H2       HT       0.417000       1.00800           0
     46657 TIP3     8071     TIP3     OH2      OT      -0.834000       15.9994           0
     46658 TIP3     8071     TIP3     H1       HT       0.417000       1.00800           0
     46659 TIP3     8071     TIP3     H2       HT       0.417000       1.00800           0
     46660 TIP3     8072     TIP3     OH2      OT      -0.834000       15.9994           0
     46661 TIP3     8072     TIP3     H1       HT       0.417000       1.00800           0
     46662 TIP3     8072     TIP3     H2       HT       0.417000       1.00800           0
     46663 TIP3     8073     TIP3     OH2      OT      -0.834000       15.9994           0
     46664 TIP3     8073     TIP3     H1       HT       0.417000       1.00800           0
     46665 TIP3     8073     TIP3     H2       HT       0.417000       1.00800           0
     46666 TIP3     8074     TIP3     OH2      OT      -0.834000       15.9994           0
     46667 TIP3     8074     TIP3     H1       HT       0.417000       1.00800           0
     46668 TIP3     8074     TIP3     H2       HT       0.417000       1.00800           0
     46669 TIP3     8075     TIP3     OH2      OT      -0.834000       15.9994           0
     46670 TIP3     8075     TIP3     H1       HT       0.417000       1.00800           0
     46671 TIP3     8075     TIP3     H2       HT       0.417000       1.00800           0
     46672 TIP3     8076     TIP3     OH2      OT      -0.834000       15.9994           0
     46673 TIP3     8076     TIP3     H1       HT       0.417000       1.00800           0
     46674 TIP3     8076     TIP3     H2       HT       0.417000       1.00800           0
     46675 TIP3     8077     TIP3     OH2      OT      -0.834000       15.9994           0
     46676 TIP3     8077     TIP3     H1       HT       0.417000       1.00800           0
     46677 TIP3     8077     TIP3     H2       HT       0.417000       1.00800           0
     46678 TIP3     8078     TIP3     OH2      OT      -0.834000       15.9994           0
     46679 TIP3     8078     TIP3     H1       HT       0.417000       1.00800           0
     46680 TIP3     8078     TIP3     H2       HT       0.417000       1.00800           0
     46681 TIP3     8079     TIP3     OH2      OT      -0.834000       15.9994           0
     46682 TIP3     8079     TIP3     H1       HT       0.417000       1.00800           0
     46683 TIP3     8079     TIP3     H2       HT       0.417000       1.00800           0
     46684 TIP3     8080     TIP3     OH2      OT      -0.834000       15.9994           0
     46685 TIP3     8080     TIP3     H1       HT       0.417000       1.00800           0
     46686 TIP3     8080     TIP3     H2       HT       0.417000       1.00800           0
     46687 TIP3     8081     TIP3     OH2      OT      -0.834000       15.9994           0
     46688 TIP3     8081     TIP3     H1       HT       0.417000       1.00800           0
     46689 TIP3     8081     TIP3     H2       HT       0.417000       1.00800           0
     46690 TIP3     8082     TIP3     OH2      OT      -0.834000       15.9994           0
     46691 TIP3     8082     TIP3     H1       HT       0.417000       1.00800           0
     46692 TIP3     8082     TIP3     H2       HT       0.417000       1.00800           0
     46693 TIP3     8083     TIP3     OH2      OT      -0.834000       15.9994           0
     46694 TIP3     8083     TIP3     H1       HT       0.417000       1.00800           0
     46695 TIP3     8083     TIP3     H2       HT       0.417000       1.00800           0
     46696 TIP3     8084     TIP3     OH2      OT      -0.834000       15.9994           0
     46697 TIP3     8084     TIP3     H1       HT       0.417000       1.00800           0
     46698 TIP3     8084     TIP3     H2       HT       0.417000       1.00800           0
     46699 TIP3     8085     TIP3     OH2      OT      -0.834000       15.9994           0
     46700 TIP3     8085     TIP3     H1       HT       0.417000       1.00800           0
     46701 TIP3     8085     TIP3     H2       HT       0.417000       1.00800           0
     46702 TIP3     8086     TIP3     OH2      OT      -0.834000       15.9994           0
     46703 TIP3     8086     TIP3     H1       HT       0.417000       1.00800           0
     46704 TIP3     8086     TIP3     H2       HT       0.417000       1.00800           0
     46705 TIP3     8087     TIP3     OH2      OT      -0.834000       15.9994           0
     46706 TIP3     8087     TIP3     H1       HT       0.417000       1.00800           0
     46707 TIP3     8087     TIP3     H2       HT       0.417000       1.00800           0
     46708 TIP3     8088     TIP3     OH2      OT      -0.834000       15.9994           0
     46709 TIP3     8088     TIP3     H1       HT       0.417000       1.00800           0
     46710 TIP3     8088     TIP3     H2       HT       0.417000       1.00800           0
     46711 TIP3     8089     TIP3     OH2      OT      -0.834000       15.9994           0
     46712 TIP3     8089     TIP3     H1       HT       0.417000       1.00800           0
     46713 TIP3     8089     TIP3     H2       HT       0.417000       1.00800           0
     46714 TIP3     8090     TIP3     OH2      OT      -0.834000       15.9994           0
     46715 TIP3     8090     TIP3     H1       HT       0.417000       1.00800           0
     46716 TIP3     8090     TIP3     H2       HT       0.417000       1.00800           0
     46717 TIP3     8091     TIP3     OH2      OT      -0.834000       15.9994           0
     46718 TIP3     8091     TIP3     H1       HT       0.417000       1.00800           0
     46719 TIP3     8091     TIP3     H2       HT       0.417000       1.00800           0
     46720 TIP3     8092     TIP3     OH2      OT      -0.834000       15.9994           0
     46721 TIP3     8092     TIP3     H1       HT       0.417000       1.00800           0
     46722 TIP3     8092     TIP3     H2       HT       0.417000       1.00800           0
     46723 TIP3     8093     TIP3     OH2      OT      -0.834000       15.9994           0
     46724 TIP3     8093     TIP3     H1       HT       0.417000       1.00800           0
     46725 TIP3     8093     TIP3     H2       HT       0.417000       1.00800           0
     46726 TIP3     8094     TIP3     OH2      OT      -0.834000       15.9994           0
     46727 TIP3     8094     TIP3     H1       HT       0.417000       1.00800           0
     46728 TIP3     8094     TIP3     H2       HT       0.417000       1.00800           0
     46729 TIP3     8095     TIP3     OH2      OT      -0.834000       15.9994           0
     46730 TIP3     8095     TIP3     H1       HT       0.417000       1.00800           0
     46731 TIP3     8095     TIP3     H2       HT       0.417000       1.00800           0
     46732 TIP3     8096     TIP3     OH2      OT      -0.834000       15.9994           0
     46733 TIP3     8096     TIP3     H1       HT       0.417000       1.00800           0
     46734 TIP3     8096     TIP3     H2       HT       0.417000       1.00800           0
     46735 TIP3     8097     TIP3     OH2      OT      -0.834000       15.9994           0
     46736 TIP3     8097     TIP3     H1       HT       0.417000       1.00800           0
     46737 TIP3     8097     TIP3     H2       HT       0.417000       1.00800           0
     46738 TIP3     8098     TIP3     OH2      OT      -0.834000       15.9994           0
     46739 TIP3     8098     TIP3     H1       HT       0.417000       1.00800           0
     46740 TIP3     8098     TIP3     H2       HT       0.417000       1.00800           0
     46741 TIP3     8099     TIP3     OH2      OT      -0.834000       15.9994           0
     46742 TIP3     8099     TIP3     H1       HT       0.417000       1.00800           0
     46743 TIP3     8099     TIP3     H2       HT       0.417000       1.00800           0
     46744 TIP3     8100     TIP3     OH2      OT      -0.834000       15.9994           0
     46745 TIP3     8100     TIP3     H1       HT       0.417000       1.00800           0
     46746 TIP3     8100     TIP3     H2       HT       0.417000       1.00800           0
     46747 TIP3     8101     TIP3     OH2      OT      -0.834000       15.9994           0
     46748 TIP3     8101     TIP3     H1       HT       0.417000       1.00800           0
     46749 TIP3     8101     TIP3     H2       HT       0.417000       1.00800           0
     46750 TIP3     8102     TIP3     OH2      OT      -0.834000       15.9994           0
     46751 TIP3     8102     TIP3     H1       HT       0.417000       1.00800           0
     46752 TIP3     8102     TIP3     H2       HT       0.417000       1.00800           0
     46753 TIP3     8103     TIP3     OH2      OT      -0.834000       15.9994           0
     46754 TIP3     8103     TIP3     H1       HT       0.417000       1.00800           0
     46755 TIP3     8103     TIP3     H2       HT       0.417000       1.00800           0
     46756 TIP3     8104     TIP3     OH2      OT      -0.834000       15.9994           0
     46757 TIP3     8104     TIP3     H1       HT       0.417000       1.00800           0
     46758 TIP3     8104     TIP3     H2       HT       0.417000       1.00800           0
     46759 TIP3     8105     TIP3     OH2      OT      -0.834000       15.9994           0
     46760 TIP3     8105     TIP3     H1       HT       0.417000       1.00800           0
     46761 TIP3     8105     TIP3     H2       HT       0.417000       1.00800           0
     46762 TIP3     8106     TIP3     OH2      OT      -0.834000       15.9994           0
     46763 TIP3     8106     TIP3     H1       HT       0.417000       1.00800           0
     46764 TIP3     8106     TIP3     H2       HT       0.417000       1.00800           0
     46765 TIP3     8107     TIP3     OH2      OT      -0.834000       15.9994           0
     46766 TIP3     8107     TIP3     H1       HT       0.417000       1.00800           0
     46767 TIP3     8107     TIP3     H2       HT       0.417000       1.00800           0
     46768 TIP3     8108     TIP3     OH2      OT      -0.834000       15.9994           0
     46769 TIP3     8108     TIP3     H1       HT       0.417000       1.00800           0
     46770 TIP3     8108     TIP3     H2       HT       0.417000       1.00800           0
     46771 TIP3     8109     TIP3     OH2      OT      -0.834000       15.9994           0
     46772 TIP3     8109     TIP3     H1       HT       0.417000       1.00800           0
     46773 TIP3     8109     TIP3     H2       HT       0.417000       1.00800           0
     46774 TIP3     8110     TIP3     OH2      OT      -0.834000       15.9994           0
     46775 TIP3     8110     TIP3     H1       HT       0.417000       1.00800           0
     46776 TIP3     8110     TIP3     H2       HT       0.417000       1.00800           0
     46777 TIP3     8111     TIP3     OH2      OT      -0.834000       15.9994           0
     46778 TIP3     8111     TIP3     H1       HT       0.417000       1.00800           0
     46779 TIP3     8111     TIP3     H2       HT       0.417000       1.00800           0
     46780 TIP3     8112     TIP3     OH2      OT      -0.834000       15.9994           0
     46781 TIP3     8112     TIP3     H1       HT       0.417000       1.00800           0
     46782 TIP3     8112     TIP3     H2       HT       0.417000       1.00800           0
     46783 TIP3     8113     TIP3     OH2      OT      -0.834000       15.9994           0
     46784 TIP3     8113     TIP3     H1       HT       0.417000       1.00800           0
     46785 TIP3     8113     TIP3     H2       HT       0.417000       1.00800           0
     46786 TIP3     8114     TIP3     OH2      OT      -0.834000       15.9994           0
     46787 TIP3     8114     TIP3     H1       HT       0.417000       1.00800           0
     46788 TIP3     8114     TIP3     H2       HT       0.417000       1.00800           0
     46789 TIP3     8115     TIP3     OH2      OT      -0.834000       15.9994           0
     46790 TIP3     8115     TIP3     H1       HT       0.417000       1.00800           0
     46791 TIP3     8115     TIP3     H2       HT       0.417000       1.00800           0
     46792 TIP3     8116     TIP3     OH2      OT      -0.834000       15.9994           0
     46793 TIP3     8116     TIP3     H1       HT       0.417000       1.00800           0
     46794 TIP3     8116     TIP3     H2       HT       0.417000       1.00800           0
     46795 TIP3     8117     TIP3     OH2      OT      -0.834000       15.9994           0
     46796 TIP3     8117     TIP3     H1       HT       0.417000       1.00800           0
     46797 TIP3     8117     TIP3     H2       HT       0.417000       1.00800           0
     46798 TIP3     8118     TIP3     OH2      OT      -0.834000       15.9994           0
     46799 TIP3     8118     TIP3     H1       HT       0.417000       1.00800           0
     46800 TIP3     8118     TIP3     H2       HT       0.417000       1.00800           0
     46801 TIP3     8119     TIP3     OH2      OT      -0.834000       15.9994           0
     46802 TIP3     8119     TIP3     H1       HT       0.417000       1.00800           0
     46803 TIP3     8119     TIP3     H2       HT       0.417000       1.00800           0
     46804 TIP3     8120     TIP3     OH2      OT      -0.834000       15.9994           0
     46805 TIP3     8120     TIP3     H1       HT       0.417000       1.00800           0
     46806 TIP3     8120     TIP3     H2       HT       0.417000       1.00800           0
     46807 TIP3     8121     TIP3     OH2      OT      -0.834000       15.9994           0
     46808 TIP3     8121     TIP3     H1       HT       0.417000       1.00800           0
     46809 TIP3     8121     TIP3     H2       HT       0.417000       1.00800           0
     46810 TIP3     8122     TIP3     OH2      OT      -0.834000       15.9994           0
     46811 TIP3     8122     TIP3     H1       HT       0.417000       1.00800           0
     46812 TIP3     8122     TIP3     H2       HT       0.417000       1.00800           0
     46813 TIP3     8123     TIP3     OH2      OT      -0.834000       15.9994           0
     46814 TIP3     8123     TIP3     H1       HT       0.417000       1.00800           0
     46815 TIP3     8123     TIP3     H2       HT       0.417000       1.00800           0
     46816 TIP3     8124     TIP3     OH2      OT      -0.834000       15.9994           0
     46817 TIP3     8124     TIP3     H1       HT       0.417000       1.00800           0
     46818 TIP3     8124     TIP3     H2       HT       0.417000       1.00800           0
     46819 TIP3     8125     TIP3     OH2      OT      -0.834000       15.9994           0
     46820 TIP3     8125     TIP3     H1       HT       0.417000       1.00800           0
     46821 TIP3     8125     TIP3     H2       HT       0.417000       1.00800           0
     46822 TIP3     8126     TIP3     OH2      OT      -0.834000       15.9994           0
     46823 TIP3     8126     TIP3     H1       HT       0.417000       1.00800           0
     46824 TIP3     8126     TIP3     H2       HT       0.417000       1.00800           0
     46825 TIP3     8127     TIP3     OH2      OT      -0.834000       15.9994           0
     46826 TIP3     8127     TIP3     H1       HT       0.417000       1.00800           0
     46827 TIP3     8127     TIP3     H2       HT       0.417000       1.00800           0
     46828 TIP3     8128     TIP3     OH2      OT      -0.834000       15.9994           0
     46829 TIP3     8128     TIP3     H1       HT       0.417000       1.00800           0
     46830 TIP3     8128     TIP3     H2       HT       0.417000       1.00800           0
     46831 TIP3     8129     TIP3     OH2      OT      -0.834000       15.9994           0
     46832 TIP3     8129     TIP3     H1       HT       0.417000       1.00800           0
     46833 TIP3     8129     TIP3     H2       HT       0.417000       1.00800           0
     46834 TIP3     8130     TIP3     OH2      OT      -0.834000       15.9994           0
     46835 TIP3     8130     TIP3     H1       HT       0.417000       1.00800           0
     46836 TIP3     8130     TIP3     H2       HT       0.417000       1.00800           0
     46837 TIP3     8131     TIP3     OH2      OT      -0.834000       15.9994           0
     46838 TIP3     8131     TIP3     H1       HT       0.417000       1.00800           0
     46839 TIP3     8131     TIP3     H2       HT       0.417000       1.00800           0
     46840 TIP3     8132     TIP3     OH2      OT      -0.834000       15.9994           0
     46841 TIP3     8132     TIP3     H1       HT       0.417000       1.00800           0
     46842 TIP3     8132     TIP3     H2       HT       0.417000       1.00800           0
     46843 TIP3     8133     TIP3     OH2      OT      -0.834000       15.9994           0
     46844 TIP3     8133     TIP3     H1       HT       0.417000       1.00800           0
     46845 TIP3     8133     TIP3     H2       HT       0.417000       1.00800           0
     46846 TIP3     8134     TIP3     OH2      OT      -0.834000       15.9994           0
     46847 TIP3     8134     TIP3     H1       HT       0.417000       1.00800           0
     46848 TIP3     8134     TIP3     H2       HT       0.417000       1.00800           0
     46849 TIP3     8135     TIP3     OH2      OT      -0.834000       15.9994           0
     46850 TIP3     8135     TIP3     H1       HT       0.417000       1.00800           0
     46851 TIP3     8135     TIP3     H2       HT       0.417000       1.00800           0
     46852 TIP3     8136     TIP3     OH2      OT      -0.834000       15.9994           0
     46853 TIP3     8136     TIP3     H1       HT       0.417000       1.00800           0
     46854 TIP3     8136     TIP3     H2       HT       0.417000       1.00800           0
     46855 TIP3     8137     TIP3     OH2      OT      -0.834000       15.9994           0
     46856 TIP3     8137     TIP3     H1       HT       0.417000       1.00800           0
     46857 TIP3     8137     TIP3     H2       HT       0.417000       1.00800           0
     46858 TIP3     8138     TIP3     OH2      OT      -0.834000       15.9994           0
     46859 TIP3     8138     TIP3     H1       HT       0.417000       1.00800           0
     46860 TIP3     8138     TIP3     H2       HT       0.417000       1.00800           0
     46861 TIP3     8139     TIP3     OH2      OT      -0.834000       15.9994           0
     46862 TIP3     8139     TIP3     H1       HT       0.417000       1.00800           0
     46863 TIP3     8139     TIP3     H2       HT       0.417000       1.00800           0
     46864 TIP3     8140     TIP3     OH2      OT      -0.834000       15.9994           0
     46865 TIP3     8140     TIP3     H1       HT       0.417000       1.00800           0
     46866 TIP3     8140     TIP3     H2       HT       0.417000       1.00800           0
     46867 TIP3     8141     TIP3     OH2      OT      -0.834000       15.9994           0
     46868 TIP3     8141     TIP3     H1       HT       0.417000       1.00800           0
     46869 TIP3     8141     TIP3     H2       HT       0.417000       1.00800           0
     46870 TIP3     8142     TIP3     OH2      OT      -0.834000       15.9994           0
     46871 TIP3     8142     TIP3     H1       HT       0.417000       1.00800           0
     46872 TIP3     8142     TIP3     H2       HT       0.417000       1.00800           0
     46873 TIP3     8143     TIP3     OH2      OT      -0.834000       15.9994           0
     46874 TIP3     8143     TIP3     H1       HT       0.417000       1.00800           0
     46875 TIP3     8143     TIP3     H2       HT       0.417000       1.00800           0
     46876 TIP3     8144     TIP3     OH2      OT      -0.834000       15.9994           0
     46877 TIP3     8144     TIP3     H1       HT       0.417000       1.00800           0
     46878 TIP3     8144     TIP3     H2       HT       0.417000       1.00800           0
     46879 TIP3     8145     TIP3     OH2      OT      -0.834000       15.9994           0
     46880 TIP3     8145     TIP3     H1       HT       0.417000       1.00800           0
     46881 TIP3     8145     TIP3     H2       HT       0.417000       1.00800           0
     46882 TIP3     8146     TIP3     OH2      OT      -0.834000       15.9994           0
     46883 TIP3     8146     TIP3     H1       HT       0.417000       1.00800           0
     46884 TIP3     8146     TIP3     H2       HT       0.417000       1.00800           0
     46885 TIP3     8147     TIP3     OH2      OT      -0.834000       15.9994           0
     46886 TIP3     8147     TIP3     H1       HT       0.417000       1.00800           0
     46887 TIP3     8147     TIP3     H2       HT       0.417000       1.00800           0
     46888 TIP3     8148     TIP3     OH2      OT      -0.834000       15.9994           0
     46889 TIP3     8148     TIP3     H1       HT       0.417000       1.00800           0
     46890 TIP3     8148     TIP3     H2       HT       0.417000       1.00800           0
     46891 TIP3     8149     TIP3     OH2      OT      -0.834000       15.9994           0
     46892 TIP3     8149     TIP3     H1       HT       0.417000       1.00800           0
     46893 TIP3     8149     TIP3     H2       HT       0.417000       1.00800           0
     46894 TIP3     8150     TIP3     OH2      OT      -0.834000       15.9994           0
     46895 TIP3     8150     TIP3     H1       HT       0.417000       1.00800           0
     46896 TIP3     8150     TIP3     H2       HT       0.417000       1.00800           0
     46897 TIP3     8151     TIP3     OH2      OT      -0.834000       15.9994           0
     46898 TIP3     8151     TIP3     H1       HT       0.417000       1.00800           0
     46899 TIP3     8151     TIP3     H2       HT       0.417000       1.00800           0
     46900 TIP3     8152     TIP3     OH2      OT      -0.834000       15.9994           0
     46901 TIP3     8152     TIP3     H1       HT       0.417000       1.00800           0
     46902 TIP3     8152     TIP3     H2       HT       0.417000       1.00800           0
     46903 TIP3     8153     TIP3     OH2      OT      -0.834000       15.9994           0
     46904 TIP3     8153     TIP3     H1       HT       0.417000       1.00800           0
     46905 TIP3     8153     TIP3     H2       HT       0.417000       1.00800           0
     46906 TIP3     8154     TIP3     OH2      OT      -0.834000       15.9994           0
     46907 TIP3     8154     TIP3     H1       HT       0.417000       1.00800           0
     46908 TIP3     8154     TIP3     H2       HT       0.417000       1.00800           0
     46909 TIP3     8155     TIP3     OH2      OT      -0.834000       15.9994           0
     46910 TIP3     8155     TIP3     H1       HT       0.417000       1.00800           0
     46911 TIP3     8155     TIP3     H2       HT       0.417000       1.00800           0
     46912 TIP3     8156     TIP3     OH2      OT      -0.834000       15.9994           0
     46913 TIP3     8156     TIP3     H1       HT       0.417000       1.00800           0
     46914 TIP3     8156     TIP3     H2       HT       0.417000       1.00800           0
     46915 TIP3     8157     TIP3     OH2      OT      -0.834000       15.9994           0
     46916 TIP3     8157     TIP3     H1       HT       0.417000       1.00800           0
     46917 TIP3     8157     TIP3     H2       HT       0.417000       1.00800           0
     46918 TIP3     8158     TIP3     OH2      OT      -0.834000       15.9994           0
     46919 TIP3     8158     TIP3     H1       HT       0.417000       1.00800           0
     46920 TIP3     8158     TIP3     H2       HT       0.417000       1.00800           0
     46921 TIP3     8159     TIP3     OH2      OT      -0.834000       15.9994           0
     46922 TIP3     8159     TIP3     H1       HT       0.417000       1.00800           0
     46923 TIP3     8159     TIP3     H2       HT       0.417000       1.00800           0
     46924 TIP3     8160     TIP3     OH2      OT      -0.834000       15.9994           0
     46925 TIP3     8160     TIP3     H1       HT       0.417000       1.00800           0
     46926 TIP3     8160     TIP3     H2       HT       0.417000       1.00800           0
     46927 TIP3     8161     TIP3     OH2      OT      -0.834000       15.9994           0
     46928 TIP3     8161     TIP3     H1       HT       0.417000       1.00800           0
     46929 TIP3     8161     TIP3     H2       HT       0.417000       1.00800           0
     46930 TIP3     8162     TIP3     OH2      OT      -0.834000       15.9994           0
     46931 TIP3     8162     TIP3     H1       HT       0.417000       1.00800           0
     46932 TIP3     8162     TIP3     H2       HT       0.417000       1.00800           0
     46933 TIP3     8163     TIP3     OH2      OT      -0.834000       15.9994           0
     46934 TIP3     8163     TIP3     H1       HT       0.417000       1.00800           0
     46935 TIP3     8163     TIP3     H2       HT       0.417000       1.00800           0
     46936 TIP3     8164     TIP3     OH2      OT      -0.834000       15.9994           0
     46937 TIP3     8164     TIP3     H1       HT       0.417000       1.00800           0
     46938 TIP3     8164     TIP3     H2       HT       0.417000       1.00800           0
     46939 TIP3     8165     TIP3     OH2      OT      -0.834000       15.9994           0
     46940 TIP3     8165     TIP3     H1       HT       0.417000       1.00800           0
     46941 TIP3     8165     TIP3     H2       HT       0.417000       1.00800           0
     46942 TIP3     8166     TIP3     OH2      OT      -0.834000       15.9994           0
     46943 TIP3     8166     TIP3     H1       HT       0.417000       1.00800           0
     46944 TIP3     8166     TIP3     H2       HT       0.417000       1.00800           0
     46945 TIP3     8167     TIP3     OH2      OT      -0.834000       15.9994           0
     46946 TIP3     8167     TIP3     H1       HT       0.417000       1.00800           0
     46947 TIP3     8167     TIP3     H2       HT       0.417000       1.00800           0
     46948 TIP3     8168     TIP3     OH2      OT      -0.834000       15.9994           0
     46949 TIP3     8168     TIP3     H1       HT       0.417000       1.00800           0
     46950 TIP3     8168     TIP3     H2       HT       0.417000       1.00800           0
     46951 TIP3     8169     TIP3     OH2      OT      -0.834000       15.9994           0
     46952 TIP3     8169     TIP3     H1       HT       0.417000       1.00800           0
     46953 TIP3     8169     TIP3     H2       HT       0.417000       1.00800           0
     46954 TIP3     8170     TIP3     OH2      OT      -0.834000       15.9994           0
     46955 TIP3     8170     TIP3     H1       HT       0.417000       1.00800           0
     46956 TIP3     8170     TIP3     H2       HT       0.417000       1.00800           0
     46957 TIP3     8171     TIP3     OH2      OT      -0.834000       15.9994           0
     46958 TIP3     8171     TIP3     H1       HT       0.417000       1.00800           0
     46959 TIP3     8171     TIP3     H2       HT       0.417000       1.00800           0
     46960 TIP3     8172     TIP3     OH2      OT      -0.834000       15.9994           0
     46961 TIP3     8172     TIP3     H1       HT       0.417000       1.00800           0
     46962 TIP3     8172     TIP3     H2       HT       0.417000       1.00800           0
     46963 TIP3     8173     TIP3     OH2      OT      -0.834000       15.9994           0
     46964 TIP3     8173     TIP3     H1       HT       0.417000       1.00800           0
     46965 TIP3     8173     TIP3     H2       HT       0.417000       1.00800           0
     46966 TIP3     8174     TIP3     OH2      OT      -0.834000       15.9994           0
     46967 TIP3     8174     TIP3     H1       HT       0.417000       1.00800           0
     46968 TIP3     8174     TIP3     H2       HT       0.417000       1.00800           0
     46969 TIP3     8175     TIP3     OH2      OT      -0.834000       15.9994           0
     46970 TIP3     8175     TIP3     H1       HT       0.417000       1.00800           0
     46971 TIP3     8175     TIP3     H2       HT       0.417000       1.00800           0
     46972 TIP3     8176     TIP3     OH2      OT      -0.834000       15.9994           0
     46973 TIP3     8176     TIP3     H1       HT       0.417000       1.00800           0
     46974 TIP3     8176     TIP3     H2       HT       0.417000       1.00800           0
     46975 TIP3     8177     TIP3     OH2      OT      -0.834000       15.9994           0
     46976 TIP3     8177     TIP3     H1       HT       0.417000       1.00800           0
     46977 TIP3     8177     TIP3     H2       HT       0.417000       1.00800           0
     46978 TIP3     8178     TIP3     OH2      OT      -0.834000       15.9994           0
     46979 TIP3     8178     TIP3     H1       HT       0.417000       1.00800           0
     46980 TIP3     8178     TIP3     H2       HT       0.417000       1.00800           0
     46981 TIP3     8179     TIP3     OH2      OT      -0.834000       15.9994           0
     46982 TIP3     8179     TIP3     H1       HT       0.417000       1.00800           0
     46983 TIP3     8179     TIP3     H2       HT       0.417000       1.00800           0
     46984 TIP3     8180     TIP3     OH2      OT      -0.834000       15.9994           0
     46985 TIP3     8180     TIP3     H1       HT       0.417000       1.00800           0
     46986 TIP3     8180     TIP3     H2       HT       0.417000       1.00800           0
     46987 TIP3     8181     TIP3     OH2      OT      -0.834000       15.9994           0
     46988 TIP3     8181     TIP3     H1       HT       0.417000       1.00800           0
     46989 TIP3     8181     TIP3     H2       HT       0.417000       1.00800           0
     46990 TIP3     8182     TIP3     OH2      OT      -0.834000       15.9994           0
     46991 TIP3     8182     TIP3     H1       HT       0.417000       1.00800           0
     46992 TIP3     8182     TIP3     H2       HT       0.417000       1.00800           0
     46993 TIP3     8183     TIP3     OH2      OT      -0.834000       15.9994           0
     46994 TIP3     8183     TIP3     H1       HT       0.417000       1.00800           0
     46995 TIP3     8183     TIP3     H2       HT       0.417000       1.00800           0
     46996 TIP3     8184     TIP3     OH2      OT      -0.834000       15.9994           0
     46997 TIP3     8184     TIP3     H1       HT       0.417000       1.00800           0
     46998 TIP3     8184     TIP3     H2       HT       0.417000       1.00800           0
     46999 TIP3     8185     TIP3     OH2      OT      -0.834000       15.9994           0
     47000 TIP3     8185     TIP3     H1       HT       0.417000       1.00800           0
     47001 TIP3     8185     TIP3     H2       HT       0.417000       1.00800           0
     47002 TIP3     8186     TIP3     OH2      OT      -0.834000       15.9994           0
     47003 TIP3     8186     TIP3     H1       HT       0.417000       1.00800           0
     47004 TIP3     8186     TIP3     H2       HT       0.417000       1.00800           0
     47005 TIP3     8187     TIP3     OH2      OT      -0.834000       15.9994           0
     47006 TIP3     8187     TIP3     H1       HT       0.417000       1.00800           0
     47007 TIP3     8187     TIP3     H2       HT       0.417000       1.00800           0
     47008 TIP3     8188     TIP3     OH2      OT      -0.834000       15.9994           0
     47009 TIP3     8188     TIP3     H1       HT       0.417000       1.00800           0
     47010 TIP3     8188     TIP3     H2       HT       0.417000       1.00800           0
     47011 TIP3     8189     TIP3     OH2      OT      -0.834000       15.9994           0
     47012 TIP3     8189     TIP3     H1       HT       0.417000       1.00800           0
     47013 TIP3     8189     TIP3     H2       HT       0.417000       1.00800           0
     47014 TIP3     8190     TIP3     OH2      OT      -0.834000       15.9994           0
     47015 TIP3     8190     TIP3     H1       HT       0.417000       1.00800           0
     47016 TIP3     8190     TIP3     H2       HT       0.417000       1.00800           0
     47017 TIP3     8191     TIP3     OH2      OT      -0.834000       15.9994           0
     47018 TIP3     8191     TIP3     H1       HT       0.417000       1.00800           0
     47019 TIP3     8191     TIP3     H2       HT       0.417000       1.00800           0
     47020 TIP3     8192     TIP3     OH2      OT      -0.834000       15.9994           0
     47021 TIP3     8192     TIP3     H1       HT       0.417000       1.00800           0
     47022 TIP3     8192     TIP3     H2       HT       0.417000       1.00800           0
     47023 TIP3     8193     TIP3     OH2      OT      -0.834000       15.9994           0
     47024 TIP3     8193     TIP3     H1       HT       0.417000       1.00800           0
     47025 TIP3     8193     TIP3     H2       HT       0.417000       1.00800           0
     47026 TIP3     8194     TIP3     OH2      OT      -0.834000       15.9994           0
     47027 TIP3     8194     TIP3     H1       HT       0.417000       1.00800           0
     47028 TIP3     8194     TIP3     H2       HT       0.417000       1.00800           0
     47029 TIP3     8195     TIP3     OH2      OT      -0.834000       15.9994           0
     47030 TIP3     8195     TIP3     H1       HT       0.417000       1.00800           0
     47031 TIP3     8195     TIP3     H2       HT       0.417000       1.00800           0
     47032 TIP3     8196     TIP3     OH2      OT      -0.834000       15.9994           0
     47033 TIP3     8196     TIP3     H1       HT       0.417000       1.00800           0
     47034 TIP3     8196     TIP3     H2       HT       0.417000       1.00800           0
     47035 TIP3     8197     TIP3     OH2      OT      -0.834000       15.9994           0
     47036 TIP3     8197     TIP3     H1       HT       0.417000       1.00800           0
     47037 TIP3     8197     TIP3     H2       HT       0.417000       1.00800           0
     47038 TIP3     8198     TIP3     OH2      OT      -0.834000       15.9994           0
     47039 TIP3     8198     TIP3     H1       HT       0.417000       1.00800           0
     47040 TIP3     8198     TIP3     H2       HT       0.417000       1.00800           0
     47041 TIP3     8199     TIP3     OH2      OT      -0.834000       15.9994           0
     47042 TIP3     8199     TIP3     H1       HT       0.417000       1.00800           0
     47043 TIP3     8199     TIP3     H2       HT       0.417000       1.00800           0
     47044 TIP3     8200     TIP3     OH2      OT      -0.834000       15.9994           0
     47045 TIP3     8200     TIP3     H1       HT       0.417000       1.00800           0
     47046 TIP3     8200     TIP3     H2       HT       0.417000       1.00800           0
     47047 TIP3     8201     TIP3     OH2      OT      -0.834000       15.9994           0
     47048 TIP3     8201     TIP3     H1       HT       0.417000       1.00800           0
     47049 TIP3     8201     TIP3     H2       HT       0.417000       1.00800           0
     47050 TIP3     8202     TIP3     OH2      OT      -0.834000       15.9994           0
     47051 TIP3     8202     TIP3     H1       HT       0.417000       1.00800           0
     47052 TIP3     8202     TIP3     H2       HT       0.417000       1.00800           0
     47053 TIP3     8203     TIP3     OH2      OT      -0.834000       15.9994           0
     47054 TIP3     8203     TIP3     H1       HT       0.417000       1.00800           0
     47055 TIP3     8203     TIP3     H2       HT       0.417000       1.00800           0
     47056 TIP3     8204     TIP3     OH2      OT      -0.834000       15.9994           0
     47057 TIP3     8204     TIP3     H1       HT       0.417000       1.00800           0
     47058 TIP3     8204     TIP3     H2       HT       0.417000       1.00800           0
     47059 TIP3     8205     TIP3     OH2      OT      -0.834000       15.9994           0
     47060 TIP3     8205     TIP3     H1       HT       0.417000       1.00800           0
     47061 TIP3     8205     TIP3     H2       HT       0.417000       1.00800           0
     47062 TIP3     8206     TIP3     OH2      OT      -0.834000       15.9994           0
     47063 TIP3     8206     TIP3     H1       HT       0.417000       1.00800           0
     47064 TIP3     8206     TIP3     H2       HT       0.417000       1.00800           0
     47065 TIP3     8207     TIP3     OH2      OT      -0.834000       15.9994           0
     47066 TIP3     8207     TIP3     H1       HT       0.417000       1.00800           0
     47067 TIP3     8207     TIP3     H2       HT       0.417000       1.00800           0
     47068 TIP3     8208     TIP3     OH2      OT      -0.834000       15.9994           0
     47069 TIP3     8208     TIP3     H1       HT       0.417000       1.00800           0
     47070 TIP3     8208     TIP3     H2       HT       0.417000       1.00800           0
     47071 TIP3     8209     TIP3     OH2      OT      -0.834000       15.9994           0
     47072 TIP3     8209     TIP3     H1       HT       0.417000       1.00800           0
     47073 TIP3     8209     TIP3     H2       HT       0.417000       1.00800           0
     47074 TIP3     8210     TIP3     OH2      OT      -0.834000       15.9994           0
     47075 TIP3     8210     TIP3     H1       HT       0.417000       1.00800           0
     47076 TIP3     8210     TIP3     H2       HT       0.417000       1.00800           0
     47077 TIP3     8211     TIP3     OH2      OT      -0.834000       15.9994           0
     47078 TIP3     8211     TIP3     H1       HT       0.417000       1.00800           0
     47079 TIP3     8211     TIP3     H2       HT       0.417000       1.00800           0
     47080 TIP3     8212     TIP3     OH2      OT      -0.834000       15.9994           0
     47081 TIP3     8212     TIP3     H1       HT       0.417000       1.00800           0
     47082 TIP3     8212     TIP3     H2       HT       0.417000       1.00800           0
     47083 TIP3     8213     TIP3     OH2      OT      -0.834000       15.9994           0
     47084 TIP3     8213     TIP3     H1       HT       0.417000       1.00800           0
     47085 TIP3     8213     TIP3     H2       HT       0.417000       1.00800           0
     47086 TIP3     8214     TIP3     OH2      OT      -0.834000       15.9994           0
     47087 TIP3     8214     TIP3     H1       HT       0.417000       1.00800           0
     47088 TIP3     8214     TIP3     H2       HT       0.417000       1.00800           0
     47089 TIP3     8215     TIP3     OH2      OT      -0.834000       15.9994           0
     47090 TIP3     8215     TIP3     H1       HT       0.417000       1.00800           0
     47091 TIP3     8215     TIP3     H2       HT       0.417000       1.00800           0
     47092 TIP3     8216     TIP3     OH2      OT      -0.834000       15.9994           0
     47093 TIP3     8216     TIP3     H1       HT       0.417000       1.00800           0
     47094 TIP3     8216     TIP3     H2       HT       0.417000       1.00800           0
     47095 TIP3     8217     TIP3     OH2      OT      -0.834000       15.9994           0
     47096 TIP3     8217     TIP3     H1       HT       0.417000       1.00800           0
     47097 TIP3     8217     TIP3     H2       HT       0.417000       1.00800           0
     47098 TIP3     8218     TIP3     OH2      OT      -0.834000       15.9994           0
     47099 TIP3     8218     TIP3     H1       HT       0.417000       1.00800           0
     47100 TIP3     8218     TIP3     H2       HT       0.417000       1.00800           0
     47101 TIP3     8219     TIP3     OH2      OT      -0.834000       15.9994           0
     47102 TIP3     8219     TIP3     H1       HT       0.417000       1.00800           0
     47103 TIP3     8219     TIP3     H2       HT       0.417000       1.00800           0
     47104 TIP3     8220     TIP3     OH2      OT      -0.834000       15.9994           0
     47105 TIP3     8220     TIP3     H1       HT       0.417000       1.00800           0
     47106 TIP3     8220     TIP3     H2       HT       0.417000       1.00800           0
     47107 TIP3     8221     TIP3     OH2      OT      -0.834000       15.9994           0
     47108 TIP3     8221     TIP3     H1       HT       0.417000       1.00800           0
     47109 TIP3     8221     TIP3     H2       HT       0.417000       1.00800           0
     47110 TIP3     8222     TIP3     OH2      OT      -0.834000       15.9994           0
     47111 TIP3     8222     TIP3     H1       HT       0.417000       1.00800           0
     47112 TIP3     8222     TIP3     H2       HT       0.417000       1.00800           0
     47113 TIP3     8223     TIP3     OH2      OT      -0.834000       15.9994           0
     47114 TIP3     8223     TIP3     H1       HT       0.417000       1.00800           0
     47115 TIP3     8223     TIP3     H2       HT       0.417000       1.00800           0
     47116 TIP3     8224     TIP3     OH2      OT      -0.834000       15.9994           0
     47117 TIP3     8224     TIP3     H1       HT       0.417000       1.00800           0
     47118 TIP3     8224     TIP3     H2       HT       0.417000       1.00800           0
     47119 TIP3     8225     TIP3     OH2      OT      -0.834000       15.9994           0
     47120 TIP3     8225     TIP3     H1       HT       0.417000       1.00800           0
     47121 TIP3     8225     TIP3     H2       HT       0.417000       1.00800           0
     47122 TIP3     8226     TIP3     OH2      OT      -0.834000       15.9994           0
     47123 TIP3     8226     TIP3     H1       HT       0.417000       1.00800           0
     47124 TIP3     8226     TIP3     H2       HT       0.417000       1.00800           0
     47125 TIP3     8227     TIP3     OH2      OT      -0.834000       15.9994           0
     47126 TIP3     8227     TIP3     H1       HT       0.417000       1.00800           0
     47127 TIP3     8227     TIP3     H2       HT       0.417000       1.00800           0
     47128 TIP3     8228     TIP3     OH2      OT      -0.834000       15.9994           0
     47129 TIP3     8228     TIP3     H1       HT       0.417000       1.00800           0
     47130 TIP3     8228     TIP3     H2       HT       0.417000       1.00800           0
     47131 TIP3     8229     TIP3     OH2      OT      -0.834000       15.9994           0
     47132 TIP3     8229     TIP3     H1       HT       0.417000       1.00800           0
     47133 TIP3     8229     TIP3     H2       HT       0.417000       1.00800           0
     47134 TIP3     8230     TIP3     OH2      OT      -0.834000       15.9994           0
     47135 TIP3     8230     TIP3     H1       HT       0.417000       1.00800           0
     47136 TIP3     8230     TIP3     H2       HT       0.417000       1.00800           0
     47137 TIP3     8231     TIP3     OH2      OT      -0.834000       15.9994           0
     47138 TIP3     8231     TIP3     H1       HT       0.417000       1.00800           0
     47139 TIP3     8231     TIP3     H2       HT       0.417000       1.00800           0
     47140 TIP3     8232     TIP3     OH2      OT      -0.834000       15.9994           0
     47141 TIP3     8232     TIP3     H1       HT       0.417000       1.00800           0
     47142 TIP3     8232     TIP3     H2       HT       0.417000       1.00800           0
     47143 TIP3     8233     TIP3     OH2      OT      -0.834000       15.9994           0
     47144 TIP3     8233     TIP3     H1       HT       0.417000       1.00800           0
     47145 TIP3     8233     TIP3     H2       HT       0.417000       1.00800           0
     47146 TIP3     8234     TIP3     OH2      OT      -0.834000       15.9994           0
     47147 TIP3     8234     TIP3     H1       HT       0.417000       1.00800           0
     47148 TIP3     8234     TIP3     H2       HT       0.417000       1.00800           0
     47149 TIP3     8235     TIP3     OH2      OT      -0.834000       15.9994           0
     47150 TIP3     8235     TIP3     H1       HT       0.417000       1.00800           0
     47151 TIP3     8235     TIP3     H2       HT       0.417000       1.00800           0
     47152 TIP3     8236     TIP3     OH2      OT      -0.834000       15.9994           0
     47153 TIP3     8236     TIP3     H1       HT       0.417000       1.00800           0
     47154 TIP3     8236     TIP3     H2       HT       0.417000       1.00800           0
     47155 TIP3     8237     TIP3     OH2      OT      -0.834000       15.9994           0
     47156 TIP3     8237     TIP3     H1       HT       0.417000       1.00800           0
     47157 TIP3     8237     TIP3     H2       HT       0.417000       1.00800           0
     47158 TIP3     8238     TIP3     OH2      OT      -0.834000       15.9994           0
     47159 TIP3     8238     TIP3     H1       HT       0.417000       1.00800           0
     47160 TIP3     8238     TIP3     H2       HT       0.417000       1.00800           0
     47161 TIP3     8239     TIP3     OH2      OT      -0.834000       15.9994           0
     47162 TIP3     8239     TIP3     H1       HT       0.417000       1.00800           0
     47163 TIP3     8239     TIP3     H2       HT       0.417000       1.00800           0
     47164 TIP3     8240     TIP3     OH2      OT      -0.834000       15.9994           0
     47165 TIP3     8240     TIP3     H1       HT       0.417000       1.00800           0
     47166 TIP3     8240     TIP3     H2       HT       0.417000       1.00800           0
     47167 TIP3     8241     TIP3     OH2      OT      -0.834000       15.9994           0
     47168 TIP3     8241     TIP3     H1       HT       0.417000       1.00800           0
     47169 TIP3     8241     TIP3     H2       HT       0.417000       1.00800           0
     47170 TIP3     8242     TIP3     OH2      OT      -0.834000       15.9994           0
     47171 TIP3     8242     TIP3     H1       HT       0.417000       1.00800           0
     47172 TIP3     8242     TIP3     H2       HT       0.417000       1.00800           0
     47173 TIP3     8243     TIP3     OH2      OT      -0.834000       15.9994           0
     47174 TIP3     8243     TIP3     H1       HT       0.417000       1.00800           0
     47175 TIP3     8243     TIP3     H2       HT       0.417000       1.00800           0
     47176 TIP3     8244     TIP3     OH2      OT      -0.834000       15.9994           0
     47177 TIP3     8244     TIP3     H1       HT       0.417000       1.00800           0
     47178 TIP3     8244     TIP3     H2       HT       0.417000       1.00800           0
     47179 TIP3     8245     TIP3     OH2      OT      -0.834000       15.9994           0
     47180 TIP3     8245     TIP3     H1       HT       0.417000       1.00800           0
     47181 TIP3     8245     TIP3     H2       HT       0.417000       1.00800           0
     47182 TIP3     8246     TIP3     OH2      OT      -0.834000       15.9994           0
     47183 TIP3     8246     TIP3     H1       HT       0.417000       1.00800           0
     47184 TIP3     8246     TIP3     H2       HT       0.417000       1.00800           0
     47185 TIP3     8247     TIP3     OH2      OT      -0.834000       15.9994           0
     47186 TIP3     8247     TIP3     H1       HT       0.417000       1.00800           0
     47187 TIP3     8247     TIP3     H2       HT       0.417000       1.00800           0
     47188 TIP3     8248     TIP3     OH2      OT      -0.834000       15.9994           0
     47189 TIP3     8248     TIP3     H1       HT       0.417000       1.00800           0
     47190 TIP3     8248     TIP3     H2       HT       0.417000       1.00800           0
     47191 TIP3     8249     TIP3     OH2      OT      -0.834000       15.9994           0
     47192 TIP3     8249     TIP3     H1       HT       0.417000       1.00800           0
     47193 TIP3     8249     TIP3     H2       HT       0.417000       1.00800           0
     47194 TIP3     8250     TIP3     OH2      OT      -0.834000       15.9994           0
     47195 TIP3     8250     TIP3     H1       HT       0.417000       1.00800           0
     47196 TIP3     8250     TIP3     H2       HT       0.417000       1.00800           0
     47197 TIP3     8251     TIP3     OH2      OT      -0.834000       15.9994           0
     47198 TIP3     8251     TIP3     H1       HT       0.417000       1.00800           0
     47199 TIP3     8251     TIP3     H2       HT       0.417000       1.00800           0
     47200 TIP3     8252     TIP3     OH2      OT      -0.834000       15.9994           0
     47201 TIP3     8252     TIP3     H1       HT       0.417000       1.00800           0
     47202 TIP3     8252     TIP3     H2       HT       0.417000       1.00800           0
     47203 TIP3     8253     TIP3     OH2      OT      -0.834000       15.9994           0
     47204 TIP3     8253     TIP3     H1       HT       0.417000       1.00800           0
     47205 TIP3     8253     TIP3     H2       HT       0.417000       1.00800           0
     47206 TIP3     8254     TIP3     OH2      OT      -0.834000       15.9994           0
     47207 TIP3     8254     TIP3     H1       HT       0.417000       1.00800           0
     47208 TIP3     8254     TIP3     H2       HT       0.417000       1.00800           0
     47209 TIP3     8255     TIP3     OH2      OT      -0.834000       15.9994           0
     47210 TIP3     8255     TIP3     H1       HT       0.417000       1.00800           0
     47211 TIP3     8255     TIP3     H2       HT       0.417000       1.00800           0
     47212 TIP3     8256     TIP3     OH2      OT      -0.834000       15.9994           0
     47213 TIP3     8256     TIP3     H1       HT       0.417000       1.00800           0
     47214 TIP3     8256     TIP3     H2       HT       0.417000       1.00800           0
     47215 TIP3     8257     TIP3     OH2      OT      -0.834000       15.9994           0
     47216 TIP3     8257     TIP3     H1       HT       0.417000       1.00800           0
     47217 TIP3     8257     TIP3     H2       HT       0.417000       1.00800           0
     47218 TIP3     8258     TIP3     OH2      OT      -0.834000       15.9994           0
     47219 TIP3     8258     TIP3     H1       HT       0.417000       1.00800           0
     47220 TIP3     8258     TIP3     H2       HT       0.417000       1.00800           0
     47221 TIP3     8259     TIP3     OH2      OT      -0.834000       15.9994           0
     47222 TIP3     8259     TIP3     H1       HT       0.417000       1.00800           0
     47223 TIP3     8259     TIP3     H2       HT       0.417000       1.00800           0
     47224 TIP3     8260     TIP3     OH2      OT      -0.834000       15.9994           0
     47225 TIP3     8260     TIP3     H1       HT       0.417000       1.00800           0
     47226 TIP3     8260     TIP3     H2       HT       0.417000       1.00800           0
     47227 TIP3     8261     TIP3     OH2      OT      -0.834000       15.9994           0
     47228 TIP3     8261     TIP3     H1       HT       0.417000       1.00800           0
     47229 TIP3     8261     TIP3     H2       HT       0.417000       1.00800           0
     47230 TIP3     8262     TIP3     OH2      OT      -0.834000       15.9994           0
     47231 TIP3     8262     TIP3     H1       HT       0.417000       1.00800           0
     47232 TIP3     8262     TIP3     H2       HT       0.417000       1.00800           0
     47233 TIP3     8263     TIP3     OH2      OT      -0.834000       15.9994           0
     47234 TIP3     8263     TIP3     H1       HT       0.417000       1.00800           0
     47235 TIP3     8263     TIP3     H2       HT       0.417000       1.00800           0
     47236 TIP3     8264     TIP3     OH2      OT      -0.834000       15.9994           0
     47237 TIP3     8264     TIP3     H1       HT       0.417000       1.00800           0
     47238 TIP3     8264     TIP3     H2       HT       0.417000       1.00800           0
     47239 TIP3     8265     TIP3     OH2      OT      -0.834000       15.9994           0
     47240 TIP3     8265     TIP3     H1       HT       0.417000       1.00800           0
     47241 TIP3     8265     TIP3     H2       HT       0.417000       1.00800           0
     47242 TIP3     8266     TIP3     OH2      OT      -0.834000       15.9994           0
     47243 TIP3     8266     TIP3     H1       HT       0.417000       1.00800           0
     47244 TIP3     8266     TIP3     H2       HT       0.417000       1.00800           0
     47245 TIP3     8267     TIP3     OH2      OT      -0.834000       15.9994           0
     47246 TIP3     8267     TIP3     H1       HT       0.417000       1.00800           0
     47247 TIP3     8267     TIP3     H2       HT       0.417000       1.00800           0
     47248 TIP3     8268     TIP3     OH2      OT      -0.834000       15.9994           0
     47249 TIP3     8268     TIP3     H1       HT       0.417000       1.00800           0
     47250 TIP3     8268     TIP3     H2       HT       0.417000       1.00800           0
     47251 TIP3     8269     TIP3     OH2      OT      -0.834000       15.9994           0
     47252 TIP3     8269     TIP3     H1       HT       0.417000       1.00800           0
     47253 TIP3     8269     TIP3     H2       HT       0.417000       1.00800           0
     47254 TIP3     8270     TIP3     OH2      OT      -0.834000       15.9994           0
     47255 TIP3     8270     TIP3     H1       HT       0.417000       1.00800           0
     47256 TIP3     8270     TIP3     H2       HT       0.417000       1.00800           0
     47257 TIP3     8271     TIP3     OH2      OT      -0.834000       15.9994           0
     47258 TIP3     8271     TIP3     H1       HT       0.417000       1.00800           0
     47259 TIP3     8271     TIP3     H2       HT       0.417000       1.00800           0
     47260 TIP3     8272     TIP3     OH2      OT      -0.834000       15.9994           0
     47261 TIP3     8272     TIP3     H1       HT       0.417000       1.00800           0
     47262 TIP3     8272     TIP3     H2       HT       0.417000       1.00800           0
     47263 TIP3     8273     TIP3     OH2      OT      -0.834000       15.9994           0
     47264 TIP3     8273     TIP3     H1       HT       0.417000       1.00800           0
     47265 TIP3     8273     TIP3     H2       HT       0.417000       1.00800           0
     47266 TIP3     8274     TIP3     OH2      OT      -0.834000       15.9994           0
     47267 TIP3     8274     TIP3     H1       HT       0.417000       1.00800           0
     47268 TIP3     8274     TIP3     H2       HT       0.417000       1.00800           0
     47269 TIP3     8275     TIP3     OH2      OT      -0.834000       15.9994           0
     47270 TIP3     8275     TIP3     H1       HT       0.417000       1.00800           0
     47271 TIP3     8275     TIP3     H2       HT       0.417000       1.00800           0
     47272 TIP3     8276     TIP3     OH2      OT      -0.834000       15.9994           0
     47273 TIP3     8276     TIP3     H1       HT       0.417000       1.00800           0
     47274 TIP3     8276     TIP3     H2       HT       0.417000       1.00800           0
     47275 TIP3     8277     TIP3     OH2      OT      -0.834000       15.9994           0
     47276 TIP3     8277     TIP3     H1       HT       0.417000       1.00800           0
     47277 TIP3     8277     TIP3     H2       HT       0.417000       1.00800           0
     47278 TIP3     8278     TIP3     OH2      OT      -0.834000       15.9994           0
     47279 TIP3     8278     TIP3     H1       HT       0.417000       1.00800           0
     47280 TIP3     8278     TIP3     H2       HT       0.417000       1.00800           0
     47281 TIP3     8279     TIP3     OH2      OT      -0.834000       15.9994           0
     47282 TIP3     8279     TIP3     H1       HT       0.417000       1.00800           0
     47283 TIP3     8279     TIP3     H2       HT       0.417000       1.00800           0
     47284 TIP3     8280     TIP3     OH2      OT      -0.834000       15.9994           0
     47285 TIP3     8280     TIP3     H1       HT       0.417000       1.00800           0
     47286 TIP3     8280     TIP3     H2       HT       0.417000       1.00800           0
     47287 TIP3     8281     TIP3     OH2      OT      -0.834000       15.9994           0
     47288 TIP3     8281     TIP3     H1       HT       0.417000       1.00800           0
     47289 TIP3     8281     TIP3     H2       HT       0.417000       1.00800           0
     47290 TIP3     8282     TIP3     OH2      OT      -0.834000       15.9994           0
     47291 TIP3     8282     TIP3     H1       HT       0.417000       1.00800           0
     47292 TIP3     8282     TIP3     H2       HT       0.417000       1.00800           0
     47293 TIP3     8283     TIP3     OH2      OT      -0.834000       15.9994           0
     47294 TIP3     8283     TIP3     H1       HT       0.417000       1.00800           0
     47295 TIP3     8283     TIP3     H2       HT       0.417000       1.00800           0
     47296 TIP3     8284     TIP3     OH2      OT      -0.834000       15.9994           0
     47297 TIP3     8284     TIP3     H1       HT       0.417000       1.00800           0
     47298 TIP3     8284     TIP3     H2       HT       0.417000       1.00800           0
     47299 TIP3     8285     TIP3     OH2      OT      -0.834000       15.9994           0
     47300 TIP3     8285     TIP3     H1       HT       0.417000       1.00800           0
     47301 TIP3     8285     TIP3     H2       HT       0.417000       1.00800           0
     47302 TIP3     8286     TIP3     OH2      OT      -0.834000       15.9994           0
     47303 TIP3     8286     TIP3     H1       HT       0.417000       1.00800           0
     47304 TIP3     8286     TIP3     H2       HT       0.417000       1.00800           0
     47305 TIP3     8287     TIP3     OH2      OT      -0.834000       15.9994           0
     47306 TIP3     8287     TIP3     H1       HT       0.417000       1.00800           0
     47307 TIP3     8287     TIP3     H2       HT       0.417000       1.00800           0
     47308 TIP3     8288     TIP3     OH2      OT      -0.834000       15.9994           0
     47309 TIP3     8288     TIP3     H1       HT       0.417000       1.00800           0
     47310 TIP3     8288     TIP3     H2       HT       0.417000       1.00800           0
     47311 TIP3     8289     TIP3     OH2      OT      -0.834000       15.9994           0
     47312 TIP3     8289     TIP3     H1       HT       0.417000       1.00800           0
     47313 TIP3     8289     TIP3     H2       HT       0.417000       1.00800           0
     47314 TIP3     8290     TIP3     OH2      OT      -0.834000       15.9994           0
     47315 TIP3     8290     TIP3     H1       HT       0.417000       1.00800           0
     47316 TIP3     8290     TIP3     H2       HT       0.417000       1.00800           0
     47317 TIP3     8291     TIP3     OH2      OT      -0.834000       15.9994           0
     47318 TIP3     8291     TIP3     H1       HT       0.417000       1.00800           0
     47319 TIP3     8291     TIP3     H2       HT       0.417000       1.00800           0
     47320 TIP3     8292     TIP3     OH2      OT      -0.834000       15.9994           0
     47321 TIP3     8292     TIP3     H1       HT       0.417000       1.00800           0
     47322 TIP3     8292     TIP3     H2       HT       0.417000       1.00800           0
     47323 TIP3     8293     TIP3     OH2      OT      -0.834000       15.9994           0
     47324 TIP3     8293     TIP3     H1       HT       0.417000       1.00800           0
     47325 TIP3     8293     TIP3     H2       HT       0.417000       1.00800           0
     47326 TIP3     8294     TIP3     OH2      OT      -0.834000       15.9994           0
     47327 TIP3     8294     TIP3     H1       HT       0.417000       1.00800           0
     47328 TIP3     8294     TIP3     H2       HT       0.417000       1.00800           0
     47329 TIP3     8295     TIP3     OH2      OT      -0.834000       15.9994           0
     47330 TIP3     8295     TIP3     H1       HT       0.417000       1.00800           0
     47331 TIP3     8295     TIP3     H2       HT       0.417000       1.00800           0
     47332 TIP3     8296     TIP3     OH2      OT      -0.834000       15.9994           0
     47333 TIP3     8296     TIP3     H1       HT       0.417000       1.00800           0
     47334 TIP3     8296     TIP3     H2       HT       0.417000       1.00800           0
     47335 TIP3     8297     TIP3     OH2      OT      -0.834000       15.9994           0
     47336 TIP3     8297     TIP3     H1       HT       0.417000       1.00800           0
     47337 TIP3     8297     TIP3     H2       HT       0.417000       1.00800           0
     47338 TIP3     8298     TIP3     OH2      OT      -0.834000       15.9994           0
     47339 TIP3     8298     TIP3     H1       HT       0.417000       1.00800           0
     47340 TIP3     8298     TIP3     H2       HT       0.417000       1.00800           0
     47341 TIP3     8299     TIP3     OH2      OT      -0.834000       15.9994           0
     47342 TIP3     8299     TIP3     H1       HT       0.417000       1.00800           0
     47343 TIP3     8299     TIP3     H2       HT       0.417000       1.00800           0
     47344 TIP3     8300     TIP3     OH2      OT      -0.834000       15.9994           0
     47345 TIP3     8300     TIP3     H1       HT       0.417000       1.00800           0
     47346 TIP3     8300     TIP3     H2       HT       0.417000       1.00800           0
     47347 TIP3     8301     TIP3     OH2      OT      -0.834000       15.9994           0
     47348 TIP3     8301     TIP3     H1       HT       0.417000       1.00800           0
     47349 TIP3     8301     TIP3     H2       HT       0.417000       1.00800           0
     47350 TIP3     8302     TIP3     OH2      OT      -0.834000       15.9994           0
     47351 TIP3     8302     TIP3     H1       HT       0.417000       1.00800           0
     47352 TIP3     8302     TIP3     H2       HT       0.417000       1.00800           0
     47353 TIP3     8303     TIP3     OH2      OT      -0.834000       15.9994           0
     47354 TIP3     8303     TIP3     H1       HT       0.417000       1.00800           0
     47355 TIP3     8303     TIP3     H2       HT       0.417000       1.00800           0
     47356 TIP3     8304     TIP3     OH2      OT      -0.834000       15.9994           0
     47357 TIP3     8304     TIP3     H1       HT       0.417000       1.00800           0
     47358 TIP3     8304     TIP3     H2       HT       0.417000       1.00800           0
     47359 TIP3     8305     TIP3     OH2      OT      -0.834000       15.9994           0
     47360 TIP3     8305     TIP3     H1       HT       0.417000       1.00800           0
     47361 TIP3     8305     TIP3     H2       HT       0.417000       1.00800           0
     47362 TIP3     8306     TIP3     OH2      OT      -0.834000       15.9994           0
     47363 TIP3     8306     TIP3     H1       HT       0.417000       1.00800           0
     47364 TIP3     8306     TIP3     H2       HT       0.417000       1.00800           0
     47365 TIP3     8307     TIP3     OH2      OT      -0.834000       15.9994           0
     47366 TIP3     8307     TIP3     H1       HT       0.417000       1.00800           0
     47367 TIP3     8307     TIP3     H2       HT       0.417000       1.00800           0
     47368 TIP3     8308     TIP3     OH2      OT      -0.834000       15.9994           0
     47369 TIP3     8308     TIP3     H1       HT       0.417000       1.00800           0
     47370 TIP3     8308     TIP3     H2       HT       0.417000       1.00800           0
     47371 TIP3     8309     TIP3     OH2      OT      -0.834000       15.9994           0
     47372 TIP3     8309     TIP3     H1       HT       0.417000       1.00800           0
     47373 TIP3     8309     TIP3     H2       HT       0.417000       1.00800           0
     47374 TIP3     8310     TIP3     OH2      OT      -0.834000       15.9994           0
     47375 TIP3     8310     TIP3     H1       HT       0.417000       1.00800           0
     47376 TIP3     8310     TIP3     H2       HT       0.417000       1.00800           0
     47377 TIP3     8311     TIP3     OH2      OT      -0.834000       15.9994           0
     47378 TIP3     8311     TIP3     H1       HT       0.417000       1.00800           0
     47379 TIP3     8311     TIP3     H2       HT       0.417000       1.00800           0
     47380 TIP3     8312     TIP3     OH2      OT      -0.834000       15.9994           0
     47381 TIP3     8312     TIP3     H1       HT       0.417000       1.00800           0
     47382 TIP3     8312     TIP3     H2       HT       0.417000       1.00800           0
     47383 TIP3     8313     TIP3     OH2      OT      -0.834000       15.9994           0
     47384 TIP3     8313     TIP3     H1       HT       0.417000       1.00800           0
     47385 TIP3     8313     TIP3     H2       HT       0.417000       1.00800           0
     47386 TIP3     8314     TIP3     OH2      OT      -0.834000       15.9994           0
     47387 TIP3     8314     TIP3     H1       HT       0.417000       1.00800           0
     47388 TIP3     8314     TIP3     H2       HT       0.417000       1.00800           0
     47389 TIP3     8315     TIP3     OH2      OT      -0.834000       15.9994           0
     47390 TIP3     8315     TIP3     H1       HT       0.417000       1.00800           0
     47391 TIP3     8315     TIP3     H2       HT       0.417000       1.00800           0
     47392 TIP3     8316     TIP3     OH2      OT      -0.834000       15.9994           0
     47393 TIP3     8316     TIP3     H1       HT       0.417000       1.00800           0
     47394 TIP3     8316     TIP3     H2       HT       0.417000       1.00800           0
     47395 TIP3     8317     TIP3     OH2      OT      -0.834000       15.9994           0
     47396 TIP3     8317     TIP3     H1       HT       0.417000       1.00800           0
     47397 TIP3     8317     TIP3     H2       HT       0.417000       1.00800           0
     47398 TIP3     8318     TIP3     OH2      OT      -0.834000       15.9994           0
     47399 TIP3     8318     TIP3     H1       HT       0.417000       1.00800           0
     47400 TIP3     8318     TIP3     H2       HT       0.417000       1.00800           0
     47401 TIP3     8319     TIP3     OH2      OT      -0.834000       15.9994           0
     47402 TIP3     8319     TIP3     H1       HT       0.417000       1.00800           0
     47403 TIP3     8319     TIP3     H2       HT       0.417000       1.00800           0
     47404 TIP3     8320     TIP3     OH2      OT      -0.834000       15.9994           0
     47405 TIP3     8320     TIP3     H1       HT       0.417000       1.00800           0
     47406 TIP3     8320     TIP3     H2       HT       0.417000       1.00800           0
     47407 TIP3     8321     TIP3     OH2      OT      -0.834000       15.9994           0
     47408 TIP3     8321     TIP3     H1       HT       0.417000       1.00800           0
     47409 TIP3     8321     TIP3     H2       HT       0.417000       1.00800           0
     47410 TIP3     8322     TIP3     OH2      OT      -0.834000       15.9994           0
     47411 TIP3     8322     TIP3     H1       HT       0.417000       1.00800           0
     47412 TIP3     8322     TIP3     H2       HT       0.417000       1.00800           0
     47413 TIP3     8323     TIP3     OH2      OT      -0.834000       15.9994           0
     47414 TIP3     8323     TIP3     H1       HT       0.417000       1.00800           0
     47415 TIP3     8323     TIP3     H2       HT       0.417000       1.00800           0
     47416 TIP3     8324     TIP3     OH2      OT      -0.834000       15.9994           0
     47417 TIP3     8324     TIP3     H1       HT       0.417000       1.00800           0
     47418 TIP3     8324     TIP3     H2       HT       0.417000       1.00800           0
     47419 TIP3     8325     TIP3     OH2      OT      -0.834000       15.9994           0
     47420 TIP3     8325     TIP3     H1       HT       0.417000       1.00800           0
     47421 TIP3     8325     TIP3     H2       HT       0.417000       1.00800           0
     47422 TIP3     8326     TIP3     OH2      OT      -0.834000       15.9994           0
     47423 TIP3     8326     TIP3     H1       HT       0.417000       1.00800           0
     47424 TIP3     8326     TIP3     H2       HT       0.417000       1.00800           0
     47425 TIP3     8327     TIP3     OH2      OT      -0.834000       15.9994           0
     47426 TIP3     8327     TIP3     H1       HT       0.417000       1.00800           0
     47427 TIP3     8327     TIP3     H2       HT       0.417000       1.00800           0
     47428 TIP3     8328     TIP3     OH2      OT      -0.834000       15.9994           0
     47429 TIP3     8328     TIP3     H1       HT       0.417000       1.00800           0
     47430 TIP3     8328     TIP3     H2       HT       0.417000       1.00800           0
     47431 TIP3     8329     TIP3     OH2      OT      -0.834000       15.9994           0
     47432 TIP3     8329     TIP3     H1       HT       0.417000       1.00800           0
     47433 TIP3     8329     TIP3     H2       HT       0.417000       1.00800           0
     47434 TIP3     8330     TIP3     OH2      OT      -0.834000       15.9994           0
     47435 TIP3     8330     TIP3     H1       HT       0.417000       1.00800           0
     47436 TIP3     8330     TIP3     H2       HT       0.417000       1.00800           0
     47437 TIP3     8331     TIP3     OH2      OT      -0.834000       15.9994           0
     47438 TIP3     8331     TIP3     H1       HT       0.417000       1.00800           0
     47439 TIP3     8331     TIP3     H2       HT       0.417000       1.00800           0
     47440 TIP3     8332     TIP3     OH2      OT      -0.834000       15.9994           0
     47441 TIP3     8332     TIP3     H1       HT       0.417000       1.00800           0
     47442 TIP3     8332     TIP3     H2       HT       0.417000       1.00800           0
     47443 TIP3     8333     TIP3     OH2      OT      -0.834000       15.9994           0
     47444 TIP3     8333     TIP3     H1       HT       0.417000       1.00800           0
     47445 TIP3     8333     TIP3     H2       HT       0.417000       1.00800           0
     47446 TIP3     8334     TIP3     OH2      OT      -0.834000       15.9994           0
     47447 TIP3     8334     TIP3     H1       HT       0.417000       1.00800           0
     47448 TIP3     8334     TIP3     H2       HT       0.417000       1.00800           0
     47449 TIP3     8335     TIP3     OH2      OT      -0.834000       15.9994           0
     47450 TIP3     8335     TIP3     H1       HT       0.417000       1.00800           0
     47451 TIP3     8335     TIP3     H2       HT       0.417000       1.00800           0
     47452 TIP3     8336     TIP3     OH2      OT      -0.834000       15.9994           0
     47453 TIP3     8336     TIP3     H1       HT       0.417000       1.00800           0
     47454 TIP3     8336     TIP3     H2       HT       0.417000       1.00800           0
     47455 TIP3     8337     TIP3     OH2      OT      -0.834000       15.9994           0
     47456 TIP3     8337     TIP3     H1       HT       0.417000       1.00800           0
     47457 TIP3     8337     TIP3     H2       HT       0.417000       1.00800           0
     47458 TIP3     8338     TIP3     OH2      OT      -0.834000       15.9994           0
     47459 TIP3     8338     TIP3     H1       HT       0.417000       1.00800           0
     47460 TIP3     8338     TIP3     H2       HT       0.417000       1.00800           0
     47461 TIP3     8339     TIP3     OH2      OT      -0.834000       15.9994           0
     47462 TIP3     8339     TIP3     H1       HT       0.417000       1.00800           0
     47463 TIP3     8339     TIP3     H2       HT       0.417000       1.00800           0
     47464 TIP3     8340     TIP3     OH2      OT      -0.834000       15.9994           0
     47465 TIP3     8340     TIP3     H1       HT       0.417000       1.00800           0
     47466 TIP3     8340     TIP3     H2       HT       0.417000       1.00800           0
     47467 TIP3     8341     TIP3     OH2      OT      -0.834000       15.9994           0
     47468 TIP3     8341     TIP3     H1       HT       0.417000       1.00800           0
     47469 TIP3     8341     TIP3     H2       HT       0.417000       1.00800           0
     47470 TIP3     8342     TIP3     OH2      OT      -0.834000       15.9994           0
     47471 TIP3     8342     TIP3     H1       HT       0.417000       1.00800           0
     47472 TIP3     8342     TIP3     H2       HT       0.417000       1.00800           0
     47473 TIP3     8343     TIP3     OH2      OT      -0.834000       15.9994           0
     47474 TIP3     8343     TIP3     H1       HT       0.417000       1.00800           0
     47475 TIP3     8343     TIP3     H2       HT       0.417000       1.00800           0
     47476 TIP3     8344     TIP3     OH2      OT      -0.834000       15.9994           0
     47477 TIP3     8344     TIP3     H1       HT       0.417000       1.00800           0
     47478 TIP3     8344     TIP3     H2       HT       0.417000       1.00800           0
     47479 TIP3     8345     TIP3     OH2      OT      -0.834000       15.9994           0
     47480 TIP3     8345     TIP3     H1       HT       0.417000       1.00800           0
     47481 TIP3     8345     TIP3     H2       HT       0.417000       1.00800           0
     47482 TIP3     8346     TIP3     OH2      OT      -0.834000       15.9994           0
     47483 TIP3     8346     TIP3     H1       HT       0.417000       1.00800           0
     47484 TIP3     8346     TIP3     H2       HT       0.417000       1.00800           0
     47485 TIP3     8347     TIP3     OH2      OT      -0.834000       15.9994           0
     47486 TIP3     8347     TIP3     H1       HT       0.417000       1.00800           0
     47487 TIP3     8347     TIP3     H2       HT       0.417000       1.00800           0
     47488 TIP3     8348     TIP3     OH2      OT      -0.834000       15.9994           0
     47489 TIP3     8348     TIP3     H1       HT       0.417000       1.00800           0
     47490 TIP3     8348     TIP3     H2       HT       0.417000       1.00800           0
     47491 TIP3     8349     TIP3     OH2      OT      -0.834000       15.9994           0
     47492 TIP3     8349     TIP3     H1       HT       0.417000       1.00800           0
     47493 TIP3     8349     TIP3     H2       HT       0.417000       1.00800           0
     47494 TIP3     8350     TIP3     OH2      OT      -0.834000       15.9994           0
     47495 TIP3     8350     TIP3     H1       HT       0.417000       1.00800           0
     47496 TIP3     8350     TIP3     H2       HT       0.417000       1.00800           0
     47497 TIP3     8351     TIP3     OH2      OT      -0.834000       15.9994           0
     47498 TIP3     8351     TIP3     H1       HT       0.417000       1.00800           0
     47499 TIP3     8351     TIP3     H2       HT       0.417000       1.00800           0
     47500 TIP3     8352     TIP3     OH2      OT      -0.834000       15.9994           0
     47501 TIP3     8352     TIP3     H1       HT       0.417000       1.00800           0
     47502 TIP3     8352     TIP3     H2       HT       0.417000       1.00800           0
     47503 TIP3     8353     TIP3     OH2      OT      -0.834000       15.9994           0
     47504 TIP3     8353     TIP3     H1       HT       0.417000       1.00800           0
     47505 TIP3     8353     TIP3     H2       HT       0.417000       1.00800           0
     47506 TIP3     8354     TIP3     OH2      OT      -0.834000       15.9994           0
     47507 TIP3     8354     TIP3     H1       HT       0.417000       1.00800           0
     47508 TIP3     8354     TIP3     H2       HT       0.417000       1.00800           0
     47509 TIP3     8355     TIP3     OH2      OT      -0.834000       15.9994           0
     47510 TIP3     8355     TIP3     H1       HT       0.417000       1.00800           0
     47511 TIP3     8355     TIP3     H2       HT       0.417000       1.00800           0
     47512 TIP3     8356     TIP3     OH2      OT      -0.834000       15.9994           0
     47513 TIP3     8356     TIP3     H1       HT       0.417000       1.00800           0
     47514 TIP3     8356     TIP3     H2       HT       0.417000       1.00800           0
     47515 TIP3     8357     TIP3     OH2      OT      -0.834000       15.9994           0
     47516 TIP3     8357     TIP3     H1       HT       0.417000       1.00800           0
     47517 TIP3     8357     TIP3     H2       HT       0.417000       1.00800           0
     47518 TIP3     8358     TIP3     OH2      OT      -0.834000       15.9994           0
     47519 TIP3     8358     TIP3     H1       HT       0.417000       1.00800           0
     47520 TIP3     8358     TIP3     H2       HT       0.417000       1.00800           0
     47521 TIP3     8359     TIP3     OH2      OT      -0.834000       15.9994           0
     47522 TIP3     8359     TIP3     H1       HT       0.417000       1.00800           0
     47523 TIP3     8359     TIP3     H2       HT       0.417000       1.00800           0
     47524 TIP3     8360     TIP3     OH2      OT      -0.834000       15.9994           0
     47525 TIP3     8360     TIP3     H1       HT       0.417000       1.00800           0
     47526 TIP3     8360     TIP3     H2       HT       0.417000       1.00800           0
     47527 TIP3     8361     TIP3     OH2      OT      -0.834000       15.9994           0
     47528 TIP3     8361     TIP3     H1       HT       0.417000       1.00800           0
     47529 TIP3     8361     TIP3     H2       HT       0.417000       1.00800           0
     47530 TIP3     8362     TIP3     OH2      OT      -0.834000       15.9994           0
     47531 TIP3     8362     TIP3     H1       HT       0.417000       1.00800           0
     47532 TIP3     8362     TIP3     H2       HT       0.417000       1.00800           0
     47533 TIP3     8363     TIP3     OH2      OT      -0.834000       15.9994           0
     47534 TIP3     8363     TIP3     H1       HT       0.417000       1.00800           0
     47535 TIP3     8363     TIP3     H2       HT       0.417000       1.00800           0
     47536 TIP3     8364     TIP3     OH2      OT      -0.834000       15.9994           0
     47537 TIP3     8364     TIP3     H1       HT       0.417000       1.00800           0
     47538 TIP3     8364     TIP3     H2       HT       0.417000       1.00800           0
     47539 TIP3     8365     TIP3     OH2      OT      -0.834000       15.9994           0
     47540 TIP3     8365     TIP3     H1       HT       0.417000       1.00800           0
     47541 TIP3     8365     TIP3     H2       HT       0.417000       1.00800           0
     47542 TIP3     8366     TIP3     OH2      OT      -0.834000       15.9994           0
     47543 TIP3     8366     TIP3     H1       HT       0.417000       1.00800           0
     47544 TIP3     8366     TIP3     H2       HT       0.417000       1.00800           0
     47545 TIP3     8367     TIP3     OH2      OT      -0.834000       15.9994           0
     47546 TIP3     8367     TIP3     H1       HT       0.417000       1.00800           0
     47547 TIP3     8367     TIP3     H2       HT       0.417000       1.00800           0
     47548 TIP3     8368     TIP3     OH2      OT      -0.834000       15.9994           0
     47549 TIP3     8368     TIP3     H1       HT       0.417000       1.00800           0
     47550 TIP3     8368     TIP3     H2       HT       0.417000       1.00800           0
     47551 TIP3     8369     TIP3     OH2      OT      -0.834000       15.9994           0
     47552 TIP3     8369     TIP3     H1       HT       0.417000       1.00800           0
     47553 TIP3     8369     TIP3     H2       HT       0.417000       1.00800           0
     47554 TIP3     8370     TIP3     OH2      OT      -0.834000       15.9994           0
     47555 TIP3     8370     TIP3     H1       HT       0.417000       1.00800           0
     47556 TIP3     8370     TIP3     H2       HT       0.417000       1.00800           0
     47557 TIP3     8371     TIP3     OH2      OT      -0.834000       15.9994           0
     47558 TIP3     8371     TIP3     H1       HT       0.417000       1.00800           0
     47559 TIP3     8371     TIP3     H2       HT       0.417000       1.00800           0
     47560 TIP3     8372     TIP3     OH2      OT      -0.834000       15.9994           0
     47561 TIP3     8372     TIP3     H1       HT       0.417000       1.00800           0
     47562 TIP3     8372     TIP3     H2       HT       0.417000       1.00800           0
     47563 TIP3     8373     TIP3     OH2      OT      -0.834000       15.9994           0
     47564 TIP3     8373     TIP3     H1       HT       0.417000       1.00800           0
     47565 TIP3     8373     TIP3     H2       HT       0.417000       1.00800           0
     47566 TIP3     8374     TIP3     OH2      OT      -0.834000       15.9994           0
     47567 TIP3     8374     TIP3     H1       HT       0.417000       1.00800           0
     47568 TIP3     8374     TIP3     H2       HT       0.417000       1.00800           0
     47569 TIP3     8375     TIP3     OH2      OT      -0.834000       15.9994           0
     47570 TIP3     8375     TIP3     H1       HT       0.417000       1.00800           0
     47571 TIP3     8375     TIP3     H2       HT       0.417000       1.00800           0
     47572 TIP3     8376     TIP3     OH2      OT      -0.834000       15.9994           0
     47573 TIP3     8376     TIP3     H1       HT       0.417000       1.00800           0
     47574 TIP3     8376     TIP3     H2       HT       0.417000       1.00800           0
     47575 TIP3     8377     TIP3     OH2      OT      -0.834000       15.9994           0
     47576 TIP3     8377     TIP3     H1       HT       0.417000       1.00800           0
     47577 TIP3     8377     TIP3     H2       HT       0.417000       1.00800           0
     47578 TIP3     8378     TIP3     OH2      OT      -0.834000       15.9994           0
     47579 TIP3     8378     TIP3     H1       HT       0.417000       1.00800           0
     47580 TIP3     8378     TIP3     H2       HT       0.417000       1.00800           0
     47581 TIP3     8379     TIP3     OH2      OT      -0.834000       15.9994           0
     47582 TIP3     8379     TIP3     H1       HT       0.417000       1.00800           0
     47583 TIP3     8379     TIP3     H2       HT       0.417000       1.00800           0
     47584 TIP3     8380     TIP3     OH2      OT      -0.834000       15.9994           0
     47585 TIP3     8380     TIP3     H1       HT       0.417000       1.00800           0
     47586 TIP3     8380     TIP3     H2       HT       0.417000       1.00800           0
     47587 TIP3     8381     TIP3     OH2      OT      -0.834000       15.9994           0
     47588 TIP3     8381     TIP3     H1       HT       0.417000       1.00800           0
     47589 TIP3     8381     TIP3     H2       HT       0.417000       1.00800           0
     47590 TIP3     8382     TIP3     OH2      OT      -0.834000       15.9994           0
     47591 TIP3     8382     TIP3     H1       HT       0.417000       1.00800           0
     47592 TIP3     8382     TIP3     H2       HT       0.417000       1.00800           0
     47593 TIP3     8383     TIP3     OH2      OT      -0.834000       15.9994           0
     47594 TIP3     8383     TIP3     H1       HT       0.417000       1.00800           0
     47595 TIP3     8383     TIP3     H2       HT       0.417000       1.00800           0
     47596 TIP3     8384     TIP3     OH2      OT      -0.834000       15.9994           0
     47597 TIP3     8384     TIP3     H1       HT       0.417000       1.00800           0
     47598 TIP3     8384     TIP3     H2       HT       0.417000       1.00800           0
     47599 TIP3     8385     TIP3     OH2      OT      -0.834000       15.9994           0
     47600 TIP3     8385     TIP3     H1       HT       0.417000       1.00800           0
     47601 TIP3     8385     TIP3     H2       HT       0.417000       1.00800           0
     47602 TIP3     8386     TIP3     OH2      OT      -0.834000       15.9994           0
     47603 TIP3     8386     TIP3     H1       HT       0.417000       1.00800           0
     47604 TIP3     8386     TIP3     H2       HT       0.417000       1.00800           0
     47605 TIP3     8387     TIP3     OH2      OT      -0.834000       15.9994           0
     47606 TIP3     8387     TIP3     H1       HT       0.417000       1.00800           0
     47607 TIP3     8387     TIP3     H2       HT       0.417000       1.00800           0
     47608 TIP3     8388     TIP3     OH2      OT      -0.834000       15.9994           0
     47609 TIP3     8388     TIP3     H1       HT       0.417000       1.00800           0
     47610 TIP3     8388     TIP3     H2       HT       0.417000       1.00800           0
     47611 TIP3     8389     TIP3     OH2      OT      -0.834000       15.9994           0
     47612 TIP3     8389     TIP3     H1       HT       0.417000       1.00800           0
     47613 TIP3     8389     TIP3     H2       HT       0.417000       1.00800           0
     47614 TIP3     8390     TIP3     OH2      OT      -0.834000       15.9994           0
     47615 TIP3     8390     TIP3     H1       HT       0.417000       1.00800           0
     47616 TIP3     8390     TIP3     H2       HT       0.417000       1.00800           0
     47617 TIP3     8391     TIP3     OH2      OT      -0.834000       15.9994           0
     47618 TIP3     8391     TIP3     H1       HT       0.417000       1.00800           0
     47619 TIP3     8391     TIP3     H2       HT       0.417000       1.00800           0
     47620 TIP3     8392     TIP3     OH2      OT      -0.834000       15.9994           0
     47621 TIP3     8392     TIP3     H1       HT       0.417000       1.00800           0
     47622 TIP3     8392     TIP3     H2       HT       0.417000       1.00800           0
     47623 TIP3     8393     TIP3     OH2      OT      -0.834000       15.9994           0
     47624 TIP3     8393     TIP3     H1       HT       0.417000       1.00800           0
     47625 TIP3     8393     TIP3     H2       HT       0.417000       1.00800           0
     47626 TIP3     8394     TIP3     OH2      OT      -0.834000       15.9994           0
     47627 TIP3     8394     TIP3     H1       HT       0.417000       1.00800           0
     47628 TIP3     8394     TIP3     H2       HT       0.417000       1.00800           0
     47629 TIP3     8395     TIP3     OH2      OT      -0.834000       15.9994           0
     47630 TIP3     8395     TIP3     H1       HT       0.417000       1.00800           0
     47631 TIP3     8395     TIP3     H2       HT       0.417000       1.00800           0
     47632 TIP3     8396     TIP3     OH2      OT      -0.834000       15.9994           0
     47633 TIP3     8396     TIP3     H1       HT       0.417000       1.00800           0
     47634 TIP3     8396     TIP3     H2       HT       0.417000       1.00800           0
     47635 TIP3     8397     TIP3     OH2      OT      -0.834000       15.9994           0
     47636 TIP3     8397     TIP3     H1       HT       0.417000       1.00800           0
     47637 TIP3     8397     TIP3     H2       HT       0.417000       1.00800           0
     47638 TIP3     8398     TIP3     OH2      OT      -0.834000       15.9994           0
     47639 TIP3     8398     TIP3     H1       HT       0.417000       1.00800           0
     47640 TIP3     8398     TIP3     H2       HT       0.417000       1.00800           0
     47641 TIP3     8399     TIP3     OH2      OT      -0.834000       15.9994           0
     47642 TIP3     8399     TIP3     H1       HT       0.417000       1.00800           0
     47643 TIP3     8399     TIP3     H2       HT       0.417000       1.00800           0
     47644 TIP3     8400     TIP3     OH2      OT      -0.834000       15.9994           0
     47645 TIP3     8400     TIP3     H1       HT       0.417000       1.00800           0
     47646 TIP3     8400     TIP3     H2       HT       0.417000       1.00800           0
     47647 TIP3     8401     TIP3     OH2      OT      -0.834000       15.9994           0
     47648 TIP3     8401     TIP3     H1       HT       0.417000       1.00800           0
     47649 TIP3     8401     TIP3     H2       HT       0.417000       1.00800           0
     47650 TIP3     8402     TIP3     OH2      OT      -0.834000       15.9994           0
     47651 TIP3     8402     TIP3     H1       HT       0.417000       1.00800           0
     47652 TIP3     8402     TIP3     H2       HT       0.417000       1.00800           0
     47653 TIP3     8403     TIP3     OH2      OT      -0.834000       15.9994           0
     47654 TIP3     8403     TIP3     H1       HT       0.417000       1.00800           0
     47655 TIP3     8403     TIP3     H2       HT       0.417000       1.00800           0
     47656 TIP3     8404     TIP3     OH2      OT      -0.834000       15.9994           0
     47657 TIP3     8404     TIP3     H1       HT       0.417000       1.00800           0
     47658 TIP3     8404     TIP3     H2       HT       0.417000       1.00800           0
     47659 TIP3     8405     TIP3     OH2      OT      -0.834000       15.9994           0
     47660 TIP3     8405     TIP3     H1       HT       0.417000       1.00800           0
     47661 TIP3     8405     TIP3     H2       HT       0.417000       1.00800           0
     47662 TIP3     8406     TIP3     OH2      OT      -0.834000       15.9994           0
     47663 TIP3     8406     TIP3     H1       HT       0.417000       1.00800           0
     47664 TIP3     8406     TIP3     H2       HT       0.417000       1.00800           0
     47665 TIP3     8407     TIP3     OH2      OT      -0.834000       15.9994           0
     47666 TIP3     8407     TIP3     H1       HT       0.417000       1.00800           0
     47667 TIP3     8407     TIP3     H2       HT       0.417000       1.00800           0
     47668 TIP3     8408     TIP3     OH2      OT      -0.834000       15.9994           0
     47669 TIP3     8408     TIP3     H1       HT       0.417000       1.00800           0
     47670 TIP3     8408     TIP3     H2       HT       0.417000       1.00800           0
     47671 TIP3     8409     TIP3     OH2      OT      -0.834000       15.9994           0
     47672 TIP3     8409     TIP3     H1       HT       0.417000       1.00800           0
     47673 TIP3     8409     TIP3     H2       HT       0.417000       1.00800           0
     47674 TIP3     8410     TIP3     OH2      OT      -0.834000       15.9994           0
     47675 TIP3     8410     TIP3     H1       HT       0.417000       1.00800           0
     47676 TIP3     8410     TIP3     H2       HT       0.417000       1.00800           0
     47677 TIP3     8411     TIP3     OH2      OT      -0.834000       15.9994           0
     47678 TIP3     8411     TIP3     H1       HT       0.417000       1.00800           0
     47679 TIP3     8411     TIP3     H2       HT       0.417000       1.00800           0
     47680 TIP3     8412     TIP3     OH2      OT      -0.834000       15.9994           0
     47681 TIP3     8412     TIP3     H1       HT       0.417000       1.00800           0
     47682 TIP3     8412     TIP3     H2       HT       0.417000       1.00800           0
     47683 TIP3     8413     TIP3     OH2      OT      -0.834000       15.9994           0
     47684 TIP3     8413     TIP3     H1       HT       0.417000       1.00800           0
     47685 TIP3     8413     TIP3     H2       HT       0.417000       1.00800           0
     47686 TIP3     8414     TIP3     OH2      OT      -0.834000       15.9994           0
     47687 TIP3     8414     TIP3     H1       HT       0.417000       1.00800           0
     47688 TIP3     8414     TIP3     H2       HT       0.417000       1.00800           0
     47689 TIP3     8415     TIP3     OH2      OT      -0.834000       15.9994           0
     47690 TIP3     8415     TIP3     H1       HT       0.417000       1.00800           0
     47691 TIP3     8415     TIP3     H2       HT       0.417000       1.00800           0
     47692 TIP3     8416     TIP3     OH2      OT      -0.834000       15.9994           0
     47693 TIP3     8416     TIP3     H1       HT       0.417000       1.00800           0
     47694 TIP3     8416     TIP3     H2       HT       0.417000       1.00800           0
     47695 TIP3     8417     TIP3     OH2      OT      -0.834000       15.9994           0
     47696 TIP3     8417     TIP3     H1       HT       0.417000       1.00800           0
     47697 TIP3     8417     TIP3     H2       HT       0.417000       1.00800           0
     47698 TIP3     8418     TIP3     OH2      OT      -0.834000       15.9994           0
     47699 TIP3     8418     TIP3     H1       HT       0.417000       1.00800           0
     47700 TIP3     8418     TIP3     H2       HT       0.417000       1.00800           0
     47701 TIP3     8419     TIP3     OH2      OT      -0.834000       15.9994           0
     47702 TIP3     8419     TIP3     H1       HT       0.417000       1.00800           0
     47703 TIP3     8419     TIP3     H2       HT       0.417000       1.00800           0
     47704 TIP3     8420     TIP3     OH2      OT      -0.834000       15.9994           0
     47705 TIP3     8420     TIP3     H1       HT       0.417000       1.00800           0
     47706 TIP3     8420     TIP3     H2       HT       0.417000       1.00800           0
     47707 TIP3     8421     TIP3     OH2      OT      -0.834000       15.9994           0
     47708 TIP3     8421     TIP3     H1       HT       0.417000       1.00800           0
     47709 TIP3     8421     TIP3     H2       HT       0.417000       1.00800           0
     47710 TIP3     8422     TIP3     OH2      OT      -0.834000       15.9994           0
     47711 TIP3     8422     TIP3     H1       HT       0.417000       1.00800           0
     47712 TIP3     8422     TIP3     H2       HT       0.417000       1.00800           0
     47713 TIP3     8423     TIP3     OH2      OT      -0.834000       15.9994           0
     47714 TIP3     8423     TIP3     H1       HT       0.417000       1.00800           0
     47715 TIP3     8423     TIP3     H2       HT       0.417000       1.00800           0
     47716 TIP3     8424     TIP3     OH2      OT      -0.834000       15.9994           0
     47717 TIP3     8424     TIP3     H1       HT       0.417000       1.00800           0
     47718 TIP3     8424     TIP3     H2       HT       0.417000       1.00800           0
     47719 TIP3     8425     TIP3     OH2      OT      -0.834000       15.9994           0
     47720 TIP3     8425     TIP3     H1       HT       0.417000       1.00800           0
     47721 TIP3     8425     TIP3     H2       HT       0.417000       1.00800           0
     47722 TIP3     8426     TIP3     OH2      OT      -0.834000       15.9994           0
     47723 TIP3     8426     TIP3     H1       HT       0.417000       1.00800           0
     47724 TIP3     8426     TIP3     H2       HT       0.417000       1.00800           0
     47725 TIP3     8427     TIP3     OH2      OT      -0.834000       15.9994           0
     47726 TIP3     8427     TIP3     H1       HT       0.417000       1.00800           0
     47727 TIP3     8427     TIP3     H2       HT       0.417000       1.00800           0
     47728 TIP3     8428     TIP3     OH2      OT      -0.834000       15.9994           0
     47729 TIP3     8428     TIP3     H1       HT       0.417000       1.00800           0
     47730 TIP3     8428     TIP3     H2       HT       0.417000       1.00800           0
     47731 TIP3     8429     TIP3     OH2      OT      -0.834000       15.9994           0
     47732 TIP3     8429     TIP3     H1       HT       0.417000       1.00800           0
     47733 TIP3     8429     TIP3     H2       HT       0.417000       1.00800           0
     47734 TIP3     8430     TIP3     OH2      OT      -0.834000       15.9994           0
     47735 TIP3     8430     TIP3     H1       HT       0.417000       1.00800           0
     47736 TIP3     8430     TIP3     H2       HT       0.417000       1.00800           0
     47737 TIP3     8431     TIP3     OH2      OT      -0.834000       15.9994           0
     47738 TIP3     8431     TIP3     H1       HT       0.417000       1.00800           0
     47739 TIP3     8431     TIP3     H2       HT       0.417000       1.00800           0
     47740 TIP3     8432     TIP3     OH2      OT      -0.834000       15.9994           0
     47741 TIP3     8432     TIP3     H1       HT       0.417000       1.00800           0
     47742 TIP3     8432     TIP3     H2       HT       0.417000       1.00800           0
     47743 TIP3     8433     TIP3     OH2      OT      -0.834000       15.9994           0
     47744 TIP3     8433     TIP3     H1       HT       0.417000       1.00800           0
     47745 TIP3     8433     TIP3     H2       HT       0.417000       1.00800           0
     47746 TIP3     8434     TIP3     OH2      OT      -0.834000       15.9994           0
     47747 TIP3     8434     TIP3     H1       HT       0.417000       1.00800           0
     47748 TIP3     8434     TIP3     H2       HT       0.417000       1.00800           0
     47749 TIP3     8435     TIP3     OH2      OT      -0.834000       15.9994           0
     47750 TIP3     8435     TIP3     H1       HT       0.417000       1.00800           0
     47751 TIP3     8435     TIP3     H2       HT       0.417000       1.00800           0
     47752 TIP3     8436     TIP3     OH2      OT      -0.834000       15.9994           0
     47753 TIP3     8436     TIP3     H1       HT       0.417000       1.00800           0
     47754 TIP3     8436     TIP3     H2       HT       0.417000       1.00800           0
     47755 TIP3     8437     TIP3     OH2      OT      -0.834000       15.9994           0
     47756 TIP3     8437     TIP3     H1       HT       0.417000       1.00800           0
     47757 TIP3     8437     TIP3     H2       HT       0.417000       1.00800           0
     47758 TIP3     8438     TIP3     OH2      OT      -0.834000       15.9994           0
     47759 TIP3     8438     TIP3     H1       HT       0.417000       1.00800           0
     47760 TIP3     8438     TIP3     H2       HT       0.417000       1.00800           0
     47761 TIP3     8439     TIP3     OH2      OT      -0.834000       15.9994           0
     47762 TIP3     8439     TIP3     H1       HT       0.417000       1.00800           0
     47763 TIP3     8439     TIP3     H2       HT       0.417000       1.00800           0
     47764 TIP3     8440     TIP3     OH2      OT      -0.834000       15.9994           0
     47765 TIP3     8440     TIP3     H1       HT       0.417000       1.00800           0
     47766 TIP3     8440     TIP3     H2       HT       0.417000       1.00800           0
     47767 TIP3     8441     TIP3     OH2      OT      -0.834000       15.9994           0
     47768 TIP3     8441     TIP3     H1       HT       0.417000       1.00800           0
     47769 TIP3     8441     TIP3     H2       HT       0.417000       1.00800           0
     47770 TIP3     8442     TIP3     OH2      OT      -0.834000       15.9994           0
     47771 TIP3     8442     TIP3     H1       HT       0.417000       1.00800           0
     47772 TIP3     8442     TIP3     H2       HT       0.417000       1.00800           0
     47773 TIP3     8443     TIP3     OH2      OT      -0.834000       15.9994           0
     47774 TIP3     8443     TIP3     H1       HT       0.417000       1.00800           0
     47775 TIP3     8443     TIP3     H2       HT       0.417000       1.00800           0
     47776 TIP3     8444     TIP3     OH2      OT      -0.834000       15.9994           0
     47777 TIP3     8444     TIP3     H1       HT       0.417000       1.00800           0
     47778 TIP3     8444     TIP3     H2       HT       0.417000       1.00800           0
     47779 TIP3     8445     TIP3     OH2      OT      -0.834000       15.9994           0
     47780 TIP3     8445     TIP3     H1       HT       0.417000       1.00800           0
     47781 TIP3     8445     TIP3     H2       HT       0.417000       1.00800           0
     47782 TIP3     8446     TIP3     OH2      OT      -0.834000       15.9994           0
     47783 TIP3     8446     TIP3     H1       HT       0.417000       1.00800           0
     47784 TIP3     8446     TIP3     H2       HT       0.417000       1.00800           0
     47785 TIP3     8447     TIP3     OH2      OT      -0.834000       15.9994           0
     47786 TIP3     8447     TIP3     H1       HT       0.417000       1.00800           0
     47787 TIP3     8447     TIP3     H2       HT       0.417000       1.00800           0
     47788 TIP3     8448     TIP3     OH2      OT      -0.834000       15.9994           0
     47789 TIP3     8448     TIP3     H1       HT       0.417000       1.00800           0
     47790 TIP3     8448     TIP3     H2       HT       0.417000       1.00800           0
     47791 TIP3     8449     TIP3     OH2      OT      -0.834000       15.9994           0
     47792 TIP3     8449     TIP3     H1       HT       0.417000       1.00800           0
     47793 TIP3     8449     TIP3     H2       HT       0.417000       1.00800           0
     47794 TIP3     8450     TIP3     OH2      OT      -0.834000       15.9994           0
     47795 TIP3     8450     TIP3     H1       HT       0.417000       1.00800           0
     47796 TIP3     8450     TIP3     H2       HT       0.417000       1.00800           0
     47797 TIP3     8451     TIP3     OH2      OT      -0.834000       15.9994           0
     47798 TIP3     8451     TIP3     H1       HT       0.417000       1.00800           0
     47799 TIP3     8451     TIP3     H2       HT       0.417000       1.00800           0
     47800 TIP3     8452     TIP3     OH2      OT      -0.834000       15.9994           0
     47801 TIP3     8452     TIP3     H1       HT       0.417000       1.00800           0
     47802 TIP3     8452     TIP3     H2       HT       0.417000       1.00800           0
     47803 TIP3     8453     TIP3     OH2      OT      -0.834000       15.9994           0
     47804 TIP3     8453     TIP3     H1       HT       0.417000       1.00800           0
     47805 TIP3     8453     TIP3     H2       HT       0.417000       1.00800           0
     47806 TIP3     8454     TIP3     OH2      OT      -0.834000       15.9994           0
     47807 TIP3     8454     TIP3     H1       HT       0.417000       1.00800           0
     47808 TIP3     8454     TIP3     H2       HT       0.417000       1.00800           0
     47809 TIP3     8455     TIP3     OH2      OT      -0.834000       15.9994           0
     47810 TIP3     8455     TIP3     H1       HT       0.417000       1.00800           0
     47811 TIP3     8455     TIP3     H2       HT       0.417000       1.00800           0
     47812 TIP3     8456     TIP3     OH2      OT      -0.834000       15.9994           0
     47813 TIP3     8456     TIP3     H1       HT       0.417000       1.00800           0
     47814 TIP3     8456     TIP3     H2       HT       0.417000       1.00800           0
     47815 TIP3     8457     TIP3     OH2      OT      -0.834000       15.9994           0
     47816 TIP3     8457     TIP3     H1       HT       0.417000       1.00800           0
     47817 TIP3     8457     TIP3     H2       HT       0.417000       1.00800           0
     47818 TIP3     8458     TIP3     OH2      OT      -0.834000       15.9994           0
     47819 TIP3     8458     TIP3     H1       HT       0.417000       1.00800           0
     47820 TIP3     8458     TIP3     H2       HT       0.417000       1.00800           0
     47821 TIP3     8459     TIP3     OH2      OT      -0.834000       15.9994           0
     47822 TIP3     8459     TIP3     H1       HT       0.417000       1.00800           0
     47823 TIP3     8459     TIP3     H2       HT       0.417000       1.00800           0
     47824 TIP3     8460     TIP3     OH2      OT      -0.834000       15.9994           0
     47825 TIP3     8460     TIP3     H1       HT       0.417000       1.00800           0
     47826 TIP3     8460     TIP3     H2       HT       0.417000       1.00800           0
     47827 TIP3     8461     TIP3     OH2      OT      -0.834000       15.9994           0
     47828 TIP3     8461     TIP3     H1       HT       0.417000       1.00800           0
     47829 TIP3     8461     TIP3     H2       HT       0.417000       1.00800           0
     47830 TIP3     8462     TIP3     OH2      OT      -0.834000       15.9994           0
     47831 TIP3     8462     TIP3     H1       HT       0.417000       1.00800           0
     47832 TIP3     8462     TIP3     H2       HT       0.417000       1.00800           0
     47833 TIP3     8463     TIP3     OH2      OT      -0.834000       15.9994           0
     47834 TIP3     8463     TIP3     H1       HT       0.417000       1.00800           0
     47835 TIP3     8463     TIP3     H2       HT       0.417000       1.00800           0
     47836 TIP3     8464     TIP3     OH2      OT      -0.834000       15.9994           0
     47837 TIP3     8464     TIP3     H1       HT       0.417000       1.00800           0
     47838 TIP3     8464     TIP3     H2       HT       0.417000       1.00800           0
     47839 TIP3     8465     TIP3     OH2      OT      -0.834000       15.9994           0
     47840 TIP3     8465     TIP3     H1       HT       0.417000       1.00800           0
     47841 TIP3     8465     TIP3     H2       HT       0.417000       1.00800           0
     47842 TIP3     8466     TIP3     OH2      OT      -0.834000       15.9994           0
     47843 TIP3     8466     TIP3     H1       HT       0.417000       1.00800           0
     47844 TIP3     8466     TIP3     H2       HT       0.417000       1.00800           0
     47845 TIP3     8467     TIP3     OH2      OT      -0.834000       15.9994           0
     47846 TIP3     8467     TIP3     H1       HT       0.417000       1.00800           0
     47847 TIP3     8467     TIP3     H2       HT       0.417000       1.00800           0
     47848 TIP3     8468     TIP3     OH2      OT      -0.834000       15.9994           0
     47849 TIP3     8468     TIP3     H1       HT       0.417000       1.00800           0
     47850 TIP3     8468     TIP3     H2       HT       0.417000       1.00800           0
     47851 TIP3     8469     TIP3     OH2      OT      -0.834000       15.9994           0
     47852 TIP3     8469     TIP3     H1       HT       0.417000       1.00800           0
     47853 TIP3     8469     TIP3     H2       HT       0.417000       1.00800           0
     47854 TIP3     8470     TIP3     OH2      OT      -0.834000       15.9994           0
     47855 TIP3     8470     TIP3     H1       HT       0.417000       1.00800           0
     47856 TIP3     8470     TIP3     H2       HT       0.417000       1.00800           0
     47857 TIP3     8471     TIP3     OH2      OT      -0.834000       15.9994           0
     47858 TIP3     8471     TIP3     H1       HT       0.417000       1.00800           0
     47859 TIP3     8471     TIP3     H2       HT       0.417000       1.00800           0
     47860 TIP3     8472     TIP3     OH2      OT      -0.834000       15.9994           0
     47861 TIP3     8472     TIP3     H1       HT       0.417000       1.00800           0
     47862 TIP3     8472     TIP3     H2       HT       0.417000       1.00800           0
     47863 TIP3     8473     TIP3     OH2      OT      -0.834000       15.9994           0
     47864 TIP3     8473     TIP3     H1       HT       0.417000       1.00800           0
     47865 TIP3     8473     TIP3     H2       HT       0.417000       1.00800           0
     47866 TIP3     8474     TIP3     OH2      OT      -0.834000       15.9994           0
     47867 TIP3     8474     TIP3     H1       HT       0.417000       1.00800           0
     47868 TIP3     8474     TIP3     H2       HT       0.417000       1.00800           0
     47869 TIP3     8475     TIP3     OH2      OT      -0.834000       15.9994           0
     47870 TIP3     8475     TIP3     H1       HT       0.417000       1.00800           0
     47871 TIP3     8475     TIP3     H2       HT       0.417000       1.00800           0
     47872 TIP3     8476     TIP3     OH2      OT      -0.834000       15.9994           0
     47873 TIP3     8476     TIP3     H1       HT       0.417000       1.00800           0
     47874 TIP3     8476     TIP3     H2       HT       0.417000       1.00800           0
     47875 TIP3     8477     TIP3     OH2      OT      -0.834000       15.9994           0
     47876 TIP3     8477     TIP3     H1       HT       0.417000       1.00800           0
     47877 TIP3     8477     TIP3     H2       HT       0.417000       1.00800           0
     47878 TIP3     8478     TIP3     OH2      OT      -0.834000       15.9994           0
     47879 TIP3     8478     TIP3     H1       HT       0.417000       1.00800           0
     47880 TIP3     8478     TIP3     H2       HT       0.417000       1.00800           0
     47881 TIP3     8479     TIP3     OH2      OT      -0.834000       15.9994           0
     47882 TIP3     8479     TIP3     H1       HT       0.417000       1.00800           0
     47883 TIP3     8479     TIP3     H2       HT       0.417000       1.00800           0
     47884 TIP3     8480     TIP3     OH2      OT      -0.834000       15.9994           0
     47885 TIP3     8480     TIP3     H1       HT       0.417000       1.00800           0
     47886 TIP3     8480     TIP3     H2       HT       0.417000       1.00800           0
     47887 TIP3     8481     TIP3     OH2      OT      -0.834000       15.9994           0
     47888 TIP3     8481     TIP3     H1       HT       0.417000       1.00800           0
     47889 TIP3     8481     TIP3     H2       HT       0.417000       1.00800           0
     47890 TIP3     8482     TIP3     OH2      OT      -0.834000       15.9994           0
     47891 TIP3     8482     TIP3     H1       HT       0.417000       1.00800           0
     47892 TIP3     8482     TIP3     H2       HT       0.417000       1.00800           0
     47893 TIP3     8483     TIP3     OH2      OT      -0.834000       15.9994           0
     47894 TIP3     8483     TIP3     H1       HT       0.417000       1.00800           0
     47895 TIP3     8483     TIP3     H2       HT       0.417000       1.00800           0
     47896 TIP3     8484     TIP3     OH2      OT      -0.834000       15.9994           0
     47897 TIP3     8484     TIP3     H1       HT       0.417000       1.00800           0
     47898 TIP3     8484     TIP3     H2       HT       0.417000       1.00800           0
     47899 TIP3     8485     TIP3     OH2      OT      -0.834000       15.9994           0
     47900 TIP3     8485     TIP3     H1       HT       0.417000       1.00800           0
     47901 TIP3     8485     TIP3     H2       HT       0.417000       1.00800           0
     47902 TIP3     8486     TIP3     OH2      OT      -0.834000       15.9994           0
     47903 TIP3     8486     TIP3     H1       HT       0.417000       1.00800           0
     47904 TIP3     8486     TIP3     H2       HT       0.417000       1.00800           0
     47905 TIP3     8487     TIP3     OH2      OT      -0.834000       15.9994           0
     47906 TIP3     8487     TIP3     H1       HT       0.417000       1.00800           0
     47907 TIP3     8487     TIP3     H2       HT       0.417000       1.00800           0
     47908 TIP3     8488     TIP3     OH2      OT      -0.834000       15.9994           0
     47909 TIP3     8488     TIP3     H1       HT       0.417000       1.00800           0
     47910 TIP3     8488     TIP3     H2       HT       0.417000       1.00800           0
     47911 TIP3     8489     TIP3     OH2      OT      -0.834000       15.9994           0
     47912 TIP3     8489     TIP3     H1       HT       0.417000       1.00800           0
     47913 TIP3     8489     TIP3     H2       HT       0.417000       1.00800           0
     47914 TIP3     8490     TIP3     OH2      OT      -0.834000       15.9994           0
     47915 TIP3     8490     TIP3     H1       HT       0.417000       1.00800           0
     47916 TIP3     8490     TIP3     H2       HT       0.417000       1.00800           0
     47917 TIP3     8491     TIP3     OH2      OT      -0.834000       15.9994           0
     47918 TIP3     8491     TIP3     H1       HT       0.417000       1.00800           0
     47919 TIP3     8491     TIP3     H2       HT       0.417000       1.00800           0
     47920 TIP3     8492     TIP3     OH2      OT      -0.834000       15.9994           0
     47921 TIP3     8492     TIP3     H1       HT       0.417000       1.00800           0
     47922 TIP3     8492     TIP3     H2       HT       0.417000       1.00800           0
     47923 TIP3     8493     TIP3     OH2      OT      -0.834000       15.9994           0
     47924 TIP3     8493     TIP3     H1       HT       0.417000       1.00800           0
     47925 TIP3     8493     TIP3     H2       HT       0.417000       1.00800           0
     47926 TIP3     8494     TIP3     OH2      OT      -0.834000       15.9994           0
     47927 TIP3     8494     TIP3     H1       HT       0.417000       1.00800           0
     47928 TIP3     8494     TIP3     H2       HT       0.417000       1.00800           0
     47929 TIP3     8495     TIP3     OH2      OT      -0.834000       15.9994           0
     47930 TIP3     8495     TIP3     H1       HT       0.417000       1.00800           0
     47931 TIP3     8495     TIP3     H2       HT       0.417000       1.00800           0
     47932 TIP3     8496     TIP3     OH2      OT      -0.834000       15.9994           0
     47933 TIP3     8496     TIP3     H1       HT       0.417000       1.00800           0
     47934 TIP3     8496     TIP3     H2       HT       0.417000       1.00800           0
     47935 TIP3     8497     TIP3     OH2      OT      -0.834000       15.9994           0
     47936 TIP3     8497     TIP3     H1       HT       0.417000       1.00800           0
     47937 TIP3     8497     TIP3     H2       HT       0.417000       1.00800           0
     47938 TIP3     8498     TIP3     OH2      OT      -0.834000       15.9994           0
     47939 TIP3     8498     TIP3     H1       HT       0.417000       1.00800           0
     47940 TIP3     8498     TIP3     H2       HT       0.417000       1.00800           0
     47941 TIP3     8499     TIP3     OH2      OT      -0.834000       15.9994           0
     47942 TIP3     8499     TIP3     H1       HT       0.417000       1.00800           0
     47943 TIP3     8499     TIP3     H2       HT       0.417000       1.00800           0
     47944 TIP3     8500     TIP3     OH2      OT      -0.834000       15.9994           0
     47945 TIP3     8500     TIP3     H1       HT       0.417000       1.00800           0
     47946 TIP3     8500     TIP3     H2       HT       0.417000       1.00800           0
     47947 TIP3     8501     TIP3     OH2      OT      -0.834000       15.9994           0
     47948 TIP3     8501     TIP3     H1       HT       0.417000       1.00800           0
     47949 TIP3     8501     TIP3     H2       HT       0.417000       1.00800           0
     47950 TIP3     8502     TIP3     OH2      OT      -0.834000       15.9994           0
     47951 TIP3     8502     TIP3     H1       HT       0.417000       1.00800           0
     47952 TIP3     8502     TIP3     H2       HT       0.417000       1.00800           0
     47953 TIP3     8503     TIP3     OH2      OT      -0.834000       15.9994           0
     47954 TIP3     8503     TIP3     H1       HT       0.417000       1.00800           0
     47955 TIP3     8503     TIP3     H2       HT       0.417000       1.00800           0
     47956 TIP3     8504     TIP3     OH2      OT      -0.834000       15.9994           0
     47957 TIP3     8504     TIP3     H1       HT       0.417000       1.00800           0
     47958 TIP3     8504     TIP3     H2       HT       0.417000       1.00800           0
     47959 TIP3     8505     TIP3     OH2      OT      -0.834000       15.9994           0
     47960 TIP3     8505     TIP3     H1       HT       0.417000       1.00800           0
     47961 TIP3     8505     TIP3     H2       HT       0.417000       1.00800           0
     47962 TIP3     8506     TIP3     OH2      OT      -0.834000       15.9994           0
     47963 TIP3     8506     TIP3     H1       HT       0.417000       1.00800           0
     47964 TIP3     8506     TIP3     H2       HT       0.417000       1.00800           0
     47965 TIP3     8507     TIP3     OH2      OT      -0.834000       15.9994           0
     47966 TIP3     8507     TIP3     H1       HT       0.417000       1.00800           0
     47967 TIP3     8507     TIP3     H2       HT       0.417000       1.00800           0
     47968 TIP3     8508     TIP3     OH2      OT      -0.834000       15.9994           0
     47969 TIP3     8508     TIP3     H1       HT       0.417000       1.00800           0
     47970 TIP3     8508     TIP3     H2       HT       0.417000       1.00800           0
     47971 TIP3     8509     TIP3     OH2      OT      -0.834000       15.9994           0
     47972 TIP3     8509     TIP3     H1       HT       0.417000       1.00800           0
     47973 TIP3     8509     TIP3     H2       HT       0.417000       1.00800           0
     47974 TIP3     8510     TIP3     OH2      OT      -0.834000       15.9994           0
     47975 TIP3     8510     TIP3     H1       HT       0.417000       1.00800           0
     47976 TIP3     8510     TIP3     H2       HT       0.417000       1.00800           0
     47977 TIP3     8511     TIP3     OH2      OT      -0.834000       15.9994           0
     47978 TIP3     8511     TIP3     H1       HT       0.417000       1.00800           0
     47979 TIP3     8511     TIP3     H2       HT       0.417000       1.00800           0
     47980 TIP3     8512     TIP3     OH2      OT      -0.834000       15.9994           0
     47981 TIP3     8512     TIP3     H1       HT       0.417000       1.00800           0
     47982 TIP3     8512     TIP3     H2       HT       0.417000       1.00800           0
     47983 TIP3     8513     TIP3     OH2      OT      -0.834000       15.9994           0
     47984 TIP3     8513     TIP3     H1       HT       0.417000       1.00800           0
     47985 TIP3     8513     TIP3     H2       HT       0.417000       1.00800           0
     47986 TIP3     8514     TIP3     OH2      OT      -0.834000       15.9994           0
     47987 TIP3     8514     TIP3     H1       HT       0.417000       1.00800           0
     47988 TIP3     8514     TIP3     H2       HT       0.417000       1.00800           0
     47989 TIP3     8515     TIP3     OH2      OT      -0.834000       15.9994           0
     47990 TIP3     8515     TIP3     H1       HT       0.417000       1.00800           0
     47991 TIP3     8515     TIP3     H2       HT       0.417000       1.00800           0
     47992 TIP3     8516     TIP3     OH2      OT      -0.834000       15.9994           0
     47993 TIP3     8516     TIP3     H1       HT       0.417000       1.00800           0
     47994 TIP3     8516     TIP3     H2       HT       0.417000       1.00800           0
     47995 TIP3     8517     TIP3     OH2      OT      -0.834000       15.9994           0
     47996 TIP3     8517     TIP3     H1       HT       0.417000       1.00800           0
     47997 TIP3     8517     TIP3     H2       HT       0.417000       1.00800           0
     47998 TIP3     8518     TIP3     OH2      OT      -0.834000       15.9994           0
     47999 TIP3     8518     TIP3     H1       HT       0.417000       1.00800           0
     48000 TIP3     8518     TIP3     H2       HT       0.417000       1.00800           0
     48001 TIP3     8519     TIP3     OH2      OT      -0.834000       15.9994           0
     48002 TIP3     8519     TIP3     H1       HT       0.417000       1.00800           0
     48003 TIP3     8519     TIP3     H2       HT       0.417000       1.00800           0
     48004 TIP3     8520     TIP3     OH2      OT      -0.834000       15.9994           0
     48005 TIP3     8520     TIP3     H1       HT       0.417000       1.00800           0
     48006 TIP3     8520     TIP3     H2       HT       0.417000       1.00800           0
     48007 TIP3     8521     TIP3     OH2      OT      -0.834000       15.9994           0
     48008 TIP3     8521     TIP3     H1       HT       0.417000       1.00800           0
     48009 TIP3     8521     TIP3     H2       HT       0.417000       1.00800           0
     48010 TIP3     8522     TIP3     OH2      OT      -0.834000       15.9994           0
     48011 TIP3     8522     TIP3     H1       HT       0.417000       1.00800           0
     48012 TIP3     8522     TIP3     H2       HT       0.417000       1.00800           0
     48013 TIP3     8523     TIP3     OH2      OT      -0.834000       15.9994           0
     48014 TIP3     8523     TIP3     H1       HT       0.417000       1.00800           0
     48015 TIP3     8523     TIP3     H2       HT       0.417000       1.00800           0
     48016 TIP3     8524     TIP3     OH2      OT      -0.834000       15.9994           0
     48017 TIP3     8524     TIP3     H1       HT       0.417000       1.00800           0
     48018 TIP3     8524     TIP3     H2       HT       0.417000       1.00800           0
     48019 TIP3     8525     TIP3     OH2      OT      -0.834000       15.9994           0
     48020 TIP3     8525     TIP3     H1       HT       0.417000       1.00800           0
     48021 TIP3     8525     TIP3     H2       HT       0.417000       1.00800           0
     48022 TIP3     8526     TIP3     OH2      OT      -0.834000       15.9994           0
     48023 TIP3     8526     TIP3     H1       HT       0.417000       1.00800           0
     48024 TIP3     8526     TIP3     H2       HT       0.417000       1.00800           0
     48025 TIP3     8527     TIP3     OH2      OT      -0.834000       15.9994           0
     48026 TIP3     8527     TIP3     H1       HT       0.417000       1.00800           0
     48027 TIP3     8527     TIP3     H2       HT       0.417000       1.00800           0
     48028 TIP3     8528     TIP3     OH2      OT      -0.834000       15.9994           0
     48029 TIP3     8528     TIP3     H1       HT       0.417000       1.00800           0
     48030 TIP3     8528     TIP3     H2       HT       0.417000       1.00800           0
     48031 TIP3     8529     TIP3     OH2      OT      -0.834000       15.9994           0
     48032 TIP3     8529     TIP3     H1       HT       0.417000       1.00800           0
     48033 TIP3     8529     TIP3     H2       HT       0.417000       1.00800           0
     48034 TIP3     8530     TIP3     OH2      OT      -0.834000       15.9994           0
     48035 TIP3     8530     TIP3     H1       HT       0.417000       1.00800           0
     48036 TIP3     8530     TIP3     H2       HT       0.417000       1.00800           0
     48037 TIP3     8531     TIP3     OH2      OT      -0.834000       15.9994           0
     48038 TIP3     8531     TIP3     H1       HT       0.417000       1.00800           0
     48039 TIP3     8531     TIP3     H2       HT       0.417000       1.00800           0
     48040 TIP3     8532     TIP3     OH2      OT      -0.834000       15.9994           0
     48041 TIP3     8532     TIP3     H1       HT       0.417000       1.00800           0
     48042 TIP3     8532     TIP3     H2       HT       0.417000       1.00800           0
     48043 TIP3     8533     TIP3     OH2      OT      -0.834000       15.9994           0
     48044 TIP3     8533     TIP3     H1       HT       0.417000       1.00800           0
     48045 TIP3     8533     TIP3     H2       HT       0.417000       1.00800           0
     48046 TIP3     8534     TIP3     OH2      OT      -0.834000       15.9994           0
     48047 TIP3     8534     TIP3     H1       HT       0.417000       1.00800           0
     48048 TIP3     8534     TIP3     H2       HT       0.417000       1.00800           0
     48049 TIP3     8535     TIP3     OH2      OT      -0.834000       15.9994           0
     48050 TIP3     8535     TIP3     H1       HT       0.417000       1.00800           0
     48051 TIP3     8535     TIP3     H2       HT       0.417000       1.00800           0
     48052 TIP3     8536     TIP3     OH2      OT      -0.834000       15.9994           0
     48053 TIP3     8536     TIP3     H1       HT       0.417000       1.00800           0
     48054 TIP3     8536     TIP3     H2       HT       0.417000       1.00800           0
     48055 TIP3     8537     TIP3     OH2      OT      -0.834000       15.9994           0
     48056 TIP3     8537     TIP3     H1       HT       0.417000       1.00800           0
     48057 TIP3     8537     TIP3     H2       HT       0.417000       1.00800           0
     48058 TIP3     8538     TIP3     OH2      OT      -0.834000       15.9994           0
     48059 TIP3     8538     TIP3     H1       HT       0.417000       1.00800           0
     48060 TIP3     8538     TIP3     H2       HT       0.417000       1.00800           0
     48061 TIP3     8539     TIP3     OH2      OT      -0.834000       15.9994           0
     48062 TIP3     8539     TIP3     H1       HT       0.417000       1.00800           0
     48063 TIP3     8539     TIP3     H2       HT       0.417000       1.00800           0
     48064 TIP3     8540     TIP3     OH2      OT      -0.834000       15.9994           0
     48065 TIP3     8540     TIP3     H1       HT       0.417000       1.00800           0
     48066 TIP3     8540     TIP3     H2       HT       0.417000       1.00800           0
     48067 TIP3     8541     TIP3     OH2      OT      -0.834000       15.9994           0
     48068 TIP3     8541     TIP3     H1       HT       0.417000       1.00800           0
     48069 TIP3     8541     TIP3     H2       HT       0.417000       1.00800           0
     48070 TIP3     8542     TIP3     OH2      OT      -0.834000       15.9994           0
     48071 TIP3     8542     TIP3     H1       HT       0.417000       1.00800           0
     48072 TIP3     8542     TIP3     H2       HT       0.417000       1.00800           0
     48073 TIP3     8543     TIP3     OH2      OT      -0.834000       15.9994           0
     48074 TIP3     8543     TIP3     H1       HT       0.417000       1.00800           0
     48075 TIP3     8543     TIP3     H2       HT       0.417000       1.00800           0
     48076 TIP3     8544     TIP3     OH2      OT      -0.834000       15.9994           0
     48077 TIP3     8544     TIP3     H1       HT       0.417000       1.00800           0
     48078 TIP3     8544     TIP3     H2       HT       0.417000       1.00800           0
     48079 TIP3     8545     TIP3     OH2      OT      -0.834000       15.9994           0
     48080 TIP3     8545     TIP3     H1       HT       0.417000       1.00800           0
     48081 TIP3     8545     TIP3     H2       HT       0.417000       1.00800           0
     48082 TIP3     8546     TIP3     OH2      OT      -0.834000       15.9994           0
     48083 TIP3     8546     TIP3     H1       HT       0.417000       1.00800           0
     48084 TIP3     8546     TIP3     H2       HT       0.417000       1.00800           0
     48085 TIP3     8547     TIP3     OH2      OT      -0.834000       15.9994           0
     48086 TIP3     8547     TIP3     H1       HT       0.417000       1.00800           0
     48087 TIP3     8547     TIP3     H2       HT       0.417000       1.00800           0
     48088 TIP3     8548     TIP3     OH2      OT      -0.834000       15.9994           0
     48089 TIP3     8548     TIP3     H1       HT       0.417000       1.00800           0
     48090 TIP3     8548     TIP3     H2       HT       0.417000       1.00800           0
     48091 TIP3     8549     TIP3     OH2      OT      -0.834000       15.9994           0
     48092 TIP3     8549     TIP3     H1       HT       0.417000       1.00800           0
     48093 TIP3     8549     TIP3     H2       HT       0.417000       1.00800           0
     48094 TIP3     8550     TIP3     OH2      OT      -0.834000       15.9994           0
     48095 TIP3     8550     TIP3     H1       HT       0.417000       1.00800           0
     48096 TIP3     8550     TIP3     H2       HT       0.417000       1.00800           0
     48097 TIP3     8551     TIP3     OH2      OT      -0.834000       15.9994           0
     48098 TIP3     8551     TIP3     H1       HT       0.417000       1.00800           0
     48099 TIP3     8551     TIP3     H2       HT       0.417000       1.00800           0
     48100 TIP3     8552     TIP3     OH2      OT      -0.834000       15.9994           0
     48101 TIP3     8552     TIP3     H1       HT       0.417000       1.00800           0
     48102 TIP3     8552     TIP3     H2       HT       0.417000       1.00800           0
     48103 TIP3     8553     TIP3     OH2      OT      -0.834000       15.9994           0
     48104 TIP3     8553     TIP3     H1       HT       0.417000       1.00800           0
     48105 TIP3     8553     TIP3     H2       HT       0.417000       1.00800           0
     48106 TIP3     8554     TIP3     OH2      OT      -0.834000       15.9994           0
     48107 TIP3     8554     TIP3     H1       HT       0.417000       1.00800           0
     48108 TIP3     8554     TIP3     H2       HT       0.417000       1.00800           0
     48109 TIP3     8555     TIP3     OH2      OT      -0.834000       15.9994           0
     48110 TIP3     8555     TIP3     H1       HT       0.417000       1.00800           0
     48111 TIP3     8555     TIP3     H2       HT       0.417000       1.00800           0
     48112 TIP3     8556     TIP3     OH2      OT      -0.834000       15.9994           0
     48113 TIP3     8556     TIP3     H1       HT       0.417000       1.00800           0
     48114 TIP3     8556     TIP3     H2       HT       0.417000       1.00800           0
     48115 TIP3     8557     TIP3     OH2      OT      -0.834000       15.9994           0
     48116 TIP3     8557     TIP3     H1       HT       0.417000       1.00800           0
     48117 TIP3     8557     TIP3     H2       HT       0.417000       1.00800           0
     48118 TIP3     8558     TIP3     OH2      OT      -0.834000       15.9994           0
     48119 TIP3     8558     TIP3     H1       HT       0.417000       1.00800           0
     48120 TIP3     8558     TIP3     H2       HT       0.417000       1.00800           0
     48121 TIP3     8559     TIP3     OH2      OT      -0.834000       15.9994           0
     48122 TIP3     8559     TIP3     H1       HT       0.417000       1.00800           0
     48123 TIP3     8559     TIP3     H2       HT       0.417000       1.00800           0
     48124 TIP3     8560     TIP3     OH2      OT      -0.834000       15.9994           0
     48125 TIP3     8560     TIP3     H1       HT       0.417000       1.00800           0
     48126 TIP3     8560     TIP3     H2       HT       0.417000       1.00800           0
     48127 TIP3     8561     TIP3     OH2      OT      -0.834000       15.9994           0
     48128 TIP3     8561     TIP3     H1       HT       0.417000       1.00800           0
     48129 TIP3     8561     TIP3     H2       HT       0.417000       1.00800           0
     48130 TIP3     8562     TIP3     OH2      OT      -0.834000       15.9994           0
     48131 TIP3     8562     TIP3     H1       HT       0.417000       1.00800           0
     48132 TIP3     8562     TIP3     H2       HT       0.417000       1.00800           0
     48133 TIP3     8563     TIP3     OH2      OT      -0.834000       15.9994           0
     48134 TIP3     8563     TIP3     H1       HT       0.417000       1.00800           0
     48135 TIP3     8563     TIP3     H2       HT       0.417000       1.00800           0
     48136 TIP3     8564     TIP3     OH2      OT      -0.834000       15.9994           0
     48137 TIP3     8564     TIP3     H1       HT       0.417000       1.00800           0
     48138 TIP3     8564     TIP3     H2       HT       0.417000       1.00800           0
     48139 TIP3     8565     TIP3     OH2      OT      -0.834000       15.9994           0
     48140 TIP3     8565     TIP3     H1       HT       0.417000       1.00800           0
     48141 TIP3     8565     TIP3     H2       HT       0.417000       1.00800           0
     48142 TIP3     8566     TIP3     OH2      OT      -0.834000       15.9994           0
     48143 TIP3     8566     TIP3     H1       HT       0.417000       1.00800           0
     48144 TIP3     8566     TIP3     H2       HT       0.417000       1.00800           0
     48145 TIP3     8567     TIP3     OH2      OT      -0.834000       15.9994           0
     48146 TIP3     8567     TIP3     H1       HT       0.417000       1.00800           0
     48147 TIP3     8567     TIP3     H2       HT       0.417000       1.00800           0
     48148 TIP3     8568     TIP3     OH2      OT      -0.834000       15.9994           0
     48149 TIP3     8568     TIP3     H1       HT       0.417000       1.00800           0
     48150 TIP3     8568     TIP3     H2       HT       0.417000       1.00800           0
     48151 TIP3     8569     TIP3     OH2      OT      -0.834000       15.9994           0
     48152 TIP3     8569     TIP3     H1       HT       0.417000       1.00800           0
     48153 TIP3     8569     TIP3     H2       HT       0.417000       1.00800           0
     48154 TIP3     8570     TIP3     OH2      OT      -0.834000       15.9994           0
     48155 TIP3     8570     TIP3     H1       HT       0.417000       1.00800           0
     48156 TIP3     8570     TIP3     H2       HT       0.417000       1.00800           0
     48157 TIP3     8571     TIP3     OH2      OT      -0.834000       15.9994           0
     48158 TIP3     8571     TIP3     H1       HT       0.417000       1.00800           0
     48159 TIP3     8571     TIP3     H2       HT       0.417000       1.00800           0
     48160 TIP3     8572     TIP3     OH2      OT      -0.834000       15.9994           0
     48161 TIP3     8572     TIP3     H1       HT       0.417000       1.00800           0
     48162 TIP3     8572     TIP3     H2       HT       0.417000       1.00800           0
     48163 TIP3     8573     TIP3     OH2      OT      -0.834000       15.9994           0
     48164 TIP3     8573     TIP3     H1       HT       0.417000       1.00800           0
     48165 TIP3     8573     TIP3     H2       HT       0.417000       1.00800           0
     48166 TIP3     8574     TIP3     OH2      OT      -0.834000       15.9994           0
     48167 TIP3     8574     TIP3     H1       HT       0.417000       1.00800           0
     48168 TIP3     8574     TIP3     H2       HT       0.417000       1.00800           0
     48169 TIP3     8575     TIP3     OH2      OT      -0.834000       15.9994           0
     48170 TIP3     8575     TIP3     H1       HT       0.417000       1.00800           0
     48171 TIP3     8575     TIP3     H2       HT       0.417000       1.00800           0
     48172 TIP3     8576     TIP3     OH2      OT      -0.834000       15.9994           0
     48173 TIP3     8576     TIP3     H1       HT       0.417000       1.00800           0
     48174 TIP3     8576     TIP3     H2       HT       0.417000       1.00800           0
     48175 TIP3     8577     TIP3     OH2      OT      -0.834000       15.9994           0
     48176 TIP3     8577     TIP3     H1       HT       0.417000       1.00800           0
     48177 TIP3     8577     TIP3     H2       HT       0.417000       1.00800           0
     48178 TIP3     8578     TIP3     OH2      OT      -0.834000       15.9994           0
     48179 TIP3     8578     TIP3     H1       HT       0.417000       1.00800           0
     48180 TIP3     8578     TIP3     H2       HT       0.417000       1.00800           0
     48181 TIP3     8579     TIP3     OH2      OT      -0.834000       15.9994           0
     48182 TIP3     8579     TIP3     H1       HT       0.417000       1.00800           0
     48183 TIP3     8579     TIP3     H2       HT       0.417000       1.00800           0
     48184 TIP3     8580     TIP3     OH2      OT      -0.834000       15.9994           0
     48185 TIP3     8580     TIP3     H1       HT       0.417000       1.00800           0
     48186 TIP3     8580     TIP3     H2       HT       0.417000       1.00800           0
     48187 TIP3     8581     TIP3     OH2      OT      -0.834000       15.9994           0
     48188 TIP3     8581     TIP3     H1       HT       0.417000       1.00800           0
     48189 TIP3     8581     TIP3     H2       HT       0.417000       1.00800           0
     48190 TIP3     8582     TIP3     OH2      OT      -0.834000       15.9994           0
     48191 TIP3     8582     TIP3     H1       HT       0.417000       1.00800           0
     48192 TIP3     8582     TIP3     H2       HT       0.417000       1.00800           0
     48193 TIP3     8583     TIP3     OH2      OT      -0.834000       15.9994           0
     48194 TIP3     8583     TIP3     H1       HT       0.417000       1.00800           0
     48195 TIP3     8583     TIP3     H2       HT       0.417000       1.00800           0
     48196 TIP3     8584     TIP3     OH2      OT      -0.834000       15.9994           0
     48197 TIP3     8584     TIP3     H1       HT       0.417000       1.00800           0
     48198 TIP3     8584     TIP3     H2       HT       0.417000       1.00800           0
     48199 TIP3     8585     TIP3     OH2      OT      -0.834000       15.9994           0
     48200 TIP3     8585     TIP3     H1       HT       0.417000       1.00800           0
     48201 TIP3     8585     TIP3     H2       HT       0.417000       1.00800           0
     48202 TIP3     8586     TIP3     OH2      OT      -0.834000       15.9994           0
     48203 TIP3     8586     TIP3     H1       HT       0.417000       1.00800           0
     48204 TIP3     8586     TIP3     H2       HT       0.417000       1.00800           0
     48205 TIP3     8587     TIP3     OH2      OT      -0.834000       15.9994           0
     48206 TIP3     8587     TIP3     H1       HT       0.417000       1.00800           0
     48207 TIP3     8587     TIP3     H2       HT       0.417000       1.00800           0
     48208 TIP3     8588     TIP3     OH2      OT      -0.834000       15.9994           0
     48209 TIP3     8588     TIP3     H1       HT       0.417000       1.00800           0
     48210 TIP3     8588     TIP3     H2       HT       0.417000       1.00800           0
     48211 TIP3     8589     TIP3     OH2      OT      -0.834000       15.9994           0
     48212 TIP3     8589     TIP3     H1       HT       0.417000       1.00800           0
     48213 TIP3     8589     TIP3     H2       HT       0.417000       1.00800           0
     48214 TIP3     8590     TIP3     OH2      OT      -0.834000       15.9994           0
     48215 TIP3     8590     TIP3     H1       HT       0.417000       1.00800           0
     48216 TIP3     8590     TIP3     H2       HT       0.417000       1.00800           0
     48217 TIP3     8591     TIP3     OH2      OT      -0.834000       15.9994           0
     48218 TIP3     8591     TIP3     H1       HT       0.417000       1.00800           0
     48219 TIP3     8591     TIP3     H2       HT       0.417000       1.00800           0
     48220 TIP3     8592     TIP3     OH2      OT      -0.834000       15.9994           0
     48221 TIP3     8592     TIP3     H1       HT       0.417000       1.00800           0
     48222 TIP3     8592     TIP3     H2       HT       0.417000       1.00800           0
     48223 TIP3     8593     TIP3     OH2      OT      -0.834000       15.9994           0
     48224 TIP3     8593     TIP3     H1       HT       0.417000       1.00800           0
     48225 TIP3     8593     TIP3     H2       HT       0.417000       1.00800           0
     48226 TIP3     8594     TIP3     OH2      OT      -0.834000       15.9994           0
     48227 TIP3     8594     TIP3     H1       HT       0.417000       1.00800           0
     48228 TIP3     8594     TIP3     H2       HT       0.417000       1.00800           0
     48229 TIP3     8595     TIP3     OH2      OT      -0.834000       15.9994           0
     48230 TIP3     8595     TIP3     H1       HT       0.417000       1.00800           0
     48231 TIP3     8595     TIP3     H2       HT       0.417000       1.00800           0
     48232 TIP3     8596     TIP3     OH2      OT      -0.834000       15.9994           0
     48233 TIP3     8596     TIP3     H1       HT       0.417000       1.00800           0
     48234 TIP3     8596     TIP3     H2       HT       0.417000       1.00800           0
     48235 TIP3     8597     TIP3     OH2      OT      -0.834000       15.9994           0
     48236 TIP3     8597     TIP3     H1       HT       0.417000       1.00800           0
     48237 TIP3     8597     TIP3     H2       HT       0.417000       1.00800           0
     48238 TIP3     8598     TIP3     OH2      OT      -0.834000       15.9994           0
     48239 TIP3     8598     TIP3     H1       HT       0.417000       1.00800           0
     48240 TIP3     8598     TIP3     H2       HT       0.417000       1.00800           0
     48241 TIP3     8599     TIP3     OH2      OT      -0.834000       15.9994           0
     48242 TIP3     8599     TIP3     H1       HT       0.417000       1.00800           0
     48243 TIP3     8599     TIP3     H2       HT       0.417000       1.00800           0
     48244 TIP3     8600     TIP3     OH2      OT      -0.834000       15.9994           0
     48245 TIP3     8600     TIP3     H1       HT       0.417000       1.00800           0
     48246 TIP3     8600     TIP3     H2       HT       0.417000       1.00800           0
     48247 TIP3     8601     TIP3     OH2      OT      -0.834000       15.9994           0
     48248 TIP3     8601     TIP3     H1       HT       0.417000       1.00800           0
     48249 TIP3     8601     TIP3     H2       HT       0.417000       1.00800           0
     48250 TIP3     8602     TIP3     OH2      OT      -0.834000       15.9994           0
     48251 TIP3     8602     TIP3     H1       HT       0.417000       1.00800           0
     48252 TIP3     8602     TIP3     H2       HT       0.417000       1.00800           0
     48253 TIP3     8603     TIP3     OH2      OT      -0.834000       15.9994           0
     48254 TIP3     8603     TIP3     H1       HT       0.417000       1.00800           0
     48255 TIP3     8603     TIP3     H2       HT       0.417000       1.00800           0
     48256 TIP3     8604     TIP3     OH2      OT      -0.834000       15.9994           0
     48257 TIP3     8604     TIP3     H1       HT       0.417000       1.00800           0
     48258 TIP3     8604     TIP3     H2       HT       0.417000       1.00800           0
     48259 TIP3     8605     TIP3     OH2      OT      -0.834000       15.9994           0
     48260 TIP3     8605     TIP3     H1       HT       0.417000       1.00800           0
     48261 TIP3     8605     TIP3     H2       HT       0.417000       1.00800           0
     48262 TIP3     8606     TIP3     OH2      OT      -0.834000       15.9994           0
     48263 TIP3     8606     TIP3     H1       HT       0.417000       1.00800           0
     48264 TIP3     8606     TIP3     H2       HT       0.417000       1.00800           0
     48265 TIP3     8607     TIP3     OH2      OT      -0.834000       15.9994           0
     48266 TIP3     8607     TIP3     H1       HT       0.417000       1.00800           0
     48267 TIP3     8607     TIP3     H2       HT       0.417000       1.00800           0
     48268 TIP3     8608     TIP3     OH2      OT      -0.834000       15.9994           0
     48269 TIP3     8608     TIP3     H1       HT       0.417000       1.00800           0
     48270 TIP3     8608     TIP3     H2       HT       0.417000       1.00800           0
     48271 TIP3     8609     TIP3     OH2      OT      -0.834000       15.9994           0
     48272 TIP3     8609     TIP3     H1       HT       0.417000       1.00800           0
     48273 TIP3     8609     TIP3     H2       HT       0.417000       1.00800           0
     48274 TIP3     8610     TIP3     OH2      OT      -0.834000       15.9994           0
     48275 TIP3     8610     TIP3     H1       HT       0.417000       1.00800           0
     48276 TIP3     8610     TIP3     H2       HT       0.417000       1.00800           0
     48277 TIP3     8611     TIP3     OH2      OT      -0.834000       15.9994           0
     48278 TIP3     8611     TIP3     H1       HT       0.417000       1.00800           0
     48279 TIP3     8611     TIP3     H2       HT       0.417000       1.00800           0
     48280 TIP3     8612     TIP3     OH2      OT      -0.834000       15.9994           0
     48281 TIP3     8612     TIP3     H1       HT       0.417000       1.00800           0
     48282 TIP3     8612     TIP3     H2       HT       0.417000       1.00800           0
     48283 TIP3     8613     TIP3     OH2      OT      -0.834000       15.9994           0
     48284 TIP3     8613     TIP3     H1       HT       0.417000       1.00800           0
     48285 TIP3     8613     TIP3     H2       HT       0.417000       1.00800           0
     48286 TIP3     8614     TIP3     OH2      OT      -0.834000       15.9994           0
     48287 TIP3     8614     TIP3     H1       HT       0.417000       1.00800           0
     48288 TIP3     8614     TIP3     H2       HT       0.417000       1.00800           0
     48289 TIP3     8615     TIP3     OH2      OT      -0.834000       15.9994           0
     48290 TIP3     8615     TIP3     H1       HT       0.417000       1.00800           0
     48291 TIP3     8615     TIP3     H2       HT       0.417000       1.00800           0
     48292 TIP3     8616     TIP3     OH2      OT      -0.834000       15.9994           0
     48293 TIP3     8616     TIP3     H1       HT       0.417000       1.00800           0
     48294 TIP3     8616     TIP3     H2       HT       0.417000       1.00800           0
     48295 TIP3     8617     TIP3     OH2      OT      -0.834000       15.9994           0
     48296 TIP3     8617     TIP3     H1       HT       0.417000       1.00800           0
     48297 TIP3     8617     TIP3     H2       HT       0.417000       1.00800           0
     48298 TIP3     8618     TIP3     OH2      OT      -0.834000       15.9994           0
     48299 TIP3     8618     TIP3     H1       HT       0.417000       1.00800           0
     48300 TIP3     8618     TIP3     H2       HT       0.417000       1.00800           0
     48301 TIP3     8619     TIP3     OH2      OT      -0.834000       15.9994           0
     48302 TIP3     8619     TIP3     H1       HT       0.417000       1.00800           0
     48303 TIP3     8619     TIP3     H2       HT       0.417000       1.00800           0
     48304 TIP3     8620     TIP3     OH2      OT      -0.834000       15.9994           0
     48305 TIP3     8620     TIP3     H1       HT       0.417000       1.00800           0
     48306 TIP3     8620     TIP3     H2       HT       0.417000       1.00800           0
     48307 TIP3     8621     TIP3     OH2      OT      -0.834000       15.9994           0
     48308 TIP3     8621     TIP3     H1       HT       0.417000       1.00800           0
     48309 TIP3     8621     TIP3     H2       HT       0.417000       1.00800           0
     48310 TIP3     8622     TIP3     OH2      OT      -0.834000       15.9994           0
     48311 TIP3     8622     TIP3     H1       HT       0.417000       1.00800           0
     48312 TIP3     8622     TIP3     H2       HT       0.417000       1.00800           0
     48313 TIP3     8623     TIP3     OH2      OT      -0.834000       15.9994           0
     48314 TIP3     8623     TIP3     H1       HT       0.417000       1.00800           0
     48315 TIP3     8623     TIP3     H2       HT       0.417000       1.00800           0
     48316 TIP3     8624     TIP3     OH2      OT      -0.834000       15.9994           0
     48317 TIP3     8624     TIP3     H1       HT       0.417000       1.00800           0
     48318 TIP3     8624     TIP3     H2       HT       0.417000       1.00800           0
     48319 TIP3     8625     TIP3     OH2      OT      -0.834000       15.9994           0
     48320 TIP3     8625     TIP3     H1       HT       0.417000       1.00800           0
     48321 TIP3     8625     TIP3     H2       HT       0.417000       1.00800           0
     48322 TIP3     8626     TIP3     OH2      OT      -0.834000       15.9994           0
     48323 TIP3     8626     TIP3     H1       HT       0.417000       1.00800           0
     48324 TIP3     8626     TIP3     H2       HT       0.417000       1.00800           0
     48325 TIP3     8627     TIP3     OH2      OT      -0.834000       15.9994           0
     48326 TIP3     8627     TIP3     H1       HT       0.417000       1.00800           0
     48327 TIP3     8627     TIP3     H2       HT       0.417000       1.00800           0
     48328 TIP3     8628     TIP3     OH2      OT      -0.834000       15.9994           0
     48329 TIP3     8628     TIP3     H1       HT       0.417000       1.00800           0
     48330 TIP3     8628     TIP3     H2       HT       0.417000       1.00800           0
     48331 TIP3     8629     TIP3     OH2      OT      -0.834000       15.9994           0
     48332 TIP3     8629     TIP3     H1       HT       0.417000       1.00800           0
     48333 TIP3     8629     TIP3     H2       HT       0.417000       1.00800           0
     48334 TIP3     8630     TIP3     OH2      OT      -0.834000       15.9994           0
     48335 TIP3     8630     TIP3     H1       HT       0.417000       1.00800           0
     48336 TIP3     8630     TIP3     H2       HT       0.417000       1.00800           0
     48337 TIP3     8631     TIP3     OH2      OT      -0.834000       15.9994           0
     48338 TIP3     8631     TIP3     H1       HT       0.417000       1.00800           0
     48339 TIP3     8631     TIP3     H2       HT       0.417000       1.00800           0
     48340 TIP3     8632     TIP3     OH2      OT      -0.834000       15.9994           0
     48341 TIP3     8632     TIP3     H1       HT       0.417000       1.00800           0
     48342 TIP3     8632     TIP3     H2       HT       0.417000       1.00800           0
     48343 TIP3     8633     TIP3     OH2      OT      -0.834000       15.9994           0
     48344 TIP3     8633     TIP3     H1       HT       0.417000       1.00800           0
     48345 TIP3     8633     TIP3     H2       HT       0.417000       1.00800           0
     48346 TIP3     8634     TIP3     OH2      OT      -0.834000       15.9994           0
     48347 TIP3     8634     TIP3     H1       HT       0.417000       1.00800           0
     48348 TIP3     8634     TIP3     H2       HT       0.417000       1.00800           0
     48349 TIP3     8635     TIP3     OH2      OT      -0.834000       15.9994           0
     48350 TIP3     8635     TIP3     H1       HT       0.417000       1.00800           0
     48351 TIP3     8635     TIP3     H2       HT       0.417000       1.00800           0
     48352 TIP3     8636     TIP3     OH2      OT      -0.834000       15.9994           0
     48353 TIP3     8636     TIP3     H1       HT       0.417000       1.00800           0
     48354 TIP3     8636     TIP3     H2       HT       0.417000       1.00800           0
     48355 TIP3     8637     TIP3     OH2      OT      -0.834000       15.9994           0
     48356 TIP3     8637     TIP3     H1       HT       0.417000       1.00800           0
     48357 TIP3     8637     TIP3     H2       HT       0.417000       1.00800           0
     48358 TIP3     8638     TIP3     OH2      OT      -0.834000       15.9994           0
     48359 TIP3     8638     TIP3     H1       HT       0.417000       1.00800           0
     48360 TIP3     8638     TIP3     H2       HT       0.417000       1.00800           0
     48361 TIP3     8639     TIP3     OH2      OT      -0.834000       15.9994           0
     48362 TIP3     8639     TIP3     H1       HT       0.417000       1.00800           0
     48363 TIP3     8639     TIP3     H2       HT       0.417000       1.00800           0
     48364 TIP3     8640     TIP3     OH2      OT      -0.834000       15.9994           0
     48365 TIP3     8640     TIP3     H1       HT       0.417000       1.00800           0
     48366 TIP3     8640     TIP3     H2       HT       0.417000       1.00800           0
     48367 TIP3     8641     TIP3     OH2      OT      -0.834000       15.9994           0
     48368 TIP3     8641     TIP3     H1       HT       0.417000       1.00800           0
     48369 TIP3     8641     TIP3     H2       HT       0.417000       1.00800           0
     48370 TIP3     8642     TIP3     OH2      OT      -0.834000       15.9994           0
     48371 TIP3     8642     TIP3     H1       HT       0.417000       1.00800           0
     48372 TIP3     8642     TIP3     H2       HT       0.417000       1.00800           0
     48373 TIP3     8643     TIP3     OH2      OT      -0.834000       15.9994           0
     48374 TIP3     8643     TIP3     H1       HT       0.417000       1.00800           0
     48375 TIP3     8643     TIP3     H2       HT       0.417000       1.00800           0
     48376 TIP3     8644     TIP3     OH2      OT      -0.834000       15.9994           0
     48377 TIP3     8644     TIP3     H1       HT       0.417000       1.00800           0
     48378 TIP3     8644     TIP3     H2       HT       0.417000       1.00800           0
     48379 TIP3     8645     TIP3     OH2      OT      -0.834000       15.9994           0
     48380 TIP3     8645     TIP3     H1       HT       0.417000       1.00800           0
     48381 TIP3     8645     TIP3     H2       HT       0.417000       1.00800           0
     48382 TIP3     8646     TIP3     OH2      OT      -0.834000       15.9994           0
     48383 TIP3     8646     TIP3     H1       HT       0.417000       1.00800           0
     48384 TIP3     8646     TIP3     H2       HT       0.417000       1.00800           0
     48385 TIP3     8647     TIP3     OH2      OT      -0.834000       15.9994           0
     48386 TIP3     8647     TIP3     H1       HT       0.417000       1.00800           0
     48387 TIP3     8647     TIP3     H2       HT       0.417000       1.00800           0
     48388 TIP3     8648     TIP3     OH2      OT      -0.834000       15.9994           0
     48389 TIP3     8648     TIP3     H1       HT       0.417000       1.00800           0
     48390 TIP3     8648     TIP3     H2       HT       0.417000       1.00800           0
     48391 TIP3     8649     TIP3     OH2      OT      -0.834000       15.9994           0
     48392 TIP3     8649     TIP3     H1       HT       0.417000       1.00800           0
     48393 TIP3     8649     TIP3     H2       HT       0.417000       1.00800           0
     48394 TIP3     8650     TIP3     OH2      OT      -0.834000       15.9994           0
     48395 TIP3     8650     TIP3     H1       HT       0.417000       1.00800           0
     48396 TIP3     8650     TIP3     H2       HT       0.417000       1.00800           0
     48397 TIP3     8651     TIP3     OH2      OT      -0.834000       15.9994           0
     48398 TIP3     8651     TIP3     H1       HT       0.417000       1.00800           0
     48399 TIP3     8651     TIP3     H2       HT       0.417000       1.00800           0
     48400 TIP3     8652     TIP3     OH2      OT      -0.834000       15.9994           0
     48401 TIP3     8652     TIP3     H1       HT       0.417000       1.00800           0
     48402 TIP3     8652     TIP3     H2       HT       0.417000       1.00800           0
     48403 TIP3     8653     TIP3     OH2      OT      -0.834000       15.9994           0
     48404 TIP3     8653     TIP3     H1       HT       0.417000       1.00800           0
     48405 TIP3     8653     TIP3     H2       HT       0.417000       1.00800           0
     48406 TIP3     8654     TIP3     OH2      OT      -0.834000       15.9994           0
     48407 TIP3     8654     TIP3     H1       HT       0.417000       1.00800           0
     48408 TIP3     8654     TIP3     H2       HT       0.417000       1.00800           0
     48409 TIP3     8655     TIP3     OH2      OT      -0.834000       15.9994           0
     48410 TIP3     8655     TIP3     H1       HT       0.417000       1.00800           0
     48411 TIP3     8655     TIP3     H2       HT       0.417000       1.00800           0
     48412 TIP3     8656     TIP3     OH2      OT      -0.834000       15.9994           0
     48413 TIP3     8656     TIP3     H1       HT       0.417000       1.00800           0
     48414 TIP3     8656     TIP3     H2       HT       0.417000       1.00800           0
     48415 TIP3     8657     TIP3     OH2      OT      -0.834000       15.9994           0
     48416 TIP3     8657     TIP3     H1       HT       0.417000       1.00800           0
     48417 TIP3     8657     TIP3     H2       HT       0.417000       1.00800           0
     48418 TIP3     8658     TIP3     OH2      OT      -0.834000       15.9994           0
     48419 TIP3     8658     TIP3     H1       HT       0.417000       1.00800           0
     48420 TIP3     8658     TIP3     H2       HT       0.417000       1.00800           0
     48421 TIP3     8659     TIP3     OH2      OT      -0.834000       15.9994           0
     48422 TIP3     8659     TIP3     H1       HT       0.417000       1.00800           0
     48423 TIP3     8659     TIP3     H2       HT       0.417000       1.00800           0
     48424 TIP3     8660     TIP3     OH2      OT      -0.834000       15.9994           0
     48425 TIP3     8660     TIP3     H1       HT       0.417000       1.00800           0
     48426 TIP3     8660     TIP3     H2       HT       0.417000       1.00800           0
     48427 TIP3     8661     TIP3     OH2      OT      -0.834000       15.9994           0
     48428 TIP3     8661     TIP3     H1       HT       0.417000       1.00800           0
     48429 TIP3     8661     TIP3     H2       HT       0.417000       1.00800           0
     48430 TIP3     8662     TIP3     OH2      OT      -0.834000       15.9994           0
     48431 TIP3     8662     TIP3     H1       HT       0.417000       1.00800           0
     48432 TIP3     8662     TIP3     H2       HT       0.417000       1.00800           0
     48433 TIP3     8663     TIP3     OH2      OT      -0.834000       15.9994           0
     48434 TIP3     8663     TIP3     H1       HT       0.417000       1.00800           0
     48435 TIP3     8663     TIP3     H2       HT       0.417000       1.00800           0
     48436 TIP3     8664     TIP3     OH2      OT      -0.834000       15.9994           0
     48437 TIP3     8664     TIP3     H1       HT       0.417000       1.00800           0
     48438 TIP3     8664     TIP3     H2       HT       0.417000       1.00800           0
     48439 TIP3     8665     TIP3     OH2      OT      -0.834000       15.9994           0
     48440 TIP3     8665     TIP3     H1       HT       0.417000       1.00800           0
     48441 TIP3     8665     TIP3     H2       HT       0.417000       1.00800           0
     48442 TIP3     8666     TIP3     OH2      OT      -0.834000       15.9994           0
     48443 TIP3     8666     TIP3     H1       HT       0.417000       1.00800           0
     48444 TIP3     8666     TIP3     H2       HT       0.417000       1.00800           0
     48445 TIP3     8667     TIP3     OH2      OT      -0.834000       15.9994           0
     48446 TIP3     8667     TIP3     H1       HT       0.417000       1.00800           0
     48447 TIP3     8667     TIP3     H2       HT       0.417000       1.00800           0
     48448 TIP3     8668     TIP3     OH2      OT      -0.834000       15.9994           0
     48449 TIP3     8668     TIP3     H1       HT       0.417000       1.00800           0
     48450 TIP3     8668     TIP3     H2       HT       0.417000       1.00800           0
     48451 TIP3     8669     TIP3     OH2      OT      -0.834000       15.9994           0
     48452 TIP3     8669     TIP3     H1       HT       0.417000       1.00800           0
     48453 TIP3     8669     TIP3     H2       HT       0.417000       1.00800           0
     48454 TIP3     8670     TIP3     OH2      OT      -0.834000       15.9994           0
     48455 TIP3     8670     TIP3     H1       HT       0.417000       1.00800           0
     48456 TIP3     8670     TIP3     H2       HT       0.417000       1.00800           0
     48457 TIP3     8671     TIP3     OH2      OT      -0.834000       15.9994           0
     48458 TIP3     8671     TIP3     H1       HT       0.417000       1.00800           0
     48459 TIP3     8671     TIP3     H2       HT       0.417000       1.00800           0
     48460 TIP3     8672     TIP3     OH2      OT      -0.834000       15.9994           0
     48461 TIP3     8672     TIP3     H1       HT       0.417000       1.00800           0
     48462 TIP3     8672     TIP3     H2       HT       0.417000       1.00800           0
     48463 TIP3     8673     TIP3     OH2      OT      -0.834000       15.9994           0
     48464 TIP3     8673     TIP3     H1       HT       0.417000       1.00800           0
     48465 TIP3     8673     TIP3     H2       HT       0.417000       1.00800           0
     48466 TIP3     8674     TIP3     OH2      OT      -0.834000       15.9994           0
     48467 TIP3     8674     TIP3     H1       HT       0.417000       1.00800           0
     48468 TIP3     8674     TIP3     H2       HT       0.417000       1.00800           0
     48469 TIP3     8675     TIP3     OH2      OT      -0.834000       15.9994           0
     48470 TIP3     8675     TIP3     H1       HT       0.417000       1.00800           0
     48471 TIP3     8675     TIP3     H2       HT       0.417000       1.00800           0
     48472 TIP3     8676     TIP3     OH2      OT      -0.834000       15.9994           0
     48473 TIP3     8676     TIP3     H1       HT       0.417000       1.00800           0
     48474 TIP3     8676     TIP3     H2       HT       0.417000       1.00800           0
     48475 TIP3     8677     TIP3     OH2      OT      -0.834000       15.9994           0
     48476 TIP3     8677     TIP3     H1       HT       0.417000       1.00800           0
     48477 TIP3     8677     TIP3     H2       HT       0.417000       1.00800           0
     48478 TIP3     8678     TIP3     OH2      OT      -0.834000       15.9994           0
     48479 TIP3     8678     TIP3     H1       HT       0.417000       1.00800           0
     48480 TIP3     8678     TIP3     H2       HT       0.417000       1.00800           0
     48481 TIP3     8679     TIP3     OH2      OT      -0.834000       15.9994           0
     48482 TIP3     8679     TIP3     H1       HT       0.417000       1.00800           0
     48483 TIP3     8679     TIP3     H2       HT       0.417000       1.00800           0
     48484 TIP3     8680     TIP3     OH2      OT      -0.834000       15.9994           0
     48485 TIP3     8680     TIP3     H1       HT       0.417000       1.00800           0
     48486 TIP3     8680     TIP3     H2       HT       0.417000       1.00800           0
     48487 TIP3     8681     TIP3     OH2      OT      -0.834000       15.9994           0
     48488 TIP3     8681     TIP3     H1       HT       0.417000       1.00800           0
     48489 TIP3     8681     TIP3     H2       HT       0.417000       1.00800           0
     48490 TIP3     8682     TIP3     OH2      OT      -0.834000       15.9994           0
     48491 TIP3     8682     TIP3     H1       HT       0.417000       1.00800           0
     48492 TIP3     8682     TIP3     H2       HT       0.417000       1.00800           0
     48493 TIP3     8683     TIP3     OH2      OT      -0.834000       15.9994           0
     48494 TIP3     8683     TIP3     H1       HT       0.417000       1.00800           0
     48495 TIP3     8683     TIP3     H2       HT       0.417000       1.00800           0
     48496 TIP3     8684     TIP3     OH2      OT      -0.834000       15.9994           0
     48497 TIP3     8684     TIP3     H1       HT       0.417000       1.00800           0
     48498 TIP3     8684     TIP3     H2       HT       0.417000       1.00800           0
     48499 TIP3     8685     TIP3     OH2      OT      -0.834000       15.9994           0
     48500 TIP3     8685     TIP3     H1       HT       0.417000       1.00800           0
     48501 TIP3     8685     TIP3     H2       HT       0.417000       1.00800           0
     48502 TIP3     8686     TIP3     OH2      OT      -0.834000       15.9994           0
     48503 TIP3     8686     TIP3     H1       HT       0.417000       1.00800           0
     48504 TIP3     8686     TIP3     H2       HT       0.417000       1.00800           0
     48505 TIP3     8687     TIP3     OH2      OT      -0.834000       15.9994           0
     48506 TIP3     8687     TIP3     H1       HT       0.417000       1.00800           0
     48507 TIP3     8687     TIP3     H2       HT       0.417000       1.00800           0
     48508 TIP3     8688     TIP3     OH2      OT      -0.834000       15.9994           0
     48509 TIP3     8688     TIP3     H1       HT       0.417000       1.00800           0
     48510 TIP3     8688     TIP3     H2       HT       0.417000       1.00800           0
     48511 TIP3     8689     TIP3     OH2      OT      -0.834000       15.9994           0
     48512 TIP3     8689     TIP3     H1       HT       0.417000       1.00800           0
     48513 TIP3     8689     TIP3     H2       HT       0.417000       1.00800           0
     48514 TIP3     8690     TIP3     OH2      OT      -0.834000       15.9994           0
     48515 TIP3     8690     TIP3     H1       HT       0.417000       1.00800           0
     48516 TIP3     8690     TIP3     H2       HT       0.417000       1.00800           0
     48517 TIP3     8691     TIP3     OH2      OT      -0.834000       15.9994           0
     48518 TIP3     8691     TIP3     H1       HT       0.417000       1.00800           0
     48519 TIP3     8691     TIP3     H2       HT       0.417000       1.00800           0
     48520 TIP3     8692     TIP3     OH2      OT      -0.834000       15.9994           0
     48521 TIP3     8692     TIP3     H1       HT       0.417000       1.00800           0
     48522 TIP3     8692     TIP3     H2       HT       0.417000       1.00800           0
     48523 TIP3     8693     TIP3     OH2      OT      -0.834000       15.9994           0
     48524 TIP3     8693     TIP3     H1       HT       0.417000       1.00800           0
     48525 TIP3     8693     TIP3     H2       HT       0.417000       1.00800           0
     48526 TIP3     8694     TIP3     OH2      OT      -0.834000       15.9994           0
     48527 TIP3     8694     TIP3     H1       HT       0.417000       1.00800           0
     48528 TIP3     8694     TIP3     H2       HT       0.417000       1.00800           0
     48529 TIP3     8695     TIP3     OH2      OT      -0.834000       15.9994           0
     48530 TIP3     8695     TIP3     H1       HT       0.417000       1.00800           0
     48531 TIP3     8695     TIP3     H2       HT       0.417000       1.00800           0
     48532 TIP3     8696     TIP3     OH2      OT      -0.834000       15.9994           0
     48533 TIP3     8696     TIP3     H1       HT       0.417000       1.00800           0
     48534 TIP3     8696     TIP3     H2       HT       0.417000       1.00800           0
     48535 TIP3     8697     TIP3     OH2      OT      -0.834000       15.9994           0
     48536 TIP3     8697     TIP3     H1       HT       0.417000       1.00800           0
     48537 TIP3     8697     TIP3     H2       HT       0.417000       1.00800           0
     48538 TIP3     8698     TIP3     OH2      OT      -0.834000       15.9994           0
     48539 TIP3     8698     TIP3     H1       HT       0.417000       1.00800           0
     48540 TIP3     8698     TIP3     H2       HT       0.417000       1.00800           0
     48541 TIP3     8699     TIP3     OH2      OT      -0.834000       15.9994           0
     48542 TIP3     8699     TIP3     H1       HT       0.417000       1.00800           0
     48543 TIP3     8699     TIP3     H2       HT       0.417000       1.00800           0
     48544 TIP3     8700     TIP3     OH2      OT      -0.834000       15.9994           0
     48545 TIP3     8700     TIP3     H1       HT       0.417000       1.00800           0
     48546 TIP3     8700     TIP3     H2       HT       0.417000       1.00800           0
     48547 TIP3     8701     TIP3     OH2      OT      -0.834000       15.9994           0
     48548 TIP3     8701     TIP3     H1       HT       0.417000       1.00800           0
     48549 TIP3     8701     TIP3     H2       HT       0.417000       1.00800           0
     48550 TIP3     8702     TIP3     OH2      OT      -0.834000       15.9994           0
     48551 TIP3     8702     TIP3     H1       HT       0.417000       1.00800           0
     48552 TIP3     8702     TIP3     H2       HT       0.417000       1.00800           0
     48553 TIP3     8703     TIP3     OH2      OT      -0.834000       15.9994           0
     48554 TIP3     8703     TIP3     H1       HT       0.417000       1.00800           0
     48555 TIP3     8703     TIP3     H2       HT       0.417000       1.00800           0
     48556 TIP3     8704     TIP3     OH2      OT      -0.834000       15.9994           0
     48557 TIP3     8704     TIP3     H1       HT       0.417000       1.00800           0
     48558 TIP3     8704     TIP3     H2       HT       0.417000       1.00800           0
     48559 TIP3     8705     TIP3     OH2      OT      -0.834000       15.9994           0
     48560 TIP3     8705     TIP3     H1       HT       0.417000       1.00800           0
     48561 TIP3     8705     TIP3     H2       HT       0.417000       1.00800           0
     48562 TIP3     8706     TIP3     OH2      OT      -0.834000       15.9994           0
     48563 TIP3     8706     TIP3     H1       HT       0.417000       1.00800           0
     48564 TIP3     8706     TIP3     H2       HT       0.417000       1.00800           0
     48565 TIP3     8707     TIP3     OH2      OT      -0.834000       15.9994           0
     48566 TIP3     8707     TIP3     H1       HT       0.417000       1.00800           0
     48567 TIP3     8707     TIP3     H2       HT       0.417000       1.00800           0
     48568 TIP3     8708     TIP3     OH2      OT      -0.834000       15.9994           0
     48569 TIP3     8708     TIP3     H1       HT       0.417000       1.00800           0
     48570 TIP3     8708     TIP3     H2       HT       0.417000       1.00800           0
     48571 TIP3     8709     TIP3     OH2      OT      -0.834000       15.9994           0
     48572 TIP3     8709     TIP3     H1       HT       0.417000       1.00800           0
     48573 TIP3     8709     TIP3     H2       HT       0.417000       1.00800           0
     48574 TIP3     8710     TIP3     OH2      OT      -0.834000       15.9994           0
     48575 TIP3     8710     TIP3     H1       HT       0.417000       1.00800           0
     48576 TIP3     8710     TIP3     H2       HT       0.417000       1.00800           0
     48577 TIP3     8711     TIP3     OH2      OT      -0.834000       15.9994           0
     48578 TIP3     8711     TIP3     H1       HT       0.417000       1.00800           0
     48579 TIP3     8711     TIP3     H2       HT       0.417000       1.00800           0
     48580 TIP3     8712     TIP3     OH2      OT      -0.834000       15.9994           0
     48581 TIP3     8712     TIP3     H1       HT       0.417000       1.00800           0
     48582 TIP3     8712     TIP3     H2       HT       0.417000       1.00800           0
     48583 TIP3     8713     TIP3     OH2      OT      -0.834000       15.9994           0
     48584 TIP3     8713     TIP3     H1       HT       0.417000       1.00800           0
     48585 TIP3     8713     TIP3     H2       HT       0.417000       1.00800           0
     48586 TIP3     8714     TIP3     OH2      OT      -0.834000       15.9994           0
     48587 TIP3     8714     TIP3     H1       HT       0.417000       1.00800           0
     48588 TIP3     8714     TIP3     H2       HT       0.417000       1.00800           0
     48589 TIP3     8715     TIP3     OH2      OT      -0.834000       15.9994           0
     48590 TIP3     8715     TIP3     H1       HT       0.417000       1.00800           0
     48591 TIP3     8715     TIP3     H2       HT       0.417000       1.00800           0
     48592 TIP3     8716     TIP3     OH2      OT      -0.834000       15.9994           0
     48593 TIP3     8716     TIP3     H1       HT       0.417000       1.00800           0
     48594 TIP3     8716     TIP3     H2       HT       0.417000       1.00800           0
     48595 TIP3     8717     TIP3     OH2      OT      -0.834000       15.9994           0
     48596 TIP3     8717     TIP3     H1       HT       0.417000       1.00800           0
     48597 TIP3     8717     TIP3     H2       HT       0.417000       1.00800           0
     48598 TIP3     8718     TIP3     OH2      OT      -0.834000       15.9994           0
     48599 TIP3     8718     TIP3     H1       HT       0.417000       1.00800           0
     48600 TIP3     8718     TIP3     H2       HT       0.417000       1.00800           0
     48601 TIP3     8719     TIP3     OH2      OT      -0.834000       15.9994           0
     48602 TIP3     8719     TIP3     H1       HT       0.417000       1.00800           0
     48603 TIP3     8719     TIP3     H2       HT       0.417000       1.00800           0
     48604 TIP3     8720     TIP3     OH2      OT      -0.834000       15.9994           0
     48605 TIP3     8720     TIP3     H1       HT       0.417000       1.00800           0
     48606 TIP3     8720     TIP3     H2       HT       0.417000       1.00800           0
     48607 TIP3     8721     TIP3     OH2      OT      -0.834000       15.9994           0
     48608 TIP3     8721     TIP3     H1       HT       0.417000       1.00800           0
     48609 TIP3     8721     TIP3     H2       HT       0.417000       1.00800           0
     48610 TIP3     8722     TIP3     OH2      OT      -0.834000       15.9994           0
     48611 TIP3     8722     TIP3     H1       HT       0.417000       1.00800           0
     48612 TIP3     8722     TIP3     H2       HT       0.417000       1.00800           0
     48613 TIP3     8723     TIP3     OH2      OT      -0.834000       15.9994           0
     48614 TIP3     8723     TIP3     H1       HT       0.417000       1.00800           0
     48615 TIP3     8723     TIP3     H2       HT       0.417000       1.00800           0
     48616 TIP3     8724     TIP3     OH2      OT      -0.834000       15.9994           0
     48617 TIP3     8724     TIP3     H1       HT       0.417000       1.00800           0
     48618 TIP3     8724     TIP3     H2       HT       0.417000       1.00800           0
     48619 TIP3     8725     TIP3     OH2      OT      -0.834000       15.9994           0
     48620 TIP3     8725     TIP3     H1       HT       0.417000       1.00800           0
     48621 TIP3     8725     TIP3     H2       HT       0.417000       1.00800           0
     48622 TIP3     8726     TIP3     OH2      OT      -0.834000       15.9994           0
     48623 TIP3     8726     TIP3     H1       HT       0.417000       1.00800           0
     48624 TIP3     8726     TIP3     H2       HT       0.417000       1.00800           0
     48625 TIP3     8727     TIP3     OH2      OT      -0.834000       15.9994           0
     48626 TIP3     8727     TIP3     H1       HT       0.417000       1.00800           0
     48627 TIP3     8727     TIP3     H2       HT       0.417000       1.00800           0
     48628 TIP3     8728     TIP3     OH2      OT      -0.834000       15.9994           0
     48629 TIP3     8728     TIP3     H1       HT       0.417000       1.00800           0
     48630 TIP3     8728     TIP3     H2       HT       0.417000       1.00800           0
     48631 TIP3     8729     TIP3     OH2      OT      -0.834000       15.9994           0
     48632 TIP3     8729     TIP3     H1       HT       0.417000       1.00800           0
     48633 TIP3     8729     TIP3     H2       HT       0.417000       1.00800           0
     48634 TIP3     8730     TIP3     OH2      OT      -0.834000       15.9994           0
     48635 TIP3     8730     TIP3     H1       HT       0.417000       1.00800           0
     48636 TIP3     8730     TIP3     H2       HT       0.417000       1.00800           0
     48637 TIP3     8731     TIP3     OH2      OT      -0.834000       15.9994           0
     48638 TIP3     8731     TIP3     H1       HT       0.417000       1.00800           0
     48639 TIP3     8731     TIP3     H2       HT       0.417000       1.00800           0
     48640 TIP3     8732     TIP3     OH2      OT      -0.834000       15.9994           0
     48641 TIP3     8732     TIP3     H1       HT       0.417000       1.00800           0
     48642 TIP3     8732     TIP3     H2       HT       0.417000       1.00800           0
     48643 TIP3     8733     TIP3     OH2      OT      -0.834000       15.9994           0
     48644 TIP3     8733     TIP3     H1       HT       0.417000       1.00800           0
     48645 TIP3     8733     TIP3     H2       HT       0.417000       1.00800           0
     48646 TIP3     8734     TIP3     OH2      OT      -0.834000       15.9994           0
     48647 TIP3     8734     TIP3     H1       HT       0.417000       1.00800           0
     48648 TIP3     8734     TIP3     H2       HT       0.417000       1.00800           0
     48649 TIP3     8735     TIP3     OH2      OT      -0.834000       15.9994           0
     48650 TIP3     8735     TIP3     H1       HT       0.417000       1.00800           0
     48651 TIP3     8735     TIP3     H2       HT       0.417000       1.00800           0
     48652 TIP3     8736     TIP3     OH2      OT      -0.834000       15.9994           0
     48653 TIP3     8736     TIP3     H1       HT       0.417000       1.00800           0
     48654 TIP3     8736     TIP3     H2       HT       0.417000       1.00800           0
     48655 TIP3     8737     TIP3     OH2      OT      -0.834000       15.9994           0
     48656 TIP3     8737     TIP3     H1       HT       0.417000       1.00800           0
     48657 TIP3     8737     TIP3     H2       HT       0.417000       1.00800           0
     48658 TIP3     8738     TIP3     OH2      OT      -0.834000       15.9994           0
     48659 TIP3     8738     TIP3     H1       HT       0.417000       1.00800           0
     48660 TIP3     8738     TIP3     H2       HT       0.417000       1.00800           0
     48661 TIP3     8739     TIP3     OH2      OT      -0.834000       15.9994           0
     48662 TIP3     8739     TIP3     H1       HT       0.417000       1.00800           0
     48663 TIP3     8739     TIP3     H2       HT       0.417000       1.00800           0
     48664 TIP3     8740     TIP3     OH2      OT      -0.834000       15.9994           0
     48665 TIP3     8740     TIP3     H1       HT       0.417000       1.00800           0
     48666 TIP3     8740     TIP3     H2       HT       0.417000       1.00800           0
     48667 TIP3     8741     TIP3     OH2      OT      -0.834000       15.9994           0
     48668 TIP3     8741     TIP3     H1       HT       0.417000       1.00800           0
     48669 TIP3     8741     TIP3     H2       HT       0.417000       1.00800           0
     48670 TIP3     8742     TIP3     OH2      OT      -0.834000       15.9994           0
     48671 TIP3     8742     TIP3     H1       HT       0.417000       1.00800           0
     48672 TIP3     8742     TIP3     H2       HT       0.417000       1.00800           0
     48673 TIP3     8743     TIP3     OH2      OT      -0.834000       15.9994           0
     48674 TIP3     8743     TIP3     H1       HT       0.417000       1.00800           0
     48675 TIP3     8743     TIP3     H2       HT       0.417000       1.00800           0
     48676 TIP3     8744     TIP3     OH2      OT      -0.834000       15.9994           0
     48677 TIP3     8744     TIP3     H1       HT       0.417000       1.00800           0
     48678 TIP3     8744     TIP3     H2       HT       0.417000       1.00800           0
     48679 TIP3     8745     TIP3     OH2      OT      -0.834000       15.9994           0
     48680 TIP3     8745     TIP3     H1       HT       0.417000       1.00800           0
     48681 TIP3     8745     TIP3     H2       HT       0.417000       1.00800           0
     48682 TIP3     8746     TIP3     OH2      OT      -0.834000       15.9994           0
     48683 TIP3     8746     TIP3     H1       HT       0.417000       1.00800           0
     48684 TIP3     8746     TIP3     H2       HT       0.417000       1.00800           0
     48685 TIP3     8747     TIP3     OH2      OT      -0.834000       15.9994           0
     48686 TIP3     8747     TIP3     H1       HT       0.417000       1.00800           0
     48687 TIP3     8747     TIP3     H2       HT       0.417000       1.00800           0
     48688 TIP3     8748     TIP3     OH2      OT      -0.834000       15.9994           0
     48689 TIP3     8748     TIP3     H1       HT       0.417000       1.00800           0
     48690 TIP3     8748     TIP3     H2       HT       0.417000       1.00800           0
     48691 TIP3     8749     TIP3     OH2      OT      -0.834000       15.9994           0
     48692 TIP3     8749     TIP3     H1       HT       0.417000       1.00800           0
     48693 TIP3     8749     TIP3     H2       HT       0.417000       1.00800           0
     48694 TIP3     8750     TIP3     OH2      OT      -0.834000       15.9994           0
     48695 TIP3     8750     TIP3     H1       HT       0.417000       1.00800           0
     48696 TIP3     8750     TIP3     H2       HT       0.417000       1.00800           0
     48697 TIP3     8751     TIP3     OH2      OT      -0.834000       15.9994           0
     48698 TIP3     8751     TIP3     H1       HT       0.417000       1.00800           0
     48699 TIP3     8751     TIP3     H2       HT       0.417000       1.00800           0
     48700 TIP3     8752     TIP3     OH2      OT      -0.834000       15.9994           0
     48701 TIP3     8752     TIP3     H1       HT       0.417000       1.00800           0
     48702 TIP3     8752     TIP3     H2       HT       0.417000       1.00800           0
     48703 TIP3     8753     TIP3     OH2      OT      -0.834000       15.9994           0
     48704 TIP3     8753     TIP3     H1       HT       0.417000       1.00800           0
     48705 TIP3     8753     TIP3     H2       HT       0.417000       1.00800           0
     48706 TIP3     8754     TIP3     OH2      OT      -0.834000       15.9994           0
     48707 TIP3     8754     TIP3     H1       HT       0.417000       1.00800           0
     48708 TIP3     8754     TIP3     H2       HT       0.417000       1.00800           0
     48709 TIP3     8755     TIP3     OH2      OT      -0.834000       15.9994           0
     48710 TIP3     8755     TIP3     H1       HT       0.417000       1.00800           0
     48711 TIP3     8755     TIP3     H2       HT       0.417000       1.00800           0
     48712 TIP3     8756     TIP3     OH2      OT      -0.834000       15.9994           0
     48713 TIP3     8756     TIP3     H1       HT       0.417000       1.00800           0
     48714 TIP3     8756     TIP3     H2       HT       0.417000       1.00800           0
     48715 TIP3     8757     TIP3     OH2      OT      -0.834000       15.9994           0
     48716 TIP3     8757     TIP3     H1       HT       0.417000       1.00800           0
     48717 TIP3     8757     TIP3     H2       HT       0.417000       1.00800           0
     48718 TIP3     8758     TIP3     OH2      OT      -0.834000       15.9994           0
     48719 TIP3     8758     TIP3     H1       HT       0.417000       1.00800           0
     48720 TIP3     8758     TIP3     H2       HT       0.417000       1.00800           0
     48721 TIP3     8759     TIP3     OH2      OT      -0.834000       15.9994           0
     48722 TIP3     8759     TIP3     H1       HT       0.417000       1.00800           0
     48723 TIP3     8759     TIP3     H2       HT       0.417000       1.00800           0
     48724 TIP3     8760     TIP3     OH2      OT      -0.834000       15.9994           0
     48725 TIP3     8760     TIP3     H1       HT       0.417000       1.00800           0
     48726 TIP3     8760     TIP3     H2       HT       0.417000       1.00800           0
     48727 TIP3     8761     TIP3     OH2      OT      -0.834000       15.9994           0
     48728 TIP3     8761     TIP3     H1       HT       0.417000       1.00800           0
     48729 TIP3     8761     TIP3     H2       HT       0.417000       1.00800           0
     48730 TIP3     8762     TIP3     OH2      OT      -0.834000       15.9994           0
     48731 TIP3     8762     TIP3     H1       HT       0.417000       1.00800           0
     48732 TIP3     8762     TIP3     H2       HT       0.417000       1.00800           0
     48733 TIP3     8763     TIP3     OH2      OT      -0.834000       15.9994           0
     48734 TIP3     8763     TIP3     H1       HT       0.417000       1.00800           0
     48735 TIP3     8763     TIP3     H2       HT       0.417000       1.00800           0
     48736 TIP3     8764     TIP3     OH2      OT      -0.834000       15.9994           0
     48737 TIP3     8764     TIP3     H1       HT       0.417000       1.00800           0
     48738 TIP3     8764     TIP3     H2       HT       0.417000       1.00800           0
     48739 TIP3     8765     TIP3     OH2      OT      -0.834000       15.9994           0
     48740 TIP3     8765     TIP3     H1       HT       0.417000       1.00800           0
     48741 TIP3     8765     TIP3     H2       HT       0.417000       1.00800           0
     48742 TIP3     8766     TIP3     OH2      OT      -0.834000       15.9994           0
     48743 TIP3     8766     TIP3     H1       HT       0.417000       1.00800           0
     48744 TIP3     8766     TIP3     H2       HT       0.417000       1.00800           0
     48745 TIP3     8767     TIP3     OH2      OT      -0.834000       15.9994           0
     48746 TIP3     8767     TIP3     H1       HT       0.417000       1.00800           0
     48747 TIP3     8767     TIP3     H2       HT       0.417000       1.00800           0
     48748 TIP3     8768     TIP3     OH2      OT      -0.834000       15.9994           0
     48749 TIP3     8768     TIP3     H1       HT       0.417000       1.00800           0
     48750 TIP3     8768     TIP3     H2       HT       0.417000       1.00800           0
     48751 TIP3     8769     TIP3     OH2      OT      -0.834000       15.9994           0
     48752 TIP3     8769     TIP3     H1       HT       0.417000       1.00800           0
     48753 TIP3     8769     TIP3     H2       HT       0.417000       1.00800           0
     48754 TIP3     8770     TIP3     OH2      OT      -0.834000       15.9994           0
     48755 TIP3     8770     TIP3     H1       HT       0.417000       1.00800           0
     48756 TIP3     8770     TIP3     H2       HT       0.417000       1.00800           0
     48757 TIP3     8771     TIP3     OH2      OT      -0.834000       15.9994           0
     48758 TIP3     8771     TIP3     H1       HT       0.417000       1.00800           0
     48759 TIP3     8771     TIP3     H2       HT       0.417000       1.00800           0
     48760 TIP3     8772     TIP3     OH2      OT      -0.834000       15.9994           0
     48761 TIP3     8772     TIP3     H1       HT       0.417000       1.00800           0
     48762 TIP3     8772     TIP3     H2       HT       0.417000       1.00800           0
     48763 TIP3     8773     TIP3     OH2      OT      -0.834000       15.9994           0
     48764 TIP3     8773     TIP3     H1       HT       0.417000       1.00800           0
     48765 TIP3     8773     TIP3     H2       HT       0.417000       1.00800           0
     48766 TIP3     8774     TIP3     OH2      OT      -0.834000       15.9994           0
     48767 TIP3     8774     TIP3     H1       HT       0.417000       1.00800           0
     48768 TIP3     8774     TIP3     H2       HT       0.417000       1.00800           0
     48769 TIP3     8775     TIP3     OH2      OT      -0.834000       15.9994           0
     48770 TIP3     8775     TIP3     H1       HT       0.417000       1.00800           0
     48771 TIP3     8775     TIP3     H2       HT       0.417000       1.00800           0
     48772 TIP3     8776     TIP3     OH2      OT      -0.834000       15.9994           0
     48773 TIP3     8776     TIP3     H1       HT       0.417000       1.00800           0
     48774 TIP3     8776     TIP3     H2       HT       0.417000       1.00800           0
     48775 TIP3     8777     TIP3     OH2      OT      -0.834000       15.9994           0
     48776 TIP3     8777     TIP3     H1       HT       0.417000       1.00800           0
     48777 TIP3     8777     TIP3     H2       HT       0.417000       1.00800           0
     48778 TIP3     8778     TIP3     OH2      OT      -0.834000       15.9994           0
     48779 TIP3     8778     TIP3     H1       HT       0.417000       1.00800           0
     48780 TIP3     8778     TIP3     H2       HT       0.417000       1.00800           0
     48781 TIP3     8779     TIP3     OH2      OT      -0.834000       15.9994           0
     48782 TIP3     8779     TIP3     H1       HT       0.417000       1.00800           0
     48783 TIP3     8779     TIP3     H2       HT       0.417000       1.00800           0
     48784 TIP3     8780     TIP3     OH2      OT      -0.834000       15.9994           0
     48785 TIP3     8780     TIP3     H1       HT       0.417000       1.00800           0
     48786 TIP3     8780     TIP3     H2       HT       0.417000       1.00800           0
     48787 TIP3     8781     TIP3     OH2      OT      -0.834000       15.9994           0
     48788 TIP3     8781     TIP3     H1       HT       0.417000       1.00800           0
     48789 TIP3     8781     TIP3     H2       HT       0.417000       1.00800           0
     48790 TIP3     8782     TIP3     OH2      OT      -0.834000       15.9994           0
     48791 TIP3     8782     TIP3     H1       HT       0.417000       1.00800           0
     48792 TIP3     8782     TIP3     H2       HT       0.417000       1.00800           0
     48793 TIP3     8783     TIP3     OH2      OT      -0.834000       15.9994           0
     48794 TIP3     8783     TIP3     H1       HT       0.417000       1.00800           0
     48795 TIP3     8783     TIP3     H2       HT       0.417000       1.00800           0
     48796 TIP3     8784     TIP3     OH2      OT      -0.834000       15.9994           0
     48797 TIP3     8784     TIP3     H1       HT       0.417000       1.00800           0
     48798 TIP3     8784     TIP3     H2       HT       0.417000       1.00800           0
     48799 TIP3     8785     TIP3     OH2      OT      -0.834000       15.9994           0
     48800 TIP3     8785     TIP3     H1       HT       0.417000       1.00800           0
     48801 TIP3     8785     TIP3     H2       HT       0.417000       1.00800           0
     48802 TIP3     8786     TIP3     OH2      OT      -0.834000       15.9994           0
     48803 TIP3     8786     TIP3     H1       HT       0.417000       1.00800           0
     48804 TIP3     8786     TIP3     H2       HT       0.417000       1.00800           0
     48805 TIP3     8787     TIP3     OH2      OT      -0.834000       15.9994           0
     48806 TIP3     8787     TIP3     H1       HT       0.417000       1.00800           0
     48807 TIP3     8787     TIP3     H2       HT       0.417000       1.00800           0
     48808 TIP3     8788     TIP3     OH2      OT      -0.834000       15.9994           0
     48809 TIP3     8788     TIP3     H1       HT       0.417000       1.00800           0
     48810 TIP3     8788     TIP3     H2       HT       0.417000       1.00800           0
     48811 TIP3     8789     TIP3     OH2      OT      -0.834000       15.9994           0
     48812 TIP3     8789     TIP3     H1       HT       0.417000       1.00800           0
     48813 TIP3     8789     TIP3     H2       HT       0.417000       1.00800           0
     48814 TIP3     8790     TIP3     OH2      OT      -0.834000       15.9994           0
     48815 TIP3     8790     TIP3     H1       HT       0.417000       1.00800           0
     48816 TIP3     8790     TIP3     H2       HT       0.417000       1.00800           0
     48817 TIP3     8791     TIP3     OH2      OT      -0.834000       15.9994           0
     48818 TIP3     8791     TIP3     H1       HT       0.417000       1.00800           0
     48819 TIP3     8791     TIP3     H2       HT       0.417000       1.00800           0
     48820 TIP3     8792     TIP3     OH2      OT      -0.834000       15.9994           0
     48821 TIP3     8792     TIP3     H1       HT       0.417000       1.00800           0
     48822 TIP3     8792     TIP3     H2       HT       0.417000       1.00800           0
     48823 TIP3     8793     TIP3     OH2      OT      -0.834000       15.9994           0
     48824 TIP3     8793     TIP3     H1       HT       0.417000       1.00800           0
     48825 TIP3     8793     TIP3     H2       HT       0.417000       1.00800           0
     48826 TIP3     8794     TIP3     OH2      OT      -0.834000       15.9994           0
     48827 TIP3     8794     TIP3     H1       HT       0.417000       1.00800           0
     48828 TIP3     8794     TIP3     H2       HT       0.417000       1.00800           0
     48829 TIP3     8795     TIP3     OH2      OT      -0.834000       15.9994           0
     48830 TIP3     8795     TIP3     H1       HT       0.417000       1.00800           0
     48831 TIP3     8795     TIP3     H2       HT       0.417000       1.00800           0
     48832 TIP3     8796     TIP3     OH2      OT      -0.834000       15.9994           0
     48833 TIP3     8796     TIP3     H1       HT       0.417000       1.00800           0
     48834 TIP3     8796     TIP3     H2       HT       0.417000       1.00800           0
     48835 TIP3     8797     TIP3     OH2      OT      -0.834000       15.9994           0
     48836 TIP3     8797     TIP3     H1       HT       0.417000       1.00800           0
     48837 TIP3     8797     TIP3     H2       HT       0.417000       1.00800           0
     48838 TIP3     8798     TIP3     OH2      OT      -0.834000       15.9994           0
     48839 TIP3     8798     TIP3     H1       HT       0.417000       1.00800           0
     48840 TIP3     8798     TIP3     H2       HT       0.417000       1.00800           0
     48841 TIP3     8799     TIP3     OH2      OT      -0.834000       15.9994           0
     48842 TIP3     8799     TIP3     H1       HT       0.417000       1.00800           0
     48843 TIP3     8799     TIP3     H2       HT       0.417000       1.00800           0
     48844 TIP3     8800     TIP3     OH2      OT      -0.834000       15.9994           0
     48845 TIP3     8800     TIP3     H1       HT       0.417000       1.00800           0
     48846 TIP3     8800     TIP3     H2       HT       0.417000       1.00800           0
     48847 TIP3     8801     TIP3     OH2      OT      -0.834000       15.9994           0
     48848 TIP3     8801     TIP3     H1       HT       0.417000       1.00800           0
     48849 TIP3     8801     TIP3     H2       HT       0.417000       1.00800           0
     48850 TIP3     8802     TIP3     OH2      OT      -0.834000       15.9994           0
     48851 TIP3     8802     TIP3     H1       HT       0.417000       1.00800           0
     48852 TIP3     8802     TIP3     H2       HT       0.417000       1.00800           0
     48853 TIP3     8803     TIP3     OH2      OT      -0.834000       15.9994           0
     48854 TIP3     8803     TIP3     H1       HT       0.417000       1.00800           0
     48855 TIP3     8803     TIP3     H2       HT       0.417000       1.00800           0
     48856 TIP3     8804     TIP3     OH2      OT      -0.834000       15.9994           0
     48857 TIP3     8804     TIP3     H1       HT       0.417000       1.00800           0
     48858 TIP3     8804     TIP3     H2       HT       0.417000       1.00800           0
     48859 TIP3     8805     TIP3     OH2      OT      -0.834000       15.9994           0
     48860 TIP3     8805     TIP3     H1       HT       0.417000       1.00800           0
     48861 TIP3     8805     TIP3     H2       HT       0.417000       1.00800           0
     48862 TIP3     8806     TIP3     OH2      OT      -0.834000       15.9994           0
     48863 TIP3     8806     TIP3     H1       HT       0.417000       1.00800           0
     48864 TIP3     8806     TIP3     H2       HT       0.417000       1.00800           0
     48865 TIP3     8807     TIP3     OH2      OT      -0.834000       15.9994           0
     48866 TIP3     8807     TIP3     H1       HT       0.417000       1.00800           0
     48867 TIP3     8807     TIP3     H2       HT       0.417000       1.00800           0
     48868 TIP3     8808     TIP3     OH2      OT      -0.834000       15.9994           0
     48869 TIP3     8808     TIP3     H1       HT       0.417000       1.00800           0
     48870 TIP3     8808     TIP3     H2       HT       0.417000       1.00800           0
     48871 TIP3     8809     TIP3     OH2      OT      -0.834000       15.9994           0
     48872 TIP3     8809     TIP3     H1       HT       0.417000       1.00800           0
     48873 TIP3     8809     TIP3     H2       HT       0.417000       1.00800           0
     48874 TIP3     8810     TIP3     OH2      OT      -0.834000       15.9994           0
     48875 TIP3     8810     TIP3     H1       HT       0.417000       1.00800           0
     48876 TIP3     8810     TIP3     H2       HT       0.417000       1.00800           0
     48877 TIP3     8811     TIP3     OH2      OT      -0.834000       15.9994           0
     48878 TIP3     8811     TIP3     H1       HT       0.417000       1.00800           0
     48879 TIP3     8811     TIP3     H2       HT       0.417000       1.00800           0
     48880 TIP3     8812     TIP3     OH2      OT      -0.834000       15.9994           0
     48881 TIP3     8812     TIP3     H1       HT       0.417000       1.00800           0
     48882 TIP3     8812     TIP3     H2       HT       0.417000       1.00800           0
     48883 TIP3     8813     TIP3     OH2      OT      -0.834000       15.9994           0
     48884 TIP3     8813     TIP3     H1       HT       0.417000       1.00800           0
     48885 TIP3     8813     TIP3     H2       HT       0.417000       1.00800           0
     48886 TIP3     8814     TIP3     OH2      OT      -0.834000       15.9994           0
     48887 TIP3     8814     TIP3     H1       HT       0.417000       1.00800           0
     48888 TIP3     8814     TIP3     H2       HT       0.417000       1.00800           0
     48889 TIP3     8815     TIP3     OH2      OT      -0.834000       15.9994           0
     48890 TIP3     8815     TIP3     H1       HT       0.417000       1.00800           0
     48891 TIP3     8815     TIP3     H2       HT       0.417000       1.00800           0
     48892 TIP3     8816     TIP3     OH2      OT      -0.834000       15.9994           0
     48893 TIP3     8816     TIP3     H1       HT       0.417000       1.00800           0
     48894 TIP3     8816     TIP3     H2       HT       0.417000       1.00800           0
     48895 TIP3     8817     TIP3     OH2      OT      -0.834000       15.9994           0
     48896 TIP3     8817     TIP3     H1       HT       0.417000       1.00800           0
     48897 TIP3     8817     TIP3     H2       HT       0.417000       1.00800           0
     48898 TIP3     8818     TIP3     OH2      OT      -0.834000       15.9994           0
     48899 TIP3     8818     TIP3     H1       HT       0.417000       1.00800           0
     48900 TIP3     8818     TIP3     H2       HT       0.417000       1.00800           0
     48901 TIP3     8819     TIP3     OH2      OT      -0.834000       15.9994           0
     48902 TIP3     8819     TIP3     H1       HT       0.417000       1.00800           0
     48903 TIP3     8819     TIP3     H2       HT       0.417000       1.00800           0
     48904 TIP3     8820     TIP3     OH2      OT      -0.834000       15.9994           0
     48905 TIP3     8820     TIP3     H1       HT       0.417000       1.00800           0
     48906 TIP3     8820     TIP3     H2       HT       0.417000       1.00800           0
     48907 TIP3     8821     TIP3     OH2      OT      -0.834000       15.9994           0
     48908 TIP3     8821     TIP3     H1       HT       0.417000       1.00800           0
     48909 TIP3     8821     TIP3     H2       HT       0.417000       1.00800           0
     48910 TIP3     8822     TIP3     OH2      OT      -0.834000       15.9994           0
     48911 TIP3     8822     TIP3     H1       HT       0.417000       1.00800           0
     48912 TIP3     8822     TIP3     H2       HT       0.417000       1.00800           0
     48913 TIP3     8823     TIP3     OH2      OT      -0.834000       15.9994           0
     48914 TIP3     8823     TIP3     H1       HT       0.417000       1.00800           0
     48915 TIP3     8823     TIP3     H2       HT       0.417000       1.00800           0
     48916 TIP3     8824     TIP3     OH2      OT      -0.834000       15.9994           0
     48917 TIP3     8824     TIP3     H1       HT       0.417000       1.00800           0
     48918 TIP3     8824     TIP3     H2       HT       0.417000       1.00800           0
     48919 TIP3     8825     TIP3     OH2      OT      -0.834000       15.9994           0
     48920 TIP3     8825     TIP3     H1       HT       0.417000       1.00800           0
     48921 TIP3     8825     TIP3     H2       HT       0.417000       1.00800           0
     48922 TIP3     8826     TIP3     OH2      OT      -0.834000       15.9994           0
     48923 TIP3     8826     TIP3     H1       HT       0.417000       1.00800           0
     48924 TIP3     8826     TIP3     H2       HT       0.417000       1.00800           0
     48925 TIP3     8827     TIP3     OH2      OT      -0.834000       15.9994           0
     48926 TIP3     8827     TIP3     H1       HT       0.417000       1.00800           0
     48927 TIP3     8827     TIP3     H2       HT       0.417000       1.00800           0
     48928 TIP3     8828     TIP3     OH2      OT      -0.834000       15.9994           0
     48929 TIP3     8828     TIP3     H1       HT       0.417000       1.00800           0
     48930 TIP3     8828     TIP3     H2       HT       0.417000       1.00800           0
     48931 TIP3     8829     TIP3     OH2      OT      -0.834000       15.9994           0
     48932 TIP3     8829     TIP3     H1       HT       0.417000       1.00800           0
     48933 TIP3     8829     TIP3     H2       HT       0.417000       1.00800           0
     48934 TIP3     8830     TIP3     OH2      OT      -0.834000       15.9994           0
     48935 TIP3     8830     TIP3     H1       HT       0.417000       1.00800           0
     48936 TIP3     8830     TIP3     H2       HT       0.417000       1.00800           0
     48937 TIP3     8831     TIP3     OH2      OT      -0.834000       15.9994           0
     48938 TIP3     8831     TIP3     H1       HT       0.417000       1.00800           0
     48939 TIP3     8831     TIP3     H2       HT       0.417000       1.00800           0
     48940 TIP3     8832     TIP3     OH2      OT      -0.834000       15.9994           0
     48941 TIP3     8832     TIP3     H1       HT       0.417000       1.00800           0
     48942 TIP3     8832     TIP3     H2       HT       0.417000       1.00800           0
     48943 TIP3     8833     TIP3     OH2      OT      -0.834000       15.9994           0
     48944 TIP3     8833     TIP3     H1       HT       0.417000       1.00800           0
     48945 TIP3     8833     TIP3     H2       HT       0.417000       1.00800           0
     48946 TIP3     8834     TIP3     OH2      OT      -0.834000       15.9994           0
     48947 TIP3     8834     TIP3     H1       HT       0.417000       1.00800           0
     48948 TIP3     8834     TIP3     H2       HT       0.417000       1.00800           0
     48949 TIP3     8835     TIP3     OH2      OT      -0.834000       15.9994           0
     48950 TIP3     8835     TIP3     H1       HT       0.417000       1.00800           0
     48951 TIP3     8835     TIP3     H2       HT       0.417000       1.00800           0
     48952 TIP3     8836     TIP3     OH2      OT      -0.834000       15.9994           0
     48953 TIP3     8836     TIP3     H1       HT       0.417000       1.00800           0
     48954 TIP3     8836     TIP3     H2       HT       0.417000       1.00800           0
     48955 TIP3     8837     TIP3     OH2      OT      -0.834000       15.9994           0
     48956 TIP3     8837     TIP3     H1       HT       0.417000       1.00800           0
     48957 TIP3     8837     TIP3     H2       HT       0.417000       1.00800           0
     48958 TIP3     8838     TIP3     OH2      OT      -0.834000       15.9994           0
     48959 TIP3     8838     TIP3     H1       HT       0.417000       1.00800           0
     48960 TIP3     8838     TIP3     H2       HT       0.417000       1.00800           0
     48961 TIP3     8839     TIP3     OH2      OT      -0.834000       15.9994           0
     48962 TIP3     8839     TIP3     H1       HT       0.417000       1.00800           0
     48963 TIP3     8839     TIP3     H2       HT       0.417000       1.00800           0
     48964 TIP3     8840     TIP3     OH2      OT      -0.834000       15.9994           0
     48965 TIP3     8840     TIP3     H1       HT       0.417000       1.00800           0
     48966 TIP3     8840     TIP3     H2       HT       0.417000       1.00800           0
     48967 TIP3     8841     TIP3     OH2      OT      -0.834000       15.9994           0
     48968 TIP3     8841     TIP3     H1       HT       0.417000       1.00800           0
     48969 TIP3     8841     TIP3     H2       HT       0.417000       1.00800           0
     48970 TIP3     8842     TIP3     OH2      OT      -0.834000       15.9994           0
     48971 TIP3     8842     TIP3     H1       HT       0.417000       1.00800           0
     48972 TIP3     8842     TIP3     H2       HT       0.417000       1.00800           0
     48973 TIP3     8843     TIP3     OH2      OT      -0.834000       15.9994           0
     48974 TIP3     8843     TIP3     H1       HT       0.417000       1.00800           0
     48975 TIP3     8843     TIP3     H2       HT       0.417000       1.00800           0
     48976 TIP3     8844     TIP3     OH2      OT      -0.834000       15.9994           0
     48977 TIP3     8844     TIP3     H1       HT       0.417000       1.00800           0
     48978 TIP3     8844     TIP3     H2       HT       0.417000       1.00800           0
     48979 TIP3     8845     TIP3     OH2      OT      -0.834000       15.9994           0
     48980 TIP3     8845     TIP3     H1       HT       0.417000       1.00800           0
     48981 TIP3     8845     TIP3     H2       HT       0.417000       1.00800           0
     48982 TIP3     8846     TIP3     OH2      OT      -0.834000       15.9994           0
     48983 TIP3     8846     TIP3     H1       HT       0.417000       1.00800           0
     48984 TIP3     8846     TIP3     H2       HT       0.417000       1.00800           0
     48985 TIP3     8847     TIP3     OH2      OT      -0.834000       15.9994           0
     48986 TIP3     8847     TIP3     H1       HT       0.417000       1.00800           0
     48987 TIP3     8847     TIP3     H2       HT       0.417000       1.00800           0
     48988 TIP3     8848     TIP3     OH2      OT      -0.834000       15.9994           0
     48989 TIP3     8848     TIP3     H1       HT       0.417000       1.00800           0
     48990 TIP3     8848     TIP3     H2       HT       0.417000       1.00800           0
     48991 TIP3     8849     TIP3     OH2      OT      -0.834000       15.9994           0
     48992 TIP3     8849     TIP3     H1       HT       0.417000       1.00800           0
     48993 TIP3     8849     TIP3     H2       HT       0.417000       1.00800           0
     48994 TIP3     8850     TIP3     OH2      OT      -0.834000       15.9994           0
     48995 TIP3     8850     TIP3     H1       HT       0.417000       1.00800           0
     48996 TIP3     8850     TIP3     H2       HT       0.417000       1.00800           0
     48997 TIP3     8851     TIP3     OH2      OT      -0.834000       15.9994           0
     48998 TIP3     8851     TIP3     H1       HT       0.417000       1.00800           0
     48999 TIP3     8851     TIP3     H2       HT       0.417000       1.00800           0
     49000 TIP3     8852     TIP3     OH2      OT      -0.834000       15.9994           0
     49001 TIP3     8852     TIP3     H1       HT       0.417000       1.00800           0
     49002 TIP3     8852     TIP3     H2       HT       0.417000       1.00800           0
     49003 TIP3     8853     TIP3     OH2      OT      -0.834000       15.9994           0
     49004 TIP3     8853     TIP3     H1       HT       0.417000       1.00800           0
     49005 TIP3     8853     TIP3     H2       HT       0.417000       1.00800           0
     49006 TIP3     8854     TIP3     OH2      OT      -0.834000       15.9994           0
     49007 TIP3     8854     TIP3     H1       HT       0.417000       1.00800           0
     49008 TIP3     8854     TIP3     H2       HT       0.417000       1.00800           0
     49009 TIP3     8855     TIP3     OH2      OT      -0.834000       15.9994           0
     49010 TIP3     8855     TIP3     H1       HT       0.417000       1.00800           0
     49011 TIP3     8855     TIP3     H2       HT       0.417000       1.00800           0
     49012 TIP3     8856     TIP3     OH2      OT      -0.834000       15.9994           0
     49013 TIP3     8856     TIP3     H1       HT       0.417000       1.00800           0
     49014 TIP3     8856     TIP3     H2       HT       0.417000       1.00800           0
     49015 TIP3     8857     TIP3     OH2      OT      -0.834000       15.9994           0
     49016 TIP3     8857     TIP3     H1       HT       0.417000       1.00800           0
     49017 TIP3     8857     TIP3     H2       HT       0.417000       1.00800           0
     49018 TIP3     8858     TIP3     OH2      OT      -0.834000       15.9994           0
     49019 TIP3     8858     TIP3     H1       HT       0.417000       1.00800           0
     49020 TIP3     8858     TIP3     H2       HT       0.417000       1.00800           0
     49021 TIP3     8859     TIP3     OH2      OT      -0.834000       15.9994           0
     49022 TIP3     8859     TIP3     H1       HT       0.417000       1.00800           0
     49023 TIP3     8859     TIP3     H2       HT       0.417000       1.00800           0
     49024 TIP3     8860     TIP3     OH2      OT      -0.834000       15.9994           0
     49025 TIP3     8860     TIP3     H1       HT       0.417000       1.00800           0
     49026 TIP3     8860     TIP3     H2       HT       0.417000       1.00800           0
     49027 TIP3     8861     TIP3     OH2      OT      -0.834000       15.9994           0
     49028 TIP3     8861     TIP3     H1       HT       0.417000       1.00800           0
     49029 TIP3     8861     TIP3     H2       HT       0.417000       1.00800           0
     49030 TIP3     8862     TIP3     OH2      OT      -0.834000       15.9994           0
     49031 TIP3     8862     TIP3     H1       HT       0.417000       1.00800           0
     49032 TIP3     8862     TIP3     H2       HT       0.417000       1.00800           0
     49033 TIP3     8863     TIP3     OH2      OT      -0.834000       15.9994           0
     49034 TIP3     8863     TIP3     H1       HT       0.417000       1.00800           0
     49035 TIP3     8863     TIP3     H2       HT       0.417000       1.00800           0
     49036 TIP3     8864     TIP3     OH2      OT      -0.834000       15.9994           0
     49037 TIP3     8864     TIP3     H1       HT       0.417000       1.00800           0
     49038 TIP3     8864     TIP3     H2       HT       0.417000       1.00800           0
     49039 TIP3     8865     TIP3     OH2      OT      -0.834000       15.9994           0
     49040 TIP3     8865     TIP3     H1       HT       0.417000       1.00800           0
     49041 TIP3     8865     TIP3     H2       HT       0.417000       1.00800           0
     49042 TIP3     8866     TIP3     OH2      OT      -0.834000       15.9994           0
     49043 TIP3     8866     TIP3     H1       HT       0.417000       1.00800           0
     49044 TIP3     8866     TIP3     H2       HT       0.417000       1.00800           0
     49045 TIP3     8867     TIP3     OH2      OT      -0.834000       15.9994           0
     49046 TIP3     8867     TIP3     H1       HT       0.417000       1.00800           0
     49047 TIP3     8867     TIP3     H2       HT       0.417000       1.00800           0
     49048 TIP3     8868     TIP3     OH2      OT      -0.834000       15.9994           0
     49049 TIP3     8868     TIP3     H1       HT       0.417000       1.00800           0
     49050 TIP3     8868     TIP3     H2       HT       0.417000       1.00800           0
     49051 TIP3     8869     TIP3     OH2      OT      -0.834000       15.9994           0
     49052 TIP3     8869     TIP3     H1       HT       0.417000       1.00800           0
     49053 TIP3     8869     TIP3     H2       HT       0.417000       1.00800           0
     49054 TIP3     8870     TIP3     OH2      OT      -0.834000       15.9994           0
     49055 TIP3     8870     TIP3     H1       HT       0.417000       1.00800           0
     49056 TIP3     8870     TIP3     H2       HT       0.417000       1.00800           0
     49057 TIP3     8871     TIP3     OH2      OT      -0.834000       15.9994           0
     49058 TIP3     8871     TIP3     H1       HT       0.417000       1.00800           0
     49059 TIP3     8871     TIP3     H2       HT       0.417000       1.00800           0
     49060 TIP3     8872     TIP3     OH2      OT      -0.834000       15.9994           0
     49061 TIP3     8872     TIP3     H1       HT       0.417000       1.00800           0
     49062 TIP3     8872     TIP3     H2       HT       0.417000       1.00800           0
     49063 TIP3     8873     TIP3     OH2      OT      -0.834000       15.9994           0
     49064 TIP3     8873     TIP3     H1       HT       0.417000       1.00800           0
     49065 TIP3     8873     TIP3     H2       HT       0.417000       1.00800           0
     49066 TIP3     8874     TIP3     OH2      OT      -0.834000       15.9994           0
     49067 TIP3     8874     TIP3     H1       HT       0.417000       1.00800           0
     49068 TIP3     8874     TIP3     H2       HT       0.417000       1.00800           0
     49069 TIP3     8875     TIP3     OH2      OT      -0.834000       15.9994           0
     49070 TIP3     8875     TIP3     H1       HT       0.417000       1.00800           0
     49071 TIP3     8875     TIP3     H2       HT       0.417000       1.00800           0
     49072 TIP3     8876     TIP3     OH2      OT      -0.834000       15.9994           0
     49073 TIP3     8876     TIP3     H1       HT       0.417000       1.00800           0
     49074 TIP3     8876     TIP3     H2       HT       0.417000       1.00800           0
     49075 TIP3     8877     TIP3     OH2      OT      -0.834000       15.9994           0
     49076 TIP3     8877     TIP3     H1       HT       0.417000       1.00800           0
     49077 TIP3     8877     TIP3     H2       HT       0.417000       1.00800           0
     49078 TIP3     8878     TIP3     OH2      OT      -0.834000       15.9994           0
     49079 TIP3     8878     TIP3     H1       HT       0.417000       1.00800           0
     49080 TIP3     8878     TIP3     H2       HT       0.417000       1.00800           0
     49081 TIP3     8879     TIP3     OH2      OT      -0.834000       15.9994           0
     49082 TIP3     8879     TIP3     H1       HT       0.417000       1.00800           0
     49083 TIP3     8879     TIP3     H2       HT       0.417000       1.00800           0
     49084 TIP3     8880     TIP3     OH2      OT      -0.834000       15.9994           0
     49085 TIP3     8880     TIP3     H1       HT       0.417000       1.00800           0
     49086 TIP3     8880     TIP3     H2       HT       0.417000       1.00800           0
     49087 TIP3     8881     TIP3     OH2      OT      -0.834000       15.9994           0
     49088 TIP3     8881     TIP3     H1       HT       0.417000       1.00800           0
     49089 TIP3     8881     TIP3     H2       HT       0.417000       1.00800           0
     49090 TIP3     8882     TIP3     OH2      OT      -0.834000       15.9994           0
     49091 TIP3     8882     TIP3     H1       HT       0.417000       1.00800           0
     49092 TIP3     8882     TIP3     H2       HT       0.417000       1.00800           0
     49093 TIP3     8883     TIP3     OH2      OT      -0.834000       15.9994           0
     49094 TIP3     8883     TIP3     H1       HT       0.417000       1.00800           0
     49095 TIP3     8883     TIP3     H2       HT       0.417000       1.00800           0
     49096 TIP3     8884     TIP3     OH2      OT      -0.834000       15.9994           0
     49097 TIP3     8884     TIP3     H1       HT       0.417000       1.00800           0
     49098 TIP3     8884     TIP3     H2       HT       0.417000       1.00800           0
     49099 TIP3     8885     TIP3     OH2      OT      -0.834000       15.9994           0
     49100 TIP3     8885     TIP3     H1       HT       0.417000       1.00800           0
     49101 TIP3     8885     TIP3     H2       HT       0.417000       1.00800           0
     49102 TIP3     8886     TIP3     OH2      OT      -0.834000       15.9994           0
     49103 TIP3     8886     TIP3     H1       HT       0.417000       1.00800           0
     49104 TIP3     8886     TIP3     H2       HT       0.417000       1.00800           0
     49105 TIP3     8887     TIP3     OH2      OT      -0.834000       15.9994           0
     49106 TIP3     8887     TIP3     H1       HT       0.417000       1.00800           0
     49107 TIP3     8887     TIP3     H2       HT       0.417000       1.00800           0
     49108 TIP3     8888     TIP3     OH2      OT      -0.834000       15.9994           0
     49109 TIP3     8888     TIP3     H1       HT       0.417000       1.00800           0
     49110 TIP3     8888     TIP3     H2       HT       0.417000       1.00800           0
     49111 TIP3     8889     TIP3     OH2      OT      -0.834000       15.9994           0
     49112 TIP3     8889     TIP3     H1       HT       0.417000       1.00800           0
     49113 TIP3     8889     TIP3     H2       HT       0.417000       1.00800           0
     49114 TIP3     8890     TIP3     OH2      OT      -0.834000       15.9994           0
     49115 TIP3     8890     TIP3     H1       HT       0.417000       1.00800           0
     49116 TIP3     8890     TIP3     H2       HT       0.417000       1.00800           0
     49117 TIP3     8891     TIP3     OH2      OT      -0.834000       15.9994           0
     49118 TIP3     8891     TIP3     H1       HT       0.417000       1.00800           0
     49119 TIP3     8891     TIP3     H2       HT       0.417000       1.00800           0
     49120 TIP3     8892     TIP3     OH2      OT      -0.834000       15.9994           0
     49121 TIP3     8892     TIP3     H1       HT       0.417000       1.00800           0
     49122 TIP3     8892     TIP3     H2       HT       0.417000       1.00800           0
     49123 TIP3     8893     TIP3     OH2      OT      -0.834000       15.9994           0
     49124 TIP3     8893     TIP3     H1       HT       0.417000       1.00800           0
     49125 TIP3     8893     TIP3     H2       HT       0.417000       1.00800           0
     49126 TIP3     8894     TIP3     OH2      OT      -0.834000       15.9994           0
     49127 TIP3     8894     TIP3     H1       HT       0.417000       1.00800           0
     49128 TIP3     8894     TIP3     H2       HT       0.417000       1.00800           0
     49129 TIP3     8895     TIP3     OH2      OT      -0.834000       15.9994           0
     49130 TIP3     8895     TIP3     H1       HT       0.417000       1.00800           0
     49131 TIP3     8895     TIP3     H2       HT       0.417000       1.00800           0
     49132 TIP3     8896     TIP3     OH2      OT      -0.834000       15.9994           0
     49133 TIP3     8896     TIP3     H1       HT       0.417000       1.00800           0
     49134 TIP3     8896     TIP3     H2       HT       0.417000       1.00800           0
     49135 TIP3     8897     TIP3     OH2      OT      -0.834000       15.9994           0
     49136 TIP3     8897     TIP3     H1       HT       0.417000       1.00800           0
     49137 TIP3     8897     TIP3     H2       HT       0.417000       1.00800           0
     49138 TIP3     8898     TIP3     OH2      OT      -0.834000       15.9994           0
     49139 TIP3     8898     TIP3     H1       HT       0.417000       1.00800           0
     49140 TIP3     8898     TIP3     H2       HT       0.417000       1.00800           0
     49141 TIP3     8899     TIP3     OH2      OT      -0.834000       15.9994           0
     49142 TIP3     8899     TIP3     H1       HT       0.417000       1.00800           0
     49143 TIP3     8899     TIP3     H2       HT       0.417000       1.00800           0
     49144 TIP3     8900     TIP3     OH2      OT      -0.834000       15.9994           0
     49145 TIP3     8900     TIP3     H1       HT       0.417000       1.00800           0
     49146 TIP3     8900     TIP3     H2       HT       0.417000       1.00800           0
     49147 TIP3     8901     TIP3     OH2      OT      -0.834000       15.9994           0
     49148 TIP3     8901     TIP3     H1       HT       0.417000       1.00800           0
     49149 TIP3     8901     TIP3     H2       HT       0.417000       1.00800           0
     49150 TIP3     8902     TIP3     OH2      OT      -0.834000       15.9994           0
     49151 TIP3     8902     TIP3     H1       HT       0.417000       1.00800           0
     49152 TIP3     8902     TIP3     H2       HT       0.417000       1.00800           0
     49153 TIP3     8903     TIP3     OH2      OT      -0.834000       15.9994           0
     49154 TIP3     8903     TIP3     H1       HT       0.417000       1.00800           0
     49155 TIP3     8903     TIP3     H2       HT       0.417000       1.00800           0
     49156 TIP3     8904     TIP3     OH2      OT      -0.834000       15.9994           0
     49157 TIP3     8904     TIP3     H1       HT       0.417000       1.00800           0
     49158 TIP3     8904     TIP3     H2       HT       0.417000       1.00800           0
     49159 TIP3     8905     TIP3     OH2      OT      -0.834000       15.9994           0
     49160 TIP3     8905     TIP3     H1       HT       0.417000       1.00800           0
     49161 TIP3     8905     TIP3     H2       HT       0.417000       1.00800           0
     49162 TIP3     8906     TIP3     OH2      OT      -0.834000       15.9994           0
     49163 TIP3     8906     TIP3     H1       HT       0.417000       1.00800           0
     49164 TIP3     8906     TIP3     H2       HT       0.417000       1.00800           0
     49165 TIP3     8907     TIP3     OH2      OT      -0.834000       15.9994           0
     49166 TIP3     8907     TIP3     H1       HT       0.417000       1.00800           0
     49167 TIP3     8907     TIP3     H2       HT       0.417000       1.00800           0
     49168 TIP3     8908     TIP3     OH2      OT      -0.834000       15.9994           0
     49169 TIP3     8908     TIP3     H1       HT       0.417000       1.00800           0
     49170 TIP3     8908     TIP3     H2       HT       0.417000       1.00800           0
     49171 TIP3     8909     TIP3     OH2      OT      -0.834000       15.9994           0
     49172 TIP3     8909     TIP3     H1       HT       0.417000       1.00800           0
     49173 TIP3     8909     TIP3     H2       HT       0.417000       1.00800           0
     49174 TIP3     8910     TIP3     OH2      OT      -0.834000       15.9994           0
     49175 TIP3     8910     TIP3     H1       HT       0.417000       1.00800           0
     49176 TIP3     8910     TIP3     H2       HT       0.417000       1.00800           0
     49177 TIP3     8911     TIP3     OH2      OT      -0.834000       15.9994           0
     49178 TIP3     8911     TIP3     H1       HT       0.417000       1.00800           0
     49179 TIP3     8911     TIP3     H2       HT       0.417000       1.00800           0
     49180 TIP3     8912     TIP3     OH2      OT      -0.834000       15.9994           0
     49181 TIP3     8912     TIP3     H1       HT       0.417000       1.00800           0
     49182 TIP3     8912     TIP3     H2       HT       0.417000       1.00800           0
     49183 TIP3     8913     TIP3     OH2      OT      -0.834000       15.9994           0
     49184 TIP3     8913     TIP3     H1       HT       0.417000       1.00800           0
     49185 TIP3     8913     TIP3     H2       HT       0.417000       1.00800           0
     49186 TIP3     8914     TIP3     OH2      OT      -0.834000       15.9994           0
     49187 TIP3     8914     TIP3     H1       HT       0.417000       1.00800           0
     49188 TIP3     8914     TIP3     H2       HT       0.417000       1.00800           0
     49189 TIP3     8915     TIP3     OH2      OT      -0.834000       15.9994           0
     49190 TIP3     8915     TIP3     H1       HT       0.417000       1.00800           0
     49191 TIP3     8915     TIP3     H2       HT       0.417000       1.00800           0
     49192 TIP3     8916     TIP3     OH2      OT      -0.834000       15.9994           0
     49193 TIP3     8916     TIP3     H1       HT       0.417000       1.00800           0
     49194 TIP3     8916     TIP3     H2       HT       0.417000       1.00800           0
     49195 TIP3     8917     TIP3     OH2      OT      -0.834000       15.9994           0
     49196 TIP3     8917     TIP3     H1       HT       0.417000       1.00800           0
     49197 TIP3     8917     TIP3     H2       HT       0.417000       1.00800           0
     49198 TIP3     8918     TIP3     OH2      OT      -0.834000       15.9994           0
     49199 TIP3     8918     TIP3     H1       HT       0.417000       1.00800           0
     49200 TIP3     8918     TIP3     H2       HT       0.417000       1.00800           0
     49201 TIP3     8919     TIP3     OH2      OT      -0.834000       15.9994           0
     49202 TIP3     8919     TIP3     H1       HT       0.417000       1.00800           0
     49203 TIP3     8919     TIP3     H2       HT       0.417000       1.00800           0
     49204 TIP3     8920     TIP3     OH2      OT      -0.834000       15.9994           0
     49205 TIP3     8920     TIP3     H1       HT       0.417000       1.00800           0
     49206 TIP3     8920     TIP3     H2       HT       0.417000       1.00800           0
     49207 TIP3     8921     TIP3     OH2      OT      -0.834000       15.9994           0
     49208 TIP3     8921     TIP3     H1       HT       0.417000       1.00800           0
     49209 TIP3     8921     TIP3     H2       HT       0.417000       1.00800           0
     49210 TIP3     8922     TIP3     OH2      OT      -0.834000       15.9994           0
     49211 TIP3     8922     TIP3     H1       HT       0.417000       1.00800           0
     49212 TIP3     8922     TIP3     H2       HT       0.417000       1.00800           0
     49213 TIP3     8923     TIP3     OH2      OT      -0.834000       15.9994           0
     49214 TIP3     8923     TIP3     H1       HT       0.417000       1.00800           0
     49215 TIP3     8923     TIP3     H2       HT       0.417000       1.00800           0
     49216 TIP3     8924     TIP3     OH2      OT      -0.834000       15.9994           0
     49217 TIP3     8924     TIP3     H1       HT       0.417000       1.00800           0
     49218 TIP3     8924     TIP3     H2       HT       0.417000       1.00800           0
     49219 TIP3     8925     TIP3     OH2      OT      -0.834000       15.9994           0
     49220 TIP3     8925     TIP3     H1       HT       0.417000       1.00800           0
     49221 TIP3     8925     TIP3     H2       HT       0.417000       1.00800           0
     49222 TIP3     8926     TIP3     OH2      OT      -0.834000       15.9994           0
     49223 TIP3     8926     TIP3     H1       HT       0.417000       1.00800           0
     49224 TIP3     8926     TIP3     H2       HT       0.417000       1.00800           0
     49225 TIP3     8927     TIP3     OH2      OT      -0.834000       15.9994           0
     49226 TIP3     8927     TIP3     H1       HT       0.417000       1.00800           0
     49227 TIP3     8927     TIP3     H2       HT       0.417000       1.00800           0
     49228 TIP3     8928     TIP3     OH2      OT      -0.834000       15.9994           0
     49229 TIP3     8928     TIP3     H1       HT       0.417000       1.00800           0
     49230 TIP3     8928     TIP3     H2       HT       0.417000       1.00800           0
     49231 TIP3     8929     TIP3     OH2      OT      -0.834000       15.9994           0
     49232 TIP3     8929     TIP3     H1       HT       0.417000       1.00800           0
     49233 TIP3     8929     TIP3     H2       HT       0.417000       1.00800           0
     49234 TIP3     8930     TIP3     OH2      OT      -0.834000       15.9994           0
     49235 TIP3     8930     TIP3     H1       HT       0.417000       1.00800           0
     49236 TIP3     8930     TIP3     H2       HT       0.417000       1.00800           0
     49237 TIP3     8931     TIP3     OH2      OT      -0.834000       15.9994           0
     49238 TIP3     8931     TIP3     H1       HT       0.417000       1.00800           0
     49239 TIP3     8931     TIP3     H2       HT       0.417000       1.00800           0
     49240 TIP3     8932     TIP3     OH2      OT      -0.834000       15.9994           0
     49241 TIP3     8932     TIP3     H1       HT       0.417000       1.00800           0
     49242 TIP3     8932     TIP3     H2       HT       0.417000       1.00800           0
     49243 TIP3     8933     TIP3     OH2      OT      -0.834000       15.9994           0
     49244 TIP3     8933     TIP3     H1       HT       0.417000       1.00800           0
     49245 TIP3     8933     TIP3     H2       HT       0.417000       1.00800           0
     49246 TIP3     8934     TIP3     OH2      OT      -0.834000       15.9994           0
     49247 TIP3     8934     TIP3     H1       HT       0.417000       1.00800           0
     49248 TIP3     8934     TIP3     H2       HT       0.417000       1.00800           0
     49249 TIP3     8935     TIP3     OH2      OT      -0.834000       15.9994           0
     49250 TIP3     8935     TIP3     H1       HT       0.417000       1.00800           0
     49251 TIP3     8935     TIP3     H2       HT       0.417000       1.00800           0
     49252 TIP3     8936     TIP3     OH2      OT      -0.834000       15.9994           0
     49253 TIP3     8936     TIP3     H1       HT       0.417000       1.00800           0
     49254 TIP3     8936     TIP3     H2       HT       0.417000       1.00800           0
     49255 TIP3     8937     TIP3     OH2      OT      -0.834000       15.9994           0
     49256 TIP3     8937     TIP3     H1       HT       0.417000       1.00800           0
     49257 TIP3     8937     TIP3     H2       HT       0.417000       1.00800           0
     49258 TIP3     8938     TIP3     OH2      OT      -0.834000       15.9994           0
     49259 TIP3     8938     TIP3     H1       HT       0.417000       1.00800           0
     49260 TIP3     8938     TIP3     H2       HT       0.417000       1.00800           0
     49261 TIP3     8939     TIP3     OH2      OT      -0.834000       15.9994           0
     49262 TIP3     8939     TIP3     H1       HT       0.417000       1.00800           0
     49263 TIP3     8939     TIP3     H2       HT       0.417000       1.00800           0
     49264 TIP3     8940     TIP3     OH2      OT      -0.834000       15.9994           0
     49265 TIP3     8940     TIP3     H1       HT       0.417000       1.00800           0
     49266 TIP3     8940     TIP3     H2       HT       0.417000       1.00800           0
     49267 TIP3     8941     TIP3     OH2      OT      -0.834000       15.9994           0
     49268 TIP3     8941     TIP3     H1       HT       0.417000       1.00800           0
     49269 TIP3     8941     TIP3     H2       HT       0.417000       1.00800           0
     49270 TIP3     8942     TIP3     OH2      OT      -0.834000       15.9994           0
     49271 TIP3     8942     TIP3     H1       HT       0.417000       1.00800           0
     49272 TIP3     8942     TIP3     H2       HT       0.417000       1.00800           0
     49273 TIP3     8943     TIP3     OH2      OT      -0.834000       15.9994           0
     49274 TIP3     8943     TIP3     H1       HT       0.417000       1.00800           0
     49275 TIP3     8943     TIP3     H2       HT       0.417000       1.00800           0
     49276 TIP3     8944     TIP3     OH2      OT      -0.834000       15.9994           0
     49277 TIP3     8944     TIP3     H1       HT       0.417000       1.00800           0
     49278 TIP3     8944     TIP3     H2       HT       0.417000       1.00800           0
     49279 TIP3     8945     TIP3     OH2      OT      -0.834000       15.9994           0
     49280 TIP3     8945     TIP3     H1       HT       0.417000       1.00800           0
     49281 TIP3     8945     TIP3     H2       HT       0.417000       1.00800           0
     49282 TIP3     8946     TIP3     OH2      OT      -0.834000       15.9994           0
     49283 TIP3     8946     TIP3     H1       HT       0.417000       1.00800           0
     49284 TIP3     8946     TIP3     H2       HT       0.417000       1.00800           0
     49285 TIP3     8947     TIP3     OH2      OT      -0.834000       15.9994           0
     49286 TIP3     8947     TIP3     H1       HT       0.417000       1.00800           0
     49287 TIP3     8947     TIP3     H2       HT       0.417000       1.00800           0
     49288 TIP3     8948     TIP3     OH2      OT      -0.834000       15.9994           0
     49289 TIP3     8948     TIP3     H1       HT       0.417000       1.00800           0
     49290 TIP3     8948     TIP3     H2       HT       0.417000       1.00800           0
     49291 TIP3     8949     TIP3     OH2      OT      -0.834000       15.9994           0
     49292 TIP3     8949     TIP3     H1       HT       0.417000       1.00800           0
     49293 TIP3     8949     TIP3     H2       HT       0.417000       1.00800           0
     49294 TIP3     8950     TIP3     OH2      OT      -0.834000       15.9994           0
     49295 TIP3     8950     TIP3     H1       HT       0.417000       1.00800           0
     49296 TIP3     8950     TIP3     H2       HT       0.417000       1.00800           0
     49297 TIP3     8951     TIP3     OH2      OT      -0.834000       15.9994           0
     49298 TIP3     8951     TIP3     H1       HT       0.417000       1.00800           0
     49299 TIP3     8951     TIP3     H2       HT       0.417000       1.00800           0
     49300 TIP3     8952     TIP3     OH2      OT      -0.834000       15.9994           0
     49301 TIP3     8952     TIP3     H1       HT       0.417000       1.00800           0
     49302 TIP3     8952     TIP3     H2       HT       0.417000       1.00800           0
     49303 TIP3     8953     TIP3     OH2      OT      -0.834000       15.9994           0
     49304 TIP3     8953     TIP3     H1       HT       0.417000       1.00800           0
     49305 TIP3     8953     TIP3     H2       HT       0.417000       1.00800           0
     49306 TIP3     8954     TIP3     OH2      OT      -0.834000       15.9994           0
     49307 TIP3     8954     TIP3     H1       HT       0.417000       1.00800           0
     49308 TIP3     8954     TIP3     H2       HT       0.417000       1.00800           0
     49309 TIP3     8955     TIP3     OH2      OT      -0.834000       15.9994           0
     49310 TIP3     8955     TIP3     H1       HT       0.417000       1.00800           0
     49311 TIP3     8955     TIP3     H2       HT       0.417000       1.00800           0
     49312 TIP3     8956     TIP3     OH2      OT      -0.834000       15.9994           0
     49313 TIP3     8956     TIP3     H1       HT       0.417000       1.00800           0
     49314 TIP3     8956     TIP3     H2       HT       0.417000       1.00800           0
     49315 TIP3     8957     TIP3     OH2      OT      -0.834000       15.9994           0
     49316 TIP3     8957     TIP3     H1       HT       0.417000       1.00800           0
     49317 TIP3     8957     TIP3     H2       HT       0.417000       1.00800           0
     49318 TIP3     8958     TIP3     OH2      OT      -0.834000       15.9994           0
     49319 TIP3     8958     TIP3     H1       HT       0.417000       1.00800           0
     49320 TIP3     8958     TIP3     H2       HT       0.417000       1.00800           0
     49321 TIP3     8959     TIP3     OH2      OT      -0.834000       15.9994           0
     49322 TIP3     8959     TIP3     H1       HT       0.417000       1.00800           0
     49323 TIP3     8959     TIP3     H2       HT       0.417000       1.00800           0
     49324 TIP3     8960     TIP3     OH2      OT      -0.834000       15.9994           0
     49325 TIP3     8960     TIP3     H1       HT       0.417000       1.00800           0
     49326 TIP3     8960     TIP3     H2       HT       0.417000       1.00800           0
     49327 TIP3     8961     TIP3     OH2      OT      -0.834000       15.9994           0
     49328 TIP3     8961     TIP3     H1       HT       0.417000       1.00800           0
     49329 TIP3     8961     TIP3     H2       HT       0.417000       1.00800           0
     49330 TIP3     8962     TIP3     OH2      OT      -0.834000       15.9994           0
     49331 TIP3     8962     TIP3     H1       HT       0.417000       1.00800           0
     49332 TIP3     8962     TIP3     H2       HT       0.417000       1.00800           0
     49333 TIP3     8963     TIP3     OH2      OT      -0.834000       15.9994           0
     49334 TIP3     8963     TIP3     H1       HT       0.417000       1.00800           0
     49335 TIP3     8963     TIP3     H2       HT       0.417000       1.00800           0
     49336 TIP3     8964     TIP3     OH2      OT      -0.834000       15.9994           0
     49337 TIP3     8964     TIP3     H1       HT       0.417000       1.00800           0
     49338 TIP3     8964     TIP3     H2       HT       0.417000       1.00800           0
     49339 TIP3     8965     TIP3     OH2      OT      -0.834000       15.9994           0
     49340 TIP3     8965     TIP3     H1       HT       0.417000       1.00800           0
     49341 TIP3     8965     TIP3     H2       HT       0.417000       1.00800           0
     49342 TIP3     8966     TIP3     OH2      OT      -0.834000       15.9994           0
     49343 TIP3     8966     TIP3     H1       HT       0.417000       1.00800           0
     49344 TIP3     8966     TIP3     H2       HT       0.417000       1.00800           0
     49345 TIP3     8967     TIP3     OH2      OT      -0.834000       15.9994           0
     49346 TIP3     8967     TIP3     H1       HT       0.417000       1.00800           0
     49347 TIP3     8967     TIP3     H2       HT       0.417000       1.00800           0
     49348 TIP3     8968     TIP3     OH2      OT      -0.834000       15.9994           0
     49349 TIP3     8968     TIP3     H1       HT       0.417000       1.00800           0
     49350 TIP3     8968     TIP3     H2       HT       0.417000       1.00800           0
     49351 TIP3     8969     TIP3     OH2      OT      -0.834000       15.9994           0
     49352 TIP3     8969     TIP3     H1       HT       0.417000       1.00800           0
     49353 TIP3     8969     TIP3     H2       HT       0.417000       1.00800           0
     49354 TIP3     8970     TIP3     OH2      OT      -0.834000       15.9994           0
     49355 TIP3     8970     TIP3     H1       HT       0.417000       1.00800           0
     49356 TIP3     8970     TIP3     H2       HT       0.417000       1.00800           0
     49357 TIP3     8971     TIP3     OH2      OT      -0.834000       15.9994           0
     49358 TIP3     8971     TIP3     H1       HT       0.417000       1.00800           0
     49359 TIP3     8971     TIP3     H2       HT       0.417000       1.00800           0
     49360 TIP3     8972     TIP3     OH2      OT      -0.834000       15.9994           0
     49361 TIP3     8972     TIP3     H1       HT       0.417000       1.00800           0
     49362 TIP3     8972     TIP3     H2       HT       0.417000       1.00800           0
     49363 TIP3     8973     TIP3     OH2      OT      -0.834000       15.9994           0
     49364 TIP3     8973     TIP3     H1       HT       0.417000       1.00800           0
     49365 TIP3     8973     TIP3     H2       HT       0.417000       1.00800           0
     49366 TIP3     8974     TIP3     OH2      OT      -0.834000       15.9994           0
     49367 TIP3     8974     TIP3     H1       HT       0.417000       1.00800           0
     49368 TIP3     8974     TIP3     H2       HT       0.417000       1.00800           0
     49369 TIP3     8975     TIP3     OH2      OT      -0.834000       15.9994           0
     49370 TIP3     8975     TIP3     H1       HT       0.417000       1.00800           0
     49371 TIP3     8975     TIP3     H2       HT       0.417000       1.00800           0
     49372 TIP3     8976     TIP3     OH2      OT      -0.834000       15.9994           0
     49373 TIP3     8976     TIP3     H1       HT       0.417000       1.00800           0
     49374 TIP3     8976     TIP3     H2       HT       0.417000       1.00800           0
     49375 TIP3     8977     TIP3     OH2      OT      -0.834000       15.9994           0
     49376 TIP3     8977     TIP3     H1       HT       0.417000       1.00800           0
     49377 TIP3     8977     TIP3     H2       HT       0.417000       1.00800           0
     49378 TIP3     8978     TIP3     OH2      OT      -0.834000       15.9994           0
     49379 TIP3     8978     TIP3     H1       HT       0.417000       1.00800           0
     49380 TIP3     8978     TIP3     H2       HT       0.417000       1.00800           0
     49381 TIP3     8979     TIP3     OH2      OT      -0.834000       15.9994           0
     49382 TIP3     8979     TIP3     H1       HT       0.417000       1.00800           0
     49383 TIP3     8979     TIP3     H2       HT       0.417000       1.00800           0
     49384 TIP3     8980     TIP3     OH2      OT      -0.834000       15.9994           0
     49385 TIP3     8980     TIP3     H1       HT       0.417000       1.00800           0
     49386 TIP3     8980     TIP3     H2       HT       0.417000       1.00800           0
     49387 TIP3     8981     TIP3     OH2      OT      -0.834000       15.9994           0
     49388 TIP3     8981     TIP3     H1       HT       0.417000       1.00800           0
     49389 TIP3     8981     TIP3     H2       HT       0.417000       1.00800           0
     49390 TIP3     8982     TIP3     OH2      OT      -0.834000       15.9994           0
     49391 TIP3     8982     TIP3     H1       HT       0.417000       1.00800           0
     49392 TIP3     8982     TIP3     H2       HT       0.417000       1.00800           0
     49393 TIP3     8983     TIP3     OH2      OT      -0.834000       15.9994           0
     49394 TIP3     8983     TIP3     H1       HT       0.417000       1.00800           0
     49395 TIP3     8983     TIP3     H2       HT       0.417000       1.00800           0
     49396 TIP3     8984     TIP3     OH2      OT      -0.834000       15.9994           0
     49397 TIP3     8984     TIP3     H1       HT       0.417000       1.00800           0
     49398 TIP3     8984     TIP3     H2       HT       0.417000       1.00800           0
     49399 TIP3     8985     TIP3     OH2      OT      -0.834000       15.9994           0
     49400 TIP3     8985     TIP3     H1       HT       0.417000       1.00800           0
     49401 TIP3     8985     TIP3     H2       HT       0.417000       1.00800           0
     49402 TIP3     8986     TIP3     OH2      OT      -0.834000       15.9994           0
     49403 TIP3     8986     TIP3     H1       HT       0.417000       1.00800           0
     49404 TIP3     8986     TIP3     H2       HT       0.417000       1.00800           0
     49405 TIP3     8987     TIP3     OH2      OT      -0.834000       15.9994           0
     49406 TIP3     8987     TIP3     H1       HT       0.417000       1.00800           0
     49407 TIP3     8987     TIP3     H2       HT       0.417000       1.00800           0
     49408 TIP3     8988     TIP3     OH2      OT      -0.834000       15.9994           0
     49409 TIP3     8988     TIP3     H1       HT       0.417000       1.00800           0
     49410 TIP3     8988     TIP3     H2       HT       0.417000       1.00800           0
     49411 TIP3     8989     TIP3     OH2      OT      -0.834000       15.9994           0
     49412 TIP3     8989     TIP3     H1       HT       0.417000       1.00800           0
     49413 TIP3     8989     TIP3     H2       HT       0.417000       1.00800           0
     49414 TIP3     8990     TIP3     OH2      OT      -0.834000       15.9994           0
     49415 TIP3     8990     TIP3     H1       HT       0.417000       1.00800           0
     49416 TIP3     8990     TIP3     H2       HT       0.417000       1.00800           0
     49417 TIP3     8991     TIP3     OH2      OT      -0.834000       15.9994           0
     49418 TIP3     8991     TIP3     H1       HT       0.417000       1.00800           0
     49419 TIP3     8991     TIP3     H2       HT       0.417000       1.00800           0
     49420 TIP3     8992     TIP3     OH2      OT      -0.834000       15.9994           0
     49421 TIP3     8992     TIP3     H1       HT       0.417000       1.00800           0
     49422 TIP3     8992     TIP3     H2       HT       0.417000       1.00800           0
     49423 TIP3     8993     TIP3     OH2      OT      -0.834000       15.9994           0
     49424 TIP3     8993     TIP3     H1       HT       0.417000       1.00800           0
     49425 TIP3     8993     TIP3     H2       HT       0.417000       1.00800           0
     49426 TIP3     8994     TIP3     OH2      OT      -0.834000       15.9994           0
     49427 TIP3     8994     TIP3     H1       HT       0.417000       1.00800           0
     49428 TIP3     8994     TIP3     H2       HT       0.417000       1.00800           0
     49429 TIP3     8995     TIP3     OH2      OT      -0.834000       15.9994           0
     49430 TIP3     8995     TIP3     H1       HT       0.417000       1.00800           0
     49431 TIP3     8995     TIP3     H2       HT       0.417000       1.00800           0
     49432 TIP3     8996     TIP3     OH2      OT      -0.834000       15.9994           0
     49433 TIP3     8996     TIP3     H1       HT       0.417000       1.00800           0
     49434 TIP3     8996     TIP3     H2       HT       0.417000       1.00800           0
     49435 TIP3     8997     TIP3     OH2      OT      -0.834000       15.9994           0
     49436 TIP3     8997     TIP3     H1       HT       0.417000       1.00800           0
     49437 TIP3     8997     TIP3     H2       HT       0.417000       1.00800           0
     49438 TIP3     8998     TIP3     OH2      OT      -0.834000       15.9994           0
     49439 TIP3     8998     TIP3     H1       HT       0.417000       1.00800           0
     49440 TIP3     8998     TIP3     H2       HT       0.417000       1.00800           0
     49441 TIP3     8999     TIP3     OH2      OT      -0.834000       15.9994           0
     49442 TIP3     8999     TIP3     H1       HT       0.417000       1.00800           0
     49443 TIP3     8999     TIP3     H2       HT       0.417000       1.00800           0
     49444 TIP3     9000     TIP3     OH2      OT      -0.834000       15.9994           0
     49445 TIP3     9000     TIP3     H1       HT       0.417000       1.00800           0
     49446 TIP3     9000     TIP3     H2       HT       0.417000       1.00800           0
     49447 TIP3     9001     TIP3     OH2      OT      -0.834000       15.9994           0
     49448 TIP3     9001     TIP3     H1       HT       0.417000       1.00800           0
     49449 TIP3     9001     TIP3     H2       HT       0.417000       1.00800           0
     49450 TIP3     9002     TIP3     OH2      OT      -0.834000       15.9994           0
     49451 TIP3     9002     TIP3     H1       HT       0.417000       1.00800           0
     49452 TIP3     9002     TIP3     H2       HT       0.417000       1.00800           0
     49453 TIP3     9003     TIP3     OH2      OT      -0.834000       15.9994           0
     49454 TIP3     9003     TIP3     H1       HT       0.417000       1.00800           0
     49455 TIP3     9003     TIP3     H2       HT       0.417000       1.00800           0
     49456 TIP3     9004     TIP3     OH2      OT      -0.834000       15.9994           0
     49457 TIP3     9004     TIP3     H1       HT       0.417000       1.00800           0
     49458 TIP3     9004     TIP3     H2       HT       0.417000       1.00800           0
     49459 TIP3     9005     TIP3     OH2      OT      -0.834000       15.9994           0
     49460 TIP3     9005     TIP3     H1       HT       0.417000       1.00800           0
     49461 TIP3     9005     TIP3     H2       HT       0.417000       1.00800           0
     49462 TIP3     9006     TIP3     OH2      OT      -0.834000       15.9994           0
     49463 TIP3     9006     TIP3     H1       HT       0.417000       1.00800           0
     49464 TIP3     9006     TIP3     H2       HT       0.417000       1.00800           0
     49465 TIP3     9007     TIP3     OH2      OT      -0.834000       15.9994           0
     49466 TIP3     9007     TIP3     H1       HT       0.417000       1.00800           0
     49467 TIP3     9007     TIP3     H2       HT       0.417000       1.00800           0
     49468 TIP3     9008     TIP3     OH2      OT      -0.834000       15.9994           0
     49469 TIP3     9008     TIP3     H1       HT       0.417000       1.00800           0
     49470 TIP3     9008     TIP3     H2       HT       0.417000       1.00800           0
     49471 TIP3     9009     TIP3     OH2      OT      -0.834000       15.9994           0
     49472 TIP3     9009     TIP3     H1       HT       0.417000       1.00800           0
     49473 TIP3     9009     TIP3     H2       HT       0.417000       1.00800           0
     49474 TIP3     9010     TIP3     OH2      OT      -0.834000       15.9994           0
     49475 TIP3     9010     TIP3     H1       HT       0.417000       1.00800           0
     49476 TIP3     9010     TIP3     H2       HT       0.417000       1.00800           0
     49477 TIP3     9011     TIP3     OH2      OT      -0.834000       15.9994           0
     49478 TIP3     9011     TIP3     H1       HT       0.417000       1.00800           0
     49479 TIP3     9011     TIP3     H2       HT       0.417000       1.00800           0
     49480 TIP3     9012     TIP3     OH2      OT      -0.834000       15.9994           0
     49481 TIP3     9012     TIP3     H1       HT       0.417000       1.00800           0
     49482 TIP3     9012     TIP3     H2       HT       0.417000       1.00800           0
     49483 TIP3     9013     TIP3     OH2      OT      -0.834000       15.9994           0
     49484 TIP3     9013     TIP3     H1       HT       0.417000       1.00800           0
     49485 TIP3     9013     TIP3     H2       HT       0.417000       1.00800           0
     49486 TIP3     9014     TIP3     OH2      OT      -0.834000       15.9994           0
     49487 TIP3     9014     TIP3     H1       HT       0.417000       1.00800           0
     49488 TIP3     9014     TIP3     H2       HT       0.417000       1.00800           0
     49489 TIP3     9015     TIP3     OH2      OT      -0.834000       15.9994           0
     49490 TIP3     9015     TIP3     H1       HT       0.417000       1.00800           0
     49491 TIP3     9015     TIP3     H2       HT       0.417000       1.00800           0
     49492 TIP3     9016     TIP3     OH2      OT      -0.834000       15.9994           0
     49493 TIP3     9016     TIP3     H1       HT       0.417000       1.00800           0
     49494 TIP3     9016     TIP3     H2       HT       0.417000       1.00800           0
     49495 TIP3     9017     TIP3     OH2      OT      -0.834000       15.9994           0
     49496 TIP3     9017     TIP3     H1       HT       0.417000       1.00800           0
     49497 TIP3     9017     TIP3     H2       HT       0.417000       1.00800           0
     49498 TIP3     9018     TIP3     OH2      OT      -0.834000       15.9994           0
     49499 TIP3     9018     TIP3     H1       HT       0.417000       1.00800           0
     49500 TIP3     9018     TIP3     H2       HT       0.417000       1.00800           0
     49501 TIP3     9019     TIP3     OH2      OT      -0.834000       15.9994           0
     49502 TIP3     9019     TIP3     H1       HT       0.417000       1.00800           0
     49503 TIP3     9019     TIP3     H2       HT       0.417000       1.00800           0
     49504 TIP3     9020     TIP3     OH2      OT      -0.834000       15.9994           0
     49505 TIP3     9020     TIP3     H1       HT       0.417000       1.00800           0
     49506 TIP3     9020     TIP3     H2       HT       0.417000       1.00800           0
     49507 TIP3     9021     TIP3     OH2      OT      -0.834000       15.9994           0
     49508 TIP3     9021     TIP3     H1       HT       0.417000       1.00800           0
     49509 TIP3     9021     TIP3     H2       HT       0.417000       1.00800           0
     49510 TIP3     9022     TIP3     OH2      OT      -0.834000       15.9994           0
     49511 TIP3     9022     TIP3     H1       HT       0.417000       1.00800           0
     49512 TIP3     9022     TIP3     H2       HT       0.417000       1.00800           0
     49513 TIP3     9023     TIP3     OH2      OT      -0.834000       15.9994           0
     49514 TIP3     9023     TIP3     H1       HT       0.417000       1.00800           0
     49515 TIP3     9023     TIP3     H2       HT       0.417000       1.00800           0
     49516 TIP3     9024     TIP3     OH2      OT      -0.834000       15.9994           0
     49517 TIP3     9024     TIP3     H1       HT       0.417000       1.00800           0
     49518 TIP3     9024     TIP3     H2       HT       0.417000       1.00800           0
     49519 TIP3     9025     TIP3     OH2      OT      -0.834000       15.9994           0
     49520 TIP3     9025     TIP3     H1       HT       0.417000       1.00800           0
     49521 TIP3     9025     TIP3     H2       HT       0.417000       1.00800           0
     49522 TIP3     9026     TIP3     OH2      OT      -0.834000       15.9994           0
     49523 TIP3     9026     TIP3     H1       HT       0.417000       1.00800           0
     49524 TIP3     9026     TIP3     H2       HT       0.417000       1.00800           0
     49525 TIP3     9027     TIP3     OH2      OT      -0.834000       15.9994           0
     49526 TIP3     9027     TIP3     H1       HT       0.417000       1.00800           0
     49527 TIP3     9027     TIP3     H2       HT       0.417000       1.00800           0
     49528 TIP3     9028     TIP3     OH2      OT      -0.834000       15.9994           0
     49529 TIP3     9028     TIP3     H1       HT       0.417000       1.00800           0
     49530 TIP3     9028     TIP3     H2       HT       0.417000       1.00800           0
     49531 TIP3     9029     TIP3     OH2      OT      -0.834000       15.9994           0
     49532 TIP3     9029     TIP3     H1       HT       0.417000       1.00800           0
     49533 TIP3     9029     TIP3     H2       HT       0.417000       1.00800           0
     49534 TIP3     9030     TIP3     OH2      OT      -0.834000       15.9994           0
     49535 TIP3     9030     TIP3     H1       HT       0.417000       1.00800           0
     49536 TIP3     9030     TIP3     H2       HT       0.417000       1.00800           0
     49537 TIP3     9031     TIP3     OH2      OT      -0.834000       15.9994           0
     49538 TIP3     9031     TIP3     H1       HT       0.417000       1.00800           0
     49539 TIP3     9031     TIP3     H2       HT       0.417000       1.00800           0
     49540 TIP3     9032     TIP3     OH2      OT      -0.834000       15.9994           0
     49541 TIP3     9032     TIP3     H1       HT       0.417000       1.00800           0
     49542 TIP3     9032     TIP3     H2       HT       0.417000       1.00800           0
     49543 TIP3     9033     TIP3     OH2      OT      -0.834000       15.9994           0
     49544 TIP3     9033     TIP3     H1       HT       0.417000       1.00800           0
     49545 TIP3     9033     TIP3     H2       HT       0.417000       1.00800           0
     49546 TIP3     9034     TIP3     OH2      OT      -0.834000       15.9994           0
     49547 TIP3     9034     TIP3     H1       HT       0.417000       1.00800           0
     49548 TIP3     9034     TIP3     H2       HT       0.417000       1.00800           0
     49549 TIP3     9035     TIP3     OH2      OT      -0.834000       15.9994           0
     49550 TIP3     9035     TIP3     H1       HT       0.417000       1.00800           0
     49551 TIP3     9035     TIP3     H2       HT       0.417000       1.00800           0
     49552 TIP3     9036     TIP3     OH2      OT      -0.834000       15.9994           0
     49553 TIP3     9036     TIP3     H1       HT       0.417000       1.00800           0
     49554 TIP3     9036     TIP3     H2       HT       0.417000       1.00800           0
     49555 TIP3     9037     TIP3     OH2      OT      -0.834000       15.9994           0
     49556 TIP3     9037     TIP3     H1       HT       0.417000       1.00800           0
     49557 TIP3     9037     TIP3     H2       HT       0.417000       1.00800           0
     49558 TIP3     9038     TIP3     OH2      OT      -0.834000       15.9994           0
     49559 TIP3     9038     TIP3     H1       HT       0.417000       1.00800           0
     49560 TIP3     9038     TIP3     H2       HT       0.417000       1.00800           0
     49561 TIP3     9039     TIP3     OH2      OT      -0.834000       15.9994           0
     49562 TIP3     9039     TIP3     H1       HT       0.417000       1.00800           0
     49563 TIP3     9039     TIP3     H2       HT       0.417000       1.00800           0
     49564 TIP3     9040     TIP3     OH2      OT      -0.834000       15.9994           0
     49565 TIP3     9040     TIP3     H1       HT       0.417000       1.00800           0
     49566 TIP3     9040     TIP3     H2       HT       0.417000       1.00800           0
     49567 TIP3     9041     TIP3     OH2      OT      -0.834000       15.9994           0
     49568 TIP3     9041     TIP3     H1       HT       0.417000       1.00800           0
     49569 TIP3     9041     TIP3     H2       HT       0.417000       1.00800           0
     49570 TIP3     9042     TIP3     OH2      OT      -0.834000       15.9994           0
     49571 TIP3     9042     TIP3     H1       HT       0.417000       1.00800           0
     49572 TIP3     9042     TIP3     H2       HT       0.417000       1.00800           0
     49573 TIP3     9043     TIP3     OH2      OT      -0.834000       15.9994           0
     49574 TIP3     9043     TIP3     H1       HT       0.417000       1.00800           0
     49575 TIP3     9043     TIP3     H2       HT       0.417000       1.00800           0
     49576 TIP3     9044     TIP3     OH2      OT      -0.834000       15.9994           0
     49577 TIP3     9044     TIP3     H1       HT       0.417000       1.00800           0
     49578 TIP3     9044     TIP3     H2       HT       0.417000       1.00800           0
     49579 TIP3     9045     TIP3     OH2      OT      -0.834000       15.9994           0
     49580 TIP3     9045     TIP3     H1       HT       0.417000       1.00800           0
     49581 TIP3     9045     TIP3     H2       HT       0.417000       1.00800           0
     49582 TIP3     9046     TIP3     OH2      OT      -0.834000       15.9994           0
     49583 TIP3     9046     TIP3     H1       HT       0.417000       1.00800           0
     49584 TIP3     9046     TIP3     H2       HT       0.417000       1.00800           0
     49585 TIP3     9047     TIP3     OH2      OT      -0.834000       15.9994           0
     49586 TIP3     9047     TIP3     H1       HT       0.417000       1.00800           0
     49587 TIP3     9047     TIP3     H2       HT       0.417000       1.00800           0
     49588 TIP3     9048     TIP3     OH2      OT      -0.834000       15.9994           0
     49589 TIP3     9048     TIP3     H1       HT       0.417000       1.00800           0
     49590 TIP3     9048     TIP3     H2       HT       0.417000       1.00800           0
     49591 TIP3     9049     TIP3     OH2      OT      -0.834000       15.9994           0
     49592 TIP3     9049     TIP3     H1       HT       0.417000       1.00800           0
     49593 TIP3     9049     TIP3     H2       HT       0.417000       1.00800           0
     49594 TIP3     9050     TIP3     OH2      OT      -0.834000       15.9994           0
     49595 TIP3     9050     TIP3     H1       HT       0.417000       1.00800           0
     49596 TIP3     9050     TIP3     H2       HT       0.417000       1.00800           0
     49597 TIP3     9051     TIP3     OH2      OT      -0.834000       15.9994           0
     49598 TIP3     9051     TIP3     H1       HT       0.417000       1.00800           0
     49599 TIP3     9051     TIP3     H2       HT       0.417000       1.00800           0
     49600 TIP3     9052     TIP3     OH2      OT      -0.834000       15.9994           0
     49601 TIP3     9052     TIP3     H1       HT       0.417000       1.00800           0
     49602 TIP3     9052     TIP3     H2       HT       0.417000       1.00800           0
     49603 TIP3     9053     TIP3     OH2      OT      -0.834000       15.9994           0
     49604 TIP3     9053     TIP3     H1       HT       0.417000       1.00800           0
     49605 TIP3     9053     TIP3     H2       HT       0.417000       1.00800           0
     49606 TIP3     9054     TIP3     OH2      OT      -0.834000       15.9994           0
     49607 TIP3     9054     TIP3     H1       HT       0.417000       1.00800           0
     49608 TIP3     9054     TIP3     H2       HT       0.417000       1.00800           0
     49609 TIP3     9055     TIP3     OH2      OT      -0.834000       15.9994           0
     49610 TIP3     9055     TIP3     H1       HT       0.417000       1.00800           0
     49611 TIP3     9055     TIP3     H2       HT       0.417000       1.00800           0
     49612 TIP3     9056     TIP3     OH2      OT      -0.834000       15.9994           0
     49613 TIP3     9056     TIP3     H1       HT       0.417000       1.00800           0
     49614 TIP3     9056     TIP3     H2       HT       0.417000       1.00800           0
     49615 TIP3     9057     TIP3     OH2      OT      -0.834000       15.9994           0
     49616 TIP3     9057     TIP3     H1       HT       0.417000       1.00800           0
     49617 TIP3     9057     TIP3     H2       HT       0.417000       1.00800           0
     49618 TIP3     9058     TIP3     OH2      OT      -0.834000       15.9994           0
     49619 TIP3     9058     TIP3     H1       HT       0.417000       1.00800           0
     49620 TIP3     9058     TIP3     H2       HT       0.417000       1.00800           0
     49621 TIP3     9059     TIP3     OH2      OT      -0.834000       15.9994           0
     49622 TIP3     9059     TIP3     H1       HT       0.417000       1.00800           0
     49623 TIP3     9059     TIP3     H2       HT       0.417000       1.00800           0
     49624 TIP3     9060     TIP3     OH2      OT      -0.834000       15.9994           0
     49625 TIP3     9060     TIP3     H1       HT       0.417000       1.00800           0
     49626 TIP3     9060     TIP3     H2       HT       0.417000       1.00800           0
     49627 TIP3     9061     TIP3     OH2      OT      -0.834000       15.9994           0
     49628 TIP3     9061     TIP3     H1       HT       0.417000       1.00800           0
     49629 TIP3     9061     TIP3     H2       HT       0.417000       1.00800           0
     49630 TIP3     9062     TIP3     OH2      OT      -0.834000       15.9994           0
     49631 TIP3     9062     TIP3     H1       HT       0.417000       1.00800           0
     49632 TIP3     9062     TIP3     H2       HT       0.417000       1.00800           0
     49633 TIP3     9063     TIP3     OH2      OT      -0.834000       15.9994           0
     49634 TIP3     9063     TIP3     H1       HT       0.417000       1.00800           0
     49635 TIP3     9063     TIP3     H2       HT       0.417000       1.00800           0
     49636 TIP3     9064     TIP3     OH2      OT      -0.834000       15.9994           0
     49637 TIP3     9064     TIP3     H1       HT       0.417000       1.00800           0
     49638 TIP3     9064     TIP3     H2       HT       0.417000       1.00800           0
     49639 TIP3     9065     TIP3     OH2      OT      -0.834000       15.9994           0
     49640 TIP3     9065     TIP3     H1       HT       0.417000       1.00800           0
     49641 TIP3     9065     TIP3     H2       HT       0.417000       1.00800           0
     49642 TIP3     9066     TIP3     OH2      OT      -0.834000       15.9994           0
     49643 TIP3     9066     TIP3     H1       HT       0.417000       1.00800           0
     49644 TIP3     9066     TIP3     H2       HT       0.417000       1.00800           0
     49645 TIP3     9067     TIP3     OH2      OT      -0.834000       15.9994           0
     49646 TIP3     9067     TIP3     H1       HT       0.417000       1.00800           0
     49647 TIP3     9067     TIP3     H2       HT       0.417000       1.00800           0
     49648 TIP3     9068     TIP3     OH2      OT      -0.834000       15.9994           0
     49649 TIP3     9068     TIP3     H1       HT       0.417000       1.00800           0
     49650 TIP3     9068     TIP3     H2       HT       0.417000       1.00800           0
     49651 TIP3     9069     TIP3     OH2      OT      -0.834000       15.9994           0
     49652 TIP3     9069     TIP3     H1       HT       0.417000       1.00800           0
     49653 TIP3     9069     TIP3     H2       HT       0.417000       1.00800           0
     49654 TIP3     9070     TIP3     OH2      OT      -0.834000       15.9994           0
     49655 TIP3     9070     TIP3     H1       HT       0.417000       1.00800           0
     49656 TIP3     9070     TIP3     H2       HT       0.417000       1.00800           0
     49657 TIP3     9071     TIP3     OH2      OT      -0.834000       15.9994           0
     49658 TIP3     9071     TIP3     H1       HT       0.417000       1.00800           0
     49659 TIP3     9071     TIP3     H2       HT       0.417000       1.00800           0
     49660 TIP3     9072     TIP3     OH2      OT      -0.834000       15.9994           0
     49661 TIP3     9072     TIP3     H1       HT       0.417000       1.00800           0
     49662 TIP3     9072     TIP3     H2       HT       0.417000       1.00800           0
     49663 TIP3     9073     TIP3     OH2      OT      -0.834000       15.9994           0
     49664 TIP3     9073     TIP3     H1       HT       0.417000       1.00800           0
     49665 TIP3     9073     TIP3     H2       HT       0.417000       1.00800           0
     49666 TIP3     9074     TIP3     OH2      OT      -0.834000       15.9994           0
     49667 TIP3     9074     TIP3     H1       HT       0.417000       1.00800           0
     49668 TIP3     9074     TIP3     H2       HT       0.417000       1.00800           0
     49669 TIP3     9075     TIP3     OH2      OT      -0.834000       15.9994           0
     49670 TIP3     9075     TIP3     H1       HT       0.417000       1.00800           0
     49671 TIP3     9075     TIP3     H2       HT       0.417000       1.00800           0
     49672 TIP3     9076     TIP3     OH2      OT      -0.834000       15.9994           0
     49673 TIP3     9076     TIP3     H1       HT       0.417000       1.00800           0
     49674 TIP3     9076     TIP3     H2       HT       0.417000       1.00800           0
     49675 TIP3     9077     TIP3     OH2      OT      -0.834000       15.9994           0
     49676 TIP3     9077     TIP3     H1       HT       0.417000       1.00800           0
     49677 TIP3     9077     TIP3     H2       HT       0.417000       1.00800           0
     49678 TIP3     9078     TIP3     OH2      OT      -0.834000       15.9994           0
     49679 TIP3     9078     TIP3     H1       HT       0.417000       1.00800           0
     49680 TIP3     9078     TIP3     H2       HT       0.417000       1.00800           0
     49681 TIP3     9079     TIP3     OH2      OT      -0.834000       15.9994           0
     49682 TIP3     9079     TIP3     H1       HT       0.417000       1.00800           0
     49683 TIP3     9079     TIP3     H2       HT       0.417000       1.00800           0
     49684 TIP3     9080     TIP3     OH2      OT      -0.834000       15.9994           0
     49685 TIP3     9080     TIP3     H1       HT       0.417000       1.00800           0
     49686 TIP3     9080     TIP3     H2       HT       0.417000       1.00800           0
     49687 TIP3     9081     TIP3     OH2      OT      -0.834000       15.9994           0
     49688 TIP3     9081     TIP3     H1       HT       0.417000       1.00800           0
     49689 TIP3     9081     TIP3     H2       HT       0.417000       1.00800           0
     49690 TIP3     9082     TIP3     OH2      OT      -0.834000       15.9994           0
     49691 TIP3     9082     TIP3     H1       HT       0.417000       1.00800           0
     49692 TIP3     9082     TIP3     H2       HT       0.417000       1.00800           0
     49693 TIP3     9083     TIP3     OH2      OT      -0.834000       15.9994           0
     49694 TIP3     9083     TIP3     H1       HT       0.417000       1.00800           0
     49695 TIP3     9083     TIP3     H2       HT       0.417000       1.00800           0
     49696 TIP3     9084     TIP3     OH2      OT      -0.834000       15.9994           0
     49697 TIP3     9084     TIP3     H1       HT       0.417000       1.00800           0
     49698 TIP3     9084     TIP3     H2       HT       0.417000       1.00800           0
     49699 TIP3     9085     TIP3     OH2      OT      -0.834000       15.9994           0
     49700 TIP3     9085     TIP3     H1       HT       0.417000       1.00800           0
     49701 TIP3     9085     TIP3     H2       HT       0.417000       1.00800           0
     49702 TIP3     9086     TIP3     OH2      OT      -0.834000       15.9994           0
     49703 TIP3     9086     TIP3     H1       HT       0.417000       1.00800           0
     49704 TIP3     9086     TIP3     H2       HT       0.417000       1.00800           0
     49705 TIP3     9087     TIP3     OH2      OT      -0.834000       15.9994           0
     49706 TIP3     9087     TIP3     H1       HT       0.417000       1.00800           0
     49707 TIP3     9087     TIP3     H2       HT       0.417000       1.00800           0
     49708 TIP3     9088     TIP3     OH2      OT      -0.834000       15.9994           0
     49709 TIP3     9088     TIP3     H1       HT       0.417000       1.00800           0
     49710 TIP3     9088     TIP3     H2       HT       0.417000       1.00800           0
     49711 TIP3     9089     TIP3     OH2      OT      -0.834000       15.9994           0
     49712 TIP3     9089     TIP3     H1       HT       0.417000       1.00800           0
     49713 TIP3     9089     TIP3     H2       HT       0.417000       1.00800           0
     49714 TIP3     9090     TIP3     OH2      OT      -0.834000       15.9994           0
     49715 TIP3     9090     TIP3     H1       HT       0.417000       1.00800           0
     49716 TIP3     9090     TIP3     H2       HT       0.417000       1.00800           0
     49717 TIP3     9091     TIP3     OH2      OT      -0.834000       15.9994           0
     49718 TIP3     9091     TIP3     H1       HT       0.417000       1.00800           0
     49719 TIP3     9091     TIP3     H2       HT       0.417000       1.00800           0
     49720 TIP3     9092     TIP3     OH2      OT      -0.834000       15.9994           0
     49721 TIP3     9092     TIP3     H1       HT       0.417000       1.00800           0
     49722 TIP3     9092     TIP3     H2       HT       0.417000       1.00800           0
     49723 TIP3     9093     TIP3     OH2      OT      -0.834000       15.9994           0
     49724 TIP3     9093     TIP3     H1       HT       0.417000       1.00800           0
     49725 TIP3     9093     TIP3     H2       HT       0.417000       1.00800           0
     49726 TIP3     9094     TIP3     OH2      OT      -0.834000       15.9994           0
     49727 TIP3     9094     TIP3     H1       HT       0.417000       1.00800           0
     49728 TIP3     9094     TIP3     H2       HT       0.417000       1.00800           0
     49729 TIP3     9095     TIP3     OH2      OT      -0.834000       15.9994           0
     49730 TIP3     9095     TIP3     H1       HT       0.417000       1.00800           0
     49731 TIP3     9095     TIP3     H2       HT       0.417000       1.00800           0
     49732 TIP3     9096     TIP3     OH2      OT      -0.834000       15.9994           0
     49733 TIP3     9096     TIP3     H1       HT       0.417000       1.00800           0
     49734 TIP3     9096     TIP3     H2       HT       0.417000       1.00800           0
     49735 TIP3     9097     TIP3     OH2      OT      -0.834000       15.9994           0
     49736 TIP3     9097     TIP3     H1       HT       0.417000       1.00800           0
     49737 TIP3     9097     TIP3     H2       HT       0.417000       1.00800           0
     49738 TIP3     9098     TIP3     OH2      OT      -0.834000       15.9994           0
     49739 TIP3     9098     TIP3     H1       HT       0.417000       1.00800           0
     49740 TIP3     9098     TIP3     H2       HT       0.417000       1.00800           0
     49741 TIP3     9099     TIP3     OH2      OT      -0.834000       15.9994           0
     49742 TIP3     9099     TIP3     H1       HT       0.417000       1.00800           0
     49743 TIP3     9099     TIP3     H2       HT       0.417000       1.00800           0
     49744 TIP3     9100     TIP3     OH2      OT      -0.834000       15.9994           0
     49745 TIP3     9100     TIP3     H1       HT       0.417000       1.00800           0
     49746 TIP3     9100     TIP3     H2       HT       0.417000       1.00800           0
     49747 TIP3     9101     TIP3     OH2      OT      -0.834000       15.9994           0
     49748 TIP3     9101     TIP3     H1       HT       0.417000       1.00800           0
     49749 TIP3     9101     TIP3     H2       HT       0.417000       1.00800           0
     49750 TIP3     9102     TIP3     OH2      OT      -0.834000       15.9994           0
     49751 TIP3     9102     TIP3     H1       HT       0.417000       1.00800           0
     49752 TIP3     9102     TIP3     H2       HT       0.417000       1.00800           0
     49753 TIP3     9103     TIP3     OH2      OT      -0.834000       15.9994           0
     49754 TIP3     9103     TIP3     H1       HT       0.417000       1.00800           0
     49755 TIP3     9103     TIP3     H2       HT       0.417000       1.00800           0
     49756 TIP3     9104     TIP3     OH2      OT      -0.834000       15.9994           0
     49757 TIP3     9104     TIP3     H1       HT       0.417000       1.00800           0
     49758 TIP3     9104     TIP3     H2       HT       0.417000       1.00800           0
     49759 TIP3     9105     TIP3     OH2      OT      -0.834000       15.9994           0
     49760 TIP3     9105     TIP3     H1       HT       0.417000       1.00800           0
     49761 TIP3     9105     TIP3     H2       HT       0.417000       1.00800           0
     49762 TIP3     9106     TIP3     OH2      OT      -0.834000       15.9994           0
     49763 TIP3     9106     TIP3     H1       HT       0.417000       1.00800           0
     49764 TIP3     9106     TIP3     H2       HT       0.417000       1.00800           0
     49765 TIP3     9107     TIP3     OH2      OT      -0.834000       15.9994           0
     49766 TIP3     9107     TIP3     H1       HT       0.417000       1.00800           0
     49767 TIP3     9107     TIP3     H2       HT       0.417000       1.00800           0
     49768 TIP3     9108     TIP3     OH2      OT      -0.834000       15.9994           0
     49769 TIP3     9108     TIP3     H1       HT       0.417000       1.00800           0
     49770 TIP3     9108     TIP3     H2       HT       0.417000       1.00800           0
     49771 TIP3     9109     TIP3     OH2      OT      -0.834000       15.9994           0
     49772 TIP3     9109     TIP3     H1       HT       0.417000       1.00800           0
     49773 TIP3     9109     TIP3     H2       HT       0.417000       1.00800           0
     49774 TIP3     9110     TIP3     OH2      OT      -0.834000       15.9994           0
     49775 TIP3     9110     TIP3     H1       HT       0.417000       1.00800           0
     49776 TIP3     9110     TIP3     H2       HT       0.417000       1.00800           0
     49777 TIP3     9111     TIP3     OH2      OT      -0.834000       15.9994           0
     49778 TIP3     9111     TIP3     H1       HT       0.417000       1.00800           0
     49779 TIP3     9111     TIP3     H2       HT       0.417000       1.00800           0
     49780 TIP3     9112     TIP3     OH2      OT      -0.834000       15.9994           0
     49781 TIP3     9112     TIP3     H1       HT       0.417000       1.00800           0
     49782 TIP3     9112     TIP3     H2       HT       0.417000       1.00800           0
     49783 TIP3     9113     TIP3     OH2      OT      -0.834000       15.9994           0
     49784 TIP3     9113     TIP3     H1       HT       0.417000       1.00800           0
     49785 TIP3     9113     TIP3     H2       HT       0.417000       1.00800           0
     49786 TIP3     9114     TIP3     OH2      OT      -0.834000       15.9994           0
     49787 TIP3     9114     TIP3     H1       HT       0.417000       1.00800           0
     49788 TIP3     9114     TIP3     H2       HT       0.417000       1.00800           0
     49789 TIP3     9115     TIP3     OH2      OT      -0.834000       15.9994           0
     49790 TIP3     9115     TIP3     H1       HT       0.417000       1.00800           0
     49791 TIP3     9115     TIP3     H2       HT       0.417000       1.00800           0
     49792 TIP3     9116     TIP3     OH2      OT      -0.834000       15.9994           0
     49793 TIP3     9116     TIP3     H1       HT       0.417000       1.00800           0
     49794 TIP3     9116     TIP3     H2       HT       0.417000       1.00800           0
     49795 TIP3     9117     TIP3     OH2      OT      -0.834000       15.9994           0
     49796 TIP3     9117     TIP3     H1       HT       0.417000       1.00800           0
     49797 TIP3     9117     TIP3     H2       HT       0.417000       1.00800           0
     49798 TIP3     9118     TIP3     OH2      OT      -0.834000       15.9994           0
     49799 TIP3     9118     TIP3     H1       HT       0.417000       1.00800           0
     49800 TIP3     9118     TIP3     H2       HT       0.417000       1.00800           0
     49801 TIP3     9119     TIP3     OH2      OT      -0.834000       15.9994           0
     49802 TIP3     9119     TIP3     H1       HT       0.417000       1.00800           0
     49803 TIP3     9119     TIP3     H2       HT       0.417000       1.00800           0
     49804 TIP3     9120     TIP3     OH2      OT      -0.834000       15.9994           0
     49805 TIP3     9120     TIP3     H1       HT       0.417000       1.00800           0
     49806 TIP3     9120     TIP3     H2       HT       0.417000       1.00800           0
     49807 TIP3     9121     TIP3     OH2      OT      -0.834000       15.9994           0
     49808 TIP3     9121     TIP3     H1       HT       0.417000       1.00800           0
     49809 TIP3     9121     TIP3     H2       HT       0.417000       1.00800           0
     49810 TIP3     9122     TIP3     OH2      OT      -0.834000       15.9994           0
     49811 TIP3     9122     TIP3     H1       HT       0.417000       1.00800           0
     49812 TIP3     9122     TIP3     H2       HT       0.417000       1.00800           0
     49813 TIP3     9123     TIP3     OH2      OT      -0.834000       15.9994           0
     49814 TIP3     9123     TIP3     H1       HT       0.417000       1.00800           0
     49815 TIP3     9123     TIP3     H2       HT       0.417000       1.00800           0
     49816 TIP3     9124     TIP3     OH2      OT      -0.834000       15.9994           0
     49817 TIP3     9124     TIP3     H1       HT       0.417000       1.00800           0
     49818 TIP3     9124     TIP3     H2       HT       0.417000       1.00800           0
     49819 TIP3     9125     TIP3     OH2      OT      -0.834000       15.9994           0
     49820 TIP3     9125     TIP3     H1       HT       0.417000       1.00800           0
     49821 TIP3     9125     TIP3     H2       HT       0.417000       1.00800           0
     49822 TIP3     9126     TIP3     OH2      OT      -0.834000       15.9994           0
     49823 TIP3     9126     TIP3     H1       HT       0.417000       1.00800           0
     49824 TIP3     9126     TIP3     H2       HT       0.417000       1.00800           0
     49825 TIP3     9127     TIP3     OH2      OT      -0.834000       15.9994           0
     49826 TIP3     9127     TIP3     H1       HT       0.417000       1.00800           0
     49827 TIP3     9127     TIP3     H2       HT       0.417000       1.00800           0
     49828 TIP3     9128     TIP3     OH2      OT      -0.834000       15.9994           0
     49829 TIP3     9128     TIP3     H1       HT       0.417000       1.00800           0
     49830 TIP3     9128     TIP3     H2       HT       0.417000       1.00800           0
     49831 TIP3     9129     TIP3     OH2      OT      -0.834000       15.9994           0
     49832 TIP3     9129     TIP3     H1       HT       0.417000       1.00800           0
     49833 TIP3     9129     TIP3     H2       HT       0.417000       1.00800           0
     49834 TIP3     9130     TIP3     OH2      OT      -0.834000       15.9994           0
     49835 TIP3     9130     TIP3     H1       HT       0.417000       1.00800           0
     49836 TIP3     9130     TIP3     H2       HT       0.417000       1.00800           0
     49837 TIP3     9131     TIP3     OH2      OT      -0.834000       15.9994           0
     49838 TIP3     9131     TIP3     H1       HT       0.417000       1.00800           0
     49839 TIP3     9131     TIP3     H2       HT       0.417000       1.00800           0
     49840 TIP3     9132     TIP3     OH2      OT      -0.834000       15.9994           0
     49841 TIP3     9132     TIP3     H1       HT       0.417000       1.00800           0
     49842 TIP3     9132     TIP3     H2       HT       0.417000       1.00800           0
     49843 TIP3     9133     TIP3     OH2      OT      -0.834000       15.9994           0
     49844 TIP3     9133     TIP3     H1       HT       0.417000       1.00800           0
     49845 TIP3     9133     TIP3     H2       HT       0.417000       1.00800           0
     49846 TIP3     9134     TIP3     OH2      OT      -0.834000       15.9994           0
     49847 TIP3     9134     TIP3     H1       HT       0.417000       1.00800           0
     49848 TIP3     9134     TIP3     H2       HT       0.417000       1.00800           0
     49849 TIP3     9135     TIP3     OH2      OT      -0.834000       15.9994           0
     49850 TIP3     9135     TIP3     H1       HT       0.417000       1.00800           0
     49851 TIP3     9135     TIP3     H2       HT       0.417000       1.00800           0
     49852 TIP3     9136     TIP3     OH2      OT      -0.834000       15.9994           0
     49853 TIP3     9136     TIP3     H1       HT       0.417000       1.00800           0
     49854 TIP3     9136     TIP3     H2       HT       0.417000       1.00800           0
     49855 TIP3     9137     TIP3     OH2      OT      -0.834000       15.9994           0
     49856 TIP3     9137     TIP3     H1       HT       0.417000       1.00800           0
     49857 TIP3     9137     TIP3     H2       HT       0.417000       1.00800           0
     49858 TIP3     9138     TIP3     OH2      OT      -0.834000       15.9994           0
     49859 TIP3     9138     TIP3     H1       HT       0.417000       1.00800           0
     49860 TIP3     9138     TIP3     H2       HT       0.417000       1.00800           0
     49861 TIP3     9139     TIP3     OH2      OT      -0.834000       15.9994           0
     49862 TIP3     9139     TIP3     H1       HT       0.417000       1.00800           0
     49863 TIP3     9139     TIP3     H2       HT       0.417000       1.00800           0
     49864 TIP3     9140     TIP3     OH2      OT      -0.834000       15.9994           0
     49865 TIP3     9140     TIP3     H1       HT       0.417000       1.00800           0
     49866 TIP3     9140     TIP3     H2       HT       0.417000       1.00800           0
     49867 TIP3     9141     TIP3     OH2      OT      -0.834000       15.9994           0
     49868 TIP3     9141     TIP3     H1       HT       0.417000       1.00800           0
     49869 TIP3     9141     TIP3     H2       HT       0.417000       1.00800           0
     49870 TIP3     9142     TIP3     OH2      OT      -0.834000       15.9994           0
     49871 TIP3     9142     TIP3     H1       HT       0.417000       1.00800           0
     49872 TIP3     9142     TIP3     H2       HT       0.417000       1.00800           0
     49873 TIP3     9143     TIP3     OH2      OT      -0.834000       15.9994           0
     49874 TIP3     9143     TIP3     H1       HT       0.417000       1.00800           0
     49875 TIP3     9143     TIP3     H2       HT       0.417000       1.00800           0
     49876 TIP3     9144     TIP3     OH2      OT      -0.834000       15.9994           0
     49877 TIP3     9144     TIP3     H1       HT       0.417000       1.00800           0
     49878 TIP3     9144     TIP3     H2       HT       0.417000       1.00800           0
     49879 TIP3     9145     TIP3     OH2      OT      -0.834000       15.9994           0
     49880 TIP3     9145     TIP3     H1       HT       0.417000       1.00800           0
     49881 TIP3     9145     TIP3     H2       HT       0.417000       1.00800           0
     49882 TIP3     9146     TIP3     OH2      OT      -0.834000       15.9994           0
     49883 TIP3     9146     TIP3     H1       HT       0.417000       1.00800           0
     49884 TIP3     9146     TIP3     H2       HT       0.417000       1.00800           0
     49885 TIP3     9147     TIP3     OH2      OT      -0.834000       15.9994           0
     49886 TIP3     9147     TIP3     H1       HT       0.417000       1.00800           0
     49887 TIP3     9147     TIP3     H2       HT       0.417000       1.00800           0
     49888 TIP3     9148     TIP3     OH2      OT      -0.834000       15.9994           0
     49889 TIP3     9148     TIP3     H1       HT       0.417000       1.00800           0
     49890 TIP3     9148     TIP3     H2       HT       0.417000       1.00800           0
     49891 TIP3     9149     TIP3     OH2      OT      -0.834000       15.9994           0
     49892 TIP3     9149     TIP3     H1       HT       0.417000       1.00800           0
     49893 TIP3     9149     TIP3     H2       HT       0.417000       1.00800           0
     49894 TIP3     9150     TIP3     OH2      OT      -0.834000       15.9994           0
     49895 TIP3     9150     TIP3     H1       HT       0.417000       1.00800           0
     49896 TIP3     9150     TIP3     H2       HT       0.417000       1.00800           0
     49897 TIP3     9151     TIP3     OH2      OT      -0.834000       15.9994           0
     49898 TIP3     9151     TIP3     H1       HT       0.417000       1.00800           0
     49899 TIP3     9151     TIP3     H2       HT       0.417000       1.00800           0
     49900 TIP3     9152     TIP3     OH2      OT      -0.834000       15.9994           0
     49901 TIP3     9152     TIP3     H1       HT       0.417000       1.00800           0
     49902 TIP3     9152     TIP3     H2       HT       0.417000       1.00800           0
     49903 TIP3     9153     TIP3     OH2      OT      -0.834000       15.9994           0
     49904 TIP3     9153     TIP3     H1       HT       0.417000       1.00800           0
     49905 TIP3     9153     TIP3     H2       HT       0.417000       1.00800           0
     49906 TIP3     9154     TIP3     OH2      OT      -0.834000       15.9994           0
     49907 TIP3     9154     TIP3     H1       HT       0.417000       1.00800           0
     49908 TIP3     9154     TIP3     H2       HT       0.417000       1.00800           0
     49909 TIP3     9155     TIP3     OH2      OT      -0.834000       15.9994           0
     49910 TIP3     9155     TIP3     H1       HT       0.417000       1.00800           0
     49911 TIP3     9155     TIP3     H2       HT       0.417000       1.00800           0
     49912 TIP3     9156     TIP3     OH2      OT      -0.834000       15.9994           0
     49913 TIP3     9156     TIP3     H1       HT       0.417000       1.00800           0
     49914 TIP3     9156     TIP3     H2       HT       0.417000       1.00800           0
     49915 TIP3     9157     TIP3     OH2      OT      -0.834000       15.9994           0
     49916 TIP3     9157     TIP3     H1       HT       0.417000       1.00800           0
     49917 TIP3     9157     TIP3     H2       HT       0.417000       1.00800           0
     49918 TIP3     9158     TIP3     OH2      OT      -0.834000       15.9994           0
     49919 TIP3     9158     TIP3     H1       HT       0.417000       1.00800           0
     49920 TIP3     9158     TIP3     H2       HT       0.417000       1.00800           0
     49921 TIP3     9159     TIP3     OH2      OT      -0.834000       15.9994           0
     49922 TIP3     9159     TIP3     H1       HT       0.417000       1.00800           0
     49923 TIP3     9159     TIP3     H2       HT       0.417000       1.00800           0
     49924 TIP3     9160     TIP3     OH2      OT      -0.834000       15.9994           0
     49925 TIP3     9160     TIP3     H1       HT       0.417000       1.00800           0
     49926 TIP3     9160     TIP3     H2       HT       0.417000       1.00800           0
     49927 TIP3     9161     TIP3     OH2      OT      -0.834000       15.9994           0
     49928 TIP3     9161     TIP3     H1       HT       0.417000       1.00800           0
     49929 TIP3     9161     TIP3     H2       HT       0.417000       1.00800           0
     49930 TIP3     9162     TIP3     OH2      OT      -0.834000       15.9994           0
     49931 TIP3     9162     TIP3     H1       HT       0.417000       1.00800           0
     49932 TIP3     9162     TIP3     H2       HT       0.417000       1.00800           0
     49933 TIP3     9163     TIP3     OH2      OT      -0.834000       15.9994           0
     49934 TIP3     9163     TIP3     H1       HT       0.417000       1.00800           0
     49935 TIP3     9163     TIP3     H2       HT       0.417000       1.00800           0
     49936 TIP3     9164     TIP3     OH2      OT      -0.834000       15.9994           0
     49937 TIP3     9164     TIP3     H1       HT       0.417000       1.00800           0
     49938 TIP3     9164     TIP3     H2       HT       0.417000       1.00800           0
     49939 TIP3     9165     TIP3     OH2      OT      -0.834000       15.9994           0
     49940 TIP3     9165     TIP3     H1       HT       0.417000       1.00800           0
     49941 TIP3     9165     TIP3     H2       HT       0.417000       1.00800           0
     49942 TIP3     9166     TIP3     OH2      OT      -0.834000       15.9994           0
     49943 TIP3     9166     TIP3     H1       HT       0.417000       1.00800           0
     49944 TIP3     9166     TIP3     H2       HT       0.417000       1.00800           0
     49945 TIP3     9167     TIP3     OH2      OT      -0.834000       15.9994           0
     49946 TIP3     9167     TIP3     H1       HT       0.417000       1.00800           0
     49947 TIP3     9167     TIP3     H2       HT       0.417000       1.00800           0
     49948 TIP3     9168     TIP3     OH2      OT      -0.834000       15.9994           0
     49949 TIP3     9168     TIP3     H1       HT       0.417000       1.00800           0
     49950 TIP3     9168     TIP3     H2       HT       0.417000       1.00800           0
     49951 TIP3     9169     TIP3     OH2      OT      -0.834000       15.9994           0
     49952 TIP3     9169     TIP3     H1       HT       0.417000       1.00800           0
     49953 TIP3     9169     TIP3     H2       HT       0.417000       1.00800           0
     49954 TIP3     9170     TIP3     OH2      OT      -0.834000       15.9994           0
     49955 TIP3     9170     TIP3     H1       HT       0.417000       1.00800           0
     49956 TIP3     9170     TIP3     H2       HT       0.417000       1.00800           0
     49957 TIP3     9171     TIP3     OH2      OT      -0.834000       15.9994           0
     49958 TIP3     9171     TIP3     H1       HT       0.417000       1.00800           0
     49959 TIP3     9171     TIP3     H2       HT       0.417000       1.00800           0
     49960 TIP3     9172     TIP3     OH2      OT      -0.834000       15.9994           0
     49961 TIP3     9172     TIP3     H1       HT       0.417000       1.00800           0
     49962 TIP3     9172     TIP3     H2       HT       0.417000       1.00800           0
     49963 TIP3     9173     TIP3     OH2      OT      -0.834000       15.9994           0
     49964 TIP3     9173     TIP3     H1       HT       0.417000       1.00800           0
     49965 TIP3     9173     TIP3     H2       HT       0.417000       1.00800           0
     49966 TIP3     9174     TIP3     OH2      OT      -0.834000       15.9994           0
     49967 TIP3     9174     TIP3     H1       HT       0.417000       1.00800           0
     49968 TIP3     9174     TIP3     H2       HT       0.417000       1.00800           0
     49969 TIP3     9175     TIP3     OH2      OT      -0.834000       15.9994           0
     49970 TIP3     9175     TIP3     H1       HT       0.417000       1.00800           0
     49971 TIP3     9175     TIP3     H2       HT       0.417000       1.00800           0
     49972 TIP3     9176     TIP3     OH2      OT      -0.834000       15.9994           0
     49973 TIP3     9176     TIP3     H1       HT       0.417000       1.00800           0
     49974 TIP3     9176     TIP3     H2       HT       0.417000       1.00800           0
     49975 TIP3     9177     TIP3     OH2      OT      -0.834000       15.9994           0
     49976 TIP3     9177     TIP3     H1       HT       0.417000       1.00800           0
     49977 TIP3     9177     TIP3     H2       HT       0.417000       1.00800           0
     49978 TIP3     9178     TIP3     OH2      OT      -0.834000       15.9994           0
     49979 TIP3     9178     TIP3     H1       HT       0.417000       1.00800           0
     49980 TIP3     9178     TIP3     H2       HT       0.417000       1.00800           0
     49981 TIP3     9179     TIP3     OH2      OT      -0.834000       15.9994           0
     49982 TIP3     9179     TIP3     H1       HT       0.417000       1.00800           0
     49983 TIP3     9179     TIP3     H2       HT       0.417000       1.00800           0
     49984 TIP3     9180     TIP3     OH2      OT      -0.834000       15.9994           0
     49985 TIP3     9180     TIP3     H1       HT       0.417000       1.00800           0
     49986 TIP3     9180     TIP3     H2       HT       0.417000       1.00800           0
     49987 TIP3     9181     TIP3     OH2      OT      -0.834000       15.9994           0
     49988 TIP3     9181     TIP3     H1       HT       0.417000       1.00800           0
     49989 TIP3     9181     TIP3     H2       HT       0.417000       1.00800           0
     49990 TIP3     9182     TIP3     OH2      OT      -0.834000       15.9994           0
     49991 TIP3     9182     TIP3     H1       HT       0.417000       1.00800           0
     49992 TIP3     9182     TIP3     H2       HT       0.417000       1.00800           0
     49993 TIP3     9183     TIP3     OH2      OT      -0.834000       15.9994           0
     49994 TIP3     9183     TIP3     H1       HT       0.417000       1.00800           0
     49995 TIP3     9183     TIP3     H2       HT       0.417000       1.00800           0
     49996 TIP3     9184     TIP3     OH2      OT      -0.834000       15.9994           0
     49997 TIP3     9184     TIP3     H1       HT       0.417000       1.00800           0
     49998 TIP3     9184     TIP3     H2       HT       0.417000       1.00800           0
     49999 TIP3     9185     TIP3     OH2      OT      -0.834000       15.9994           0
     50000 TIP3     9185     TIP3     H1       HT       0.417000       1.00800           0
     50001 TIP3     9185     TIP3     H2       HT       0.417000       1.00800           0
     50002 TIP3     9186     TIP3     OH2      OT      -0.834000       15.9994           0
     50003 TIP3     9186     TIP3     H1       HT       0.417000       1.00800           0
     50004 TIP3     9186     TIP3     H2       HT       0.417000       1.00800           0
     50005 TIP3     9187     TIP3     OH2      OT      -0.834000       15.9994           0
     50006 TIP3     9187     TIP3     H1       HT       0.417000       1.00800           0
     50007 TIP3     9187     TIP3     H2       HT       0.417000       1.00800           0
     50008 TIP3     9188     TIP3     OH2      OT      -0.834000       15.9994           0
     50009 TIP3     9188     TIP3     H1       HT       0.417000       1.00800           0
     50010 TIP3     9188     TIP3     H2       HT       0.417000       1.00800           0
     50011 TIP3     9189     TIP3     OH2      OT      -0.834000       15.9994           0
     50012 TIP3     9189     TIP3     H1       HT       0.417000       1.00800           0
     50013 TIP3     9189     TIP3     H2       HT       0.417000       1.00800           0
     50014 TIP3     9190     TIP3     OH2      OT      -0.834000       15.9994           0
     50015 TIP3     9190     TIP3     H1       HT       0.417000       1.00800           0
     50016 TIP3     9190     TIP3     H2       HT       0.417000       1.00800           0
     50017 TIP3     9191     TIP3     OH2      OT      -0.834000       15.9994           0
     50018 TIP3     9191     TIP3     H1       HT       0.417000       1.00800           0
     50019 TIP3     9191     TIP3     H2       HT       0.417000       1.00800           0
     50020 TIP3     9192     TIP3     OH2      OT      -0.834000       15.9994           0
     50021 TIP3     9192     TIP3     H1       HT       0.417000       1.00800           0
     50022 TIP3     9192     TIP3     H2       HT       0.417000       1.00800           0
     50023 TIP3     9193     TIP3     OH2      OT      -0.834000       15.9994           0
     50024 TIP3     9193     TIP3     H1       HT       0.417000       1.00800           0
     50025 TIP3     9193     TIP3     H2       HT       0.417000       1.00800           0
     50026 TIP3     9194     TIP3     OH2      OT      -0.834000       15.9994           0
     50027 TIP3     9194     TIP3     H1       HT       0.417000       1.00800           0
     50028 TIP3     9194     TIP3     H2       HT       0.417000       1.00800           0
     50029 TIP3     9195     TIP3     OH2      OT      -0.834000       15.9994           0
     50030 TIP3     9195     TIP3     H1       HT       0.417000       1.00800           0
     50031 TIP3     9195     TIP3     H2       HT       0.417000       1.00800           0
     50032 TIP3     9196     TIP3     OH2      OT      -0.834000       15.9994           0
     50033 TIP3     9196     TIP3     H1       HT       0.417000       1.00800           0
     50034 TIP3     9196     TIP3     H2       HT       0.417000       1.00800           0
     50035 TIP3     9197     TIP3     OH2      OT      -0.834000       15.9994           0
     50036 TIP3     9197     TIP3     H1       HT       0.417000       1.00800           0
     50037 TIP3     9197     TIP3     H2       HT       0.417000       1.00800           0
     50038 TIP3     9198     TIP3     OH2      OT      -0.834000       15.9994           0
     50039 TIP3     9198     TIP3     H1       HT       0.417000       1.00800           0
     50040 TIP3     9198     TIP3     H2       HT       0.417000       1.00800           0
     50041 TIP3     9199     TIP3     OH2      OT      -0.834000       15.9994           0
     50042 TIP3     9199     TIP3     H1       HT       0.417000       1.00800           0
     50043 TIP3     9199     TIP3     H2       HT       0.417000       1.00800           0
     50044 TIP3     9200     TIP3     OH2      OT      -0.834000       15.9994           0
     50045 TIP3     9200     TIP3     H1       HT       0.417000       1.00800           0
     50046 TIP3     9200     TIP3     H2       HT       0.417000       1.00800           0
     50047 TIP3     9201     TIP3     OH2      OT      -0.834000       15.9994           0
     50048 TIP3     9201     TIP3     H1       HT       0.417000       1.00800           0
     50049 TIP3     9201     TIP3     H2       HT       0.417000       1.00800           0
     50050 TIP3     9202     TIP3     OH2      OT      -0.834000       15.9994           0
     50051 TIP3     9202     TIP3     H1       HT       0.417000       1.00800           0
     50052 TIP3     9202     TIP3     H2       HT       0.417000       1.00800           0
     50053 TIP3     9203     TIP3     OH2      OT      -0.834000       15.9994           0
     50054 TIP3     9203     TIP3     H1       HT       0.417000       1.00800           0
     50055 TIP3     9203     TIP3     H2       HT       0.417000       1.00800           0
     50056 TIP3     9204     TIP3     OH2      OT      -0.834000       15.9994           0
     50057 TIP3     9204     TIP3     H1       HT       0.417000       1.00800           0
     50058 TIP3     9204     TIP3     H2       HT       0.417000       1.00800           0
     50059 TIP3     9205     TIP3     OH2      OT      -0.834000       15.9994           0
     50060 TIP3     9205     TIP3     H1       HT       0.417000       1.00800           0
     50061 TIP3     9205     TIP3     H2       HT       0.417000       1.00800           0
     50062 TIP3     9206     TIP3     OH2      OT      -0.834000       15.9994           0
     50063 TIP3     9206     TIP3     H1       HT       0.417000       1.00800           0
     50064 TIP3     9206     TIP3     H2       HT       0.417000       1.00800           0
     50065 TIP3     9207     TIP3     OH2      OT      -0.834000       15.9994           0
     50066 TIP3     9207     TIP3     H1       HT       0.417000       1.00800           0
     50067 TIP3     9207     TIP3     H2       HT       0.417000       1.00800           0
     50068 TIP3     9208     TIP3     OH2      OT      -0.834000       15.9994           0
     50069 TIP3     9208     TIP3     H1       HT       0.417000       1.00800           0
     50070 TIP3     9208     TIP3     H2       HT       0.417000       1.00800           0
     50071 TIP3     9209     TIP3     OH2      OT      -0.834000       15.9994           0
     50072 TIP3     9209     TIP3     H1       HT       0.417000       1.00800           0
     50073 TIP3     9209     TIP3     H2       HT       0.417000       1.00800           0
     50074 TIP3     9210     TIP3     OH2      OT      -0.834000       15.9994           0
     50075 TIP3     9210     TIP3     H1       HT       0.417000       1.00800           0
     50076 TIP3     9210     TIP3     H2       HT       0.417000       1.00800           0
     50077 TIP3     9211     TIP3     OH2      OT      -0.834000       15.9994           0
     50078 TIP3     9211     TIP3     H1       HT       0.417000       1.00800           0
     50079 TIP3     9211     TIP3     H2       HT       0.417000       1.00800           0
     50080 TIP3     9212     TIP3     OH2      OT      -0.834000       15.9994           0
     50081 TIP3     9212     TIP3     H1       HT       0.417000       1.00800           0
     50082 TIP3     9212     TIP3     H2       HT       0.417000       1.00800           0
     50083 TIP3     9213     TIP3     OH2      OT      -0.834000       15.9994           0
     50084 TIP3     9213     TIP3     H1       HT       0.417000       1.00800           0
     50085 TIP3     9213     TIP3     H2       HT       0.417000       1.00800           0
     50086 TIP3     9214     TIP3     OH2      OT      -0.834000       15.9994           0
     50087 TIP3     9214     TIP3     H1       HT       0.417000       1.00800           0
     50088 TIP3     9214     TIP3     H2       HT       0.417000       1.00800           0
     50089 TIP3     9215     TIP3     OH2      OT      -0.834000       15.9994           0
     50090 TIP3     9215     TIP3     H1       HT       0.417000       1.00800           0
     50091 TIP3     9215     TIP3     H2       HT       0.417000       1.00800           0
     50092 TIP3     9216     TIP3     OH2      OT      -0.834000       15.9994           0
     50093 TIP3     9216     TIP3     H1       HT       0.417000       1.00800           0
     50094 TIP3     9216     TIP3     H2       HT       0.417000       1.00800           0
     50095 TIP3     9217     TIP3     OH2      OT      -0.834000       15.9994           0
     50096 TIP3     9217     TIP3     H1       HT       0.417000       1.00800           0
     50097 TIP3     9217     TIP3     H2       HT       0.417000       1.00800           0
     50098 TIP3     9218     TIP3     OH2      OT      -0.834000       15.9994           0
     50099 TIP3     9218     TIP3     H1       HT       0.417000       1.00800           0
     50100 TIP3     9218     TIP3     H2       HT       0.417000       1.00800           0
     50101 TIP3     9219     TIP3     OH2      OT      -0.834000       15.9994           0
     50102 TIP3     9219     TIP3     H1       HT       0.417000       1.00800           0
     50103 TIP3     9219     TIP3     H2       HT       0.417000       1.00800           0
     50104 TIP3     9220     TIP3     OH2      OT      -0.834000       15.9994           0
     50105 TIP3     9220     TIP3     H1       HT       0.417000       1.00800           0
     50106 TIP3     9220     TIP3     H2       HT       0.417000       1.00800           0
     50107 TIP3     9221     TIP3     OH2      OT      -0.834000       15.9994           0
     50108 TIP3     9221     TIP3     H1       HT       0.417000       1.00800           0
     50109 TIP3     9221     TIP3     H2       HT       0.417000       1.00800           0
     50110 TIP3     9222     TIP3     OH2      OT      -0.834000       15.9994           0
     50111 TIP3     9222     TIP3     H1       HT       0.417000       1.00800           0
     50112 TIP3     9222     TIP3     H2       HT       0.417000       1.00800           0
     50113 TIP3     9223     TIP3     OH2      OT      -0.834000       15.9994           0
     50114 TIP3     9223     TIP3     H1       HT       0.417000       1.00800           0
     50115 TIP3     9223     TIP3     H2       HT       0.417000       1.00800           0
     50116 TIP3     9224     TIP3     OH2      OT      -0.834000       15.9994           0
     50117 TIP3     9224     TIP3     H1       HT       0.417000       1.00800           0
     50118 TIP3     9224     TIP3     H2       HT       0.417000       1.00800           0
     50119 TIP3     9225     TIP3     OH2      OT      -0.834000       15.9994           0
     50120 TIP3     9225     TIP3     H1       HT       0.417000       1.00800           0
     50121 TIP3     9225     TIP3     H2       HT       0.417000       1.00800           0
     50122 TIP3     9226     TIP3     OH2      OT      -0.834000       15.9994           0
     50123 TIP3     9226     TIP3     H1       HT       0.417000       1.00800           0
     50124 TIP3     9226     TIP3     H2       HT       0.417000       1.00800           0
     50125 TIP3     9227     TIP3     OH2      OT      -0.834000       15.9994           0
     50126 TIP3     9227     TIP3     H1       HT       0.417000       1.00800           0
     50127 TIP3     9227     TIP3     H2       HT       0.417000       1.00800           0
     50128 TIP3     9228     TIP3     OH2      OT      -0.834000       15.9994           0
     50129 TIP3     9228     TIP3     H1       HT       0.417000       1.00800           0
     50130 TIP3     9228     TIP3     H2       HT       0.417000       1.00800           0
     50131 TIP3     9229     TIP3     OH2      OT      -0.834000       15.9994           0
     50132 TIP3     9229     TIP3     H1       HT       0.417000       1.00800           0
     50133 TIP3     9229     TIP3     H2       HT       0.417000       1.00800           0
     50134 TIP3     9230     TIP3     OH2      OT      -0.834000       15.9994           0
     50135 TIP3     9230     TIP3     H1       HT       0.417000       1.00800           0
     50136 TIP3     9230     TIP3     H2       HT       0.417000       1.00800           0
     50137 TIP3     9231     TIP3     OH2      OT      -0.834000       15.9994           0
     50138 TIP3     9231     TIP3     H1       HT       0.417000       1.00800           0
     50139 TIP3     9231     TIP3     H2       HT       0.417000       1.00800           0
     50140 TIP3     9232     TIP3     OH2      OT      -0.834000       15.9994           0
     50141 TIP3     9232     TIP3     H1       HT       0.417000       1.00800           0
     50142 TIP3     9232     TIP3     H2       HT       0.417000       1.00800           0
     50143 TIP3     9233     TIP3     OH2      OT      -0.834000       15.9994           0
     50144 TIP3     9233     TIP3     H1       HT       0.417000       1.00800           0
     50145 TIP3     9233     TIP3     H2       HT       0.417000       1.00800           0
     50146 TIP3     9234     TIP3     OH2      OT      -0.834000       15.9994           0
     50147 TIP3     9234     TIP3     H1       HT       0.417000       1.00800           0
     50148 TIP3     9234     TIP3     H2       HT       0.417000       1.00800           0
     50149 TIP3     9235     TIP3     OH2      OT      -0.834000       15.9994           0
     50150 TIP3     9235     TIP3     H1       HT       0.417000       1.00800           0
     50151 TIP3     9235     TIP3     H2       HT       0.417000       1.00800           0
     50152 TIP3     9236     TIP3     OH2      OT      -0.834000       15.9994           0
     50153 TIP3     9236     TIP3     H1       HT       0.417000       1.00800           0
     50154 TIP3     9236     TIP3     H2       HT       0.417000       1.00800           0
     50155 TIP3     9237     TIP3     OH2      OT      -0.834000       15.9994           0
     50156 TIP3     9237     TIP3     H1       HT       0.417000       1.00800           0
     50157 TIP3     9237     TIP3     H2       HT       0.417000       1.00800           0
     50158 TIP3     9238     TIP3     OH2      OT      -0.834000       15.9994           0
     50159 TIP3     9238     TIP3     H1       HT       0.417000       1.00800           0
     50160 TIP3     9238     TIP3     H2       HT       0.417000       1.00800           0
     50161 TIP3     9239     TIP3     OH2      OT      -0.834000       15.9994           0
     50162 TIP3     9239     TIP3     H1       HT       0.417000       1.00800           0
     50163 TIP3     9239     TIP3     H2       HT       0.417000       1.00800           0
     50164 TIP3     9240     TIP3     OH2      OT      -0.834000       15.9994           0
     50165 TIP3     9240     TIP3     H1       HT       0.417000       1.00800           0
     50166 TIP3     9240     TIP3     H2       HT       0.417000       1.00800           0
     50167 TIP3     9241     TIP3     OH2      OT      -0.834000       15.9994           0
     50168 TIP3     9241     TIP3     H1       HT       0.417000       1.00800           0
     50169 TIP3     9241     TIP3     H2       HT       0.417000       1.00800           0
     50170 TIP3     9242     TIP3     OH2      OT      -0.834000       15.9994           0
     50171 TIP3     9242     TIP3     H1       HT       0.417000       1.00800           0
     50172 TIP3     9242     TIP3     H2       HT       0.417000       1.00800           0
     50173 TIP3     9243     TIP3     OH2      OT      -0.834000       15.9994           0
     50174 TIP3     9243     TIP3     H1       HT       0.417000       1.00800           0
     50175 TIP3     9243     TIP3     H2       HT       0.417000       1.00800           0
     50176 TIP3     9244     TIP3     OH2      OT      -0.834000       15.9994           0
     50177 TIP3     9244     TIP3     H1       HT       0.417000       1.00800           0
     50178 TIP3     9244     TIP3     H2       HT       0.417000       1.00800           0
     50179 TIP3     9245     TIP3     OH2      OT      -0.834000       15.9994           0
     50180 TIP3     9245     TIP3     H1       HT       0.417000       1.00800           0
     50181 TIP3     9245     TIP3     H2       HT       0.417000       1.00800           0
     50182 TIP3     9246     TIP3     OH2      OT      -0.834000       15.9994           0
     50183 TIP3     9246     TIP3     H1       HT       0.417000       1.00800           0
     50184 TIP3     9246     TIP3     H2       HT       0.417000       1.00800           0
     50185 TIP3     9247     TIP3     OH2      OT      -0.834000       15.9994           0
     50186 TIP3     9247     TIP3     H1       HT       0.417000       1.00800           0
     50187 TIP3     9247     TIP3     H2       HT       0.417000       1.00800           0
     50188 TIP3     9248     TIP3     OH2      OT      -0.834000       15.9994           0
     50189 TIP3     9248     TIP3     H1       HT       0.417000       1.00800           0
     50190 TIP3     9248     TIP3     H2       HT       0.417000       1.00800           0
     50191 TIP3     9249     TIP3     OH2      OT      -0.834000       15.9994           0
     50192 TIP3     9249     TIP3     H1       HT       0.417000       1.00800           0
     50193 TIP3     9249     TIP3     H2       HT       0.417000       1.00800           0
     50194 TIP3     9250     TIP3     OH2      OT      -0.834000       15.9994           0
     50195 TIP3     9250     TIP3     H1       HT       0.417000       1.00800           0
     50196 TIP3     9250     TIP3     H2       HT       0.417000       1.00800           0
     50197 TIP3     9251     TIP3     OH2      OT      -0.834000       15.9994           0
     50198 TIP3     9251     TIP3     H1       HT       0.417000       1.00800           0
     50199 TIP3     9251     TIP3     H2       HT       0.417000       1.00800           0
     50200 TIP3     9252     TIP3     OH2      OT      -0.834000       15.9994           0
     50201 TIP3     9252     TIP3     H1       HT       0.417000       1.00800           0
     50202 TIP3     9252     TIP3     H2       HT       0.417000       1.00800           0
     50203 TIP3     9253     TIP3     OH2      OT      -0.834000       15.9994           0
     50204 TIP3     9253     TIP3     H1       HT       0.417000       1.00800           0
     50205 TIP3     9253     TIP3     H2       HT       0.417000       1.00800           0
     50206 TIP3     9254     TIP3     OH2      OT      -0.834000       15.9994           0
     50207 TIP3     9254     TIP3     H1       HT       0.417000       1.00800           0
     50208 TIP3     9254     TIP3     H2       HT       0.417000       1.00800           0
     50209 TIP3     9255     TIP3     OH2      OT      -0.834000       15.9994           0
     50210 TIP3     9255     TIP3     H1       HT       0.417000       1.00800           0
     50211 TIP3     9255     TIP3     H2       HT       0.417000       1.00800           0
     50212 TIP3     9256     TIP3     OH2      OT      -0.834000       15.9994           0
     50213 TIP3     9256     TIP3     H1       HT       0.417000       1.00800           0
     50214 TIP3     9256     TIP3     H2       HT       0.417000       1.00800           0
     50215 TIP3     9257     TIP3     OH2      OT      -0.834000       15.9994           0
     50216 TIP3     9257     TIP3     H1       HT       0.417000       1.00800           0
     50217 TIP3     9257     TIP3     H2       HT       0.417000       1.00800           0
     50218 TIP3     9258     TIP3     OH2      OT      -0.834000       15.9994           0
     50219 TIP3     9258     TIP3     H1       HT       0.417000       1.00800           0
     50220 TIP3     9258     TIP3     H2       HT       0.417000       1.00800           0
     50221 TIP3     9259     TIP3     OH2      OT      -0.834000       15.9994           0
     50222 TIP3     9259     TIP3     H1       HT       0.417000       1.00800           0
     50223 TIP3     9259     TIP3     H2       HT       0.417000       1.00800           0
     50224 TIP3     9260     TIP3     OH2      OT      -0.834000       15.9994           0
     50225 TIP3     9260     TIP3     H1       HT       0.417000       1.00800           0
     50226 TIP3     9260     TIP3     H2       HT       0.417000       1.00800           0
     50227 TIP3     9261     TIP3     OH2      OT      -0.834000       15.9994           0
     50228 TIP3     9261     TIP3     H1       HT       0.417000       1.00800           0
     50229 TIP3     9261     TIP3     H2       HT       0.417000       1.00800           0
     50230 TIP3     9262     TIP3     OH2      OT      -0.834000       15.9994           0
     50231 TIP3     9262     TIP3     H1       HT       0.417000       1.00800           0
     50232 TIP3     9262     TIP3     H2       HT       0.417000       1.00800           0
     50233 TIP3     9263     TIP3     OH2      OT      -0.834000       15.9994           0
     50234 TIP3     9263     TIP3     H1       HT       0.417000       1.00800           0
     50235 TIP3     9263     TIP3     H2       HT       0.417000       1.00800           0
     50236 TIP3     9264     TIP3     OH2      OT      -0.834000       15.9994           0
     50237 TIP3     9264     TIP3     H1       HT       0.417000       1.00800           0
     50238 TIP3     9264     TIP3     H2       HT       0.417000       1.00800           0
     50239 TIP3     9265     TIP3     OH2      OT      -0.834000       15.9994           0
     50240 TIP3     9265     TIP3     H1       HT       0.417000       1.00800           0
     50241 TIP3     9265     TIP3     H2       HT       0.417000       1.00800           0
     50242 TIP3     9266     TIP3     OH2      OT      -0.834000       15.9994           0
     50243 TIP3     9266     TIP3     H1       HT       0.417000       1.00800           0
     50244 TIP3     9266     TIP3     H2       HT       0.417000       1.00800           0
     50245 TIP3     9267     TIP3     OH2      OT      -0.834000       15.9994           0
     50246 TIP3     9267     TIP3     H1       HT       0.417000       1.00800           0
     50247 TIP3     9267     TIP3     H2       HT       0.417000       1.00800           0
     50248 TIP3     9268     TIP3     OH2      OT      -0.834000       15.9994           0
     50249 TIP3     9268     TIP3     H1       HT       0.417000       1.00800           0
     50250 TIP3     9268     TIP3     H2       HT       0.417000       1.00800           0
     50251 TIP3     9269     TIP3     OH2      OT      -0.834000       15.9994           0
     50252 TIP3     9269     TIP3     H1       HT       0.417000       1.00800           0
     50253 TIP3     9269     TIP3     H2       HT       0.417000       1.00800           0
     50254 TIP3     9270     TIP3     OH2      OT      -0.834000       15.9994           0
     50255 TIP3     9270     TIP3     H1       HT       0.417000       1.00800           0
     50256 TIP3     9270     TIP3     H2       HT       0.417000       1.00800           0
     50257 TIP3     9271     TIP3     OH2      OT      -0.834000       15.9994           0
     50258 TIP3     9271     TIP3     H1       HT       0.417000       1.00800           0
     50259 TIP3     9271     TIP3     H2       HT       0.417000       1.00800           0
     50260 TIP3     9272     TIP3     OH2      OT      -0.834000       15.9994           0
     50261 TIP3     9272     TIP3     H1       HT       0.417000       1.00800           0
     50262 TIP3     9272     TIP3     H2       HT       0.417000       1.00800           0
     50263 TIP3     9273     TIP3     OH2      OT      -0.834000       15.9994           0
     50264 TIP3     9273     TIP3     H1       HT       0.417000       1.00800           0
     50265 TIP3     9273     TIP3     H2       HT       0.417000       1.00800           0
     50266 TIP3     9274     TIP3     OH2      OT      -0.834000       15.9994           0
     50267 TIP3     9274     TIP3     H1       HT       0.417000       1.00800           0
     50268 TIP3     9274     TIP3     H2       HT       0.417000       1.00800           0
     50269 TIP3     9275     TIP3     OH2      OT      -0.834000       15.9994           0
     50270 TIP3     9275     TIP3     H1       HT       0.417000       1.00800           0
     50271 TIP3     9275     TIP3     H2       HT       0.417000       1.00800           0
     50272 TIP3     9276     TIP3     OH2      OT      -0.834000       15.9994           0
     50273 TIP3     9276     TIP3     H1       HT       0.417000       1.00800           0
     50274 TIP3     9276     TIP3     H2       HT       0.417000       1.00800           0
     50275 TIP3     9277     TIP3     OH2      OT      -0.834000       15.9994           0
     50276 TIP3     9277     TIP3     H1       HT       0.417000       1.00800           0
     50277 TIP3     9277     TIP3     H2       HT       0.417000       1.00800           0
     50278 TIP3     9278     TIP3     OH2      OT      -0.834000       15.9994           0
     50279 TIP3     9278     TIP3     H1       HT       0.417000       1.00800           0
     50280 TIP3     9278     TIP3     H2       HT       0.417000       1.00800           0
     50281 TIP3     9279     TIP3     OH2      OT      -0.834000       15.9994           0
     50282 TIP3     9279     TIP3     H1       HT       0.417000       1.00800           0
     50283 TIP3     9279     TIP3     H2       HT       0.417000       1.00800           0
     50284 TIP3     9280     TIP3     OH2      OT      -0.834000       15.9994           0
     50285 TIP3     9280     TIP3     H1       HT       0.417000       1.00800           0
     50286 TIP3     9280     TIP3     H2       HT       0.417000       1.00800           0
     50287 TIP3     9281     TIP3     OH2      OT      -0.834000       15.9994           0
     50288 TIP3     9281     TIP3     H1       HT       0.417000       1.00800           0
     50289 TIP3     9281     TIP3     H2       HT       0.417000       1.00800           0
     50290 TIP3     9282     TIP3     OH2      OT      -0.834000       15.9994           0
     50291 TIP3     9282     TIP3     H1       HT       0.417000       1.00800           0
     50292 TIP3     9282     TIP3     H2       HT       0.417000       1.00800           0
     50293 TIP3     9283     TIP3     OH2      OT      -0.834000       15.9994           0
     50294 TIP3     9283     TIP3     H1       HT       0.417000       1.00800           0
     50295 TIP3     9283     TIP3     H2       HT       0.417000       1.00800           0
     50296 TIP3     9284     TIP3     OH2      OT      -0.834000       15.9994           0
     50297 TIP3     9284     TIP3     H1       HT       0.417000       1.00800           0
     50298 TIP3     9284     TIP3     H2       HT       0.417000       1.00800           0
     50299 TIP3     9285     TIP3     OH2      OT      -0.834000       15.9994           0
     50300 TIP3     9285     TIP3     H1       HT       0.417000       1.00800           0
     50301 TIP3     9285     TIP3     H2       HT       0.417000       1.00800           0
     50302 TIP3     9286     TIP3     OH2      OT      -0.834000       15.9994           0
     50303 TIP3     9286     TIP3     H1       HT       0.417000       1.00800           0
     50304 TIP3     9286     TIP3     H2       HT       0.417000       1.00800           0
     50305 TIP3     9287     TIP3     OH2      OT      -0.834000       15.9994           0
     50306 TIP3     9287     TIP3     H1       HT       0.417000       1.00800           0
     50307 TIP3     9287     TIP3     H2       HT       0.417000       1.00800           0
     50308 TIP3     9288     TIP3     OH2      OT      -0.834000       15.9994           0
     50309 TIP3     9288     TIP3     H1       HT       0.417000       1.00800           0
     50310 TIP3     9288     TIP3     H2       HT       0.417000       1.00800           0
     50311 TIP3     9289     TIP3     OH2      OT      -0.834000       15.9994           0
     50312 TIP3     9289     TIP3     H1       HT       0.417000       1.00800           0
     50313 TIP3     9289     TIP3     H2       HT       0.417000       1.00800           0
     50314 TIP3     9290     TIP3     OH2      OT      -0.834000       15.9994           0
     50315 TIP3     9290     TIP3     H1       HT       0.417000       1.00800           0
     50316 TIP3     9290     TIP3     H2       HT       0.417000       1.00800           0
     50317 TIP3     9291     TIP3     OH2      OT      -0.834000       15.9994           0
     50318 TIP3     9291     TIP3     H1       HT       0.417000       1.00800           0
     50319 TIP3     9291     TIP3     H2       HT       0.417000       1.00800           0
     50320 TIP3     9292     TIP3     OH2      OT      -0.834000       15.9994           0
     50321 TIP3     9292     TIP3     H1       HT       0.417000       1.00800           0
     50322 TIP3     9292     TIP3     H2       HT       0.417000       1.00800           0
     50323 TIP3     9293     TIP3     OH2      OT      -0.834000       15.9994           0
     50324 TIP3     9293     TIP3     H1       HT       0.417000       1.00800           0
     50325 TIP3     9293     TIP3     H2       HT       0.417000       1.00800           0
     50326 TIP3     9294     TIP3     OH2      OT      -0.834000       15.9994           0
     50327 TIP3     9294     TIP3     H1       HT       0.417000       1.00800           0
     50328 TIP3     9294     TIP3     H2       HT       0.417000       1.00800           0
     50329 TIP3     9295     TIP3     OH2      OT      -0.834000       15.9994           0
     50330 TIP3     9295     TIP3     H1       HT       0.417000       1.00800           0
     50331 TIP3     9295     TIP3     H2       HT       0.417000       1.00800           0
     50332 TIP3     9296     TIP3     OH2      OT      -0.834000       15.9994           0
     50333 TIP3     9296     TIP3     H1       HT       0.417000       1.00800           0
     50334 TIP3     9296     TIP3     H2       HT       0.417000       1.00800           0
     50335 TIP3     9297     TIP3     OH2      OT      -0.834000       15.9994           0
     50336 TIP3     9297     TIP3     H1       HT       0.417000       1.00800           0
     50337 TIP3     9297     TIP3     H2       HT       0.417000       1.00800           0
     50338 TIP3     9298     TIP3     OH2      OT      -0.834000       15.9994           0
     50339 TIP3     9298     TIP3     H1       HT       0.417000       1.00800           0
     50340 TIP3     9298     TIP3     H2       HT       0.417000       1.00800           0
     50341 TIP3     9299     TIP3     OH2      OT      -0.834000       15.9994           0
     50342 TIP3     9299     TIP3     H1       HT       0.417000       1.00800           0
     50343 TIP3     9299     TIP3     H2       HT       0.417000       1.00800           0
     50344 TIP3     9300     TIP3     OH2      OT      -0.834000       15.9994           0
     50345 TIP3     9300     TIP3     H1       HT       0.417000       1.00800           0
     50346 TIP3     9300     TIP3     H2       HT       0.417000       1.00800           0
     50347 TIP3     9301     TIP3     OH2      OT      -0.834000       15.9994           0
     50348 TIP3     9301     TIP3     H1       HT       0.417000       1.00800           0
     50349 TIP3     9301     TIP3     H2       HT       0.417000       1.00800           0
     50350 TIP3     9302     TIP3     OH2      OT      -0.834000       15.9994           0
     50351 TIP3     9302     TIP3     H1       HT       0.417000       1.00800           0
     50352 TIP3     9302     TIP3     H2       HT       0.417000       1.00800           0
     50353 TIP3     9303     TIP3     OH2      OT      -0.834000       15.9994           0
     50354 TIP3     9303     TIP3     H1       HT       0.417000       1.00800           0
     50355 TIP3     9303     TIP3     H2       HT       0.417000       1.00800           0
     50356 TIP3     9304     TIP3     OH2      OT      -0.834000       15.9994           0
     50357 TIP3     9304     TIP3     H1       HT       0.417000       1.00800           0
     50358 TIP3     9304     TIP3     H2       HT       0.417000       1.00800           0
     50359 TIP3     9305     TIP3     OH2      OT      -0.834000       15.9994           0
     50360 TIP3     9305     TIP3     H1       HT       0.417000       1.00800           0
     50361 TIP3     9305     TIP3     H2       HT       0.417000       1.00800           0
     50362 TIP3     9306     TIP3     OH2      OT      -0.834000       15.9994           0
     50363 TIP3     9306     TIP3     H1       HT       0.417000       1.00800           0
     50364 TIP3     9306     TIP3     H2       HT       0.417000       1.00800           0
     50365 TIP3     9307     TIP3     OH2      OT      -0.834000       15.9994           0
     50366 TIP3     9307     TIP3     H1       HT       0.417000       1.00800           0
     50367 TIP3     9307     TIP3     H2       HT       0.417000       1.00800           0
     50368 TIP3     9308     TIP3     OH2      OT      -0.834000       15.9994           0
     50369 TIP3     9308     TIP3     H1       HT       0.417000       1.00800           0
     50370 TIP3     9308     TIP3     H2       HT       0.417000       1.00800           0
     50371 TIP3     9309     TIP3     OH2      OT      -0.834000       15.9994           0
     50372 TIP3     9309     TIP3     H1       HT       0.417000       1.00800           0
     50373 TIP3     9309     TIP3     H2       HT       0.417000       1.00800           0
     50374 TIP3     9310     TIP3     OH2      OT      -0.834000       15.9994           0
     50375 TIP3     9310     TIP3     H1       HT       0.417000       1.00800           0
     50376 TIP3     9310     TIP3     H2       HT       0.417000       1.00800           0
     50377 TIP3     9311     TIP3     OH2      OT      -0.834000       15.9994           0
     50378 TIP3     9311     TIP3     H1       HT       0.417000       1.00800           0
     50379 TIP3     9311     TIP3     H2       HT       0.417000       1.00800           0
     50380 TIP3     9312     TIP3     OH2      OT      -0.834000       15.9994           0
     50381 TIP3     9312     TIP3     H1       HT       0.417000       1.00800           0
     50382 TIP3     9312     TIP3     H2       HT       0.417000       1.00800           0
     50383 TIP3     9313     TIP3     OH2      OT      -0.834000       15.9994           0
     50384 TIP3     9313     TIP3     H1       HT       0.417000       1.00800           0
     50385 TIP3     9313     TIP3     H2       HT       0.417000       1.00800           0
     50386 TIP3     9314     TIP3     OH2      OT      -0.834000       15.9994           0
     50387 TIP3     9314     TIP3     H1       HT       0.417000       1.00800           0
     50388 TIP3     9314     TIP3     H2       HT       0.417000       1.00800           0
     50389 TIP3     9315     TIP3     OH2      OT      -0.834000       15.9994           0
     50390 TIP3     9315     TIP3     H1       HT       0.417000       1.00800           0
     50391 TIP3     9315     TIP3     H2       HT       0.417000       1.00800           0
     50392 TIP3     9316     TIP3     OH2      OT      -0.834000       15.9994           0
     50393 TIP3     9316     TIP3     H1       HT       0.417000       1.00800           0
     50394 TIP3     9316     TIP3     H2       HT       0.417000       1.00800           0
     50395 TIP3     9317     TIP3     OH2      OT      -0.834000       15.9994           0
     50396 TIP3     9317     TIP3     H1       HT       0.417000       1.00800           0
     50397 TIP3     9317     TIP3     H2       HT       0.417000       1.00800           0
     50398 TIP3     9318     TIP3     OH2      OT      -0.834000       15.9994           0
     50399 TIP3     9318     TIP3     H1       HT       0.417000       1.00800           0
     50400 TIP3     9318     TIP3     H2       HT       0.417000       1.00800           0
     50401 TIP3     9319     TIP3     OH2      OT      -0.834000       15.9994           0
     50402 TIP3     9319     TIP3     H1       HT       0.417000       1.00800           0
     50403 TIP3     9319     TIP3     H2       HT       0.417000       1.00800           0
     50404 TIP3     9320     TIP3     OH2      OT      -0.834000       15.9994           0
     50405 TIP3     9320     TIP3     H1       HT       0.417000       1.00800           0
     50406 TIP3     9320     TIP3     H2       HT       0.417000       1.00800           0
     50407 TIP3     9321     TIP3     OH2      OT      -0.834000       15.9994           0
     50408 TIP3     9321     TIP3     H1       HT       0.417000       1.00800           0
     50409 TIP3     9321     TIP3     H2       HT       0.417000       1.00800           0
     50410 TIP3     9322     TIP3     OH2      OT      -0.834000       15.9994           0
     50411 TIP3     9322     TIP3     H1       HT       0.417000       1.00800           0
     50412 TIP3     9322     TIP3     H2       HT       0.417000       1.00800           0
     50413 TIP3     9323     TIP3     OH2      OT      -0.834000       15.9994           0
     50414 TIP3     9323     TIP3     H1       HT       0.417000       1.00800           0
     50415 TIP3     9323     TIP3     H2       HT       0.417000       1.00800           0
     50416 TIP3     9324     TIP3     OH2      OT      -0.834000       15.9994           0
     50417 TIP3     9324     TIP3     H1       HT       0.417000       1.00800           0
     50418 TIP3     9324     TIP3     H2       HT       0.417000       1.00800           0
     50419 TIP3     9325     TIP3     OH2      OT      -0.834000       15.9994           0
     50420 TIP3     9325     TIP3     H1       HT       0.417000       1.00800           0
     50421 TIP3     9325     TIP3     H2       HT       0.417000       1.00800           0
     50422 TIP3     9326     TIP3     OH2      OT      -0.834000       15.9994           0
     50423 TIP3     9326     TIP3     H1       HT       0.417000       1.00800           0
     50424 TIP3     9326     TIP3     H2       HT       0.417000       1.00800           0
     50425 TIP3     9327     TIP3     OH2      OT      -0.834000       15.9994           0
     50426 TIP3     9327     TIP3     H1       HT       0.417000       1.00800           0
     50427 TIP3     9327     TIP3     H2       HT       0.417000       1.00800           0
     50428 TIP3     9328     TIP3     OH2      OT      -0.834000       15.9994           0
     50429 TIP3     9328     TIP3     H1       HT       0.417000       1.00800           0
     50430 TIP3     9328     TIP3     H2       HT       0.417000       1.00800           0
     50431 TIP3     9329     TIP3     OH2      OT      -0.834000       15.9994           0
     50432 TIP3     9329     TIP3     H1       HT       0.417000       1.00800           0
     50433 TIP3     9329     TIP3     H2       HT       0.417000       1.00800           0
     50434 TIP3     9330     TIP3     OH2      OT      -0.834000       15.9994           0
     50435 TIP3     9330     TIP3     H1       HT       0.417000       1.00800           0
     50436 TIP3     9330     TIP3     H2       HT       0.417000       1.00800           0
     50437 TIP3     9331     TIP3     OH2      OT      -0.834000       15.9994           0
     50438 TIP3     9331     TIP3     H1       HT       0.417000       1.00800           0
     50439 TIP3     9331     TIP3     H2       HT       0.417000       1.00800           0
     50440 TIP3     9332     TIP3     OH2      OT      -0.834000       15.9994           0
     50441 TIP3     9332     TIP3     H1       HT       0.417000       1.00800           0
     50442 TIP3     9332     TIP3     H2       HT       0.417000       1.00800           0
     50443 TIP3     9333     TIP3     OH2      OT      -0.834000       15.9994           0
     50444 TIP3     9333     TIP3     H1       HT       0.417000       1.00800           0
     50445 TIP3     9333     TIP3     H2       HT       0.417000       1.00800           0
     50446 TIP3     9334     TIP3     OH2      OT      -0.834000       15.9994           0
     50447 TIP3     9334     TIP3     H1       HT       0.417000       1.00800           0
     50448 TIP3     9334     TIP3     H2       HT       0.417000       1.00800           0
     50449 TIP3     9335     TIP3     OH2      OT      -0.834000       15.9994           0
     50450 TIP3     9335     TIP3     H1       HT       0.417000       1.00800           0
     50451 TIP3     9335     TIP3     H2       HT       0.417000       1.00800           0
     50452 TIP3     9336     TIP3     OH2      OT      -0.834000       15.9994           0
     50453 TIP3     9336     TIP3     H1       HT       0.417000       1.00800           0
     50454 TIP3     9336     TIP3     H2       HT       0.417000       1.00800           0
     50455 TIP3     9337     TIP3     OH2      OT      -0.834000       15.9994           0
     50456 TIP3     9337     TIP3     H1       HT       0.417000       1.00800           0
     50457 TIP3     9337     TIP3     H2       HT       0.417000       1.00800           0
     50458 TIP3     9338     TIP3     OH2      OT      -0.834000       15.9994           0
     50459 TIP3     9338     TIP3     H1       HT       0.417000       1.00800           0
     50460 TIP3     9338     TIP3     H2       HT       0.417000       1.00800           0
     50461 TIP3     9339     TIP3     OH2      OT      -0.834000       15.9994           0
     50462 TIP3     9339     TIP3     H1       HT       0.417000       1.00800           0
     50463 TIP3     9339     TIP3     H2       HT       0.417000       1.00800           0
     50464 TIP3     9340     TIP3     OH2      OT      -0.834000       15.9994           0
     50465 TIP3     9340     TIP3     H1       HT       0.417000       1.00800           0
     50466 TIP3     9340     TIP3     H2       HT       0.417000       1.00800           0
     50467 TIP3     9341     TIP3     OH2      OT      -0.834000       15.9994           0
     50468 TIP3     9341     TIP3     H1       HT       0.417000       1.00800           0
     50469 TIP3     9341     TIP3     H2       HT       0.417000       1.00800           0
     50470 TIP3     9342     TIP3     OH2      OT      -0.834000       15.9994           0
     50471 TIP3     9342     TIP3     H1       HT       0.417000       1.00800           0
     50472 TIP3     9342     TIP3     H2       HT       0.417000       1.00800           0
     50473 TIP3     9343     TIP3     OH2      OT      -0.834000       15.9994           0
     50474 TIP3     9343     TIP3     H1       HT       0.417000       1.00800           0
     50475 TIP3     9343     TIP3     H2       HT       0.417000       1.00800           0
     50476 TIP3     9344     TIP3     OH2      OT      -0.834000       15.9994           0
     50477 TIP3     9344     TIP3     H1       HT       0.417000       1.00800           0
     50478 TIP3     9344     TIP3     H2       HT       0.417000       1.00800           0
     50479 TIP3     9345     TIP3     OH2      OT      -0.834000       15.9994           0
     50480 TIP3     9345     TIP3     H1       HT       0.417000       1.00800           0
     50481 TIP3     9345     TIP3     H2       HT       0.417000       1.00800           0
     50482 TIP3     9346     TIP3     OH2      OT      -0.834000       15.9994           0
     50483 TIP3     9346     TIP3     H1       HT       0.417000       1.00800           0
     50484 TIP3     9346     TIP3     H2       HT       0.417000       1.00800           0
     50485 TIP3     9347     TIP3     OH2      OT      -0.834000       15.9994           0
     50486 TIP3     9347     TIP3     H1       HT       0.417000       1.00800           0
     50487 TIP3     9347     TIP3     H2       HT       0.417000       1.00800           0
     50488 TIP3     9348     TIP3     OH2      OT      -0.834000       15.9994           0
     50489 TIP3     9348     TIP3     H1       HT       0.417000       1.00800           0
     50490 TIP3     9348     TIP3     H2       HT       0.417000       1.00800           0
     50491 TIP3     9349     TIP3     OH2      OT      -0.834000       15.9994           0
     50492 TIP3     9349     TIP3     H1       HT       0.417000       1.00800           0
     50493 TIP3     9349     TIP3     H2       HT       0.417000       1.00800           0
     50494 TIP3     9350     TIP3     OH2      OT      -0.834000       15.9994           0
     50495 TIP3     9350     TIP3     H1       HT       0.417000       1.00800           0
     50496 TIP3     9350     TIP3     H2       HT       0.417000       1.00800           0
     50497 TIP3     9351     TIP3     OH2      OT      -0.834000       15.9994           0
     50498 TIP3     9351     TIP3     H1       HT       0.417000       1.00800           0
     50499 TIP3     9351     TIP3     H2       HT       0.417000       1.00800           0
     50500 TIP3     9352     TIP3     OH2      OT      -0.834000       15.9994           0
     50501 TIP3     9352     TIP3     H1       HT       0.417000       1.00800           0
     50502 TIP3     9352     TIP3     H2       HT       0.417000       1.00800           0
     50503 TIP3     9353     TIP3     OH2      OT      -0.834000       15.9994           0
     50504 TIP3     9353     TIP3     H1       HT       0.417000       1.00800           0
     50505 TIP3     9353     TIP3     H2       HT       0.417000       1.00800           0
     50506 TIP3     9354     TIP3     OH2      OT      -0.834000       15.9994           0
     50507 TIP3     9354     TIP3     H1       HT       0.417000       1.00800           0
     50508 TIP3     9354     TIP3     H2       HT       0.417000       1.00800           0
     50509 TIP3     9355     TIP3     OH2      OT      -0.834000       15.9994           0
     50510 TIP3     9355     TIP3     H1       HT       0.417000       1.00800           0
     50511 TIP3     9355     TIP3     H2       HT       0.417000       1.00800           0
     50512 TIP3     9356     TIP3     OH2      OT      -0.834000       15.9994           0
     50513 TIP3     9356     TIP3     H1       HT       0.417000       1.00800           0
     50514 TIP3     9356     TIP3     H2       HT       0.417000       1.00800           0
     50515 TIP3     9357     TIP3     OH2      OT      -0.834000       15.9994           0
     50516 TIP3     9357     TIP3     H1       HT       0.417000       1.00800           0
     50517 TIP3     9357     TIP3     H2       HT       0.417000       1.00800           0
     50518 TIP3     9358     TIP3     OH2      OT      -0.834000       15.9994           0
     50519 TIP3     9358     TIP3     H1       HT       0.417000       1.00800           0
     50520 TIP3     9358     TIP3     H2       HT       0.417000       1.00800           0
     50521 TIP3     9359     TIP3     OH2      OT      -0.834000       15.9994           0
     50522 TIP3     9359     TIP3     H1       HT       0.417000       1.00800           0
     50523 TIP3     9359     TIP3     H2       HT       0.417000       1.00800           0
     50524 TIP3     9360     TIP3     OH2      OT      -0.834000       15.9994           0
     50525 TIP3     9360     TIP3     H1       HT       0.417000       1.00800           0
     50526 TIP3     9360     TIP3     H2       HT       0.417000       1.00800           0
     50527 TIP3     9361     TIP3     OH2      OT      -0.834000       15.9994           0
     50528 TIP3     9361     TIP3     H1       HT       0.417000       1.00800           0
     50529 TIP3     9361     TIP3     H2       HT       0.417000       1.00800           0
     50530 TIP3     9362     TIP3     OH2      OT      -0.834000       15.9994           0
     50531 TIP3     9362     TIP3     H1       HT       0.417000       1.00800           0
     50532 TIP3     9362     TIP3     H2       HT       0.417000       1.00800           0
     50533 TIP3     9363     TIP3     OH2      OT      -0.834000       15.9994           0
     50534 TIP3     9363     TIP3     H1       HT       0.417000       1.00800           0
     50535 TIP3     9363     TIP3     H2       HT       0.417000       1.00800           0
     50536 TIP3     9364     TIP3     OH2      OT      -0.834000       15.9994           0
     50537 TIP3     9364     TIP3     H1       HT       0.417000       1.00800           0
     50538 TIP3     9364     TIP3     H2       HT       0.417000       1.00800           0
     50539 TIP3     9365     TIP3     OH2      OT      -0.834000       15.9994           0
     50540 TIP3     9365     TIP3     H1       HT       0.417000       1.00800           0
     50541 TIP3     9365     TIP3     H2       HT       0.417000       1.00800           0
     50542 TIP3     9366     TIP3     OH2      OT      -0.834000       15.9994           0
     50543 TIP3     9366     TIP3     H1       HT       0.417000       1.00800           0
     50544 TIP3     9366     TIP3     H2       HT       0.417000       1.00800           0
     50545 TIP3     9367     TIP3     OH2      OT      -0.834000       15.9994           0
     50546 TIP3     9367     TIP3     H1       HT       0.417000       1.00800           0
     50547 TIP3     9367     TIP3     H2       HT       0.417000       1.00800           0
     50548 TIP3     9368     TIP3     OH2      OT      -0.834000       15.9994           0
     50549 TIP3     9368     TIP3     H1       HT       0.417000       1.00800           0
     50550 TIP3     9368     TIP3     H2       HT       0.417000       1.00800           0
     50551 TIP3     9369     TIP3     OH2      OT      -0.834000       15.9994           0
     50552 TIP3     9369     TIP3     H1       HT       0.417000       1.00800           0
     50553 TIP3     9369     TIP3     H2       HT       0.417000       1.00800           0
     50554 TIP3     9370     TIP3     OH2      OT      -0.834000       15.9994           0
     50555 TIP3     9370     TIP3     H1       HT       0.417000       1.00800           0
     50556 TIP3     9370     TIP3     H2       HT       0.417000       1.00800           0
     50557 TIP3     9371     TIP3     OH2      OT      -0.834000       15.9994           0
     50558 TIP3     9371     TIP3     H1       HT       0.417000       1.00800           0
     50559 TIP3     9371     TIP3     H2       HT       0.417000       1.00800           0
     50560 TIP3     9372     TIP3     OH2      OT      -0.834000       15.9994           0
     50561 TIP3     9372     TIP3     H1       HT       0.417000       1.00800           0
     50562 TIP3     9372     TIP3     H2       HT       0.417000       1.00800           0
     50563 TIP3     9373     TIP3     OH2      OT      -0.834000       15.9994           0
     50564 TIP3     9373     TIP3     H1       HT       0.417000       1.00800           0
     50565 TIP3     9373     TIP3     H2       HT       0.417000       1.00800           0
     50566 TIP3     9374     TIP3     OH2      OT      -0.834000       15.9994           0
     50567 TIP3     9374     TIP3     H1       HT       0.417000       1.00800           0
     50568 TIP3     9374     TIP3     H2       HT       0.417000       1.00800           0
     50569 TIP3     9375     TIP3     OH2      OT      -0.834000       15.9994           0
     50570 TIP3     9375     TIP3     H1       HT       0.417000       1.00800           0
     50571 TIP3     9375     TIP3     H2       HT       0.417000       1.00800           0
     50572 TIP3     9376     TIP3     OH2      OT      -0.834000       15.9994           0
     50573 TIP3     9376     TIP3     H1       HT       0.417000       1.00800           0
     50574 TIP3     9376     TIP3     H2       HT       0.417000       1.00800           0
     50575 TIP3     9377     TIP3     OH2      OT      -0.834000       15.9994           0
     50576 TIP3     9377     TIP3     H1       HT       0.417000       1.00800           0
     50577 TIP3     9377     TIP3     H2       HT       0.417000       1.00800           0
     50578 TIP3     9378     TIP3     OH2      OT      -0.834000       15.9994           0
     50579 TIP3     9378     TIP3     H1       HT       0.417000       1.00800           0
     50580 TIP3     9378     TIP3     H2       HT       0.417000       1.00800           0
     50581 TIP3     9379     TIP3     OH2      OT      -0.834000       15.9994           0
     50582 TIP3     9379     TIP3     H1       HT       0.417000       1.00800           0
     50583 TIP3     9379     TIP3     H2       HT       0.417000       1.00800           0
     50584 TIP3     9380     TIP3     OH2      OT      -0.834000       15.9994           0
     50585 TIP3     9380     TIP3     H1       HT       0.417000       1.00800           0
     50586 TIP3     9380     TIP3     H2       HT       0.417000       1.00800           0
     50587 TIP3     9381     TIP3     OH2      OT      -0.834000       15.9994           0
     50588 TIP3     9381     TIP3     H1       HT       0.417000       1.00800           0
     50589 TIP3     9381     TIP3     H2       HT       0.417000       1.00800           0
     50590 TIP3     9382     TIP3     OH2      OT      -0.834000       15.9994           0
     50591 TIP3     9382     TIP3     H1       HT       0.417000       1.00800           0
     50592 TIP3     9382     TIP3     H2       HT       0.417000       1.00800           0
     50593 TIP3     9383     TIP3     OH2      OT      -0.834000       15.9994           0
     50594 TIP3     9383     TIP3     H1       HT       0.417000       1.00800           0
     50595 TIP3     9383     TIP3     H2       HT       0.417000       1.00800           0
     50596 TIP3     9384     TIP3     OH2      OT      -0.834000       15.9994           0
     50597 TIP3     9384     TIP3     H1       HT       0.417000       1.00800           0
     50598 TIP3     9384     TIP3     H2       HT       0.417000       1.00800           0
     50599 TIP3     9385     TIP3     OH2      OT      -0.834000       15.9994           0
     50600 TIP3     9385     TIP3     H1       HT       0.417000       1.00800           0
     50601 TIP3     9385     TIP3     H2       HT       0.417000       1.00800           0
     50602 TIP3     9386     TIP3     OH2      OT      -0.834000       15.9994           0
     50603 TIP3     9386     TIP3     H1       HT       0.417000       1.00800           0
     50604 TIP3     9386     TIP3     H2       HT       0.417000       1.00800           0
     50605 TIP3     9387     TIP3     OH2      OT      -0.834000       15.9994           0
     50606 TIP3     9387     TIP3     H1       HT       0.417000       1.00800           0
     50607 TIP3     9387     TIP3     H2       HT       0.417000       1.00800           0
     50608 TIP3     9388     TIP3     OH2      OT      -0.834000       15.9994           0
     50609 TIP3     9388     TIP3     H1       HT       0.417000       1.00800           0
     50610 TIP3     9388     TIP3     H2       HT       0.417000       1.00800           0
     50611 TIP3     9389     TIP3     OH2      OT      -0.834000       15.9994           0
     50612 TIP3     9389     TIP3     H1       HT       0.417000       1.00800           0
     50613 TIP3     9389     TIP3     H2       HT       0.417000       1.00800           0
     50614 TIP3     9390     TIP3     OH2      OT      -0.834000       15.9994           0
     50615 TIP3     9390     TIP3     H1       HT       0.417000       1.00800           0
     50616 TIP3     9390     TIP3     H2       HT       0.417000       1.00800           0
     50617 TIP3     9391     TIP3     OH2      OT      -0.834000       15.9994           0
     50618 TIP3     9391     TIP3     H1       HT       0.417000       1.00800           0
     50619 TIP3     9391     TIP3     H2       HT       0.417000       1.00800           0
     50620 TIP3     9392     TIP3     OH2      OT      -0.834000       15.9994           0
     50621 TIP3     9392     TIP3     H1       HT       0.417000       1.00800           0
     50622 TIP3     9392     TIP3     H2       HT       0.417000       1.00800           0
     50623 TIP3     9393     TIP3     OH2      OT      -0.834000       15.9994           0
     50624 TIP3     9393     TIP3     H1       HT       0.417000       1.00800           0
     50625 TIP3     9393     TIP3     H2       HT       0.417000       1.00800           0
     50626 TIP3     9394     TIP3     OH2      OT      -0.834000       15.9994           0
     50627 TIP3     9394     TIP3     H1       HT       0.417000       1.00800           0
     50628 TIP3     9394     TIP3     H2       HT       0.417000       1.00800           0
     50629 TIP3     9395     TIP3     OH2      OT      -0.834000       15.9994           0
     50630 TIP3     9395     TIP3     H1       HT       0.417000       1.00800           0
     50631 TIP3     9395     TIP3     H2       HT       0.417000       1.00800           0
     50632 TIP3     9396     TIP3     OH2      OT      -0.834000       15.9994           0
     50633 TIP3     9396     TIP3     H1       HT       0.417000       1.00800           0
     50634 TIP3     9396     TIP3     H2       HT       0.417000       1.00800           0
     50635 TIP3     9397     TIP3     OH2      OT      -0.834000       15.9994           0
     50636 TIP3     9397     TIP3     H1       HT       0.417000       1.00800           0
     50637 TIP3     9397     TIP3     H2       HT       0.417000       1.00800           0
     50638 TIP3     9398     TIP3     OH2      OT      -0.834000       15.9994           0
     50639 TIP3     9398     TIP3     H1       HT       0.417000       1.00800           0
     50640 TIP3     9398     TIP3     H2       HT       0.417000       1.00800           0
     50641 TIP3     9399     TIP3     OH2      OT      -0.834000       15.9994           0
     50642 TIP3     9399     TIP3     H1       HT       0.417000       1.00800           0
     50643 TIP3     9399     TIP3     H2       HT       0.417000       1.00800           0
     50644 TIP3     9400     TIP3     OH2      OT      -0.834000       15.9994           0
     50645 TIP3     9400     TIP3     H1       HT       0.417000       1.00800           0
     50646 TIP3     9400     TIP3     H2       HT       0.417000       1.00800           0
     50647 TIP3     9401     TIP3     OH2      OT      -0.834000       15.9994           0
     50648 TIP3     9401     TIP3     H1       HT       0.417000       1.00800           0
     50649 TIP3     9401     TIP3     H2       HT       0.417000       1.00800           0
     50650 TIP3     9402     TIP3     OH2      OT      -0.834000       15.9994           0
     50651 TIP3     9402     TIP3     H1       HT       0.417000       1.00800           0
     50652 TIP3     9402     TIP3     H2       HT       0.417000       1.00800           0
     50653 TIP3     9403     TIP3     OH2      OT      -0.834000       15.9994           0
     50654 TIP3     9403     TIP3     H1       HT       0.417000       1.00800           0
     50655 TIP3     9403     TIP3     H2       HT       0.417000       1.00800           0
     50656 TIP3     9404     TIP3     OH2      OT      -0.834000       15.9994           0
     50657 TIP3     9404     TIP3     H1       HT       0.417000       1.00800           0
     50658 TIP3     9404     TIP3     H2       HT       0.417000       1.00800           0
     50659 TIP3     9405     TIP3     OH2      OT      -0.834000       15.9994           0
     50660 TIP3     9405     TIP3     H1       HT       0.417000       1.00800           0
     50661 TIP3     9405     TIP3     H2       HT       0.417000       1.00800           0
     50662 TIP3     9406     TIP3     OH2      OT      -0.834000       15.9994           0
     50663 TIP3     9406     TIP3     H1       HT       0.417000       1.00800           0
     50664 TIP3     9406     TIP3     H2       HT       0.417000       1.00800           0
     50665 TIP3     9407     TIP3     OH2      OT      -0.834000       15.9994           0
     50666 TIP3     9407     TIP3     H1       HT       0.417000       1.00800           0
     50667 TIP3     9407     TIP3     H2       HT       0.417000       1.00800           0
     50668 TIP3     9408     TIP3     OH2      OT      -0.834000       15.9994           0
     50669 TIP3     9408     TIP3     H1       HT       0.417000       1.00800           0
     50670 TIP3     9408     TIP3     H2       HT       0.417000       1.00800           0
     50671 TIP3     9409     TIP3     OH2      OT      -0.834000       15.9994           0
     50672 TIP3     9409     TIP3     H1       HT       0.417000       1.00800           0
     50673 TIP3     9409     TIP3     H2       HT       0.417000       1.00800           0
     50674 TIP3     9410     TIP3     OH2      OT      -0.834000       15.9994           0
     50675 TIP3     9410     TIP3     H1       HT       0.417000       1.00800           0
     50676 TIP3     9410     TIP3     H2       HT       0.417000       1.00800           0
     50677 TIP3     9411     TIP3     OH2      OT      -0.834000       15.9994           0
     50678 TIP3     9411     TIP3     H1       HT       0.417000       1.00800           0
     50679 TIP3     9411     TIP3     H2       HT       0.417000       1.00800           0
     50680 TIP3     9412     TIP3     OH2      OT      -0.834000       15.9994           0
     50681 TIP3     9412     TIP3     H1       HT       0.417000       1.00800           0
     50682 TIP3     9412     TIP3     H2       HT       0.417000       1.00800           0
     50683 TIP3     9413     TIP3     OH2      OT      -0.834000       15.9994           0
     50684 TIP3     9413     TIP3     H1       HT       0.417000       1.00800           0
     50685 TIP3     9413     TIP3     H2       HT       0.417000       1.00800           0
     50686 TIP3     9414     TIP3     OH2      OT      -0.834000       15.9994           0
     50687 TIP3     9414     TIP3     H1       HT       0.417000       1.00800           0
     50688 TIP3     9414     TIP3     H2       HT       0.417000       1.00800           0
     50689 TIP3     9415     TIP3     OH2      OT      -0.834000       15.9994           0
     50690 TIP3     9415     TIP3     H1       HT       0.417000       1.00800           0
     50691 TIP3     9415     TIP3     H2       HT       0.417000       1.00800           0
     50692 TIP3     9416     TIP3     OH2      OT      -0.834000       15.9994           0
     50693 TIP3     9416     TIP3     H1       HT       0.417000       1.00800           0
     50694 TIP3     9416     TIP3     H2       HT       0.417000       1.00800           0
     50695 TIP3     9417     TIP3     OH2      OT      -0.834000       15.9994           0
     50696 TIP3     9417     TIP3     H1       HT       0.417000       1.00800           0
     50697 TIP3     9417     TIP3     H2       HT       0.417000       1.00800           0
     50698 TIP3     9418     TIP3     OH2      OT      -0.834000       15.9994           0
     50699 TIP3     9418     TIP3     H1       HT       0.417000       1.00800           0
     50700 TIP3     9418     TIP3     H2       HT       0.417000       1.00800           0
     50701 TIP3     9419     TIP3     OH2      OT      -0.834000       15.9994           0
     50702 TIP3     9419     TIP3     H1       HT       0.417000       1.00800           0
     50703 TIP3     9419     TIP3     H2       HT       0.417000       1.00800           0
     50704 TIP3     9420     TIP3     OH2      OT      -0.834000       15.9994           0
     50705 TIP3     9420     TIP3     H1       HT       0.417000       1.00800           0
     50706 TIP3     9420     TIP3     H2       HT       0.417000       1.00800           0
     50707 TIP3     9421     TIP3     OH2      OT      -0.834000       15.9994           0
     50708 TIP3     9421     TIP3     H1       HT       0.417000       1.00800           0
     50709 TIP3     9421     TIP3     H2       HT       0.417000       1.00800           0
     50710 TIP3     9422     TIP3     OH2      OT      -0.834000       15.9994           0
     50711 TIP3     9422     TIP3     H1       HT       0.417000       1.00800           0
     50712 TIP3     9422     TIP3     H2       HT       0.417000       1.00800           0
     50713 TIP3     9423     TIP3     OH2      OT      -0.834000       15.9994           0
     50714 TIP3     9423     TIP3     H1       HT       0.417000       1.00800           0
     50715 TIP3     9423     TIP3     H2       HT       0.417000       1.00800           0
     50716 TIP3     9424     TIP3     OH2      OT      -0.834000       15.9994           0
     50717 TIP3     9424     TIP3     H1       HT       0.417000       1.00800           0
     50718 TIP3     9424     TIP3     H2       HT       0.417000       1.00800           0
     50719 TIP3     9425     TIP3     OH2      OT      -0.834000       15.9994           0
     50720 TIP3     9425     TIP3     H1       HT       0.417000       1.00800           0
     50721 TIP3     9425     TIP3     H2       HT       0.417000       1.00800           0
     50722 TIP3     9426     TIP3     OH2      OT      -0.834000       15.9994           0
     50723 TIP3     9426     TIP3     H1       HT       0.417000       1.00800           0
     50724 TIP3     9426     TIP3     H2       HT       0.417000       1.00800           0
     50725 TIP3     9427     TIP3     OH2      OT      -0.834000       15.9994           0
     50726 TIP3     9427     TIP3     H1       HT       0.417000       1.00800           0
     50727 TIP3     9427     TIP3     H2       HT       0.417000       1.00800           0
     50728 TIP3     9428     TIP3     OH2      OT      -0.834000       15.9994           0
     50729 TIP3     9428     TIP3     H1       HT       0.417000       1.00800           0
     50730 TIP3     9428     TIP3     H2       HT       0.417000       1.00800           0
     50731 TIP3     9429     TIP3     OH2      OT      -0.834000       15.9994           0
     50732 TIP3     9429     TIP3     H1       HT       0.417000       1.00800           0
     50733 TIP3     9429     TIP3     H2       HT       0.417000       1.00800           0
     50734 TIP3     9430     TIP3     OH2      OT      -0.834000       15.9994           0
     50735 TIP3     9430     TIP3     H1       HT       0.417000       1.00800           0
     50736 TIP3     9430     TIP3     H2       HT       0.417000       1.00800           0
     50737 TIP3     9431     TIP3     OH2      OT      -0.834000       15.9994           0
     50738 TIP3     9431     TIP3     H1       HT       0.417000       1.00800           0
     50739 TIP3     9431     TIP3     H2       HT       0.417000       1.00800           0
     50740 TIP3     9432     TIP3     OH2      OT      -0.834000       15.9994           0
     50741 TIP3     9432     TIP3     H1       HT       0.417000       1.00800           0
     50742 TIP3     9432     TIP3     H2       HT       0.417000       1.00800           0
     50743 TIP3     9433     TIP3     OH2      OT      -0.834000       15.9994           0
     50744 TIP3     9433     TIP3     H1       HT       0.417000       1.00800           0
     50745 TIP3     9433     TIP3     H2       HT       0.417000       1.00800           0
     50746 TIP3     9434     TIP3     OH2      OT      -0.834000       15.9994           0
     50747 TIP3     9434     TIP3     H1       HT       0.417000       1.00800           0
     50748 TIP3     9434     TIP3     H2       HT       0.417000       1.00800           0
     50749 TIP3     9435     TIP3     OH2      OT      -0.834000       15.9994           0
     50750 TIP3     9435     TIP3     H1       HT       0.417000       1.00800           0
     50751 TIP3     9435     TIP3     H2       HT       0.417000       1.00800           0
     50752 TIP3     9436     TIP3     OH2      OT      -0.834000       15.9994           0
     50753 TIP3     9436     TIP3     H1       HT       0.417000       1.00800           0
     50754 TIP3     9436     TIP3     H2       HT       0.417000       1.00800           0
     50755 TIP3     9437     TIP3     OH2      OT      -0.834000       15.9994           0
     50756 TIP3     9437     TIP3     H1       HT       0.417000       1.00800           0
     50757 TIP3     9437     TIP3     H2       HT       0.417000       1.00800           0
     50758 TIP3     9438     TIP3     OH2      OT      -0.834000       15.9994           0
     50759 TIP3     9438     TIP3     H1       HT       0.417000       1.00800           0
     50760 TIP3     9438     TIP3     H2       HT       0.417000       1.00800           0
     50761 TIP3     9439     TIP3     OH2      OT      -0.834000       15.9994           0
     50762 TIP3     9439     TIP3     H1       HT       0.417000       1.00800           0
     50763 TIP3     9439     TIP3     H2       HT       0.417000       1.00800           0
     50764 TIP3     9440     TIP3     OH2      OT      -0.834000       15.9994           0
     50765 TIP3     9440     TIP3     H1       HT       0.417000       1.00800           0
     50766 TIP3     9440     TIP3     H2       HT       0.417000       1.00800           0
     50767 TIP3     9441     TIP3     OH2      OT      -0.834000       15.9994           0
     50768 TIP3     9441     TIP3     H1       HT       0.417000       1.00800           0
     50769 TIP3     9441     TIP3     H2       HT       0.417000       1.00800           0
     50770 TIP3     9442     TIP3     OH2      OT      -0.834000       15.9994           0
     50771 TIP3     9442     TIP3     H1       HT       0.417000       1.00800           0
     50772 TIP3     9442     TIP3     H2       HT       0.417000       1.00800           0
     50773 TIP3     9443     TIP3     OH2      OT      -0.834000       15.9994           0
     50774 TIP3     9443     TIP3     H1       HT       0.417000       1.00800           0
     50775 TIP3     9443     TIP3     H2       HT       0.417000       1.00800           0
     50776 TIP3     9444     TIP3     OH2      OT      -0.834000       15.9994           0
     50777 TIP3     9444     TIP3     H1       HT       0.417000       1.00800           0
     50778 TIP3     9444     TIP3     H2       HT       0.417000       1.00800           0
     50779 TIP3     9445     TIP3     OH2      OT      -0.834000       15.9994           0
     50780 TIP3     9445     TIP3     H1       HT       0.417000       1.00800           0
     50781 TIP3     9445     TIP3     H2       HT       0.417000       1.00800           0
     50782 TIP3     9446     TIP3     OH2      OT      -0.834000       15.9994           0
     50783 TIP3     9446     TIP3     H1       HT       0.417000       1.00800           0
     50784 TIP3     9446     TIP3     H2       HT       0.417000       1.00800           0
     50785 TIP3     9447     TIP3     OH2      OT      -0.834000       15.9994           0
     50786 TIP3     9447     TIP3     H1       HT       0.417000       1.00800           0
     50787 TIP3     9447     TIP3     H2       HT       0.417000       1.00800           0
     50788 TIP3     9448     TIP3     OH2      OT      -0.834000       15.9994           0
     50789 TIP3     9448     TIP3     H1       HT       0.417000       1.00800           0
     50790 TIP3     9448     TIP3     H2       HT       0.417000       1.00800           0
     50791 TIP3     9449     TIP3     OH2      OT      -0.834000       15.9994           0
     50792 TIP3     9449     TIP3     H1       HT       0.417000       1.00800           0
     50793 TIP3     9449     TIP3     H2       HT       0.417000       1.00800           0
     50794 TIP3     9450     TIP3     OH2      OT      -0.834000       15.9994           0
     50795 TIP3     9450     TIP3     H1       HT       0.417000       1.00800           0
     50796 TIP3     9450     TIP3     H2       HT       0.417000       1.00800           0
     50797 TIP3     9451     TIP3     OH2      OT      -0.834000       15.9994           0
     50798 TIP3     9451     TIP3     H1       HT       0.417000       1.00800           0
     50799 TIP3     9451     TIP3     H2       HT       0.417000       1.00800           0
     50800 TIP3     9452     TIP3     OH2      OT      -0.834000       15.9994           0
     50801 TIP3     9452     TIP3     H1       HT       0.417000       1.00800           0
     50802 TIP3     9452     TIP3     H2       HT       0.417000       1.00800           0
     50803 TIP3     9453     TIP3     OH2      OT      -0.834000       15.9994           0
     50804 TIP3     9453     TIP3     H1       HT       0.417000       1.00800           0
     50805 TIP3     9453     TIP3     H2       HT       0.417000       1.00800           0
     50806 TIP3     9454     TIP3     OH2      OT      -0.834000       15.9994           0
     50807 TIP3     9454     TIP3     H1       HT       0.417000       1.00800           0
     50808 TIP3     9454     TIP3     H2       HT       0.417000       1.00800           0
     50809 TIP3     9455     TIP3     OH2      OT      -0.834000       15.9994           0
     50810 TIP3     9455     TIP3     H1       HT       0.417000       1.00800           0
     50811 TIP3     9455     TIP3     H2       HT       0.417000       1.00800           0
     50812 TIP3     9456     TIP3     OH2      OT      -0.834000       15.9994           0
     50813 TIP3     9456     TIP3     H1       HT       0.417000       1.00800           0
     50814 TIP3     9456     TIP3     H2       HT       0.417000       1.00800           0
     50815 TIP3     9457     TIP3     OH2      OT      -0.834000       15.9994           0
     50816 TIP3     9457     TIP3     H1       HT       0.417000       1.00800           0
     50817 TIP3     9457     TIP3     H2       HT       0.417000       1.00800           0
     50818 TIP3     9458     TIP3     OH2      OT      -0.834000       15.9994           0
     50819 TIP3     9458     TIP3     H1       HT       0.417000       1.00800           0
     50820 TIP3     9458     TIP3     H2       HT       0.417000       1.00800           0
     50821 TIP3     9459     TIP3     OH2      OT      -0.834000       15.9994           0
     50822 TIP3     9459     TIP3     H1       HT       0.417000       1.00800           0
     50823 TIP3     9459     TIP3     H2       HT       0.417000       1.00800           0
     50824 TIP3     9460     TIP3     OH2      OT      -0.834000       15.9994           0
     50825 TIP3     9460     TIP3     H1       HT       0.417000       1.00800           0
     50826 TIP3     9460     TIP3     H2       HT       0.417000       1.00800           0
     50827 TIP3     9461     TIP3     OH2      OT      -0.834000       15.9994           0
     50828 TIP3     9461     TIP3     H1       HT       0.417000       1.00800           0
     50829 TIP3     9461     TIP3     H2       HT       0.417000       1.00800           0
     50830 TIP3     9462     TIP3     OH2      OT      -0.834000       15.9994           0
     50831 TIP3     9462     TIP3     H1       HT       0.417000       1.00800           0
     50832 TIP3     9462     TIP3     H2       HT       0.417000       1.00800           0
     50833 TIP3     9463     TIP3     OH2      OT      -0.834000       15.9994           0
     50834 TIP3     9463     TIP3     H1       HT       0.417000       1.00800           0
     50835 TIP3     9463     TIP3     H2       HT       0.417000       1.00800           0
     50836 TIP3     9464     TIP3     OH2      OT      -0.834000       15.9994           0
     50837 TIP3     9464     TIP3     H1       HT       0.417000       1.00800           0
     50838 TIP3     9464     TIP3     H2       HT       0.417000       1.00800           0
     50839 TIP3     9465     TIP3     OH2      OT      -0.834000       15.9994           0
     50840 TIP3     9465     TIP3     H1       HT       0.417000       1.00800           0
     50841 TIP3     9465     TIP3     H2       HT       0.417000       1.00800           0
     50842 TIP3     9466     TIP3     OH2      OT      -0.834000       15.9994           0
     50843 TIP3     9466     TIP3     H1       HT       0.417000       1.00800           0
     50844 TIP3     9466     TIP3     H2       HT       0.417000       1.00800           0
     50845 TIP3     9467     TIP3     OH2      OT      -0.834000       15.9994           0
     50846 TIP3     9467     TIP3     H1       HT       0.417000       1.00800           0
     50847 TIP3     9467     TIP3     H2       HT       0.417000       1.00800           0
     50848 TIP3     9468     TIP3     OH2      OT      -0.834000       15.9994           0
     50849 TIP3     9468     TIP3     H1       HT       0.417000       1.00800           0
     50850 TIP3     9468     TIP3     H2       HT       0.417000       1.00800           0
     50851 TIP3     9469     TIP3     OH2      OT      -0.834000       15.9994           0
     50852 TIP3     9469     TIP3     H1       HT       0.417000       1.00800           0
     50853 TIP3     9469     TIP3     H2       HT       0.417000       1.00800           0
     50854 TIP3     9470     TIP3     OH2      OT      -0.834000       15.9994           0
     50855 TIP3     9470     TIP3     H1       HT       0.417000       1.00800           0
     50856 TIP3     9470     TIP3     H2       HT       0.417000       1.00800           0
     50857 TIP3     9471     TIP3     OH2      OT      -0.834000       15.9994           0
     50858 TIP3     9471     TIP3     H1       HT       0.417000       1.00800           0
     50859 TIP3     9471     TIP3     H2       HT       0.417000       1.00800           0
     50860 TIP3     9472     TIP3     OH2      OT      -0.834000       15.9994           0
     50861 TIP3     9472     TIP3     H1       HT       0.417000       1.00800           0
     50862 TIP3     9472     TIP3     H2       HT       0.417000       1.00800           0
     50863 TIP3     9473     TIP3     OH2      OT      -0.834000       15.9994           0
     50864 TIP3     9473     TIP3     H1       HT       0.417000       1.00800           0
     50865 TIP3     9473     TIP3     H2       HT       0.417000       1.00800           0
     50866 TIP3     9474     TIP3     OH2      OT      -0.834000       15.9994           0
     50867 TIP3     9474     TIP3     H1       HT       0.417000       1.00800           0
     50868 TIP3     9474     TIP3     H2       HT       0.417000       1.00800           0
     50869 TIP3     9475     TIP3     OH2      OT      -0.834000       15.9994           0
     50870 TIP3     9475     TIP3     H1       HT       0.417000       1.00800           0
     50871 TIP3     9475     TIP3     H2       HT       0.417000       1.00800           0
     50872 TIP3     9476     TIP3     OH2      OT      -0.834000       15.9994           0
     50873 TIP3     9476     TIP3     H1       HT       0.417000       1.00800           0
     50874 TIP3     9476     TIP3     H2       HT       0.417000       1.00800           0
     50875 TIP3     9477     TIP3     OH2      OT      -0.834000       15.9994           0
     50876 TIP3     9477     TIP3     H1       HT       0.417000       1.00800           0
     50877 TIP3     9477     TIP3     H2       HT       0.417000       1.00800           0
     50878 TIP3     9478     TIP3     OH2      OT      -0.834000       15.9994           0
     50879 TIP3     9478     TIP3     H1       HT       0.417000       1.00800           0
     50880 TIP3     9478     TIP3     H2       HT       0.417000       1.00800           0
     50881 TIP3     9479     TIP3     OH2      OT      -0.834000       15.9994           0
     50882 TIP3     9479     TIP3     H1       HT       0.417000       1.00800           0
     50883 TIP3     9479     TIP3     H2       HT       0.417000       1.00800           0
     50884 TIP3     9480     TIP3     OH2      OT      -0.834000       15.9994           0
     50885 TIP3     9480     TIP3     H1       HT       0.417000       1.00800           0
     50886 TIP3     9480     TIP3     H2       HT       0.417000       1.00800           0
     50887 TIP3     9481     TIP3     OH2      OT      -0.834000       15.9994           0
     50888 TIP3     9481     TIP3     H1       HT       0.417000       1.00800           0
     50889 TIP3     9481     TIP3     H2       HT       0.417000       1.00800           0
     50890 TIP3     9482     TIP3     OH2      OT      -0.834000       15.9994           0
     50891 TIP3     9482     TIP3     H1       HT       0.417000       1.00800           0
     50892 TIP3     9482     TIP3     H2       HT       0.417000       1.00800           0
     50893 TIP3     9483     TIP3     OH2      OT      -0.834000       15.9994           0
     50894 TIP3     9483     TIP3     H1       HT       0.417000       1.00800           0
     50895 TIP3     9483     TIP3     H2       HT       0.417000       1.00800           0
     50896 TIP3     9484     TIP3     OH2      OT      -0.834000       15.9994           0
     50897 TIP3     9484     TIP3     H1       HT       0.417000       1.00800           0
     50898 TIP3     9484     TIP3     H2       HT       0.417000       1.00800           0
     50899 TIP3     9485     TIP3     OH2      OT      -0.834000       15.9994           0
     50900 TIP3     9485     TIP3     H1       HT       0.417000       1.00800           0
     50901 TIP3     9485     TIP3     H2       HT       0.417000       1.00800           0
     50902 TIP3     9486     TIP3     OH2      OT      -0.834000       15.9994           0
     50903 TIP3     9486     TIP3     H1       HT       0.417000       1.00800           0
     50904 TIP3     9486     TIP3     H2       HT       0.417000       1.00800           0
     50905 TIP3     9487     TIP3     OH2      OT      -0.834000       15.9994           0
     50906 TIP3     9487     TIP3     H1       HT       0.417000       1.00800           0
     50907 TIP3     9487     TIP3     H2       HT       0.417000       1.00800           0
     50908 TIP3     9488     TIP3     OH2      OT      -0.834000       15.9994           0
     50909 TIP3     9488     TIP3     H1       HT       0.417000       1.00800           0
     50910 TIP3     9488     TIP3     H2       HT       0.417000       1.00800           0
     50911 TIP3     9489     TIP3     OH2      OT      -0.834000       15.9994           0
     50912 TIP3     9489     TIP3     H1       HT       0.417000       1.00800           0
     50913 TIP3     9489     TIP3     H2       HT       0.417000       1.00800           0
     50914 TIP3     9490     TIP3     OH2      OT      -0.834000       15.9994           0
     50915 TIP3     9490     TIP3     H1       HT       0.417000       1.00800           0
     50916 TIP3     9490     TIP3     H2       HT       0.417000       1.00800           0
     50917 TIP3     9491     TIP3     OH2      OT      -0.834000       15.9994           0
     50918 TIP3     9491     TIP3     H1       HT       0.417000       1.00800           0
     50919 TIP3     9491     TIP3     H2       HT       0.417000       1.00800           0
     50920 TIP3     9492     TIP3     OH2      OT      -0.834000       15.9994           0
     50921 TIP3     9492     TIP3     H1       HT       0.417000       1.00800           0
     50922 TIP3     9492     TIP3     H2       HT       0.417000       1.00800           0
     50923 TIP3     9493     TIP3     OH2      OT      -0.834000       15.9994           0
     50924 TIP3     9493     TIP3     H1       HT       0.417000       1.00800           0
     50925 TIP3     9493     TIP3     H2       HT       0.417000       1.00800           0
     50926 TIP3     9494     TIP3     OH2      OT      -0.834000       15.9994           0
     50927 TIP3     9494     TIP3     H1       HT       0.417000       1.00800           0
     50928 TIP3     9494     TIP3     H2       HT       0.417000       1.00800           0
     50929 TIP3     9495     TIP3     OH2      OT      -0.834000       15.9994           0
     50930 TIP3     9495     TIP3     H1       HT       0.417000       1.00800           0
     50931 TIP3     9495     TIP3     H2       HT       0.417000       1.00800           0
     50932 TIP3     9496     TIP3     OH2      OT      -0.834000       15.9994           0
     50933 TIP3     9496     TIP3     H1       HT       0.417000       1.00800           0
     50934 TIP3     9496     TIP3     H2       HT       0.417000       1.00800           0
     50935 TIP3     9497     TIP3     OH2      OT      -0.834000       15.9994           0
     50936 TIP3     9497     TIP3     H1       HT       0.417000       1.00800           0
     50937 TIP3     9497     TIP3     H2       HT       0.417000       1.00800           0
     50938 TIP3     9498     TIP3     OH2      OT      -0.834000       15.9994           0
     50939 TIP3     9498     TIP3     H1       HT       0.417000       1.00800           0
     50940 TIP3     9498     TIP3     H2       HT       0.417000       1.00800           0
     50941 TIP3     9499     TIP3     OH2      OT      -0.834000       15.9994           0
     50942 TIP3     9499     TIP3     H1       HT       0.417000       1.00800           0
     50943 TIP3     9499     TIP3     H2       HT       0.417000       1.00800           0
     50944 TIP3     9500     TIP3     OH2      OT      -0.834000       15.9994           0
     50945 TIP3     9500     TIP3     H1       HT       0.417000       1.00800           0
     50946 TIP3     9500     TIP3     H2       HT       0.417000       1.00800           0
     50947 TIP3     9501     TIP3     OH2      OT      -0.834000       15.9994           0
     50948 TIP3     9501     TIP3     H1       HT       0.417000       1.00800           0
     50949 TIP3     9501     TIP3     H2       HT       0.417000       1.00800           0
     50950 TIP3     9502     TIP3     OH2      OT      -0.834000       15.9994           0
     50951 TIP3     9502     TIP3     H1       HT       0.417000       1.00800           0
     50952 TIP3     9502     TIP3     H2       HT       0.417000       1.00800           0
     50953 TIP3     9503     TIP3     OH2      OT      -0.834000       15.9994           0
     50954 TIP3     9503     TIP3     H1       HT       0.417000       1.00800           0
     50955 TIP3     9503     TIP3     H2       HT       0.417000       1.00800           0
     50956 TIP3     9504     TIP3     OH2      OT      -0.834000       15.9994           0
     50957 TIP3     9504     TIP3     H1       HT       0.417000       1.00800           0
     50958 TIP3     9504     TIP3     H2       HT       0.417000       1.00800           0
     50959 TIP3     9505     TIP3     OH2      OT      -0.834000       15.9994           0
     50960 TIP3     9505     TIP3     H1       HT       0.417000       1.00800           0
     50961 TIP3     9505     TIP3     H2       HT       0.417000       1.00800           0
     50962 TIP3     9506     TIP3     OH2      OT      -0.834000       15.9994           0
     50963 TIP3     9506     TIP3     H1       HT       0.417000       1.00800           0
     50964 TIP3     9506     TIP3     H2       HT       0.417000       1.00800           0
     50965 TIP3     9507     TIP3     OH2      OT      -0.834000       15.9994           0
     50966 TIP3     9507     TIP3     H1       HT       0.417000       1.00800           0
     50967 TIP3     9507     TIP3     H2       HT       0.417000       1.00800           0
     50968 TIP3     9508     TIP3     OH2      OT      -0.834000       15.9994           0
     50969 TIP3     9508     TIP3     H1       HT       0.417000       1.00800           0
     50970 TIP3     9508     TIP3     H2       HT       0.417000       1.00800           0
     50971 TIP3     9509     TIP3     OH2      OT      -0.834000       15.9994           0
     50972 TIP3     9509     TIP3     H1       HT       0.417000       1.00800           0
     50973 TIP3     9509     TIP3     H2       HT       0.417000       1.00800           0
     50974 TIP3     9510     TIP3     OH2      OT      -0.834000       15.9994           0
     50975 TIP3     9510     TIP3     H1       HT       0.417000       1.00800           0
     50976 TIP3     9510     TIP3     H2       HT       0.417000       1.00800           0
     50977 TIP3     9511     TIP3     OH2      OT      -0.834000       15.9994           0
     50978 TIP3     9511     TIP3     H1       HT       0.417000       1.00800           0
     50979 TIP3     9511     TIP3     H2       HT       0.417000       1.00800           0
     50980 TIP3     9512     TIP3     OH2      OT      -0.834000       15.9994           0
     50981 TIP3     9512     TIP3     H1       HT       0.417000       1.00800           0
     50982 TIP3     9512     TIP3     H2       HT       0.417000       1.00800           0
     50983 TIP3     9513     TIP3     OH2      OT      -0.834000       15.9994           0
     50984 TIP3     9513     TIP3     H1       HT       0.417000       1.00800           0
     50985 TIP3     9513     TIP3     H2       HT       0.417000       1.00800           0
     50986 TIP3     9514     TIP3     OH2      OT      -0.834000       15.9994           0
     50987 TIP3     9514     TIP3     H1       HT       0.417000       1.00800           0
     50988 TIP3     9514     TIP3     H2       HT       0.417000       1.00800           0
     50989 TIP3     9515     TIP3     OH2      OT      -0.834000       15.9994           0
     50990 TIP3     9515     TIP3     H1       HT       0.417000       1.00800           0
     50991 TIP3     9515     TIP3     H2       HT       0.417000       1.00800           0
     50992 TIP3     9516     TIP3     OH2      OT      -0.834000       15.9994           0
     50993 TIP3     9516     TIP3     H1       HT       0.417000       1.00800           0
     50994 TIP3     9516     TIP3     H2       HT       0.417000       1.00800           0
     50995 TIP3     9517     TIP3     OH2      OT      -0.834000       15.9994           0
     50996 TIP3     9517     TIP3     H1       HT       0.417000       1.00800           0
     50997 TIP3     9517     TIP3     H2       HT       0.417000       1.00800           0
     50998 TIP3     9518     TIP3     OH2      OT      -0.834000       15.9994           0
     50999 TIP3     9518     TIP3     H1       HT       0.417000       1.00800           0
     51000 TIP3     9518     TIP3     H2       HT       0.417000       1.00800           0
     51001 TIP3     9519     TIP3     OH2      OT      -0.834000       15.9994           0
     51002 TIP3     9519     TIP3     H1       HT       0.417000       1.00800           0
     51003 TIP3     9519     TIP3     H2       HT       0.417000       1.00800           0
     51004 TIP3     9520     TIP3     OH2      OT      -0.834000       15.9994           0
     51005 TIP3     9520     TIP3     H1       HT       0.417000       1.00800           0
     51006 TIP3     9520     TIP3     H2       HT       0.417000       1.00800           0
     51007 TIP3     9521     TIP3     OH2      OT      -0.834000       15.9994           0
     51008 TIP3     9521     TIP3     H1       HT       0.417000       1.00800           0
     51009 TIP3     9521     TIP3     H2       HT       0.417000       1.00800           0
     51010 TIP3     9522     TIP3     OH2      OT      -0.834000       15.9994           0
     51011 TIP3     9522     TIP3     H1       HT       0.417000       1.00800           0
     51012 TIP3     9522     TIP3     H2       HT       0.417000       1.00800           0
     51013 TIP3     9523     TIP3     OH2      OT      -0.834000       15.9994           0
     51014 TIP3     9523     TIP3     H1       HT       0.417000       1.00800           0
     51015 TIP3     9523     TIP3     H2       HT       0.417000       1.00800           0
     51016 TIP3     9524     TIP3     OH2      OT      -0.834000       15.9994           0
     51017 TIP3     9524     TIP3     H1       HT       0.417000       1.00800           0
     51018 TIP3     9524     TIP3     H2       HT       0.417000       1.00800           0
     51019 TIP3     9525     TIP3     OH2      OT      -0.834000       15.9994           0
     51020 TIP3     9525     TIP3     H1       HT       0.417000       1.00800           0
     51021 TIP3     9525     TIP3     H2       HT       0.417000       1.00800           0
     51022 TIP3     9526     TIP3     OH2      OT      -0.834000       15.9994           0
     51023 TIP3     9526     TIP3     H1       HT       0.417000       1.00800           0
     51024 TIP3     9526     TIP3     H2       HT       0.417000       1.00800           0
     51025 TIP3     9527     TIP3     OH2      OT      -0.834000       15.9994           0
     51026 TIP3     9527     TIP3     H1       HT       0.417000       1.00800           0
     51027 TIP3     9527     TIP3     H2       HT       0.417000       1.00800           0
     51028 TIP3     9528     TIP3     OH2      OT      -0.834000       15.9994           0
     51029 TIP3     9528     TIP3     H1       HT       0.417000       1.00800           0
     51030 TIP3     9528     TIP3     H2       HT       0.417000       1.00800           0
     51031 TIP3     9529     TIP3     OH2      OT      -0.834000       15.9994           0
     51032 TIP3     9529     TIP3     H1       HT       0.417000       1.00800           0
     51033 TIP3     9529     TIP3     H2       HT       0.417000       1.00800           0
     51034 TIP3     9530     TIP3     OH2      OT      -0.834000       15.9994           0
     51035 TIP3     9530     TIP3     H1       HT       0.417000       1.00800           0
     51036 TIP3     9530     TIP3     H2       HT       0.417000       1.00800           0
     51037 TIP3     9531     TIP3     OH2      OT      -0.834000       15.9994           0
     51038 TIP3     9531     TIP3     H1       HT       0.417000       1.00800           0
     51039 TIP3     9531     TIP3     H2       HT       0.417000       1.00800           0
     51040 TIP3     9532     TIP3     OH2      OT      -0.834000       15.9994           0
     51041 TIP3     9532     TIP3     H1       HT       0.417000       1.00800           0
     51042 TIP3     9532     TIP3     H2       HT       0.417000       1.00800           0
     51043 TIP3     9533     TIP3     OH2      OT      -0.834000       15.9994           0
     51044 TIP3     9533     TIP3     H1       HT       0.417000       1.00800           0
     51045 TIP3     9533     TIP3     H2       HT       0.417000       1.00800           0
     51046 TIP3     9534     TIP3     OH2      OT      -0.834000       15.9994           0
     51047 TIP3     9534     TIP3     H1       HT       0.417000       1.00800           0
     51048 TIP3     9534     TIP3     H2       HT       0.417000       1.00800           0
     51049 TIP3     9535     TIP3     OH2      OT      -0.834000       15.9994           0
     51050 TIP3     9535     TIP3     H1       HT       0.417000       1.00800           0
     51051 TIP3     9535     TIP3     H2       HT       0.417000       1.00800           0
     51052 TIP3     9536     TIP3     OH2      OT      -0.834000       15.9994           0
     51053 TIP3     9536     TIP3     H1       HT       0.417000       1.00800           0
     51054 TIP3     9536     TIP3     H2       HT       0.417000       1.00800           0
     51055 TIP3     9537     TIP3     OH2      OT      -0.834000       15.9994           0
     51056 TIP3     9537     TIP3     H1       HT       0.417000       1.00800           0
     51057 TIP3     9537     TIP3     H2       HT       0.417000       1.00800           0
     51058 TIP3     9538     TIP3     OH2      OT      -0.834000       15.9994           0
     51059 TIP3     9538     TIP3     H1       HT       0.417000       1.00800           0
     51060 TIP3     9538     TIP3     H2       HT       0.417000       1.00800           0
     51061 TIP3     9539     TIP3     OH2      OT      -0.834000       15.9994           0
     51062 TIP3     9539     TIP3     H1       HT       0.417000       1.00800           0
     51063 TIP3     9539     TIP3     H2       HT       0.417000       1.00800           0
     51064 TIP3     9540     TIP3     OH2      OT      -0.834000       15.9994           0
     51065 TIP3     9540     TIP3     H1       HT       0.417000       1.00800           0
     51066 TIP3     9540     TIP3     H2       HT       0.417000       1.00800           0
     51067 TIP3     9541     TIP3     OH2      OT      -0.834000       15.9994           0
     51068 TIP3     9541     TIP3     H1       HT       0.417000       1.00800           0
     51069 TIP3     9541     TIP3     H2       HT       0.417000       1.00800           0
     51070 TIP3     9542     TIP3     OH2      OT      -0.834000       15.9994           0
     51071 TIP3     9542     TIP3     H1       HT       0.417000       1.00800           0
     51072 TIP3     9542     TIP3     H2       HT       0.417000       1.00800           0
     51073 TIP3     9543     TIP3     OH2      OT      -0.834000       15.9994           0
     51074 TIP3     9543     TIP3     H1       HT       0.417000       1.00800           0
     51075 TIP3     9543     TIP3     H2       HT       0.417000       1.00800           0
     51076 TIP3     9544     TIP3     OH2      OT      -0.834000       15.9994           0
     51077 TIP3     9544     TIP3     H1       HT       0.417000       1.00800           0
     51078 TIP3     9544     TIP3     H2       HT       0.417000       1.00800           0
     51079 TIP3     9545     TIP3     OH2      OT      -0.834000       15.9994           0
     51080 TIP3     9545     TIP3     H1       HT       0.417000       1.00800           0
     51081 TIP3     9545     TIP3     H2       HT       0.417000       1.00800           0
     51082 TIP3     9546     TIP3     OH2      OT      -0.834000       15.9994           0
     51083 TIP3     9546     TIP3     H1       HT       0.417000       1.00800           0
     51084 TIP3     9546     TIP3     H2       HT       0.417000       1.00800           0
     51085 TIP3     9547     TIP3     OH2      OT      -0.834000       15.9994           0
     51086 TIP3     9547     TIP3     H1       HT       0.417000       1.00800           0
     51087 TIP3     9547     TIP3     H2       HT       0.417000       1.00800           0
     51088 TIP3     9548     TIP3     OH2      OT      -0.834000       15.9994           0
     51089 TIP3     9548     TIP3     H1       HT       0.417000       1.00800           0
     51090 TIP3     9548     TIP3     H2       HT       0.417000       1.00800           0
     51091 TIP3     9549     TIP3     OH2      OT      -0.834000       15.9994           0
     51092 TIP3     9549     TIP3     H1       HT       0.417000       1.00800           0
     51093 TIP3     9549     TIP3     H2       HT       0.417000       1.00800           0
     51094 TIP3     9550     TIP3     OH2      OT      -0.834000       15.9994           0
     51095 TIP3     9550     TIP3     H1       HT       0.417000       1.00800           0
     51096 TIP3     9550     TIP3     H2       HT       0.417000       1.00800           0
     51097 TIP3     9551     TIP3     OH2      OT      -0.834000       15.9994           0
     51098 TIP3     9551     TIP3     H1       HT       0.417000       1.00800           0
     51099 TIP3     9551     TIP3     H2       HT       0.417000       1.00800           0
     51100 TIP3     9552     TIP3     OH2      OT      -0.834000       15.9994           0
     51101 TIP3     9552     TIP3     H1       HT       0.417000       1.00800           0
     51102 TIP3     9552     TIP3     H2       HT       0.417000       1.00800           0
     51103 TIP3     9553     TIP3     OH2      OT      -0.834000       15.9994           0
     51104 TIP3     9553     TIP3     H1       HT       0.417000       1.00800           0
     51105 TIP3     9553     TIP3     H2       HT       0.417000       1.00800           0
     51106 TIP3     9554     TIP3     OH2      OT      -0.834000       15.9994           0
     51107 TIP3     9554     TIP3     H1       HT       0.417000       1.00800           0
     51108 TIP3     9554     TIP3     H2       HT       0.417000       1.00800           0
     51109 TIP3     9555     TIP3     OH2      OT      -0.834000       15.9994           0
     51110 TIP3     9555     TIP3     H1       HT       0.417000       1.00800           0
     51111 TIP3     9555     TIP3     H2       HT       0.417000       1.00800           0
     51112 TIP3     9556     TIP3     OH2      OT      -0.834000       15.9994           0
     51113 TIP3     9556     TIP3     H1       HT       0.417000       1.00800           0
     51114 TIP3     9556     TIP3     H2       HT       0.417000       1.00800           0
     51115 TIP3     9557     TIP3     OH2      OT      -0.834000       15.9994           0
     51116 TIP3     9557     TIP3     H1       HT       0.417000       1.00800           0
     51117 TIP3     9557     TIP3     H2       HT       0.417000       1.00800           0
     51118 TIP3     9558     TIP3     OH2      OT      -0.834000       15.9994           0
     51119 TIP3     9558     TIP3     H1       HT       0.417000       1.00800           0
     51120 TIP3     9558     TIP3     H2       HT       0.417000       1.00800           0
     51121 TIP3     9559     TIP3     OH2      OT      -0.834000       15.9994           0
     51122 TIP3     9559     TIP3     H1       HT       0.417000       1.00800           0
     51123 TIP3     9559     TIP3     H2       HT       0.417000       1.00800           0
     51124 TIP3     9560     TIP3     OH2      OT      -0.834000       15.9994           0
     51125 TIP3     9560     TIP3     H1       HT       0.417000       1.00800           0
     51126 TIP3     9560     TIP3     H2       HT       0.417000       1.00800           0
     51127 TIP3     9561     TIP3     OH2      OT      -0.834000       15.9994           0
     51128 TIP3     9561     TIP3     H1       HT       0.417000       1.00800           0
     51129 TIP3     9561     TIP3     H2       HT       0.417000       1.00800           0
     51130 TIP3     9562     TIP3     OH2      OT      -0.834000       15.9994           0
     51131 TIP3     9562     TIP3     H1       HT       0.417000       1.00800           0
     51132 TIP3     9562     TIP3     H2       HT       0.417000       1.00800           0
     51133 TIP3     9563     TIP3     OH2      OT      -0.834000       15.9994           0
     51134 TIP3     9563     TIP3     H1       HT       0.417000       1.00800           0
     51135 TIP3     9563     TIP3     H2       HT       0.417000       1.00800           0
     51136 TIP3     9564     TIP3     OH2      OT      -0.834000       15.9994           0
     51137 TIP3     9564     TIP3     H1       HT       0.417000       1.00800           0
     51138 TIP3     9564     TIP3     H2       HT       0.417000       1.00800           0
     51139 TIP3     9565     TIP3     OH2      OT      -0.834000       15.9994           0
     51140 TIP3     9565     TIP3     H1       HT       0.417000       1.00800           0
     51141 TIP3     9565     TIP3     H2       HT       0.417000       1.00800           0
     51142 TIP3     9566     TIP3     OH2      OT      -0.834000       15.9994           0
     51143 TIP3     9566     TIP3     H1       HT       0.417000       1.00800           0
     51144 TIP3     9566     TIP3     H2       HT       0.417000       1.00800           0
     51145 TIP3     9567     TIP3     OH2      OT      -0.834000       15.9994           0
     51146 TIP3     9567     TIP3     H1       HT       0.417000       1.00800           0
     51147 TIP3     9567     TIP3     H2       HT       0.417000       1.00800           0
     51148 TIP3     9568     TIP3     OH2      OT      -0.834000       15.9994           0
     51149 TIP3     9568     TIP3     H1       HT       0.417000       1.00800           0
     51150 TIP3     9568     TIP3     H2       HT       0.417000       1.00800           0
     51151 TIP3     9569     TIP3     OH2      OT      -0.834000       15.9994           0
     51152 TIP3     9569     TIP3     H1       HT       0.417000       1.00800           0
     51153 TIP3     9569     TIP3     H2       HT       0.417000       1.00800           0
     51154 TIP3     9570     TIP3     OH2      OT      -0.834000       15.9994           0
     51155 TIP3     9570     TIP3     H1       HT       0.417000       1.00800           0
     51156 TIP3     9570     TIP3     H2       HT       0.417000       1.00800           0
     51157 TIP3     9571     TIP3     OH2      OT      -0.834000       15.9994           0
     51158 TIP3     9571     TIP3     H1       HT       0.417000       1.00800           0
     51159 TIP3     9571     TIP3     H2       HT       0.417000       1.00800           0
     51160 TIP3     9572     TIP3     OH2      OT      -0.834000       15.9994           0
     51161 TIP3     9572     TIP3     H1       HT       0.417000       1.00800           0
     51162 TIP3     9572     TIP3     H2       HT       0.417000       1.00800           0
     51163 TIP3     9573     TIP3     OH2      OT      -0.834000       15.9994           0
     51164 TIP3     9573     TIP3     H1       HT       0.417000       1.00800           0
     51165 TIP3     9573     TIP3     H2       HT       0.417000       1.00800           0
     51166 TIP3     9574     TIP3     OH2      OT      -0.834000       15.9994           0
     51167 TIP3     9574     TIP3     H1       HT       0.417000       1.00800           0
     51168 TIP3     9574     TIP3     H2       HT       0.417000       1.00800           0
     51169 TIP3     9575     TIP3     OH2      OT      -0.834000       15.9994           0
     51170 TIP3     9575     TIP3     H1       HT       0.417000       1.00800           0
     51171 TIP3     9575     TIP3     H2       HT       0.417000       1.00800           0
     51172 TIP3     9576     TIP3     OH2      OT      -0.834000       15.9994           0
     51173 TIP3     9576     TIP3     H1       HT       0.417000       1.00800           0
     51174 TIP3     9576     TIP3     H2       HT       0.417000       1.00800           0
     51175 TIP3     9577     TIP3     OH2      OT      -0.834000       15.9994           0
     51176 TIP3     9577     TIP3     H1       HT       0.417000       1.00800           0
     51177 TIP3     9577     TIP3     H2       HT       0.417000       1.00800           0
     51178 TIP3     9578     TIP3     OH2      OT      -0.834000       15.9994           0
     51179 TIP3     9578     TIP3     H1       HT       0.417000       1.00800           0
     51180 TIP3     9578     TIP3     H2       HT       0.417000       1.00800           0
     51181 TIP3     9579     TIP3     OH2      OT      -0.834000       15.9994           0
     51182 TIP3     9579     TIP3     H1       HT       0.417000       1.00800           0
     51183 TIP3     9579     TIP3     H2       HT       0.417000       1.00800           0
     51184 TIP3     9580     TIP3     OH2      OT      -0.834000       15.9994           0
     51185 TIP3     9580     TIP3     H1       HT       0.417000       1.00800           0
     51186 TIP3     9580     TIP3     H2       HT       0.417000       1.00800           0
     51187 TIP3     9581     TIP3     OH2      OT      -0.834000       15.9994           0
     51188 TIP3     9581     TIP3     H1       HT       0.417000       1.00800           0
     51189 TIP3     9581     TIP3     H2       HT       0.417000       1.00800           0
     51190 TIP3     9582     TIP3     OH2      OT      -0.834000       15.9994           0
     51191 TIP3     9582     TIP3     H1       HT       0.417000       1.00800           0
     51192 TIP3     9582     TIP3     H2       HT       0.417000       1.00800           0
     51193 TIP3     9583     TIP3     OH2      OT      -0.834000       15.9994           0
     51194 TIP3     9583     TIP3     H1       HT       0.417000       1.00800           0
     51195 TIP3     9583     TIP3     H2       HT       0.417000       1.00800           0
     51196 TIP3     9584     TIP3     OH2      OT      -0.834000       15.9994           0
     51197 TIP3     9584     TIP3     H1       HT       0.417000       1.00800           0
     51198 TIP3     9584     TIP3     H2       HT       0.417000       1.00800           0
     51199 TIP3     9585     TIP3     OH2      OT      -0.834000       15.9994           0
     51200 TIP3     9585     TIP3     H1       HT       0.417000       1.00800           0
     51201 TIP3     9585     TIP3     H2       HT       0.417000       1.00800           0
     51202 TIP3     9586     TIP3     OH2      OT      -0.834000       15.9994           0
     51203 TIP3     9586     TIP3     H1       HT       0.417000       1.00800           0
     51204 TIP3     9586     TIP3     H2       HT       0.417000       1.00800           0
     51205 TIP3     9587     TIP3     OH2      OT      -0.834000       15.9994           0
     51206 TIP3     9587     TIP3     H1       HT       0.417000       1.00800           0
     51207 TIP3     9587     TIP3     H2       HT       0.417000       1.00800           0
     51208 TIP3     9588     TIP3     OH2      OT      -0.834000       15.9994           0
     51209 TIP3     9588     TIP3     H1       HT       0.417000       1.00800           0
     51210 TIP3     9588     TIP3     H2       HT       0.417000       1.00800           0
     51211 TIP3     9589     TIP3     OH2      OT      -0.834000       15.9994           0
     51212 TIP3     9589     TIP3     H1       HT       0.417000       1.00800           0
     51213 TIP3     9589     TIP3     H2       HT       0.417000       1.00800           0
     51214 TIP3     9590     TIP3     OH2      OT      -0.834000       15.9994           0
     51215 TIP3     9590     TIP3     H1       HT       0.417000       1.00800           0
     51216 TIP3     9590     TIP3     H2       HT       0.417000       1.00800           0
     51217 TIP3     9591     TIP3     OH2      OT      -0.834000       15.9994           0
     51218 TIP3     9591     TIP3     H1       HT       0.417000       1.00800           0
     51219 TIP3     9591     TIP3     H2       HT       0.417000       1.00800           0
     51220 TIP3     9592     TIP3     OH2      OT      -0.834000       15.9994           0
     51221 TIP3     9592     TIP3     H1       HT       0.417000       1.00800           0
     51222 TIP3     9592     TIP3     H2       HT       0.417000       1.00800           0
     51223 TIP3     9593     TIP3     OH2      OT      -0.834000       15.9994           0
     51224 TIP3     9593     TIP3     H1       HT       0.417000       1.00800           0
     51225 TIP3     9593     TIP3     H2       HT       0.417000       1.00800           0
     51226 TIP3     9594     TIP3     OH2      OT      -0.834000       15.9994           0
     51227 TIP3     9594     TIP3     H1       HT       0.417000       1.00800           0
     51228 TIP3     9594     TIP3     H2       HT       0.417000       1.00800           0
     51229 TIP3     9595     TIP3     OH2      OT      -0.834000       15.9994           0
     51230 TIP3     9595     TIP3     H1       HT       0.417000       1.00800           0
     51231 TIP3     9595     TIP3     H2       HT       0.417000       1.00800           0
     51232 TIP3     9596     TIP3     OH2      OT      -0.834000       15.9994           0
     51233 TIP3     9596     TIP3     H1       HT       0.417000       1.00800           0
     51234 TIP3     9596     TIP3     H2       HT       0.417000       1.00800           0
     51235 TIP3     9597     TIP3     OH2      OT      -0.834000       15.9994           0
     51236 TIP3     9597     TIP3     H1       HT       0.417000       1.00800           0
     51237 TIP3     9597     TIP3     H2       HT       0.417000       1.00800           0
     51238 TIP3     9598     TIP3     OH2      OT      -0.834000       15.9994           0
     51239 TIP3     9598     TIP3     H1       HT       0.417000       1.00800           0
     51240 TIP3     9598     TIP3     H2       HT       0.417000       1.00800           0
     51241 TIP3     9599     TIP3     OH2      OT      -0.834000       15.9994           0
     51242 TIP3     9599     TIP3     H1       HT       0.417000       1.00800           0
     51243 TIP3     9599     TIP3     H2       HT       0.417000       1.00800           0
     51244 TIP3     9600     TIP3     OH2      OT      -0.834000       15.9994           0
     51245 TIP3     9600     TIP3     H1       HT       0.417000       1.00800           0
     51246 TIP3     9600     TIP3     H2       HT       0.417000       1.00800           0
     51247 TIP3     9601     TIP3     OH2      OT      -0.834000       15.9994           0
     51248 TIP3     9601     TIP3     H1       HT       0.417000       1.00800           0
     51249 TIP3     9601     TIP3     H2       HT       0.417000       1.00800           0
     51250 TIP3     9602     TIP3     OH2      OT      -0.834000       15.9994           0
     51251 TIP3     9602     TIP3     H1       HT       0.417000       1.00800           0
     51252 TIP3     9602     TIP3     H2       HT       0.417000       1.00800           0
     51253 TIP3     9603     TIP3     OH2      OT      -0.834000       15.9994           0
     51254 TIP3     9603     TIP3     H1       HT       0.417000       1.00800           0
     51255 TIP3     9603     TIP3     H2       HT       0.417000       1.00800           0
     51256 TIP3     9604     TIP3     OH2      OT      -0.834000       15.9994           0
     51257 TIP3     9604     TIP3     H1       HT       0.417000       1.00800           0
     51258 TIP3     9604     TIP3     H2       HT       0.417000       1.00800           0
     51259 TIP3     9605     TIP3     OH2      OT      -0.834000       15.9994           0
     51260 TIP3     9605     TIP3     H1       HT       0.417000       1.00800           0
     51261 TIP3     9605     TIP3     H2       HT       0.417000       1.00800           0
     51262 TIP3     9606     TIP3     OH2      OT      -0.834000       15.9994           0
     51263 TIP3     9606     TIP3     H1       HT       0.417000       1.00800           0
     51264 TIP3     9606     TIP3     H2       HT       0.417000       1.00800           0
     51265 TIP3     9607     TIP3     OH2      OT      -0.834000       15.9994           0
     51266 TIP3     9607     TIP3     H1       HT       0.417000       1.00800           0
     51267 TIP3     9607     TIP3     H2       HT       0.417000       1.00800           0
     51268 TIP3     9608     TIP3     OH2      OT      -0.834000       15.9994           0
     51269 TIP3     9608     TIP3     H1       HT       0.417000       1.00800           0
     51270 TIP3     9608     TIP3     H2       HT       0.417000       1.00800           0
     51271 TIP3     9609     TIP3     OH2      OT      -0.834000       15.9994           0
     51272 TIP3     9609     TIP3     H1       HT       0.417000       1.00800           0
     51273 TIP3     9609     TIP3     H2       HT       0.417000       1.00800           0
     51274 TIP3     9610     TIP3     OH2      OT      -0.834000       15.9994           0
     51275 TIP3     9610     TIP3     H1       HT       0.417000       1.00800           0
     51276 TIP3     9610     TIP3     H2       HT       0.417000       1.00800           0
     51277 TIP3     9611     TIP3     OH2      OT      -0.834000       15.9994           0
     51278 TIP3     9611     TIP3     H1       HT       0.417000       1.00800           0
     51279 TIP3     9611     TIP3     H2       HT       0.417000       1.00800           0
     51280 TIP3     9612     TIP3     OH2      OT      -0.834000       15.9994           0
     51281 TIP3     9612     TIP3     H1       HT       0.417000       1.00800           0
     51282 TIP3     9612     TIP3     H2       HT       0.417000       1.00800           0
     51283 TIP3     9613     TIP3     OH2      OT      -0.834000       15.9994           0
     51284 TIP3     9613     TIP3     H1       HT       0.417000       1.00800           0
     51285 TIP3     9613     TIP3     H2       HT       0.417000       1.00800           0
     51286 TIP3     9614     TIP3     OH2      OT      -0.834000       15.9994           0
     51287 TIP3     9614     TIP3     H1       HT       0.417000       1.00800           0
     51288 TIP3     9614     TIP3     H2       HT       0.417000       1.00800           0
     51289 TIP3     9615     TIP3     OH2      OT      -0.834000       15.9994           0
     51290 TIP3     9615     TIP3     H1       HT       0.417000       1.00800           0
     51291 TIP3     9615     TIP3     H2       HT       0.417000       1.00800           0
     51292 TIP3     9616     TIP3     OH2      OT      -0.834000       15.9994           0
     51293 TIP3     9616     TIP3     H1       HT       0.417000       1.00800           0
     51294 TIP3     9616     TIP3     H2       HT       0.417000       1.00800           0
     51295 TIP3     9617     TIP3     OH2      OT      -0.834000       15.9994           0
     51296 TIP3     9617     TIP3     H1       HT       0.417000       1.00800           0
     51297 TIP3     9617     TIP3     H2       HT       0.417000       1.00800           0
     51298 TIP3     9618     TIP3     OH2      OT      -0.834000       15.9994           0
     51299 TIP3     9618     TIP3     H1       HT       0.417000       1.00800           0
     51300 TIP3     9618     TIP3     H2       HT       0.417000       1.00800           0
     51301 TIP3     9619     TIP3     OH2      OT      -0.834000       15.9994           0
     51302 TIP3     9619     TIP3     H1       HT       0.417000       1.00800           0
     51303 TIP3     9619     TIP3     H2       HT       0.417000       1.00800           0
     51304 TIP3     9620     TIP3     OH2      OT      -0.834000       15.9994           0
     51305 TIP3     9620     TIP3     H1       HT       0.417000       1.00800           0
     51306 TIP3     9620     TIP3     H2       HT       0.417000       1.00800           0
     51307 TIP3     9621     TIP3     OH2      OT      -0.834000       15.9994           0
     51308 TIP3     9621     TIP3     H1       HT       0.417000       1.00800           0
     51309 TIP3     9621     TIP3     H2       HT       0.417000       1.00800           0
     51310 TIP3     9622     TIP3     OH2      OT      -0.834000       15.9994           0
     51311 TIP3     9622     TIP3     H1       HT       0.417000       1.00800           0
     51312 TIP3     9622     TIP3     H2       HT       0.417000       1.00800           0
     51313 TIP3     9623     TIP3     OH2      OT      -0.834000       15.9994           0
     51314 TIP3     9623     TIP3     H1       HT       0.417000       1.00800           0
     51315 TIP3     9623     TIP3     H2       HT       0.417000       1.00800           0
     51316 TIP3     9624     TIP3     OH2      OT      -0.834000       15.9994           0
     51317 TIP3     9624     TIP3     H1       HT       0.417000       1.00800           0
     51318 TIP3     9624     TIP3     H2       HT       0.417000       1.00800           0
     51319 TIP3     9625     TIP3     OH2      OT      -0.834000       15.9994           0
     51320 TIP3     9625     TIP3     H1       HT       0.417000       1.00800           0
     51321 TIP3     9625     TIP3     H2       HT       0.417000       1.00800           0
     51322 TIP3     9626     TIP3     OH2      OT      -0.834000       15.9994           0
     51323 TIP3     9626     TIP3     H1       HT       0.417000       1.00800           0
     51324 TIP3     9626     TIP3     H2       HT       0.417000       1.00800           0
     51325 TIP3     9627     TIP3     OH2      OT      -0.834000       15.9994           0
     51326 TIP3     9627     TIP3     H1       HT       0.417000       1.00800           0
     51327 TIP3     9627     TIP3     H2       HT       0.417000       1.00800           0
     51328 TIP3     9628     TIP3     OH2      OT      -0.834000       15.9994           0
     51329 TIP3     9628     TIP3     H1       HT       0.417000       1.00800           0
     51330 TIP3     9628     TIP3     H2       HT       0.417000       1.00800           0
     51331 TIP3     9629     TIP3     OH2      OT      -0.834000       15.9994           0
     51332 TIP3     9629     TIP3     H1       HT       0.417000       1.00800           0
     51333 TIP3     9629     TIP3     H2       HT       0.417000       1.00800           0
     51334 TIP3     9630     TIP3     OH2      OT      -0.834000       15.9994           0
     51335 TIP3     9630     TIP3     H1       HT       0.417000       1.00800           0
     51336 TIP3     9630     TIP3     H2       HT       0.417000       1.00800           0
     51337 TIP3     9631     TIP3     OH2      OT      -0.834000       15.9994           0
     51338 TIP3     9631     TIP3     H1       HT       0.417000       1.00800           0
     51339 TIP3     9631     TIP3     H2       HT       0.417000       1.00800           0
     51340 TIP3     9632     TIP3     OH2      OT      -0.834000       15.9994           0
     51341 TIP3     9632     TIP3     H1       HT       0.417000       1.00800           0
     51342 TIP3     9632     TIP3     H2       HT       0.417000       1.00800           0
     51343 TIP3     9633     TIP3     OH2      OT      -0.834000       15.9994           0
     51344 TIP3     9633     TIP3     H1       HT       0.417000       1.00800           0
     51345 TIP3     9633     TIP3     H2       HT       0.417000       1.00800           0
     51346 TIP3     9634     TIP3     OH2      OT      -0.834000       15.9994           0
     51347 TIP3     9634     TIP3     H1       HT       0.417000       1.00800           0
     51348 TIP3     9634     TIP3     H2       HT       0.417000       1.00800           0
     51349 TIP3     9635     TIP3     OH2      OT      -0.834000       15.9994           0
     51350 TIP3     9635     TIP3     H1       HT       0.417000       1.00800           0
     51351 TIP3     9635     TIP3     H2       HT       0.417000       1.00800           0
     51352 TIP3     9636     TIP3     OH2      OT      -0.834000       15.9994           0
     51353 TIP3     9636     TIP3     H1       HT       0.417000       1.00800           0
     51354 TIP3     9636     TIP3     H2       HT       0.417000       1.00800           0
     51355 TIP3     9637     TIP3     OH2      OT      -0.834000       15.9994           0
     51356 TIP3     9637     TIP3     H1       HT       0.417000       1.00800           0
     51357 TIP3     9637     TIP3     H2       HT       0.417000       1.00800           0
     51358 TIP3     9638     TIP3     OH2      OT      -0.834000       15.9994           0
     51359 TIP3     9638     TIP3     H1       HT       0.417000       1.00800           0
     51360 TIP3     9638     TIP3     H2       HT       0.417000       1.00800           0
     51361 TIP3     9639     TIP3     OH2      OT      -0.834000       15.9994           0
     51362 TIP3     9639     TIP3     H1       HT       0.417000       1.00800           0
     51363 TIP3     9639     TIP3     H2       HT       0.417000       1.00800           0
     51364 TIP3     9640     TIP3     OH2      OT      -0.834000       15.9994           0
     51365 TIP3     9640     TIP3     H1       HT       0.417000       1.00800           0
     51366 TIP3     9640     TIP3     H2       HT       0.417000       1.00800           0
     51367 TIP3     9641     TIP3     OH2      OT      -0.834000       15.9994           0
     51368 TIP3     9641     TIP3     H1       HT       0.417000       1.00800           0
     51369 TIP3     9641     TIP3     H2       HT       0.417000       1.00800           0
     51370 TIP3     9642     TIP3     OH2      OT      -0.834000       15.9994           0
     51371 TIP3     9642     TIP3     H1       HT       0.417000       1.00800           0
     51372 TIP3     9642     TIP3     H2       HT       0.417000       1.00800           0
     51373 TIP3     9643     TIP3     OH2      OT      -0.834000       15.9994           0
     51374 TIP3     9643     TIP3     H1       HT       0.417000       1.00800           0
     51375 TIP3     9643     TIP3     H2       HT       0.417000       1.00800           0
     51376 TIP3     9644     TIP3     OH2      OT      -0.834000       15.9994           0
     51377 TIP3     9644     TIP3     H1       HT       0.417000       1.00800           0
     51378 TIP3     9644     TIP3     H2       HT       0.417000       1.00800           0
     51379 TIP3     9645     TIP3     OH2      OT      -0.834000       15.9994           0
     51380 TIP3     9645     TIP3     H1       HT       0.417000       1.00800           0
     51381 TIP3     9645     TIP3     H2       HT       0.417000       1.00800           0
     51382 TIP3     9646     TIP3     OH2      OT      -0.834000       15.9994           0
     51383 TIP3     9646     TIP3     H1       HT       0.417000       1.00800           0
     51384 TIP3     9646     TIP3     H2       HT       0.417000       1.00800           0
     51385 TIP3     9647     TIP3     OH2      OT      -0.834000       15.9994           0
     51386 TIP3     9647     TIP3     H1       HT       0.417000       1.00800           0
     51387 TIP3     9647     TIP3     H2       HT       0.417000       1.00800           0
     51388 TIP3     9648     TIP3     OH2      OT      -0.834000       15.9994           0
     51389 TIP3     9648     TIP3     H1       HT       0.417000       1.00800           0
     51390 TIP3     9648     TIP3     H2       HT       0.417000       1.00800           0
     51391 TIP3     9649     TIP3     OH2      OT      -0.834000       15.9994           0
     51392 TIP3     9649     TIP3     H1       HT       0.417000       1.00800           0
     51393 TIP3     9649     TIP3     H2       HT       0.417000       1.00800           0
     51394 TIP3     9650     TIP3     OH2      OT      -0.834000       15.9994           0
     51395 TIP3     9650     TIP3     H1       HT       0.417000       1.00800           0
     51396 TIP3     9650     TIP3     H2       HT       0.417000       1.00800           0
     51397 TIP3     9651     TIP3     OH2      OT      -0.834000       15.9994           0
     51398 TIP3     9651     TIP3     H1       HT       0.417000       1.00800           0
     51399 TIP3     9651     TIP3     H2       HT       0.417000       1.00800           0
     51400 TIP3     9652     TIP3     OH2      OT      -0.834000       15.9994           0
     51401 TIP3     9652     TIP3     H1       HT       0.417000       1.00800           0
     51402 TIP3     9652     TIP3     H2       HT       0.417000       1.00800           0
     51403 TIP3     9653     TIP3     OH2      OT      -0.834000       15.9994           0
     51404 TIP3     9653     TIP3     H1       HT       0.417000       1.00800           0
     51405 TIP3     9653     TIP3     H2       HT       0.417000       1.00800           0
     51406 TIP3     9654     TIP3     OH2      OT      -0.834000       15.9994           0
     51407 TIP3     9654     TIP3     H1       HT       0.417000       1.00800           0
     51408 TIP3     9654     TIP3     H2       HT       0.417000       1.00800           0
     51409 TIP3     9655     TIP3     OH2      OT      -0.834000       15.9994           0
     51410 TIP3     9655     TIP3     H1       HT       0.417000       1.00800           0
     51411 TIP3     9655     TIP3     H2       HT       0.417000       1.00800           0
     51412 TIP3     9656     TIP3     OH2      OT      -0.834000       15.9994           0
     51413 TIP3     9656     TIP3     H1       HT       0.417000       1.00800           0
     51414 TIP3     9656     TIP3     H2       HT       0.417000       1.00800           0
     51415 TIP3     9657     TIP3     OH2      OT      -0.834000       15.9994           0
     51416 TIP3     9657     TIP3     H1       HT       0.417000       1.00800           0
     51417 TIP3     9657     TIP3     H2       HT       0.417000       1.00800           0
     51418 TIP3     9658     TIP3     OH2      OT      -0.834000       15.9994           0
     51419 TIP3     9658     TIP3     H1       HT       0.417000       1.00800           0
     51420 TIP3     9658     TIP3     H2       HT       0.417000       1.00800           0
     51421 TIP3     9659     TIP3     OH2      OT      -0.834000       15.9994           0
     51422 TIP3     9659     TIP3     H1       HT       0.417000       1.00800           0
     51423 TIP3     9659     TIP3     H2       HT       0.417000       1.00800           0
     51424 TIP3     9660     TIP3     OH2      OT      -0.834000       15.9994           0
     51425 TIP3     9660     TIP3     H1       HT       0.417000       1.00800           0
     51426 TIP3     9660     TIP3     H2       HT       0.417000       1.00800           0
     51427 TIP3     9661     TIP3     OH2      OT      -0.834000       15.9994           0
     51428 TIP3     9661     TIP3     H1       HT       0.417000       1.00800           0
     51429 TIP3     9661     TIP3     H2       HT       0.417000       1.00800           0
     51430 TIP3     9662     TIP3     OH2      OT      -0.834000       15.9994           0
     51431 TIP3     9662     TIP3     H1       HT       0.417000       1.00800           0
     51432 TIP3     9662     TIP3     H2       HT       0.417000       1.00800           0
     51433 TIP3     9663     TIP3     OH2      OT      -0.834000       15.9994           0
     51434 TIP3     9663     TIP3     H1       HT       0.417000       1.00800           0
     51435 TIP3     9663     TIP3     H2       HT       0.417000       1.00800           0
     51436 TIP3     9664     TIP3     OH2      OT      -0.834000       15.9994           0
     51437 TIP3     9664     TIP3     H1       HT       0.417000       1.00800           0
     51438 TIP3     9664     TIP3     H2       HT       0.417000       1.00800           0
     51439 TIP3     9665     TIP3     OH2      OT      -0.834000       15.9994           0
     51440 TIP3     9665     TIP3     H1       HT       0.417000       1.00800           0
     51441 TIP3     9665     TIP3     H2       HT       0.417000       1.00800           0
     51442 TIP3     9666     TIP3     OH2      OT      -0.834000       15.9994           0
     51443 TIP3     9666     TIP3     H1       HT       0.417000       1.00800           0
     51444 TIP3     9666     TIP3     H2       HT       0.417000       1.00800           0
     51445 TIP3     9667     TIP3     OH2      OT      -0.834000       15.9994           0
     51446 TIP3     9667     TIP3     H1       HT       0.417000       1.00800           0
     51447 TIP3     9667     TIP3     H2       HT       0.417000       1.00800           0
     51448 TIP3     9668     TIP3     OH2      OT      -0.834000       15.9994           0
     51449 TIP3     9668     TIP3     H1       HT       0.417000       1.00800           0
     51450 TIP3     9668     TIP3     H2       HT       0.417000       1.00800           0
     51451 TIP3     9669     TIP3     OH2      OT      -0.834000       15.9994           0
     51452 TIP3     9669     TIP3     H1       HT       0.417000       1.00800           0
     51453 TIP3     9669     TIP3     H2       HT       0.417000       1.00800           0
     51454 TIP3     9670     TIP3     OH2      OT      -0.834000       15.9994           0
     51455 TIP3     9670     TIP3     H1       HT       0.417000       1.00800           0
     51456 TIP3     9670     TIP3     H2       HT       0.417000       1.00800           0
     51457 TIP3     9671     TIP3     OH2      OT      -0.834000       15.9994           0
     51458 TIP3     9671     TIP3     H1       HT       0.417000       1.00800           0
     51459 TIP3     9671     TIP3     H2       HT       0.417000       1.00800           0
     51460 TIP3     9672     TIP3     OH2      OT      -0.834000       15.9994           0
     51461 TIP3     9672     TIP3     H1       HT       0.417000       1.00800           0
     51462 TIP3     9672     TIP3     H2       HT       0.417000       1.00800           0
     51463 TIP3     9673     TIP3     OH2      OT      -0.834000       15.9994           0
     51464 TIP3     9673     TIP3     H1       HT       0.417000       1.00800           0
     51465 TIP3     9673     TIP3     H2       HT       0.417000       1.00800           0
     51466 TIP3     9674     TIP3     OH2      OT      -0.834000       15.9994           0
     51467 TIP3     9674     TIP3     H1       HT       0.417000       1.00800           0
     51468 TIP3     9674     TIP3     H2       HT       0.417000       1.00800           0
     51469 TIP3     9675     TIP3     OH2      OT      -0.834000       15.9994           0
     51470 TIP3     9675     TIP3     H1       HT       0.417000       1.00800           0
     51471 TIP3     9675     TIP3     H2       HT       0.417000       1.00800           0
     51472 TIP3     9676     TIP3     OH2      OT      -0.834000       15.9994           0
     51473 TIP3     9676     TIP3     H1       HT       0.417000       1.00800           0
     51474 TIP3     9676     TIP3     H2       HT       0.417000       1.00800           0
     51475 TIP3     9677     TIP3     OH2      OT      -0.834000       15.9994           0
     51476 TIP3     9677     TIP3     H1       HT       0.417000       1.00800           0
     51477 TIP3     9677     TIP3     H2       HT       0.417000       1.00800           0
     51478 TIP3     9678     TIP3     OH2      OT      -0.834000       15.9994           0
     51479 TIP3     9678     TIP3     H1       HT       0.417000       1.00800           0
     51480 TIP3     9678     TIP3     H2       HT       0.417000       1.00800           0
     51481 TIP3     9679     TIP3     OH2      OT      -0.834000       15.9994           0
     51482 TIP3     9679     TIP3     H1       HT       0.417000       1.00800           0
     51483 TIP3     9679     TIP3     H2       HT       0.417000       1.00800           0
     51484 TIP3     9680     TIP3     OH2      OT      -0.834000       15.9994           0
     51485 TIP3     9680     TIP3     H1       HT       0.417000       1.00800           0
     51486 TIP3     9680     TIP3     H2       HT       0.417000       1.00800           0
     51487 TIP3     9681     TIP3     OH2      OT      -0.834000       15.9994           0
     51488 TIP3     9681     TIP3     H1       HT       0.417000       1.00800           0
     51489 TIP3     9681     TIP3     H2       HT       0.417000       1.00800           0
     51490 TIP3     9682     TIP3     OH2      OT      -0.834000       15.9994           0
     51491 TIP3     9682     TIP3     H1       HT       0.417000       1.00800           0
     51492 TIP3     9682     TIP3     H2       HT       0.417000       1.00800           0
     51493 TIP3     9683     TIP3     OH2      OT      -0.834000       15.9994           0
     51494 TIP3     9683     TIP3     H1       HT       0.417000       1.00800           0
     51495 TIP3     9683     TIP3     H2       HT       0.417000       1.00800           0
     51496 TIP3     9684     TIP3     OH2      OT      -0.834000       15.9994           0
     51497 TIP3     9684     TIP3     H1       HT       0.417000       1.00800           0
     51498 TIP3     9684     TIP3     H2       HT       0.417000       1.00800           0
     51499 TIP3     9685     TIP3     OH2      OT      -0.834000       15.9994           0
     51500 TIP3     9685     TIP3     H1       HT       0.417000       1.00800           0
     51501 TIP3     9685     TIP3     H2       HT       0.417000       1.00800           0
     51502 TIP3     9686     TIP3     OH2      OT      -0.834000       15.9994           0
     51503 TIP3     9686     TIP3     H1       HT       0.417000       1.00800           0
     51504 TIP3     9686     TIP3     H2       HT       0.417000       1.00800           0
     51505 TIP3     9687     TIP3     OH2      OT      -0.834000       15.9994           0
     51506 TIP3     9687     TIP3     H1       HT       0.417000       1.00800           0
     51507 TIP3     9687     TIP3     H2       HT       0.417000       1.00800           0
     51508 TIP3     9688     TIP3     OH2      OT      -0.834000       15.9994           0
     51509 TIP3     9688     TIP3     H1       HT       0.417000       1.00800           0
     51510 TIP3     9688     TIP3     H2       HT       0.417000       1.00800           0
     51511 TIP3     9689     TIP3     OH2      OT      -0.834000       15.9994           0
     51512 TIP3     9689     TIP3     H1       HT       0.417000       1.00800           0
     51513 TIP3     9689     TIP3     H2       HT       0.417000       1.00800           0
     51514 TIP3     9690     TIP3     OH2      OT      -0.834000       15.9994           0
     51515 TIP3     9690     TIP3     H1       HT       0.417000       1.00800           0
     51516 TIP3     9690     TIP3     H2       HT       0.417000       1.00800           0
     51517 TIP3     9691     TIP3     OH2      OT      -0.834000       15.9994           0
     51518 TIP3     9691     TIP3     H1       HT       0.417000       1.00800           0
     51519 TIP3     9691     TIP3     H2       HT       0.417000       1.00800           0
     51520 TIP3     9692     TIP3     OH2      OT      -0.834000       15.9994           0
     51521 TIP3     9692     TIP3     H1       HT       0.417000       1.00800           0
     51522 TIP3     9692     TIP3     H2       HT       0.417000       1.00800           0
     51523 TIP3     9693     TIP3     OH2      OT      -0.834000       15.9994           0
     51524 TIP3     9693     TIP3     H1       HT       0.417000       1.00800           0
     51525 TIP3     9693     TIP3     H2       HT       0.417000       1.00800           0
     51526 TIP3     9694     TIP3     OH2      OT      -0.834000       15.9994           0
     51527 TIP3     9694     TIP3     H1       HT       0.417000       1.00800           0
     51528 TIP3     9694     TIP3     H2       HT       0.417000       1.00800           0
     51529 TIP3     9695     TIP3     OH2      OT      -0.834000       15.9994           0
     51530 TIP3     9695     TIP3     H1       HT       0.417000       1.00800           0
     51531 TIP3     9695     TIP3     H2       HT       0.417000       1.00800           0
     51532 TIP3     9696     TIP3     OH2      OT      -0.834000       15.9994           0
     51533 TIP3     9696     TIP3     H1       HT       0.417000       1.00800           0
     51534 TIP3     9696     TIP3     H2       HT       0.417000       1.00800           0
     51535 TIP3     9697     TIP3     OH2      OT      -0.834000       15.9994           0
     51536 TIP3     9697     TIP3     H1       HT       0.417000       1.00800           0
     51537 TIP3     9697     TIP3     H2       HT       0.417000       1.00800           0
     51538 TIP3     9698     TIP3     OH2      OT      -0.834000       15.9994           0
     51539 TIP3     9698     TIP3     H1       HT       0.417000       1.00800           0
     51540 TIP3     9698     TIP3     H2       HT       0.417000       1.00800           0
     51541 TIP3     9699     TIP3     OH2      OT      -0.834000       15.9994           0
     51542 TIP3     9699     TIP3     H1       HT       0.417000       1.00800           0
     51543 TIP3     9699     TIP3     H2       HT       0.417000       1.00800           0
     51544 TIP3     9700     TIP3     OH2      OT      -0.834000       15.9994           0
     51545 TIP3     9700     TIP3     H1       HT       0.417000       1.00800           0
     51546 TIP3     9700     TIP3     H2       HT       0.417000       1.00800           0
     51547 TIP3     9701     TIP3     OH2      OT      -0.834000       15.9994           0
     51548 TIP3     9701     TIP3     H1       HT       0.417000       1.00800           0
     51549 TIP3     9701     TIP3     H2       HT       0.417000       1.00800           0
     51550 TIP3     9702     TIP3     OH2      OT      -0.834000       15.9994           0
     51551 TIP3     9702     TIP3     H1       HT       0.417000       1.00800           0
     51552 TIP3     9702     TIP3     H2       HT       0.417000       1.00800           0
     51553 TIP3     9703     TIP3     OH2      OT      -0.834000       15.9994           0
     51554 TIP3     9703     TIP3     H1       HT       0.417000       1.00800           0
     51555 TIP3     9703     TIP3     H2       HT       0.417000       1.00800           0
     51556 TIP3     9704     TIP3     OH2      OT      -0.834000       15.9994           0
     51557 TIP3     9704     TIP3     H1       HT       0.417000       1.00800           0
     51558 TIP3     9704     TIP3     H2       HT       0.417000       1.00800           0
     51559 TIP3     9705     TIP3     OH2      OT      -0.834000       15.9994           0
     51560 TIP3     9705     TIP3     H1       HT       0.417000       1.00800           0
     51561 TIP3     9705     TIP3     H2       HT       0.417000       1.00800           0
     51562 TIP3     9706     TIP3     OH2      OT      -0.834000       15.9994           0
     51563 TIP3     9706     TIP3     H1       HT       0.417000       1.00800           0
     51564 TIP3     9706     TIP3     H2       HT       0.417000       1.00800           0
     51565 TIP3     9707     TIP3     OH2      OT      -0.834000       15.9994           0
     51566 TIP3     9707     TIP3     H1       HT       0.417000       1.00800           0
     51567 TIP3     9707     TIP3     H2       HT       0.417000       1.00800           0
     51568 TIP3     9708     TIP3     OH2      OT      -0.834000       15.9994           0
     51569 TIP3     9708     TIP3     H1       HT       0.417000       1.00800           0
     51570 TIP3     9708     TIP3     H2       HT       0.417000       1.00800           0
     51571 TIP3     9709     TIP3     OH2      OT      -0.834000       15.9994           0
     51572 TIP3     9709     TIP3     H1       HT       0.417000       1.00800           0
     51573 TIP3     9709     TIP3     H2       HT       0.417000       1.00800           0
     51574 TIP3     9710     TIP3     OH2      OT      -0.834000       15.9994           0
     51575 TIP3     9710     TIP3     H1       HT       0.417000       1.00800           0
     51576 TIP3     9710     TIP3     H2       HT       0.417000       1.00800           0
     51577 TIP3     9711     TIP3     OH2      OT      -0.834000       15.9994           0
     51578 TIP3     9711     TIP3     H1       HT       0.417000       1.00800           0
     51579 TIP3     9711     TIP3     H2       HT       0.417000       1.00800           0
     51580 TIP3     9712     TIP3     OH2      OT      -0.834000       15.9994           0
     51581 TIP3     9712     TIP3     H1       HT       0.417000       1.00800           0
     51582 TIP3     9712     TIP3     H2       HT       0.417000       1.00800           0
     51583 TIP3     9713     TIP3     OH2      OT      -0.834000       15.9994           0
     51584 TIP3     9713     TIP3     H1       HT       0.417000       1.00800           0
     51585 TIP3     9713     TIP3     H2       HT       0.417000       1.00800           0
     51586 TIP3     9714     TIP3     OH2      OT      -0.834000       15.9994           0
     51587 TIP3     9714     TIP3     H1       HT       0.417000       1.00800           0
     51588 TIP3     9714     TIP3     H2       HT       0.417000       1.00800           0
     51589 TIP3     9715     TIP3     OH2      OT      -0.834000       15.9994           0
     51590 TIP3     9715     TIP3     H1       HT       0.417000       1.00800           0
     51591 TIP3     9715     TIP3     H2       HT       0.417000       1.00800           0
     51592 TIP3     9716     TIP3     OH2      OT      -0.834000       15.9994           0
     51593 TIP3     9716     TIP3     H1       HT       0.417000       1.00800           0
     51594 TIP3     9716     TIP3     H2       HT       0.417000       1.00800           0
     51595 TIP3     9717     TIP3     OH2      OT      -0.834000       15.9994           0
     51596 TIP3     9717     TIP3     H1       HT       0.417000       1.00800           0
     51597 TIP3     9717     TIP3     H2       HT       0.417000       1.00800           0
     51598 TIP3     9718     TIP3     OH2      OT      -0.834000       15.9994           0
     51599 TIP3     9718     TIP3     H1       HT       0.417000       1.00800           0
     51600 TIP3     9718     TIP3     H2       HT       0.417000       1.00800           0
     51601 TIP3     9719     TIP3     OH2      OT      -0.834000       15.9994           0
     51602 TIP3     9719     TIP3     H1       HT       0.417000       1.00800           0
     51603 TIP3     9719     TIP3     H2       HT       0.417000       1.00800           0
     51604 TIP3     9720     TIP3     OH2      OT      -0.834000       15.9994           0
     51605 TIP3     9720     TIP3     H1       HT       0.417000       1.00800           0
     51606 TIP3     9720     TIP3     H2       HT       0.417000       1.00800           0
     51607 TIP3     9721     TIP3     OH2      OT      -0.834000       15.9994           0
     51608 TIP3     9721     TIP3     H1       HT       0.417000       1.00800           0
     51609 TIP3     9721     TIP3     H2       HT       0.417000       1.00800           0
     51610 TIP3     9722     TIP3     OH2      OT      -0.834000       15.9994           0
     51611 TIP3     9722     TIP3     H1       HT       0.417000       1.00800           0
     51612 TIP3     9722     TIP3     H2       HT       0.417000       1.00800           0
     51613 TIP3     9723     TIP3     OH2      OT      -0.834000       15.9994           0
     51614 TIP3     9723     TIP3     H1       HT       0.417000       1.00800           0
     51615 TIP3     9723     TIP3     H2       HT       0.417000       1.00800           0
     51616 TIP3     9724     TIP3     OH2      OT      -0.834000       15.9994           0
     51617 TIP3     9724     TIP3     H1       HT       0.417000       1.00800           0
     51618 TIP3     9724     TIP3     H2       HT       0.417000       1.00800           0
     51619 TIP3     9725     TIP3     OH2      OT      -0.834000       15.9994           0
     51620 TIP3     9725     TIP3     H1       HT       0.417000       1.00800           0
     51621 TIP3     9725     TIP3     H2       HT       0.417000       1.00800           0
     51622 TIP3     9726     TIP3     OH2      OT      -0.834000       15.9994           0
     51623 TIP3     9726     TIP3     H1       HT       0.417000       1.00800           0
     51624 TIP3     9726     TIP3     H2       HT       0.417000       1.00800           0
     51625 TIP3     9727     TIP3     OH2      OT      -0.834000       15.9994           0
     51626 TIP3     9727     TIP3     H1       HT       0.417000       1.00800           0
     51627 TIP3     9727     TIP3     H2       HT       0.417000       1.00800           0
     51628 TIP3     9728     TIP3     OH2      OT      -0.834000       15.9994           0
     51629 TIP3     9728     TIP3     H1       HT       0.417000       1.00800           0
     51630 TIP3     9728     TIP3     H2       HT       0.417000       1.00800           0
     51631 TIP3     9729     TIP3     OH2      OT      -0.834000       15.9994           0
     51632 TIP3     9729     TIP3     H1       HT       0.417000       1.00800           0
     51633 TIP3     9729     TIP3     H2       HT       0.417000       1.00800           0
     51634 TIP3     9730     TIP3     OH2      OT      -0.834000       15.9994           0
     51635 TIP3     9730     TIP3     H1       HT       0.417000       1.00800           0
     51636 TIP3     9730     TIP3     H2       HT       0.417000       1.00800           0
     51637 TIP3     9731     TIP3     OH2      OT      -0.834000       15.9994           0
     51638 TIP3     9731     TIP3     H1       HT       0.417000       1.00800           0
     51639 TIP3     9731     TIP3     H2       HT       0.417000       1.00800           0
     51640 TIP3     9732     TIP3     OH2      OT      -0.834000       15.9994           0
     51641 TIP3     9732     TIP3     H1       HT       0.417000       1.00800           0
     51642 TIP3     9732     TIP3     H2       HT       0.417000       1.00800           0
     51643 TIP3     9733     TIP3     OH2      OT      -0.834000       15.9994           0
     51644 TIP3     9733     TIP3     H1       HT       0.417000       1.00800           0
     51645 TIP3     9733     TIP3     H2       HT       0.417000       1.00800           0
     51646 TIP3     9734     TIP3     OH2      OT      -0.834000       15.9994           0
     51647 TIP3     9734     TIP3     H1       HT       0.417000       1.00800           0
     51648 TIP3     9734     TIP3     H2       HT       0.417000       1.00800           0
     51649 TIP3     9735     TIP3     OH2      OT      -0.834000       15.9994           0
     51650 TIP3     9735     TIP3     H1       HT       0.417000       1.00800           0
     51651 TIP3     9735     TIP3     H2       HT       0.417000       1.00800           0
     51652 TIP3     9736     TIP3     OH2      OT      -0.834000       15.9994           0
     51653 TIP3     9736     TIP3     H1       HT       0.417000       1.00800           0
     51654 TIP3     9736     TIP3     H2       HT       0.417000       1.00800           0
     51655 TIP3     9737     TIP3     OH2      OT      -0.834000       15.9994           0
     51656 TIP3     9737     TIP3     H1       HT       0.417000       1.00800           0
     51657 TIP3     9737     TIP3     H2       HT       0.417000       1.00800           0
     51658 TIP3     9738     TIP3     OH2      OT      -0.834000       15.9994           0
     51659 TIP3     9738     TIP3     H1       HT       0.417000       1.00800           0
     51660 TIP3     9738     TIP3     H2       HT       0.417000       1.00800           0
     51661 TIP3     9739     TIP3     OH2      OT      -0.834000       15.9994           0
     51662 TIP3     9739     TIP3     H1       HT       0.417000       1.00800           0
     51663 TIP3     9739     TIP3     H2       HT       0.417000       1.00800           0
     51664 TIP3     9740     TIP3     OH2      OT      -0.834000       15.9994           0
     51665 TIP3     9740     TIP3     H1       HT       0.417000       1.00800           0
     51666 TIP3     9740     TIP3     H2       HT       0.417000       1.00800           0
     51667 TIP3     9741     TIP3     OH2      OT      -0.834000       15.9994           0
     51668 TIP3     9741     TIP3     H1       HT       0.417000       1.00800           0
     51669 TIP3     9741     TIP3     H2       HT       0.417000       1.00800           0
     51670 TIP3     9742     TIP3     OH2      OT      -0.834000       15.9994           0
     51671 TIP3     9742     TIP3     H1       HT       0.417000       1.00800           0
     51672 TIP3     9742     TIP3     H2       HT       0.417000       1.00800           0
     51673 TIP3     9743     TIP3     OH2      OT      -0.834000       15.9994           0
     51674 TIP3     9743     TIP3     H1       HT       0.417000       1.00800           0
     51675 TIP3     9743     TIP3     H2       HT       0.417000       1.00800           0
     51676 TIP3     9744     TIP3     OH2      OT      -0.834000       15.9994           0
     51677 TIP3     9744     TIP3     H1       HT       0.417000       1.00800           0
     51678 TIP3     9744     TIP3     H2       HT       0.417000       1.00800           0
     51679 TIP3     9745     TIP3     OH2      OT      -0.834000       15.9994           0
     51680 TIP3     9745     TIP3     H1       HT       0.417000       1.00800           0
     51681 TIP3     9745     TIP3     H2       HT       0.417000       1.00800           0
     51682 TIP3     9746     TIP3     OH2      OT      -0.834000       15.9994           0
     51683 TIP3     9746     TIP3     H1       HT       0.417000       1.00800           0
     51684 TIP3     9746     TIP3     H2       HT       0.417000       1.00800           0
     51685 TIP3     9747     TIP3     OH2      OT      -0.834000       15.9994           0
     51686 TIP3     9747     TIP3     H1       HT       0.417000       1.00800           0
     51687 TIP3     9747     TIP3     H2       HT       0.417000       1.00800           0
     51688 TIP3     9748     TIP3     OH2      OT      -0.834000       15.9994           0
     51689 TIP3     9748     TIP3     H1       HT       0.417000       1.00800           0
     51690 TIP3     9748     TIP3     H2       HT       0.417000       1.00800           0
     51691 TIP3     9749     TIP3     OH2      OT      -0.834000       15.9994           0
     51692 TIP3     9749     TIP3     H1       HT       0.417000       1.00800           0
     51693 TIP3     9749     TIP3     H2       HT       0.417000       1.00800           0
     51694 TIP3     9750     TIP3     OH2      OT      -0.834000       15.9994           0
     51695 TIP3     9750     TIP3     H1       HT       0.417000       1.00800           0
     51696 TIP3     9750     TIP3     H2       HT       0.417000       1.00800           0
     51697 TIP3     9751     TIP3     OH2      OT      -0.834000       15.9994           0
     51698 TIP3     9751     TIP3     H1       HT       0.417000       1.00800           0
     51699 TIP3     9751     TIP3     H2       HT       0.417000       1.00800           0
     51700 TIP3     9752     TIP3     OH2      OT      -0.834000       15.9994           0
     51701 TIP3     9752     TIP3     H1       HT       0.417000       1.00800           0
     51702 TIP3     9752     TIP3     H2       HT       0.417000       1.00800           0
     51703 TIP3     9753     TIP3     OH2      OT      -0.834000       15.9994           0
     51704 TIP3     9753     TIP3     H1       HT       0.417000       1.00800           0
     51705 TIP3     9753     TIP3     H2       HT       0.417000       1.00800           0
     51706 TIP3     9754     TIP3     OH2      OT      -0.834000       15.9994           0
     51707 TIP3     9754     TIP3     H1       HT       0.417000       1.00800           0
     51708 TIP3     9754     TIP3     H2       HT       0.417000       1.00800           0
     51709 TIP3     9755     TIP3     OH2      OT      -0.834000       15.9994           0
     51710 TIP3     9755     TIP3     H1       HT       0.417000       1.00800           0
     51711 TIP3     9755     TIP3     H2       HT       0.417000       1.00800           0
     51712 TIP3     9756     TIP3     OH2      OT      -0.834000       15.9994           0
     51713 TIP3     9756     TIP3     H1       HT       0.417000       1.00800           0
     51714 TIP3     9756     TIP3     H2       HT       0.417000       1.00800           0
     51715 TIP3     9757     TIP3     OH2      OT      -0.834000       15.9994           0
     51716 TIP3     9757     TIP3     H1       HT       0.417000       1.00800           0
     51717 TIP3     9757     TIP3     H2       HT       0.417000       1.00800           0
     51718 TIP3     9758     TIP3     OH2      OT      -0.834000       15.9994           0
     51719 TIP3     9758     TIP3     H1       HT       0.417000       1.00800           0
     51720 TIP3     9758     TIP3     H2       HT       0.417000       1.00800           0
     51721 TIP3     9759     TIP3     OH2      OT      -0.834000       15.9994           0
     51722 TIP3     9759     TIP3     H1       HT       0.417000       1.00800           0
     51723 TIP3     9759     TIP3     H2       HT       0.417000       1.00800           0
     51724 TIP3     9760     TIP3     OH2      OT      -0.834000       15.9994           0
     51725 TIP3     9760     TIP3     H1       HT       0.417000       1.00800           0
     51726 TIP3     9760     TIP3     H2       HT       0.417000       1.00800           0
     51727 TIP3     9761     TIP3     OH2      OT      -0.834000       15.9994           0
     51728 TIP3     9761     TIP3     H1       HT       0.417000       1.00800           0
     51729 TIP3     9761     TIP3     H2       HT       0.417000       1.00800           0
     51730 TIP3     9762     TIP3     OH2      OT      -0.834000       15.9994           0
     51731 TIP3     9762     TIP3     H1       HT       0.417000       1.00800           0
     51732 TIP3     9762     TIP3     H2       HT       0.417000       1.00800           0
     51733 TIP3     9763     TIP3     OH2      OT      -0.834000       15.9994           0
     51734 TIP3     9763     TIP3     H1       HT       0.417000       1.00800           0
     51735 TIP3     9763     TIP3     H2       HT       0.417000       1.00800           0
     51736 TIP3     9764     TIP3     OH2      OT      -0.834000       15.9994           0
     51737 TIP3     9764     TIP3     H1       HT       0.417000       1.00800           0
     51738 TIP3     9764     TIP3     H2       HT       0.417000       1.00800           0
     51739 TIP3     9765     TIP3     OH2      OT      -0.834000       15.9994           0
     51740 TIP3     9765     TIP3     H1       HT       0.417000       1.00800           0
     51741 TIP3     9765     TIP3     H2       HT       0.417000       1.00800           0
     51742 TIP3     9766     TIP3     OH2      OT      -0.834000       15.9994           0
     51743 TIP3     9766     TIP3     H1       HT       0.417000       1.00800           0
     51744 TIP3     9766     TIP3     H2       HT       0.417000       1.00800           0
     51745 TIP3     9767     TIP3     OH2      OT      -0.834000       15.9994           0
     51746 TIP3     9767     TIP3     H1       HT       0.417000       1.00800           0
     51747 TIP3     9767     TIP3     H2       HT       0.417000       1.00800           0
     51748 TIP3     9768     TIP3     OH2      OT      -0.834000       15.9994           0
     51749 TIP3     9768     TIP3     H1       HT       0.417000       1.00800           0
     51750 TIP3     9768     TIP3     H2       HT       0.417000       1.00800           0
     51751 TIP3     9769     TIP3     OH2      OT      -0.834000       15.9994           0
     51752 TIP3     9769     TIP3     H1       HT       0.417000       1.00800           0
     51753 TIP3     9769     TIP3     H2       HT       0.417000       1.00800           0
     51754 TIP3     9770     TIP3     OH2      OT      -0.834000       15.9994           0
     51755 TIP3     9770     TIP3     H1       HT       0.417000       1.00800           0
     51756 TIP3     9770     TIP3     H2       HT       0.417000       1.00800           0
     51757 TIP3     9771     TIP3     OH2      OT      -0.834000       15.9994           0
     51758 TIP3     9771     TIP3     H1       HT       0.417000       1.00800           0
     51759 TIP3     9771     TIP3     H2       HT       0.417000       1.00800           0
     51760 TIP3     9772     TIP3     OH2      OT      -0.834000       15.9994           0
     51761 TIP3     9772     TIP3     H1       HT       0.417000       1.00800           0
     51762 TIP3     9772     TIP3     H2       HT       0.417000       1.00800           0
     51763 TIP3     9773     TIP3     OH2      OT      -0.834000       15.9994           0
     51764 TIP3     9773     TIP3     H1       HT       0.417000       1.00800           0
     51765 TIP3     9773     TIP3     H2       HT       0.417000       1.00800           0
     51766 TIP3     9774     TIP3     OH2      OT      -0.834000       15.9994           0
     51767 TIP3     9774     TIP3     H1       HT       0.417000       1.00800           0
     51768 TIP3     9774     TIP3     H2       HT       0.417000       1.00800           0
     51769 TIP3     9775     TIP3     OH2      OT      -0.834000       15.9994           0
     51770 TIP3     9775     TIP3     H1       HT       0.417000       1.00800           0
     51771 TIP3     9775     TIP3     H2       HT       0.417000       1.00800           0
     51772 TIP3     9776     TIP3     OH2      OT      -0.834000       15.9994           0
     51773 TIP3     9776     TIP3     H1       HT       0.417000       1.00800           0
     51774 TIP3     9776     TIP3     H2       HT       0.417000       1.00800           0
     51775 TIP3     9777     TIP3     OH2      OT      -0.834000       15.9994           0
     51776 TIP3     9777     TIP3     H1       HT       0.417000       1.00800           0
     51777 TIP3     9777     TIP3     H2       HT       0.417000       1.00800           0
     51778 TIP3     9778     TIP3     OH2      OT      -0.834000       15.9994           0
     51779 TIP3     9778     TIP3     H1       HT       0.417000       1.00800           0
     51780 TIP3     9778     TIP3     H2       HT       0.417000       1.00800           0
     51781 TIP3     9779     TIP3     OH2      OT      -0.834000       15.9994           0
     51782 TIP3     9779     TIP3     H1       HT       0.417000       1.00800           0
     51783 TIP3     9779     TIP3     H2       HT       0.417000       1.00800           0
     51784 TIP3     9780     TIP3     OH2      OT      -0.834000       15.9994           0
     51785 TIP3     9780     TIP3     H1       HT       0.417000       1.00800           0
     51786 TIP3     9780     TIP3     H2       HT       0.417000       1.00800           0
     51787 TIP3     9781     TIP3     OH2      OT      -0.834000       15.9994           0
     51788 TIP3     9781     TIP3     H1       HT       0.417000       1.00800           0
     51789 TIP3     9781     TIP3     H2       HT       0.417000       1.00800           0
     51790 TIP3     9782     TIP3     OH2      OT      -0.834000       15.9994           0
     51791 TIP3     9782     TIP3     H1       HT       0.417000       1.00800           0
     51792 TIP3     9782     TIP3     H2       HT       0.417000       1.00800           0
     51793 TIP3     9783     TIP3     OH2      OT      -0.834000       15.9994           0
     51794 TIP3     9783     TIP3     H1       HT       0.417000       1.00800           0
     51795 TIP3     9783     TIP3     H2       HT       0.417000       1.00800           0
     51796 TIP3     9784     TIP3     OH2      OT      -0.834000       15.9994           0
     51797 TIP3     9784     TIP3     H1       HT       0.417000       1.00800           0
     51798 TIP3     9784     TIP3     H2       HT       0.417000       1.00800           0
     51799 TIP3     9785     TIP3     OH2      OT      -0.834000       15.9994           0
     51800 TIP3     9785     TIP3     H1       HT       0.417000       1.00800           0
     51801 TIP3     9785     TIP3     H2       HT       0.417000       1.00800           0
     51802 TIP3     9786     TIP3     OH2      OT      -0.834000       15.9994           0
     51803 TIP3     9786     TIP3     H1       HT       0.417000       1.00800           0
     51804 TIP3     9786     TIP3     H2       HT       0.417000       1.00800           0
     51805 TIP3     9787     TIP3     OH2      OT      -0.834000       15.9994           0
     51806 TIP3     9787     TIP3     H1       HT       0.417000       1.00800           0
     51807 TIP3     9787     TIP3     H2       HT       0.417000       1.00800           0
     51808 TIP3     9788     TIP3     OH2      OT      -0.834000       15.9994           0
     51809 TIP3     9788     TIP3     H1       HT       0.417000       1.00800           0
     51810 TIP3     9788     TIP3     H2       HT       0.417000       1.00800           0
     51811 TIP3     9789     TIP3     OH2      OT      -0.834000       15.9994           0
     51812 TIP3     9789     TIP3     H1       HT       0.417000       1.00800           0
     51813 TIP3     9789     TIP3     H2       HT       0.417000       1.00800           0
     51814 TIP3     9790     TIP3     OH2      OT      -0.834000       15.9994           0
     51815 TIP3     9790     TIP3     H1       HT       0.417000       1.00800           0
     51816 TIP3     9790     TIP3     H2       HT       0.417000       1.00800           0
     51817 TIP3     9791     TIP3     OH2      OT      -0.834000       15.9994           0
     51818 TIP3     9791     TIP3     H1       HT       0.417000       1.00800           0
     51819 TIP3     9791     TIP3     H2       HT       0.417000       1.00800           0
     51820 TIP3     9792     TIP3     OH2      OT      -0.834000       15.9994           0
     51821 TIP3     9792     TIP3     H1       HT       0.417000       1.00800           0
     51822 TIP3     9792     TIP3     H2       HT       0.417000       1.00800           0
     51823 TIP3     9793     TIP3     OH2      OT      -0.834000       15.9994           0
     51824 TIP3     9793     TIP3     H1       HT       0.417000       1.00800           0
     51825 TIP3     9793     TIP3     H2       HT       0.417000       1.00800           0
     51826 TIP3     9794     TIP3     OH2      OT      -0.834000       15.9994           0
     51827 TIP3     9794     TIP3     H1       HT       0.417000       1.00800           0
     51828 TIP3     9794     TIP3     H2       HT       0.417000       1.00800           0
     51829 TIP3     9795     TIP3     OH2      OT      -0.834000       15.9994           0
     51830 TIP3     9795     TIP3     H1       HT       0.417000       1.00800           0
     51831 TIP3     9795     TIP3     H2       HT       0.417000       1.00800           0
     51832 TIP3     9796     TIP3     OH2      OT      -0.834000       15.9994           0
     51833 TIP3     9796     TIP3     H1       HT       0.417000       1.00800           0
     51834 TIP3     9796     TIP3     H2       HT       0.417000       1.00800           0
     51835 TIP3     9797     TIP3     OH2      OT      -0.834000       15.9994           0
     51836 TIP3     9797     TIP3     H1       HT       0.417000       1.00800           0
     51837 TIP3     9797     TIP3     H2       HT       0.417000       1.00800           0
     51838 TIP3     9798     TIP3     OH2      OT      -0.834000       15.9994           0
     51839 TIP3     9798     TIP3     H1       HT       0.417000       1.00800           0
     51840 TIP3     9798     TIP3     H2       HT       0.417000       1.00800           0
     51841 TIP3     9799     TIP3     OH2      OT      -0.834000       15.9994           0
     51842 TIP3     9799     TIP3     H1       HT       0.417000       1.00800           0
     51843 TIP3     9799     TIP3     H2       HT       0.417000       1.00800           0
     51844 TIP3     9800     TIP3     OH2      OT      -0.834000       15.9994           0
     51845 TIP3     9800     TIP3     H1       HT       0.417000       1.00800           0
     51846 TIP3     9800     TIP3     H2       HT       0.417000       1.00800           0
     51847 TIP3     9801     TIP3     OH2      OT      -0.834000       15.9994           0
     51848 TIP3     9801     TIP3     H1       HT       0.417000       1.00800           0
     51849 TIP3     9801     TIP3     H2       HT       0.417000       1.00800           0
     51850 TIP3     9802     TIP3     OH2      OT      -0.834000       15.9994           0
     51851 TIP3     9802     TIP3     H1       HT       0.417000       1.00800           0
     51852 TIP3     9802     TIP3     H2       HT       0.417000       1.00800           0
     51853 TIP3     9803     TIP3     OH2      OT      -0.834000       15.9994           0
     51854 TIP3     9803     TIP3     H1       HT       0.417000       1.00800           0
     51855 TIP3     9803     TIP3     H2       HT       0.417000       1.00800           0
     51856 TIP3     9804     TIP3     OH2      OT      -0.834000       15.9994           0
     51857 TIP3     9804     TIP3     H1       HT       0.417000       1.00800           0
     51858 TIP3     9804     TIP3     H2       HT       0.417000       1.00800           0
     51859 TIP3     9805     TIP3     OH2      OT      -0.834000       15.9994           0
     51860 TIP3     9805     TIP3     H1       HT       0.417000       1.00800           0
     51861 TIP3     9805     TIP3     H2       HT       0.417000       1.00800           0
     51862 TIP3     9806     TIP3     OH2      OT      -0.834000       15.9994           0
     51863 TIP3     9806     TIP3     H1       HT       0.417000       1.00800           0
     51864 TIP3     9806     TIP3     H2       HT       0.417000       1.00800           0
     51865 TIP3     9807     TIP3     OH2      OT      -0.834000       15.9994           0
     51866 TIP3     9807     TIP3     H1       HT       0.417000       1.00800           0
     51867 TIP3     9807     TIP3     H2       HT       0.417000       1.00800           0
     51868 TIP3     9808     TIP3     OH2      OT      -0.834000       15.9994           0
     51869 TIP3     9808     TIP3     H1       HT       0.417000       1.00800           0
     51870 TIP3     9808     TIP3     H2       HT       0.417000       1.00800           0
     51871 TIP3     9809     TIP3     OH2      OT      -0.834000       15.9994           0
     51872 TIP3     9809     TIP3     H1       HT       0.417000       1.00800           0
     51873 TIP3     9809     TIP3     H2       HT       0.417000       1.00800           0
     51874 TIP3     9810     TIP3     OH2      OT      -0.834000       15.9994           0
     51875 TIP3     9810     TIP3     H1       HT       0.417000       1.00800           0
     51876 TIP3     9810     TIP3     H2       HT       0.417000       1.00800           0
     51877 TIP3     9811     TIP3     OH2      OT      -0.834000       15.9994           0
     51878 TIP3     9811     TIP3     H1       HT       0.417000       1.00800           0
     51879 TIP3     9811     TIP3     H2       HT       0.417000       1.00800           0
     51880 TIP3     9812     TIP3     OH2      OT      -0.834000       15.9994           0
     51881 TIP3     9812     TIP3     H1       HT       0.417000       1.00800           0
     51882 TIP3     9812     TIP3     H2       HT       0.417000       1.00800           0
     51883 TIP3     9813     TIP3     OH2      OT      -0.834000       15.9994           0
     51884 TIP3     9813     TIP3     H1       HT       0.417000       1.00800           0
     51885 TIP3     9813     TIP3     H2       HT       0.417000       1.00800           0
     51886 TIP3     9814     TIP3     OH2      OT      -0.834000       15.9994           0
     51887 TIP3     9814     TIP3     H1       HT       0.417000       1.00800           0
     51888 TIP3     9814     TIP3     H2       HT       0.417000       1.00800           0
     51889 TIP3     9815     TIP3     OH2      OT      -0.834000       15.9994           0
     51890 TIP3     9815     TIP3     H1       HT       0.417000       1.00800           0
     51891 TIP3     9815     TIP3     H2       HT       0.417000       1.00800           0
     51892 TIP3     9816     TIP3     OH2      OT      -0.834000       15.9994           0
     51893 TIP3     9816     TIP3     H1       HT       0.417000       1.00800           0
     51894 TIP3     9816     TIP3     H2       HT       0.417000       1.00800           0
     51895 TIP3     9817     TIP3     OH2      OT      -0.834000       15.9994           0
     51896 TIP3     9817     TIP3     H1       HT       0.417000       1.00800           0
     51897 TIP3     9817     TIP3     H2       HT       0.417000       1.00800           0
     51898 TIP3     9818     TIP3     OH2      OT      -0.834000       15.9994           0
     51899 TIP3     9818     TIP3     H1       HT       0.417000       1.00800           0
     51900 TIP3     9818     TIP3     H2       HT       0.417000       1.00800           0
     51901 TIP3     9819     TIP3     OH2      OT      -0.834000       15.9994           0
     51902 TIP3     9819     TIP3     H1       HT       0.417000       1.00800           0
     51903 TIP3     9819     TIP3     H2       HT       0.417000       1.00800           0
     51904 TIP3     9820     TIP3     OH2      OT      -0.834000       15.9994           0
     51905 TIP3     9820     TIP3     H1       HT       0.417000       1.00800           0
     51906 TIP3     9820     TIP3     H2       HT       0.417000       1.00800           0
     51907 TIP3     9821     TIP3     OH2      OT      -0.834000       15.9994           0
     51908 TIP3     9821     TIP3     H1       HT       0.417000       1.00800           0
     51909 TIP3     9821     TIP3     H2       HT       0.417000       1.00800           0
     51910 TIP3     9822     TIP3     OH2      OT      -0.834000       15.9994           0
     51911 TIP3     9822     TIP3     H1       HT       0.417000       1.00800           0
     51912 TIP3     9822     TIP3     H2       HT       0.417000       1.00800           0
     51913 TIP3     9823     TIP3     OH2      OT      -0.834000       15.9994           0
     51914 TIP3     9823     TIP3     H1       HT       0.417000       1.00800           0
     51915 TIP3     9823     TIP3     H2       HT       0.417000       1.00800           0
     51916 TIP3     9824     TIP3     OH2      OT      -0.834000       15.9994           0
     51917 TIP3     9824     TIP3     H1       HT       0.417000       1.00800           0
     51918 TIP3     9824     TIP3     H2       HT       0.417000       1.00800           0
     51919 TIP3     9825     TIP3     OH2      OT      -0.834000       15.9994           0
     51920 TIP3     9825     TIP3     H1       HT       0.417000       1.00800           0
     51921 TIP3     9825     TIP3     H2       HT       0.417000       1.00800           0
     51922 TIP3     9826     TIP3     OH2      OT      -0.834000       15.9994           0
     51923 TIP3     9826     TIP3     H1       HT       0.417000       1.00800           0
     51924 TIP3     9826     TIP3     H2       HT       0.417000       1.00800           0
     51925 TIP3     9827     TIP3     OH2      OT      -0.834000       15.9994           0
     51926 TIP3     9827     TIP3     H1       HT       0.417000       1.00800           0
     51927 TIP3     9827     TIP3     H2       HT       0.417000       1.00800           0
     51928 TIP3     9828     TIP3     OH2      OT      -0.834000       15.9994           0
     51929 TIP3     9828     TIP3     H1       HT       0.417000       1.00800           0
     51930 TIP3     9828     TIP3     H2       HT       0.417000       1.00800           0
     51931 TIP3     9829     TIP3     OH2      OT      -0.834000       15.9994           0
     51932 TIP3     9829     TIP3     H1       HT       0.417000       1.00800           0
     51933 TIP3     9829     TIP3     H2       HT       0.417000       1.00800           0
     51934 TIP3     9830     TIP3     OH2      OT      -0.834000       15.9994           0
     51935 TIP3     9830     TIP3     H1       HT       0.417000       1.00800           0
     51936 TIP3     9830     TIP3     H2       HT       0.417000       1.00800           0
     51937 TIP3     9831     TIP3     OH2      OT      -0.834000       15.9994           0
     51938 TIP3     9831     TIP3     H1       HT       0.417000       1.00800           0
     51939 TIP3     9831     TIP3     H2       HT       0.417000       1.00800           0
     51940 TIP3     9832     TIP3     OH2      OT      -0.834000       15.9994           0
     51941 TIP3     9832     TIP3     H1       HT       0.417000       1.00800           0
     51942 TIP3     9832     TIP3     H2       HT       0.417000       1.00800           0
     51943 TIP3     9833     TIP3     OH2      OT      -0.834000       15.9994           0
     51944 TIP3     9833     TIP3     H1       HT       0.417000       1.00800           0
     51945 TIP3     9833     TIP3     H2       HT       0.417000       1.00800           0
     51946 TIP3     9834     TIP3     OH2      OT      -0.834000       15.9994           0
     51947 TIP3     9834     TIP3     H1       HT       0.417000       1.00800           0
     51948 TIP3     9834     TIP3     H2       HT       0.417000       1.00800           0
     51949 TIP3     9835     TIP3     OH2      OT      -0.834000       15.9994           0
     51950 TIP3     9835     TIP3     H1       HT       0.417000       1.00800           0
     51951 TIP3     9835     TIP3     H2       HT       0.417000       1.00800           0
     51952 TIP3     9836     TIP3     OH2      OT      -0.834000       15.9994           0
     51953 TIP3     9836     TIP3     H1       HT       0.417000       1.00800           0
     51954 TIP3     9836     TIP3     H2       HT       0.417000       1.00800           0
     51955 TIP3     9837     TIP3     OH2      OT      -0.834000       15.9994           0
     51956 TIP3     9837     TIP3     H1       HT       0.417000       1.00800           0
     51957 TIP3     9837     TIP3     H2       HT       0.417000       1.00800           0
     51958 TIP3     9838     TIP3     OH2      OT      -0.834000       15.9994           0
     51959 TIP3     9838     TIP3     H1       HT       0.417000       1.00800           0
     51960 TIP3     9838     TIP3     H2       HT       0.417000       1.00800           0
     51961 TIP3     9839     TIP3     OH2      OT      -0.834000       15.9994           0
     51962 TIP3     9839     TIP3     H1       HT       0.417000       1.00800           0
     51963 TIP3     9839     TIP3     H2       HT       0.417000       1.00800           0
     51964 TIP3     9840     TIP3     OH2      OT      -0.834000       15.9994           0
     51965 TIP3     9840     TIP3     H1       HT       0.417000       1.00800           0
     51966 TIP3     9840     TIP3     H2       HT       0.417000       1.00800           0
     51967 TIP3     9841     TIP3     OH2      OT      -0.834000       15.9994           0
     51968 TIP3     9841     TIP3     H1       HT       0.417000       1.00800           0
     51969 TIP3     9841     TIP3     H2       HT       0.417000       1.00800           0
     51970 TIP3     9842     TIP3     OH2      OT      -0.834000       15.9994           0
     51971 TIP3     9842     TIP3     H1       HT       0.417000       1.00800           0
     51972 TIP3     9842     TIP3     H2       HT       0.417000       1.00800           0
     51973 TIP3     9843     TIP3     OH2      OT      -0.834000       15.9994           0
     51974 TIP3     9843     TIP3     H1       HT       0.417000       1.00800           0
     51975 TIP3     9843     TIP3     H2       HT       0.417000       1.00800           0
     51976 TIP3     9844     TIP3     OH2      OT      -0.834000       15.9994           0
     51977 TIP3     9844     TIP3     H1       HT       0.417000       1.00800           0
     51978 TIP3     9844     TIP3     H2       HT       0.417000       1.00800           0
     51979 TIP3     9845     TIP3     OH2      OT      -0.834000       15.9994           0
     51980 TIP3     9845     TIP3     H1       HT       0.417000       1.00800           0
     51981 TIP3     9845     TIP3     H2       HT       0.417000       1.00800           0
     51982 TIP3     9846     TIP3     OH2      OT      -0.834000       15.9994           0
     51983 TIP3     9846     TIP3     H1       HT       0.417000       1.00800           0
     51984 TIP3     9846     TIP3     H2       HT       0.417000       1.00800           0
     51985 TIP3     9847     TIP3     OH2      OT      -0.834000       15.9994           0
     51986 TIP3     9847     TIP3     H1       HT       0.417000       1.00800           0
     51987 TIP3     9847     TIP3     H2       HT       0.417000       1.00800           0
     51988 TIP3     9848     TIP3     OH2      OT      -0.834000       15.9994           0
     51989 TIP3     9848     TIP3     H1       HT       0.417000       1.00800           0
     51990 TIP3     9848     TIP3     H2       HT       0.417000       1.00800           0
     51991 TIP3     9849     TIP3     OH2      OT      -0.834000       15.9994           0
     51992 TIP3     9849     TIP3     H1       HT       0.417000       1.00800           0
     51993 TIP3     9849     TIP3     H2       HT       0.417000       1.00800           0
     51994 TIP3     9850     TIP3     OH2      OT      -0.834000       15.9994           0
     51995 TIP3     9850     TIP3     H1       HT       0.417000       1.00800           0
     51996 TIP3     9850     TIP3     H2       HT       0.417000       1.00800           0
     51997 TIP3     9851     TIP3     OH2      OT      -0.834000       15.9994           0
     51998 TIP3     9851     TIP3     H1       HT       0.417000       1.00800           0
     51999 TIP3     9851     TIP3     H2       HT       0.417000       1.00800           0
     52000 TIP3     9852     TIP3     OH2      OT      -0.834000       15.9994           0
     52001 TIP3     9852     TIP3     H1       HT       0.417000       1.00800           0
     52002 TIP3     9852     TIP3     H2       HT       0.417000       1.00800           0
     52003 TIP3     9853     TIP3     OH2      OT      -0.834000       15.9994           0
     52004 TIP3     9853     TIP3     H1       HT       0.417000       1.00800           0
     52005 TIP3     9853     TIP3     H2       HT       0.417000       1.00800           0
     52006 TIP3     9854     TIP3     OH2      OT      -0.834000       15.9994           0
     52007 TIP3     9854     TIP3     H1       HT       0.417000       1.00800           0
     52008 TIP3     9854     TIP3     H2       HT       0.417000       1.00800           0
     52009 TIP3     9855     TIP3     OH2      OT      -0.834000       15.9994           0
     52010 TIP3     9855     TIP3     H1       HT       0.417000       1.00800           0
     52011 TIP3     9855     TIP3     H2       HT       0.417000       1.00800           0
     52012 TIP3     9856     TIP3     OH2      OT      -0.834000       15.9994           0
     52013 TIP3     9856     TIP3     H1       HT       0.417000       1.00800           0
     52014 TIP3     9856     TIP3     H2       HT       0.417000       1.00800           0
     52015 TIP3     9857     TIP3     OH2      OT      -0.834000       15.9994           0
     52016 TIP3     9857     TIP3     H1       HT       0.417000       1.00800           0
     52017 TIP3     9857     TIP3     H2       HT       0.417000       1.00800           0
     52018 TIP3     9858     TIP3     OH2      OT      -0.834000       15.9994           0
     52019 TIP3     9858     TIP3     H1       HT       0.417000       1.00800           0
     52020 TIP3     9858     TIP3     H2       HT       0.417000       1.00800           0
     52021 TIP3     9859     TIP3     OH2      OT      -0.834000       15.9994           0
     52022 TIP3     9859     TIP3     H1       HT       0.417000       1.00800           0
     52023 TIP3     9859     TIP3     H2       HT       0.417000       1.00800           0
     52024 TIP3     9860     TIP3     OH2      OT      -0.834000       15.9994           0
     52025 TIP3     9860     TIP3     H1       HT       0.417000       1.00800           0
     52026 TIP3     9860     TIP3     H2       HT       0.417000       1.00800           0
     52027 TIP3     9861     TIP3     OH2      OT      -0.834000       15.9994           0
     52028 TIP3     9861     TIP3     H1       HT       0.417000       1.00800           0
     52029 TIP3     9861     TIP3     H2       HT       0.417000       1.00800           0
     52030 TIP3     9862     TIP3     OH2      OT      -0.834000       15.9994           0
     52031 TIP3     9862     TIP3     H1       HT       0.417000       1.00800           0
     52032 TIP3     9862     TIP3     H2       HT       0.417000       1.00800           0
     52033 TIP3     9863     TIP3     OH2      OT      -0.834000       15.9994           0
     52034 TIP3     9863     TIP3     H1       HT       0.417000       1.00800           0
     52035 TIP3     9863     TIP3     H2       HT       0.417000       1.00800           0
     52036 TIP3     9864     TIP3     OH2      OT      -0.834000       15.9994           0
     52037 TIP3     9864     TIP3     H1       HT       0.417000       1.00800           0
     52038 TIP3     9864     TIP3     H2       HT       0.417000       1.00800           0
     52039 TIP3     9865     TIP3     OH2      OT      -0.834000       15.9994           0
     52040 TIP3     9865     TIP3     H1       HT       0.417000       1.00800           0
     52041 TIP3     9865     TIP3     H2       HT       0.417000       1.00800           0
     52042 TIP3     9866     TIP3     OH2      OT      -0.834000       15.9994           0
     52043 TIP3     9866     TIP3     H1       HT       0.417000       1.00800           0
     52044 TIP3     9866     TIP3     H2       HT       0.417000       1.00800           0
     52045 TIP3     9867     TIP3     OH2      OT      -0.834000       15.9994           0
     52046 TIP3     9867     TIP3     H1       HT       0.417000       1.00800           0
     52047 TIP3     9867     TIP3     H2       HT       0.417000       1.00800           0
     52048 TIP3     9868     TIP3     OH2      OT      -0.834000       15.9994           0
     52049 TIP3     9868     TIP3     H1       HT       0.417000       1.00800           0
     52050 TIP3     9868     TIP3     H2       HT       0.417000       1.00800           0
     52051 TIP3     9869     TIP3     OH2      OT      -0.834000       15.9994           0
     52052 TIP3     9869     TIP3     H1       HT       0.417000       1.00800           0
     52053 TIP3     9869     TIP3     H2       HT       0.417000       1.00800           0
     52054 TIP3     9870     TIP3     OH2      OT      -0.834000       15.9994           0
     52055 TIP3     9870     TIP3     H1       HT       0.417000       1.00800           0
     52056 TIP3     9870     TIP3     H2       HT       0.417000       1.00800           0
     52057 TIP3     9871     TIP3     OH2      OT      -0.834000       15.9994           0
     52058 TIP3     9871     TIP3     H1       HT       0.417000       1.00800           0
     52059 TIP3     9871     TIP3     H2       HT       0.417000       1.00800           0
     52060 TIP3     9872     TIP3     OH2      OT      -0.834000       15.9994           0
     52061 TIP3     9872     TIP3     H1       HT       0.417000       1.00800           0
     52062 TIP3     9872     TIP3     H2       HT       0.417000       1.00800           0
     52063 TIP3     9873     TIP3     OH2      OT      -0.834000       15.9994           0
     52064 TIP3     9873     TIP3     H1       HT       0.417000       1.00800           0
     52065 TIP3     9873     TIP3     H2       HT       0.417000       1.00800           0
     52066 TIP3     9874     TIP3     OH2      OT      -0.834000       15.9994           0
     52067 TIP3     9874     TIP3     H1       HT       0.417000       1.00800           0
     52068 TIP3     9874     TIP3     H2       HT       0.417000       1.00800           0
     52069 TIP3     9875     TIP3     OH2      OT      -0.834000       15.9994           0
     52070 TIP3     9875     TIP3     H1       HT       0.417000       1.00800           0
     52071 TIP3     9875     TIP3     H2       HT       0.417000       1.00800           0
     52072 TIP3     9876     TIP3     OH2      OT      -0.834000       15.9994           0
     52073 TIP3     9876     TIP3     H1       HT       0.417000       1.00800           0
     52074 TIP3     9876     TIP3     H2       HT       0.417000       1.00800           0
     52075 TIP3     9877     TIP3     OH2      OT      -0.834000       15.9994           0
     52076 TIP3     9877     TIP3     H1       HT       0.417000       1.00800           0
     52077 TIP3     9877     TIP3     H2       HT       0.417000       1.00800           0
     52078 TIP3     9878     TIP3     OH2      OT      -0.834000       15.9994           0
     52079 TIP3     9878     TIP3     H1       HT       0.417000       1.00800           0
     52080 TIP3     9878     TIP3     H2       HT       0.417000       1.00800           0
     52081 TIP3     9879     TIP3     OH2      OT      -0.834000       15.9994           0
     52082 TIP3     9879     TIP3     H1       HT       0.417000       1.00800           0
     52083 TIP3     9879     TIP3     H2       HT       0.417000       1.00800           0
     52084 TIP3     9880     TIP3     OH2      OT      -0.834000       15.9994           0
     52085 TIP3     9880     TIP3     H1       HT       0.417000       1.00800           0
     52086 TIP3     9880     TIP3     H2       HT       0.417000       1.00800           0
     52087 TIP3     9881     TIP3     OH2      OT      -0.834000       15.9994           0
     52088 TIP3     9881     TIP3     H1       HT       0.417000       1.00800           0
     52089 TIP3     9881     TIP3     H2       HT       0.417000       1.00800           0
     52090 TIP3     9882     TIP3     OH2      OT      -0.834000       15.9994           0
     52091 TIP3     9882     TIP3     H1       HT       0.417000       1.00800           0
     52092 TIP3     9882     TIP3     H2       HT       0.417000       1.00800           0
     52093 TIP3     9883     TIP3     OH2      OT      -0.834000       15.9994           0
     52094 TIP3     9883     TIP3     H1       HT       0.417000       1.00800           0
     52095 TIP3     9883     TIP3     H2       HT       0.417000       1.00800           0
     52096 TIP3     9884     TIP3     OH2      OT      -0.834000       15.9994           0
     52097 TIP3     9884     TIP3     H1       HT       0.417000       1.00800           0
     52098 TIP3     9884     TIP3     H2       HT       0.417000       1.00800           0
     52099 TIP3     9885     TIP3     OH2      OT      -0.834000       15.9994           0
     52100 TIP3     9885     TIP3     H1       HT       0.417000       1.00800           0
     52101 TIP3     9885     TIP3     H2       HT       0.417000       1.00800           0
     52102 TIP3     9886     TIP3     OH2      OT      -0.834000       15.9994           0
     52103 TIP3     9886     TIP3     H1       HT       0.417000       1.00800           0
     52104 TIP3     9886     TIP3     H2       HT       0.417000       1.00800           0
     52105 TIP3     9887     TIP3     OH2      OT      -0.834000       15.9994           0
     52106 TIP3     9887     TIP3     H1       HT       0.417000       1.00800           0
     52107 TIP3     9887     TIP3     H2       HT       0.417000       1.00800           0
     52108 TIP3     9888     TIP3     OH2      OT      -0.834000       15.9994           0
     52109 TIP3     9888     TIP3     H1       HT       0.417000       1.00800           0
     52110 TIP3     9888     TIP3     H2       HT       0.417000       1.00800           0
     52111 TIP3     9889     TIP3     OH2      OT      -0.834000       15.9994           0
     52112 TIP3     9889     TIP3     H1       HT       0.417000       1.00800           0
     52113 TIP3     9889     TIP3     H2       HT       0.417000       1.00800           0
     52114 TIP3     9890     TIP3     OH2      OT      -0.834000       15.9994           0
     52115 TIP3     9890     TIP3     H1       HT       0.417000       1.00800           0
     52116 TIP3     9890     TIP3     H2       HT       0.417000       1.00800           0
     52117 TIP3     9891     TIP3     OH2      OT      -0.834000       15.9994           0
     52118 TIP3     9891     TIP3     H1       HT       0.417000       1.00800           0
     52119 TIP3     9891     TIP3     H2       HT       0.417000       1.00800           0
     52120 TIP3     9892     TIP3     OH2      OT      -0.834000       15.9994           0
     52121 TIP3     9892     TIP3     H1       HT       0.417000       1.00800           0
     52122 TIP3     9892     TIP3     H2       HT       0.417000       1.00800           0
     52123 TIP3     9893     TIP3     OH2      OT      -0.834000       15.9994           0
     52124 TIP3     9893     TIP3     H1       HT       0.417000       1.00800           0
     52125 TIP3     9893     TIP3     H2       HT       0.417000       1.00800           0
     52126 TIP3     9894     TIP3     OH2      OT      -0.834000       15.9994           0
     52127 TIP3     9894     TIP3     H1       HT       0.417000       1.00800           0
     52128 TIP3     9894     TIP3     H2       HT       0.417000       1.00800           0
     52129 TIP3     9895     TIP3     OH2      OT      -0.834000       15.9994           0
     52130 TIP3     9895     TIP3     H1       HT       0.417000       1.00800           0
     52131 TIP3     9895     TIP3     H2       HT       0.417000       1.00800           0
     52132 TIP3     9896     TIP3     OH2      OT      -0.834000       15.9994           0
     52133 TIP3     9896     TIP3     H1       HT       0.417000       1.00800           0
     52134 TIP3     9896     TIP3     H2       HT       0.417000       1.00800           0
     52135 TIP3     9897     TIP3     OH2      OT      -0.834000       15.9994           0
     52136 TIP3     9897     TIP3     H1       HT       0.417000       1.00800           0
     52137 TIP3     9897     TIP3     H2       HT       0.417000       1.00800           0
     52138 TIP3     9898     TIP3     OH2      OT      -0.834000       15.9994           0
     52139 TIP3     9898     TIP3     H1       HT       0.417000       1.00800           0
     52140 TIP3     9898     TIP3     H2       HT       0.417000       1.00800           0
     52141 TIP3     9899     TIP3     OH2      OT      -0.834000       15.9994           0
     52142 TIP3     9899     TIP3     H1       HT       0.417000       1.00800           0
     52143 TIP3     9899     TIP3     H2       HT       0.417000       1.00800           0
     52144 TIP3     9900     TIP3     OH2      OT      -0.834000       15.9994           0
     52145 TIP3     9900     TIP3     H1       HT       0.417000       1.00800           0
     52146 TIP3     9900     TIP3     H2       HT       0.417000       1.00800           0
     52147 TIP3     9901     TIP3     OH2      OT      -0.834000       15.9994           0
     52148 TIP3     9901     TIP3     H1       HT       0.417000       1.00800           0
     52149 TIP3     9901     TIP3     H2       HT       0.417000       1.00800           0
     52150 TIP3     9902     TIP3     OH2      OT      -0.834000       15.9994           0
     52151 TIP3     9902     TIP3     H1       HT       0.417000       1.00800           0
     52152 TIP3     9902     TIP3     H2       HT       0.417000       1.00800           0
     52153 TIP3     9903     TIP3     OH2      OT      -0.834000       15.9994           0
     52154 TIP3     9903     TIP3     H1       HT       0.417000       1.00800           0
     52155 TIP3     9903     TIP3     H2       HT       0.417000       1.00800           0
     52156 TIP3     9904     TIP3     OH2      OT      -0.834000       15.9994           0
     52157 TIP3     9904     TIP3     H1       HT       0.417000       1.00800           0
     52158 TIP3     9904     TIP3     H2       HT       0.417000       1.00800           0
     52159 TIP3     9905     TIP3     OH2      OT      -0.834000       15.9994           0
     52160 TIP3     9905     TIP3     H1       HT       0.417000       1.00800           0
     52161 TIP3     9905     TIP3     H2       HT       0.417000       1.00800           0
     52162 TIP3     9906     TIP3     OH2      OT      -0.834000       15.9994           0
     52163 TIP3     9906     TIP3     H1       HT       0.417000       1.00800           0
     52164 TIP3     9906     TIP3     H2       HT       0.417000       1.00800           0
     52165 TIP3     9907     TIP3     OH2      OT      -0.834000       15.9994           0
     52166 TIP3     9907     TIP3     H1       HT       0.417000       1.00800           0
     52167 TIP3     9907     TIP3     H2       HT       0.417000       1.00800           0
     52168 TIP3     9908     TIP3     OH2      OT      -0.834000       15.9994           0
     52169 TIP3     9908     TIP3     H1       HT       0.417000       1.00800           0
     52170 TIP3     9908     TIP3     H2       HT       0.417000       1.00800           0
     52171 TIP3     9909     TIP3     OH2      OT      -0.834000       15.9994           0
     52172 TIP3     9909     TIP3     H1       HT       0.417000       1.00800           0
     52173 TIP3     9909     TIP3     H2       HT       0.417000       1.00800           0
     52174 TIP3     9910     TIP3     OH2      OT      -0.834000       15.9994           0
     52175 TIP3     9910     TIP3     H1       HT       0.417000       1.00800           0
     52176 TIP3     9910     TIP3     H2       HT       0.417000       1.00800           0
     52177 TIP3     9911     TIP3     OH2      OT      -0.834000       15.9994           0
     52178 TIP3     9911     TIP3     H1       HT       0.417000       1.00800           0
     52179 TIP3     9911     TIP3     H2       HT       0.417000       1.00800           0
     52180 TIP3     9912     TIP3     OH2      OT      -0.834000       15.9994           0
     52181 TIP3     9912     TIP3     H1       HT       0.417000       1.00800           0
     52182 TIP3     9912     TIP3     H2       HT       0.417000       1.00800           0
     52183 TIP3     9913     TIP3     OH2      OT      -0.834000       15.9994           0
     52184 TIP3     9913     TIP3     H1       HT       0.417000       1.00800           0
     52185 TIP3     9913     TIP3     H2       HT       0.417000       1.00800           0
     52186 TIP3     9914     TIP3     OH2      OT      -0.834000       15.9994           0
     52187 TIP3     9914     TIP3     H1       HT       0.417000       1.00800           0
     52188 TIP3     9914     TIP3     H2       HT       0.417000       1.00800           0
     52189 TIP3     9915     TIP3     OH2      OT      -0.834000       15.9994           0
     52190 TIP3     9915     TIP3     H1       HT       0.417000       1.00800           0
     52191 TIP3     9915     TIP3     H2       HT       0.417000       1.00800           0
     52192 TIP3     9916     TIP3     OH2      OT      -0.834000       15.9994           0
     52193 TIP3     9916     TIP3     H1       HT       0.417000       1.00800           0
     52194 TIP3     9916     TIP3     H2       HT       0.417000       1.00800           0
     52195 TIP3     9917     TIP3     OH2      OT      -0.834000       15.9994           0
     52196 TIP3     9917     TIP3     H1       HT       0.417000       1.00800           0
     52197 TIP3     9917     TIP3     H2       HT       0.417000       1.00800           0
     52198 TIP3     9918     TIP3     OH2      OT      -0.834000       15.9994           0
     52199 TIP3     9918     TIP3     H1       HT       0.417000       1.00800           0
     52200 TIP3     9918     TIP3     H2       HT       0.417000       1.00800           0
     52201 TIP3     9919     TIP3     OH2      OT      -0.834000       15.9994           0
     52202 TIP3     9919     TIP3     H1       HT       0.417000       1.00800           0
     52203 TIP3     9919     TIP3     H2       HT       0.417000       1.00800           0
     52204 TIP3     9920     TIP3     OH2      OT      -0.834000       15.9994           0
     52205 TIP3     9920     TIP3     H1       HT       0.417000       1.00800           0
     52206 TIP3     9920     TIP3     H2       HT       0.417000       1.00800           0
     52207 TIP3     9921     TIP3     OH2      OT      -0.834000       15.9994           0
     52208 TIP3     9921     TIP3     H1       HT       0.417000       1.00800           0
     52209 TIP3     9921     TIP3     H2       HT       0.417000       1.00800           0
     52210 TIP3     9922     TIP3     OH2      OT      -0.834000       15.9994           0
     52211 TIP3     9922     TIP3     H1       HT       0.417000       1.00800           0
     52212 TIP3     9922     TIP3     H2       HT       0.417000       1.00800           0
     52213 TIP3     9923     TIP3     OH2      OT      -0.834000       15.9994           0
     52214 TIP3     9923     TIP3     H1       HT       0.417000       1.00800           0
     52215 TIP3     9923     TIP3     H2       HT       0.417000       1.00800           0
     52216 TIP3     9924     TIP3     OH2      OT      -0.834000       15.9994           0
     52217 TIP3     9924     TIP3     H1       HT       0.417000       1.00800           0
     52218 TIP3     9924     TIP3     H2       HT       0.417000       1.00800           0
     52219 TIP3     9925     TIP3     OH2      OT      -0.834000       15.9994           0
     52220 TIP3     9925     TIP3     H1       HT       0.417000       1.00800           0
     52221 TIP3     9925     TIP3     H2       HT       0.417000       1.00800           0
     52222 TIP3     9926     TIP3     OH2      OT      -0.834000       15.9994           0
     52223 TIP3     9926     TIP3     H1       HT       0.417000       1.00800           0
     52224 TIP3     9926     TIP3     H2       HT       0.417000       1.00800           0
     52225 TIP3     9927     TIP3     OH2      OT      -0.834000       15.9994           0
     52226 TIP3     9927     TIP3     H1       HT       0.417000       1.00800           0
     52227 TIP3     9927     TIP3     H2       HT       0.417000       1.00800           0
     52228 TIP3     9928     TIP3     OH2      OT      -0.834000       15.9994           0
     52229 TIP3     9928     TIP3     H1       HT       0.417000       1.00800           0
     52230 TIP3     9928     TIP3     H2       HT       0.417000       1.00800           0
     52231 TIP3     9929     TIP3     OH2      OT      -0.834000       15.9994           0
     52232 TIP3     9929     TIP3     H1       HT       0.417000       1.00800           0
     52233 TIP3     9929     TIP3     H2       HT       0.417000       1.00800           0
     52234 TIP3     9930     TIP3     OH2      OT      -0.834000       15.9994           0
     52235 TIP3     9930     TIP3     H1       HT       0.417000       1.00800           0
     52236 TIP3     9930     TIP3     H2       HT       0.417000       1.00800           0
     52237 TIP3     9931     TIP3     OH2      OT      -0.834000       15.9994           0
     52238 TIP3     9931     TIP3     H1       HT       0.417000       1.00800           0
     52239 TIP3     9931     TIP3     H2       HT       0.417000       1.00800           0
     52240 TIP3     9932     TIP3     OH2      OT      -0.834000       15.9994           0
     52241 TIP3     9932     TIP3     H1       HT       0.417000       1.00800           0
     52242 TIP3     9932     TIP3     H2       HT       0.417000       1.00800           0
     52243 TIP3     9933     TIP3     OH2      OT      -0.834000       15.9994           0
     52244 TIP3     9933     TIP3     H1       HT       0.417000       1.00800           0
     52245 TIP3     9933     TIP3     H2       HT       0.417000       1.00800           0
     52246 TIP3     9934     TIP3     OH2      OT      -0.834000       15.9994           0
     52247 TIP3     9934     TIP3     H1       HT       0.417000       1.00800           0
     52248 TIP3     9934     TIP3     H2       HT       0.417000       1.00800           0
     52249 TIP3     9935     TIP3     OH2      OT      -0.834000       15.9994           0
     52250 TIP3     9935     TIP3     H1       HT       0.417000       1.00800           0
     52251 TIP3     9935     TIP3     H2       HT       0.417000       1.00800           0
     52252 TIP3     9936     TIP3     OH2      OT      -0.834000       15.9994           0
     52253 TIP3     9936     TIP3     H1       HT       0.417000       1.00800           0
     52254 TIP3     9936     TIP3     H2       HT       0.417000       1.00800           0
     52255 TIP3     9937     TIP3     OH2      OT      -0.834000       15.9994           0
     52256 TIP3     9937     TIP3     H1       HT       0.417000       1.00800           0
     52257 TIP3     9937     TIP3     H2       HT       0.417000       1.00800           0
     52258 TIP3     9938     TIP3     OH2      OT      -0.834000       15.9994           0
     52259 TIP3     9938     TIP3     H1       HT       0.417000       1.00800           0
     52260 TIP3     9938     TIP3     H2       HT       0.417000       1.00800           0
     52261 TIP3     9939     TIP3     OH2      OT      -0.834000       15.9994           0
     52262 TIP3     9939     TIP3     H1       HT       0.417000       1.00800           0
     52263 TIP3     9939     TIP3     H2       HT       0.417000       1.00800           0
     52264 TIP3     9940     TIP3     OH2      OT      -0.834000       15.9994           0
     52265 TIP3     9940     TIP3     H1       HT       0.417000       1.00800           0
     52266 TIP3     9940     TIP3     H2       HT       0.417000       1.00800           0
     52267 TIP3     9941     TIP3     OH2      OT      -0.834000       15.9994           0
     52268 TIP3     9941     TIP3     H1       HT       0.417000       1.00800           0
     52269 TIP3     9941     TIP3     H2       HT       0.417000       1.00800           0
     52270 TIP3     9942     TIP3     OH2      OT      -0.834000       15.9994           0
     52271 TIP3     9942     TIP3     H1       HT       0.417000       1.00800           0
     52272 TIP3     9942     TIP3     H2       HT       0.417000       1.00800           0
     52273 TIP3     9943     TIP3     OH2      OT      -0.834000       15.9994           0
     52274 TIP3     9943     TIP3     H1       HT       0.417000       1.00800           0
     52275 TIP3     9943     TIP3     H2       HT       0.417000       1.00800           0
     52276 TIP3     9944     TIP3     OH2      OT      -0.834000       15.9994           0
     52277 TIP3     9944     TIP3     H1       HT       0.417000       1.00800           0
     52278 TIP3     9944     TIP3     H2       HT       0.417000       1.00800           0
     52279 TIP3     9945     TIP3     OH2      OT      -0.834000       15.9994           0
     52280 TIP3     9945     TIP3     H1       HT       0.417000       1.00800           0
     52281 TIP3     9945     TIP3     H2       HT       0.417000       1.00800           0
     52282 TIP3     9946     TIP3     OH2      OT      -0.834000       15.9994           0
     52283 TIP3     9946     TIP3     H1       HT       0.417000       1.00800           0
     52284 TIP3     9946     TIP3     H2       HT       0.417000       1.00800           0
     52285 TIP3     9947     TIP3     OH2      OT      -0.834000       15.9994           0
     52286 TIP3     9947     TIP3     H1       HT       0.417000       1.00800           0
     52287 TIP3     9947     TIP3     H2       HT       0.417000       1.00800           0
     52288 TIP3     9948     TIP3     OH2      OT      -0.834000       15.9994           0
     52289 TIP3     9948     TIP3     H1       HT       0.417000       1.00800           0
     52290 TIP3     9948     TIP3     H2       HT       0.417000       1.00800           0
     52291 TIP3     9949     TIP3     OH2      OT      -0.834000       15.9994           0
     52292 TIP3     9949     TIP3     H1       HT       0.417000       1.00800           0
     52293 TIP3     9949     TIP3     H2       HT       0.417000       1.00800           0
     52294 TIP3     9950     TIP3     OH2      OT      -0.834000       15.9994           0
     52295 TIP3     9950     TIP3     H1       HT       0.417000       1.00800           0
     52296 TIP3     9950     TIP3     H2       HT       0.417000       1.00800           0
     52297 TIP3     9951     TIP3     OH2      OT      -0.834000       15.9994           0
     52298 TIP3     9951     TIP3     H1       HT       0.417000       1.00800           0
     52299 TIP3     9951     TIP3     H2       HT       0.417000       1.00800           0
     52300 TIP3     9952     TIP3     OH2      OT      -0.834000       15.9994           0
     52301 TIP3     9952     TIP3     H1       HT       0.417000       1.00800           0
     52302 TIP3     9952     TIP3     H2       HT       0.417000       1.00800           0
     52303 TIP3     9953     TIP3     OH2      OT      -0.834000       15.9994           0
     52304 TIP3     9953     TIP3     H1       HT       0.417000       1.00800           0
     52305 TIP3     9953     TIP3     H2       HT       0.417000       1.00800           0
     52306 TIP3     9954     TIP3     OH2      OT      -0.834000       15.9994           0
     52307 TIP3     9954     TIP3     H1       HT       0.417000       1.00800           0
     52308 TIP3     9954     TIP3     H2       HT       0.417000       1.00800           0
     52309 TIP3     9955     TIP3     OH2      OT      -0.834000       15.9994           0
     52310 TIP3     9955     TIP3     H1       HT       0.417000       1.00800           0
     52311 TIP3     9955     TIP3     H2       HT       0.417000       1.00800           0
     52312 TIP3     9956     TIP3     OH2      OT      -0.834000       15.9994           0
     52313 TIP3     9956     TIP3     H1       HT       0.417000       1.00800           0
     52314 TIP3     9956     TIP3     H2       HT       0.417000       1.00800           0
     52315 TIP3     9957     TIP3     OH2      OT      -0.834000       15.9994           0
     52316 TIP3     9957     TIP3     H1       HT       0.417000       1.00800           0
     52317 TIP3     9957     TIP3     H2       HT       0.417000       1.00800           0
     52318 TIP3     9958     TIP3     OH2      OT      -0.834000       15.9994           0
     52319 TIP3     9958     TIP3     H1       HT       0.417000       1.00800           0
     52320 TIP3     9958     TIP3     H2       HT       0.417000       1.00800           0
     52321 TIP3     9959     TIP3     OH2      OT      -0.834000       15.9994           0
     52322 TIP3     9959     TIP3     H1       HT       0.417000       1.00800           0
     52323 TIP3     9959     TIP3     H2       HT       0.417000       1.00800           0
     52324 TIP3     9960     TIP3     OH2      OT      -0.834000       15.9994           0
     52325 TIP3     9960     TIP3     H1       HT       0.417000       1.00800           0
     52326 TIP3     9960     TIP3     H2       HT       0.417000       1.00800           0
     52327 TIP3     9961     TIP3     OH2      OT      -0.834000       15.9994           0
     52328 TIP3     9961     TIP3     H1       HT       0.417000       1.00800           0
     52329 TIP3     9961     TIP3     H2       HT       0.417000       1.00800           0
     52330 TIP3     9962     TIP3     OH2      OT      -0.834000       15.9994           0
     52331 TIP3     9962     TIP3     H1       HT       0.417000       1.00800           0
     52332 TIP3     9962     TIP3     H2       HT       0.417000       1.00800           0
     52333 TIP3     9963     TIP3     OH2      OT      -0.834000       15.9994           0
     52334 TIP3     9963     TIP3     H1       HT       0.417000       1.00800           0
     52335 TIP3     9963     TIP3     H2       HT       0.417000       1.00800           0
     52336 TIP3     9964     TIP3     OH2      OT      -0.834000       15.9994           0
     52337 TIP3     9964     TIP3     H1       HT       0.417000       1.00800           0
     52338 TIP3     9964     TIP3     H2       HT       0.417000       1.00800           0
     52339 TIP3     9965     TIP3     OH2      OT      -0.834000       15.9994           0
     52340 TIP3     9965     TIP3     H1       HT       0.417000       1.00800           0
     52341 TIP3     9965     TIP3     H2       HT       0.417000       1.00800           0
     52342 TIP3     9966     TIP3     OH2      OT      -0.834000       15.9994           0
     52343 TIP3     9966     TIP3     H1       HT       0.417000       1.00800           0
     52344 TIP3     9966     TIP3     H2       HT       0.417000       1.00800           0
     52345 TIP3     9967     TIP3     OH2      OT      -0.834000       15.9994           0
     52346 TIP3     9967     TIP3     H1       HT       0.417000       1.00800           0
     52347 TIP3     9967     TIP3     H2       HT       0.417000       1.00800           0
     52348 TIP3     9968     TIP3     OH2      OT      -0.834000       15.9994           0
     52349 TIP3     9968     TIP3     H1       HT       0.417000       1.00800           0
     52350 TIP3     9968     TIP3     H2       HT       0.417000       1.00800           0
     52351 TIP3     9969     TIP3     OH2      OT      -0.834000       15.9994           0
     52352 TIP3     9969     TIP3     H1       HT       0.417000       1.00800           0
     52353 TIP3     9969     TIP3     H2       HT       0.417000       1.00800           0
     52354 TIP3     9970     TIP3     OH2      OT      -0.834000       15.9994           0
     52355 TIP3     9970     TIP3     H1       HT       0.417000       1.00800           0
     52356 TIP3     9970     TIP3     H2       HT       0.417000       1.00800           0
     52357 TIP3     9971     TIP3     OH2      OT      -0.834000       15.9994           0
     52358 TIP3     9971     TIP3     H1       HT       0.417000       1.00800           0
     52359 TIP3     9971     TIP3     H2       HT       0.417000       1.00800           0
     52360 TIP3     9972     TIP3     OH2      OT      -0.834000       15.9994           0
     52361 TIP3     9972     TIP3     H1       HT       0.417000       1.00800           0
     52362 TIP3     9972     TIP3     H2       HT       0.417000       1.00800           0
     52363 TIP3     9973     TIP3     OH2      OT      -0.834000       15.9994           0
     52364 TIP3     9973     TIP3     H1       HT       0.417000       1.00800           0
     52365 TIP3     9973     TIP3     H2       HT       0.417000       1.00800           0
     52366 TIP3     9974     TIP3     OH2      OT      -0.834000       15.9994           0
     52367 TIP3     9974     TIP3     H1       HT       0.417000       1.00800           0
     52368 TIP3     9974     TIP3     H2       HT       0.417000       1.00800           0
     52369 TIP3     9975     TIP3     OH2      OT      -0.834000       15.9994           0
     52370 TIP3     9975     TIP3     H1       HT       0.417000       1.00800           0
     52371 TIP3     9975     TIP3     H2       HT       0.417000       1.00800           0
     52372 TIP3     9976     TIP3     OH2      OT      -0.834000       15.9994           0
     52373 TIP3     9976     TIP3     H1       HT       0.417000       1.00800           0
     52374 TIP3     9976     TIP3     H2       HT       0.417000       1.00800           0
     52375 TIP3     9977     TIP3     OH2      OT      -0.834000       15.9994           0
     52376 TIP3     9977     TIP3     H1       HT       0.417000       1.00800           0
     52377 TIP3     9977     TIP3     H2       HT       0.417000       1.00800           0
     52378 TIP3     9978     TIP3     OH2      OT      -0.834000       15.9994           0
     52379 TIP3     9978     TIP3     H1       HT       0.417000       1.00800           0
     52380 TIP3     9978     TIP3     H2       HT       0.417000       1.00800           0
     52381 TIP3     9979     TIP3     OH2      OT      -0.834000       15.9994           0
     52382 TIP3     9979     TIP3     H1       HT       0.417000       1.00800           0
     52383 TIP3     9979     TIP3     H2       HT       0.417000       1.00800           0
     52384 TIP3     9980     TIP3     OH2      OT      -0.834000       15.9994           0
     52385 TIP3     9980     TIP3     H1       HT       0.417000       1.00800           0
     52386 TIP3     9980     TIP3     H2       HT       0.417000       1.00800           0
     52387 TIP3     9981     TIP3     OH2      OT      -0.834000       15.9994           0
     52388 TIP3     9981     TIP3     H1       HT       0.417000       1.00800           0
     52389 TIP3     9981     TIP3     H2       HT       0.417000       1.00800           0
     52390 TIP3     9982     TIP3     OH2      OT      -0.834000       15.9994           0
     52391 TIP3     9982     TIP3     H1       HT       0.417000       1.00800           0
     52392 TIP3     9982     TIP3     H2       HT       0.417000       1.00800           0
     52393 TIP3     9983     TIP3     OH2      OT      -0.834000       15.9994           0
     52394 TIP3     9983     TIP3     H1       HT       0.417000       1.00800           0
     52395 TIP3     9983     TIP3     H2       HT       0.417000       1.00800           0
     52396 TIP3     9984     TIP3     OH2      OT      -0.834000       15.9994           0
     52397 TIP3     9984     TIP3     H1       HT       0.417000       1.00800           0
     52398 TIP3     9984     TIP3     H2       HT       0.417000       1.00800           0
     52399 TIP3     9985     TIP3     OH2      OT      -0.834000       15.9994           0
     52400 TIP3     9985     TIP3     H1       HT       0.417000       1.00800           0
     52401 TIP3     9985     TIP3     H2       HT       0.417000       1.00800           0
     52402 TIP3     9986     TIP3     OH2      OT      -0.834000       15.9994           0
     52403 TIP3     9986     TIP3     H1       HT       0.417000       1.00800           0
     52404 TIP3     9986     TIP3     H2       HT       0.417000       1.00800           0
     52405 TIP3     9987     TIP3     OH2      OT      -0.834000       15.9994           0
     52406 TIP3     9987     TIP3     H1       HT       0.417000       1.00800           0
     52407 TIP3     9987     TIP3     H2       HT       0.417000       1.00800           0
     52408 TIP3     9988     TIP3     OH2      OT      -0.834000       15.9994           0
     52409 TIP3     9988     TIP3     H1       HT       0.417000       1.00800           0
     52410 TIP3     9988     TIP3     H2       HT       0.417000       1.00800           0
     52411 TIP3     9989     TIP3     OH2      OT      -0.834000       15.9994           0
     52412 TIP3     9989     TIP3     H1       HT       0.417000       1.00800           0
     52413 TIP3     9989     TIP3     H2       HT       0.417000       1.00800           0
     52414 TIP3     9990     TIP3     OH2      OT      -0.834000       15.9994           0
     52415 TIP3     9990     TIP3     H1       HT       0.417000       1.00800           0
     52416 TIP3     9990     TIP3     H2       HT       0.417000       1.00800           0
     52417 TIP3     9991     TIP3     OH2      OT      -0.834000       15.9994           0
     52418 TIP3     9991     TIP3     H1       HT       0.417000       1.00800           0
     52419 TIP3     9991     TIP3     H2       HT       0.417000       1.00800           0
     52420 TIP3     9992     TIP3     OH2      OT      -0.834000       15.9994           0
     52421 TIP3     9992     TIP3     H1       HT       0.417000       1.00800           0
     52422 TIP3     9992     TIP3     H2       HT       0.417000       1.00800           0
     52423 TIP3     9993     TIP3     OH2      OT      -0.834000       15.9994           0
     52424 TIP3     9993     TIP3     H1       HT       0.417000       1.00800           0
     52425 TIP3     9993     TIP3     H2       HT       0.417000       1.00800           0
     52426 TIP3     9994     TIP3     OH2      OT      -0.834000       15.9994           0
     52427 TIP3     9994     TIP3     H1       HT       0.417000       1.00800           0
     52428 TIP3     9994     TIP3     H2       HT       0.417000       1.00800           0
     52429 TIP3     9995     TIP3     OH2      OT      -0.834000       15.9994           0
     52430 TIP3     9995     TIP3     H1       HT       0.417000       1.00800           0
     52431 TIP3     9995     TIP3     H2       HT       0.417000       1.00800           0
     52432 TIP3     9996     TIP3     OH2      OT      -0.834000       15.9994           0
     52433 TIP3     9996     TIP3     H1       HT       0.417000       1.00800           0
     52434 TIP3     9996     TIP3     H2       HT       0.417000       1.00800           0
     52435 TIP3     9997     TIP3     OH2      OT      -0.834000       15.9994           0
     52436 TIP3     9997     TIP3     H1       HT       0.417000       1.00800           0
     52437 TIP3     9997     TIP3     H2       HT       0.417000       1.00800           0
     52438 TIP3     9998     TIP3     OH2      OT      -0.834000       15.9994           0
     52439 TIP3     9998     TIP3     H1       HT       0.417000       1.00800           0
     52440 TIP3     9998     TIP3     H2       HT       0.417000       1.00800           0
     52441 TIP3     9999     TIP3     OH2      OT      -0.834000       15.9994           0
     52442 TIP3     9999     TIP3     H1       HT       0.417000       1.00800           0
     52443 TIP3     9999     TIP3     H2       HT       0.417000       1.00800           0
     52444 TIP3     10000    TIP3     OH2      OT      -0.834000       15.9994           0
     52445 TIP3     10000    TIP3     H1       HT       0.417000       1.00800           0
     52446 TIP3     10000    TIP3     H2       HT       0.417000       1.00800           0
     52447 TIP3     10001    TIP3     OH2      OT      -0.834000       15.9994           0
     52448 TIP3     10001    TIP3     H1       HT       0.417000       1.00800           0
     52449 TIP3     10001    TIP3     H2       HT       0.417000       1.00800           0
     52450 TIP3     10002    TIP3     OH2      OT      -0.834000       15.9994           0
     52451 TIP3     10002    TIP3     H1       HT       0.417000       1.00800           0
     52452 TIP3     10002    TIP3     H2       HT       0.417000       1.00800           0
     52453 TIP3     10003    TIP3     OH2      OT      -0.834000       15.9994           0
     52454 TIP3     10003    TIP3     H1       HT       0.417000       1.00800           0
     52455 TIP3     10003    TIP3     H2       HT       0.417000       1.00800           0
     52456 TIP3     10004    TIP3     OH2      OT      -0.834000       15.9994           0
     52457 TIP3     10004    TIP3     H1       HT       0.417000       1.00800           0
     52458 TIP3     10004    TIP3     H2       HT       0.417000       1.00800           0
     52459 TIP3     10005    TIP3     OH2      OT      -0.834000       15.9994           0
     52460 TIP3     10005    TIP3     H1       HT       0.417000       1.00800           0
     52461 TIP3     10005    TIP3     H2       HT       0.417000       1.00800           0
     52462 TIP3     10006    TIP3     OH2      OT      -0.834000       15.9994           0
     52463 TIP3     10006    TIP3     H1       HT       0.417000       1.00800           0
     52464 TIP3     10006    TIP3     H2       HT       0.417000       1.00800           0
     52465 TIP3     10007    TIP3     OH2      OT      -0.834000       15.9994           0
     52466 TIP3     10007    TIP3     H1       HT       0.417000       1.00800           0
     52467 TIP3     10007    TIP3     H2       HT       0.417000       1.00800           0
     52468 TIP3     10008    TIP3     OH2      OT      -0.834000       15.9994           0
     52469 TIP3     10008    TIP3     H1       HT       0.417000       1.00800           0
     52470 TIP3     10008    TIP3     H2       HT       0.417000       1.00800           0
     52471 TIP3     10009    TIP3     OH2      OT      -0.834000       15.9994           0
     52472 TIP3     10009    TIP3     H1       HT       0.417000       1.00800           0
     52473 TIP3     10009    TIP3     H2       HT       0.417000       1.00800           0
     52474 TIP3     10010    TIP3     OH2      OT      -0.834000       15.9994           0
     52475 TIP3     10010    TIP3     H1       HT       0.417000       1.00800           0
     52476 TIP3     10010    TIP3     H2       HT       0.417000       1.00800           0
     52477 TIP3     10011    TIP3     OH2      OT      -0.834000       15.9994           0
     52478 TIP3     10011    TIP3     H1       HT       0.417000       1.00800           0
     52479 TIP3     10011    TIP3     H2       HT       0.417000       1.00800           0
     52480 TIP3     10012    TIP3     OH2      OT      -0.834000       15.9994           0
     52481 TIP3     10012    TIP3     H1       HT       0.417000       1.00800           0
     52482 TIP3     10012    TIP3     H2       HT       0.417000       1.00800           0
     52483 TIP3     10013    TIP3     OH2      OT      -0.834000       15.9994           0
     52484 TIP3     10013    TIP3     H1       HT       0.417000       1.00800           0
     52485 TIP3     10013    TIP3     H2       HT       0.417000       1.00800           0
     52486 TIP3     10014    TIP3     OH2      OT      -0.834000       15.9994           0
     52487 TIP3     10014    TIP3     H1       HT       0.417000       1.00800           0
     52488 TIP3     10014    TIP3     H2       HT       0.417000       1.00800           0
     52489 TIP3     10015    TIP3     OH2      OT      -0.834000       15.9994           0
     52490 TIP3     10015    TIP3     H1       HT       0.417000       1.00800           0
     52491 TIP3     10015    TIP3     H2       HT       0.417000       1.00800           0
     52492 TIP3     10016    TIP3     OH2      OT      -0.834000       15.9994           0
     52493 TIP3     10016    TIP3     H1       HT       0.417000       1.00800           0
     52494 TIP3     10016    TIP3     H2       HT       0.417000       1.00800           0
     52495 TIP3     10017    TIP3     OH2      OT      -0.834000       15.9994           0
     52496 TIP3     10017    TIP3     H1       HT       0.417000       1.00800           0
     52497 TIP3     10017    TIP3     H2       HT       0.417000       1.00800           0
     52498 TIP3     10018    TIP3     OH2      OT      -0.834000       15.9994           0
     52499 TIP3     10018    TIP3     H1       HT       0.417000       1.00800           0
     52500 TIP3     10018    TIP3     H2       HT       0.417000       1.00800           0
     52501 TIP3     10019    TIP3     OH2      OT      -0.834000       15.9994           0
     52502 TIP3     10019    TIP3     H1       HT       0.417000       1.00800           0
     52503 TIP3     10019    TIP3     H2       HT       0.417000       1.00800           0
     52504 TIP3     10020    TIP3     OH2      OT      -0.834000       15.9994           0
     52505 TIP3     10020    TIP3     H1       HT       0.417000       1.00800           0
     52506 TIP3     10020    TIP3     H2       HT       0.417000       1.00800           0
     52507 TIP3     10021    TIP3     OH2      OT      -0.834000       15.9994           0
     52508 TIP3     10021    TIP3     H1       HT       0.417000       1.00800           0
     52509 TIP3     10021    TIP3     H2       HT       0.417000       1.00800           0
     52510 TIP3     10022    TIP3     OH2      OT      -0.834000       15.9994           0
     52511 TIP3     10022    TIP3     H1       HT       0.417000       1.00800           0
     52512 TIP3     10022    TIP3     H2       HT       0.417000       1.00800           0
     52513 TIP3     10023    TIP3     OH2      OT      -0.834000       15.9994           0
     52514 TIP3     10023    TIP3     H1       HT       0.417000       1.00800           0
     52515 TIP3     10023    TIP3     H2       HT       0.417000       1.00800           0
     52516 TIP3     10024    TIP3     OH2      OT      -0.834000       15.9994           0
     52517 TIP3     10024    TIP3     H1       HT       0.417000       1.00800           0
     52518 TIP3     10024    TIP3     H2       HT       0.417000       1.00800           0
     52519 TIP3     10025    TIP3     OH2      OT      -0.834000       15.9994           0
     52520 TIP3     10025    TIP3     H1       HT       0.417000       1.00800           0
     52521 TIP3     10025    TIP3     H2       HT       0.417000       1.00800           0
     52522 TIP3     10026    TIP3     OH2      OT      -0.834000       15.9994           0
     52523 TIP3     10026    TIP3     H1       HT       0.417000       1.00800           0
     52524 TIP3     10026    TIP3     H2       HT       0.417000       1.00800           0
     52525 TIP3     10027    TIP3     OH2      OT      -0.834000       15.9994           0
     52526 TIP3     10027    TIP3     H1       HT       0.417000       1.00800           0
     52527 TIP3     10027    TIP3     H2       HT       0.417000       1.00800           0
     52528 TIP3     10028    TIP3     OH2      OT      -0.834000       15.9994           0
     52529 TIP3     10028    TIP3     H1       HT       0.417000       1.00800           0
     52530 TIP3     10028    TIP3     H2       HT       0.417000       1.00800           0
     52531 TIP3     10029    TIP3     OH2      OT      -0.834000       15.9994           0
     52532 TIP3     10029    TIP3     H1       HT       0.417000       1.00800           0
     52533 TIP3     10029    TIP3     H2       HT       0.417000       1.00800           0
     52534 TIP3     10030    TIP3     OH2      OT      -0.834000       15.9994           0
     52535 TIP3     10030    TIP3     H1       HT       0.417000       1.00800           0
     52536 TIP3     10030    TIP3     H2       HT       0.417000       1.00800           0
     52537 TIP3     10031    TIP3     OH2      OT      -0.834000       15.9994           0
     52538 TIP3     10031    TIP3     H1       HT       0.417000       1.00800           0
     52539 TIP3     10031    TIP3     H2       HT       0.417000       1.00800           0
     52540 TIP3     10032    TIP3     OH2      OT      -0.834000       15.9994           0
     52541 TIP3     10032    TIP3     H1       HT       0.417000       1.00800           0
     52542 TIP3     10032    TIP3     H2       HT       0.417000       1.00800           0
     52543 TIP3     10033    TIP3     OH2      OT      -0.834000       15.9994           0
     52544 TIP3     10033    TIP3     H1       HT       0.417000       1.00800           0
     52545 TIP3     10033    TIP3     H2       HT       0.417000       1.00800           0
     52546 TIP3     10034    TIP3     OH2      OT      -0.834000       15.9994           0
     52547 TIP3     10034    TIP3     H1       HT       0.417000       1.00800           0
     52548 TIP3     10034    TIP3     H2       HT       0.417000       1.00800           0
     52549 TIP3     10035    TIP3     OH2      OT      -0.834000       15.9994           0
     52550 TIP3     10035    TIP3     H1       HT       0.417000       1.00800           0
     52551 TIP3     10035    TIP3     H2       HT       0.417000       1.00800           0
     52552 TIP3     10036    TIP3     OH2      OT      -0.834000       15.9994           0
     52553 TIP3     10036    TIP3     H1       HT       0.417000       1.00800           0
     52554 TIP3     10036    TIP3     H2       HT       0.417000       1.00800           0
     52555 TIP3     10037    TIP3     OH2      OT      -0.834000       15.9994           0
     52556 TIP3     10037    TIP3     H1       HT       0.417000       1.00800           0
     52557 TIP3     10037    TIP3     H2       HT       0.417000       1.00800           0
     52558 TIP3     10038    TIP3     OH2      OT      -0.834000       15.9994           0
     52559 TIP3     10038    TIP3     H1       HT       0.417000       1.00800           0
     52560 TIP3     10038    TIP3     H2       HT       0.417000       1.00800           0
     52561 TIP3     10039    TIP3     OH2      OT      -0.834000       15.9994           0
     52562 TIP3     10039    TIP3     H1       HT       0.417000       1.00800           0
     52563 TIP3     10039    TIP3     H2       HT       0.417000       1.00800           0
     52564 TIP3     10040    TIP3     OH2      OT      -0.834000       15.9994           0
     52565 TIP3     10040    TIP3     H1       HT       0.417000       1.00800           0
     52566 TIP3     10040    TIP3     H2       HT       0.417000       1.00800           0
     52567 TIP3     10041    TIP3     OH2      OT      -0.834000       15.9994           0
     52568 TIP3     10041    TIP3     H1       HT       0.417000       1.00800           0
     52569 TIP3     10041    TIP3     H2       HT       0.417000       1.00800           0
     52570 TIP3     10042    TIP3     OH2      OT      -0.834000       15.9994           0
     52571 TIP3     10042    TIP3     H1       HT       0.417000       1.00800           0
     52572 TIP3     10042    TIP3     H2       HT       0.417000       1.00800           0
     52573 TIP3     10043    TIP3     OH2      OT      -0.834000       15.9994           0
     52574 TIP3     10043    TIP3     H1       HT       0.417000       1.00800           0
     52575 TIP3     10043    TIP3     H2       HT       0.417000       1.00800           0
     52576 TIP3     10044    TIP3     OH2      OT      -0.834000       15.9994           0
     52577 TIP3     10044    TIP3     H1       HT       0.417000       1.00800           0
     52578 TIP3     10044    TIP3     H2       HT       0.417000       1.00800           0
     52579 TIP3     10045    TIP3     OH2      OT      -0.834000       15.9994           0
     52580 TIP3     10045    TIP3     H1       HT       0.417000       1.00800           0
     52581 TIP3     10045    TIP3     H2       HT       0.417000       1.00800           0
     52582 TIP3     10046    TIP3     OH2      OT      -0.834000       15.9994           0
     52583 TIP3     10046    TIP3     H1       HT       0.417000       1.00800           0
     52584 TIP3     10046    TIP3     H2       HT       0.417000       1.00800           0
     52585 TIP3     10047    TIP3     OH2      OT      -0.834000       15.9994           0
     52586 TIP3     10047    TIP3     H1       HT       0.417000       1.00800           0
     52587 TIP3     10047    TIP3     H2       HT       0.417000       1.00800           0
     52588 TIP3     10048    TIP3     OH2      OT      -0.834000       15.9994           0
     52589 TIP3     10048    TIP3     H1       HT       0.417000       1.00800           0
     52590 TIP3     10048    TIP3     H2       HT       0.417000       1.00800           0
     52591 TIP3     10049    TIP3     OH2      OT      -0.834000       15.9994           0
     52592 TIP3     10049    TIP3     H1       HT       0.417000       1.00800           0
     52593 TIP3     10049    TIP3     H2       HT       0.417000       1.00800           0
     52594 TIP3     10050    TIP3     OH2      OT      -0.834000       15.9994           0
     52595 TIP3     10050    TIP3     H1       HT       0.417000       1.00800           0
     52596 TIP3     10050    TIP3     H2       HT       0.417000       1.00800           0
     52597 TIP3     10051    TIP3     OH2      OT      -0.834000       15.9994           0
     52598 TIP3     10051    TIP3     H1       HT       0.417000       1.00800           0
     52599 TIP3     10051    TIP3     H2       HT       0.417000       1.00800           0
     52600 TIP3     10052    TIP3     OH2      OT      -0.834000       15.9994           0
     52601 TIP3     10052    TIP3     H1       HT       0.417000       1.00800           0
     52602 TIP3     10052    TIP3     H2       HT       0.417000       1.00800           0
     52603 TIP3     10053    TIP3     OH2      OT      -0.834000       15.9994           0
     52604 TIP3     10053    TIP3     H1       HT       0.417000       1.00800           0
     52605 TIP3     10053    TIP3     H2       HT       0.417000       1.00800           0
     52606 TIP3     10054    TIP3     OH2      OT      -0.834000       15.9994           0
     52607 TIP3     10054    TIP3     H1       HT       0.417000       1.00800           0
     52608 TIP3     10054    TIP3     H2       HT       0.417000       1.00800           0
     52609 TIP3     10055    TIP3     OH2      OT      -0.834000       15.9994           0
     52610 TIP3     10055    TIP3     H1       HT       0.417000       1.00800           0
     52611 TIP3     10055    TIP3     H2       HT       0.417000       1.00800           0
     52612 TIP3     10056    TIP3     OH2      OT      -0.834000       15.9994           0
     52613 TIP3     10056    TIP3     H1       HT       0.417000       1.00800           0
     52614 TIP3     10056    TIP3     H2       HT       0.417000       1.00800           0
     52615 TIP3     10057    TIP3     OH2      OT      -0.834000       15.9994           0
     52616 TIP3     10057    TIP3     H1       HT       0.417000       1.00800           0
     52617 TIP3     10057    TIP3     H2       HT       0.417000       1.00800           0
     52618 TIP3     10058    TIP3     OH2      OT      -0.834000       15.9994           0
     52619 TIP3     10058    TIP3     H1       HT       0.417000       1.00800           0
     52620 TIP3     10058    TIP3     H2       HT       0.417000       1.00800           0
     52621 TIP3     10059    TIP3     OH2      OT      -0.834000       15.9994           0
     52622 TIP3     10059    TIP3     H1       HT       0.417000       1.00800           0
     52623 TIP3     10059    TIP3     H2       HT       0.417000       1.00800           0
     52624 TIP3     10060    TIP3     OH2      OT      -0.834000       15.9994           0
     52625 TIP3     10060    TIP3     H1       HT       0.417000       1.00800           0
     52626 TIP3     10060    TIP3     H2       HT       0.417000       1.00800           0
     52627 TIP3     10061    TIP3     OH2      OT      -0.834000       15.9994           0
     52628 TIP3     10061    TIP3     H1       HT       0.417000       1.00800           0
     52629 TIP3     10061    TIP3     H2       HT       0.417000       1.00800           0
     52630 TIP3     10062    TIP3     OH2      OT      -0.834000       15.9994           0
     52631 TIP3     10062    TIP3     H1       HT       0.417000       1.00800           0
     52632 TIP3     10062    TIP3     H2       HT       0.417000       1.00800           0
     52633 TIP3     10063    TIP3     OH2      OT      -0.834000       15.9994           0
     52634 TIP3     10063    TIP3     H1       HT       0.417000       1.00800           0
     52635 TIP3     10063    TIP3     H2       HT       0.417000       1.00800           0
     52636 TIP3     10064    TIP3     OH2      OT      -0.834000       15.9994           0
     52637 TIP3     10064    TIP3     H1       HT       0.417000       1.00800           0
     52638 TIP3     10064    TIP3     H2       HT       0.417000       1.00800           0
     52639 TIP3     10065    TIP3     OH2      OT      -0.834000       15.9994           0
     52640 TIP3     10065    TIP3     H1       HT       0.417000       1.00800           0
     52641 TIP3     10065    TIP3     H2       HT       0.417000       1.00800           0
     52642 TIP3     10066    TIP3     OH2      OT      -0.834000       15.9994           0
     52643 TIP3     10066    TIP3     H1       HT       0.417000       1.00800           0
     52644 TIP3     10066    TIP3     H2       HT       0.417000       1.00800           0
     52645 TIP3     10067    TIP3     OH2      OT      -0.834000       15.9994           0
     52646 TIP3     10067    TIP3     H1       HT       0.417000       1.00800           0
     52647 TIP3     10067    TIP3     H2       HT       0.417000       1.00800           0
     52648 TIP3     10068    TIP3     OH2      OT      -0.834000       15.9994           0
     52649 TIP3     10068    TIP3     H1       HT       0.417000       1.00800           0
     52650 TIP3     10068    TIP3     H2       HT       0.417000       1.00800           0
     52651 TIP3     10069    TIP3     OH2      OT      -0.834000       15.9994           0
     52652 TIP3     10069    TIP3     H1       HT       0.417000       1.00800           0
     52653 TIP3     10069    TIP3     H2       HT       0.417000       1.00800           0
     52654 TIP3     10070    TIP3     OH2      OT      -0.834000       15.9994           0
     52655 TIP3     10070    TIP3     H1       HT       0.417000       1.00800           0
     52656 TIP3     10070    TIP3     H2       HT       0.417000       1.00800           0
     52657 TIP3     10071    TIP3     OH2      OT      -0.834000       15.9994           0
     52658 TIP3     10071    TIP3     H1       HT       0.417000       1.00800           0
     52659 TIP3     10071    TIP3     H2       HT       0.417000       1.00800           0
     52660 TIP3     10072    TIP3     OH2      OT      -0.834000       15.9994           0
     52661 TIP3     10072    TIP3     H1       HT       0.417000       1.00800           0
     52662 TIP3     10072    TIP3     H2       HT       0.417000       1.00800           0
     52663 TIP3     10073    TIP3     OH2      OT      -0.834000       15.9994           0
     52664 TIP3     10073    TIP3     H1       HT       0.417000       1.00800           0
     52665 TIP3     10073    TIP3     H2       HT       0.417000       1.00800           0
     52666 TIP3     10074    TIP3     OH2      OT      -0.834000       15.9994           0
     52667 TIP3     10074    TIP3     H1       HT       0.417000       1.00800           0
     52668 TIP3     10074    TIP3     H2       HT       0.417000       1.00800           0
     52669 TIP3     10075    TIP3     OH2      OT      -0.834000       15.9994           0
     52670 TIP3     10075    TIP3     H1       HT       0.417000       1.00800           0
     52671 TIP3     10075    TIP3     H2       HT       0.417000       1.00800           0
     52672 TIP3     10076    TIP3     OH2      OT      -0.834000       15.9994           0
     52673 TIP3     10076    TIP3     H1       HT       0.417000       1.00800           0
     52674 TIP3     10076    TIP3     H2       HT       0.417000       1.00800           0
     52675 TIP3     10077    TIP3     OH2      OT      -0.834000       15.9994           0
     52676 TIP3     10077    TIP3     H1       HT       0.417000       1.00800           0
     52677 TIP3     10077    TIP3     H2       HT       0.417000       1.00800           0
     52678 TIP3     10078    TIP3     OH2      OT      -0.834000       15.9994           0
     52679 TIP3     10078    TIP3     H1       HT       0.417000       1.00800           0
     52680 TIP3     10078    TIP3     H2       HT       0.417000       1.00800           0
     52681 TIP3     10079    TIP3     OH2      OT      -0.834000       15.9994           0
     52682 TIP3     10079    TIP3     H1       HT       0.417000       1.00800           0
     52683 TIP3     10079    TIP3     H2       HT       0.417000       1.00800           0
     52684 TIP3     10080    TIP3     OH2      OT      -0.834000       15.9994           0
     52685 TIP3     10080    TIP3     H1       HT       0.417000       1.00800           0
     52686 TIP3     10080    TIP3     H2       HT       0.417000       1.00800           0
     52687 TIP3     10081    TIP3     OH2      OT      -0.834000       15.9994           0
     52688 TIP3     10081    TIP3     H1       HT       0.417000       1.00800           0
     52689 TIP3     10081    TIP3     H2       HT       0.417000       1.00800           0
     52690 TIP3     10082    TIP3     OH2      OT      -0.834000       15.9994           0
     52691 TIP3     10082    TIP3     H1       HT       0.417000       1.00800           0
     52692 TIP3     10082    TIP3     H2       HT       0.417000       1.00800           0
     52693 TIP3     10083    TIP3     OH2      OT      -0.834000       15.9994           0
     52694 TIP3     10083    TIP3     H1       HT       0.417000       1.00800           0
     52695 TIP3     10083    TIP3     H2       HT       0.417000       1.00800           0
     52696 TIP3     10084    TIP3     OH2      OT      -0.834000       15.9994           0
     52697 TIP3     10084    TIP3     H1       HT       0.417000       1.00800           0
     52698 TIP3     10084    TIP3     H2       HT       0.417000       1.00800           0
     52699 TIP3     10085    TIP3     OH2      OT      -0.834000       15.9994           0
     52700 TIP3     10085    TIP3     H1       HT       0.417000       1.00800           0
     52701 TIP3     10085    TIP3     H2       HT       0.417000       1.00800           0
     52702 TIP3     10086    TIP3     OH2      OT      -0.834000       15.9994           0
     52703 TIP3     10086    TIP3     H1       HT       0.417000       1.00800           0
     52704 TIP3     10086    TIP3     H2       HT       0.417000       1.00800           0
     52705 TIP3     10087    TIP3     OH2      OT      -0.834000       15.9994           0
     52706 TIP3     10087    TIP3     H1       HT       0.417000       1.00800           0
     52707 TIP3     10087    TIP3     H2       HT       0.417000       1.00800           0
     52708 TIP3     10088    TIP3     OH2      OT      -0.834000       15.9994           0
     52709 TIP3     10088    TIP3     H1       HT       0.417000       1.00800           0
     52710 TIP3     10088    TIP3     H2       HT       0.417000       1.00800           0
     52711 TIP3     10089    TIP3     OH2      OT      -0.834000       15.9994           0
     52712 TIP3     10089    TIP3     H1       HT       0.417000       1.00800           0
     52713 TIP3     10089    TIP3     H2       HT       0.417000       1.00800           0
     52714 TIP3     10090    TIP3     OH2      OT      -0.834000       15.9994           0
     52715 TIP3     10090    TIP3     H1       HT       0.417000       1.00800           0
     52716 TIP3     10090    TIP3     H2       HT       0.417000       1.00800           0
     52717 TIP3     10091    TIP3     OH2      OT      -0.834000       15.9994           0
     52718 TIP3     10091    TIP3     H1       HT       0.417000       1.00800           0
     52719 TIP3     10091    TIP3     H2       HT       0.417000       1.00800           0
     52720 TIP3     10092    TIP3     OH2      OT      -0.834000       15.9994           0
     52721 TIP3     10092    TIP3     H1       HT       0.417000       1.00800           0
     52722 TIP3     10092    TIP3     H2       HT       0.417000       1.00800           0
     52723 TIP3     10093    TIP3     OH2      OT      -0.834000       15.9994           0
     52724 TIP3     10093    TIP3     H1       HT       0.417000       1.00800           0
     52725 TIP3     10093    TIP3     H2       HT       0.417000       1.00800           0
     52726 TIP3     10094    TIP3     OH2      OT      -0.834000       15.9994           0
     52727 TIP3     10094    TIP3     H1       HT       0.417000       1.00800           0
     52728 TIP3     10094    TIP3     H2       HT       0.417000       1.00800           0
     52729 TIP3     10095    TIP3     OH2      OT      -0.834000       15.9994           0
     52730 TIP3     10095    TIP3     H1       HT       0.417000       1.00800           0
     52731 TIP3     10095    TIP3     H2       HT       0.417000       1.00800           0
     52732 TIP3     10096    TIP3     OH2      OT      -0.834000       15.9994           0
     52733 TIP3     10096    TIP3     H1       HT       0.417000       1.00800           0
     52734 TIP3     10096    TIP3     H2       HT       0.417000       1.00800           0
     52735 TIP3     10097    TIP3     OH2      OT      -0.834000       15.9994           0
     52736 TIP3     10097    TIP3     H1       HT       0.417000       1.00800           0
     52737 TIP3     10097    TIP3     H2       HT       0.417000       1.00800           0
     52738 TIP3     10098    TIP3     OH2      OT      -0.834000       15.9994           0
     52739 TIP3     10098    TIP3     H1       HT       0.417000       1.00800           0
     52740 TIP3     10098    TIP3     H2       HT       0.417000       1.00800           0
     52741 TIP3     10099    TIP3     OH2      OT      -0.834000       15.9994           0
     52742 TIP3     10099    TIP3     H1       HT       0.417000       1.00800           0
     52743 TIP3     10099    TIP3     H2       HT       0.417000       1.00800           0
     52744 TIP3     10100    TIP3     OH2      OT      -0.834000       15.9994           0
     52745 TIP3     10100    TIP3     H1       HT       0.417000       1.00800           0
     52746 TIP3     10100    TIP3     H2       HT       0.417000       1.00800           0
     52747 TIP3     10101    TIP3     OH2      OT      -0.834000       15.9994           0
     52748 TIP3     10101    TIP3     H1       HT       0.417000       1.00800           0
     52749 TIP3     10101    TIP3     H2       HT       0.417000       1.00800           0
     52750 TIP3     10102    TIP3     OH2      OT      -0.834000       15.9994           0
     52751 TIP3     10102    TIP3     H1       HT       0.417000       1.00800           0
     52752 TIP3     10102    TIP3     H2       HT       0.417000       1.00800           0
     52753 TIP3     10103    TIP3     OH2      OT      -0.834000       15.9994           0
     52754 TIP3     10103    TIP3     H1       HT       0.417000       1.00800           0
     52755 TIP3     10103    TIP3     H2       HT       0.417000       1.00800           0
     52756 TIP3     10104    TIP3     OH2      OT      -0.834000       15.9994           0
     52757 TIP3     10104    TIP3     H1       HT       0.417000       1.00800           0
     52758 TIP3     10104    TIP3     H2       HT       0.417000       1.00800           0
     52759 TIP3     10105    TIP3     OH2      OT      -0.834000       15.9994           0
     52760 TIP3     10105    TIP3     H1       HT       0.417000       1.00800           0
     52761 TIP3     10105    TIP3     H2       HT       0.417000       1.00800           0
     52762 TIP3     10106    TIP3     OH2      OT      -0.834000       15.9994           0
     52763 TIP3     10106    TIP3     H1       HT       0.417000       1.00800           0
     52764 TIP3     10106    TIP3     H2       HT       0.417000       1.00800           0
     52765 TIP3     10107    TIP3     OH2      OT      -0.834000       15.9994           0
     52766 TIP3     10107    TIP3     H1       HT       0.417000       1.00800           0
     52767 TIP3     10107    TIP3     H2       HT       0.417000       1.00800           0
     52768 TIP3     10108    TIP3     OH2      OT      -0.834000       15.9994           0
     52769 TIP3     10108    TIP3     H1       HT       0.417000       1.00800           0
     52770 TIP3     10108    TIP3     H2       HT       0.417000       1.00800           0
     52771 TIP3     10109    TIP3     OH2      OT      -0.834000       15.9994           0
     52772 TIP3     10109    TIP3     H1       HT       0.417000       1.00800           0
     52773 TIP3     10109    TIP3     H2       HT       0.417000       1.00800           0
     52774 TIP3     10110    TIP3     OH2      OT      -0.834000       15.9994           0
     52775 TIP3     10110    TIP3     H1       HT       0.417000       1.00800           0
     52776 TIP3     10110    TIP3     H2       HT       0.417000       1.00800           0
     52777 TIP3     10111    TIP3     OH2      OT      -0.834000       15.9994           0
     52778 TIP3     10111    TIP3     H1       HT       0.417000       1.00800           0
     52779 TIP3     10111    TIP3     H2       HT       0.417000       1.00800           0
     52780 TIP3     10112    TIP3     OH2      OT      -0.834000       15.9994           0
     52781 TIP3     10112    TIP3     H1       HT       0.417000       1.00800           0
     52782 TIP3     10112    TIP3     H2       HT       0.417000       1.00800           0
     52783 TIP3     10113    TIP3     OH2      OT      -0.834000       15.9994           0
     52784 TIP3     10113    TIP3     H1       HT       0.417000       1.00800           0
     52785 TIP3     10113    TIP3     H2       HT       0.417000       1.00800           0
     52786 TIP3     10114    TIP3     OH2      OT      -0.834000       15.9994           0
     52787 TIP3     10114    TIP3     H1       HT       0.417000       1.00800           0
     52788 TIP3     10114    TIP3     H2       HT       0.417000       1.00800           0
     52789 TIP3     10115    TIP3     OH2      OT      -0.834000       15.9994           0
     52790 TIP3     10115    TIP3     H1       HT       0.417000       1.00800           0
     52791 TIP3     10115    TIP3     H2       HT       0.417000       1.00800           0
     52792 TIP3     10116    TIP3     OH2      OT      -0.834000       15.9994           0
     52793 TIP3     10116    TIP3     H1       HT       0.417000       1.00800           0
     52794 TIP3     10116    TIP3     H2       HT       0.417000       1.00800           0
     52795 TIP3     10117    TIP3     OH2      OT      -0.834000       15.9994           0
     52796 TIP3     10117    TIP3     H1       HT       0.417000       1.00800           0
     52797 TIP3     10117    TIP3     H2       HT       0.417000       1.00800           0
     52798 TIP3     10118    TIP3     OH2      OT      -0.834000       15.9994           0
     52799 TIP3     10118    TIP3     H1       HT       0.417000       1.00800           0
     52800 TIP3     10118    TIP3     H2       HT       0.417000       1.00800           0
     52801 TIP3     10119    TIP3     OH2      OT      -0.834000       15.9994           0
     52802 TIP3     10119    TIP3     H1       HT       0.417000       1.00800           0
     52803 TIP3     10119    TIP3     H2       HT       0.417000       1.00800           0
     52804 TIP3     10120    TIP3     OH2      OT      -0.834000       15.9994           0
     52805 TIP3     10120    TIP3     H1       HT       0.417000       1.00800           0
     52806 TIP3     10120    TIP3     H2       HT       0.417000       1.00800           0
     52807 TIP3     10121    TIP3     OH2      OT      -0.834000       15.9994           0
     52808 TIP3     10121    TIP3     H1       HT       0.417000       1.00800           0
     52809 TIP3     10121    TIP3     H2       HT       0.417000       1.00800           0
     52810 TIP3     10122    TIP3     OH2      OT      -0.834000       15.9994           0
     52811 TIP3     10122    TIP3     H1       HT       0.417000       1.00800           0
     52812 TIP3     10122    TIP3     H2       HT       0.417000       1.00800           0
     52813 TIP3     10123    TIP3     OH2      OT      -0.834000       15.9994           0
     52814 TIP3     10123    TIP3     H1       HT       0.417000       1.00800           0
     52815 TIP3     10123    TIP3     H2       HT       0.417000       1.00800           0
     52816 TIP3     10124    TIP3     OH2      OT      -0.834000       15.9994           0
     52817 TIP3     10124    TIP3     H1       HT       0.417000       1.00800           0
     52818 TIP3     10124    TIP3     H2       HT       0.417000       1.00800           0
     52819 TIP3     10125    TIP3     OH2      OT      -0.834000       15.9994           0
     52820 TIP3     10125    TIP3     H1       HT       0.417000       1.00800           0
     52821 TIP3     10125    TIP3     H2       HT       0.417000       1.00800           0
     52822 TIP3     10126    TIP3     OH2      OT      -0.834000       15.9994           0
     52823 TIP3     10126    TIP3     H1       HT       0.417000       1.00800           0
     52824 TIP3     10126    TIP3     H2       HT       0.417000       1.00800           0
     52825 TIP3     10127    TIP3     OH2      OT      -0.834000       15.9994           0
     52826 TIP3     10127    TIP3     H1       HT       0.417000       1.00800           0
     52827 TIP3     10127    TIP3     H2       HT       0.417000       1.00800           0
     52828 TIP3     10128    TIP3     OH2      OT      -0.834000       15.9994           0
     52829 TIP3     10128    TIP3     H1       HT       0.417000       1.00800           0
     52830 TIP3     10128    TIP3     H2       HT       0.417000       1.00800           0
     52831 TIP3     10129    TIP3     OH2      OT      -0.834000       15.9994           0
     52832 TIP3     10129    TIP3     H1       HT       0.417000       1.00800           0
     52833 TIP3     10129    TIP3     H2       HT       0.417000       1.00800           0
     52834 TIP3     10130    TIP3     OH2      OT      -0.834000       15.9994           0
     52835 TIP3     10130    TIP3     H1       HT       0.417000       1.00800           0
     52836 TIP3     10130    TIP3     H2       HT       0.417000       1.00800           0
     52837 TIP3     10131    TIP3     OH2      OT      -0.834000       15.9994           0
     52838 TIP3     10131    TIP3     H1       HT       0.417000       1.00800           0
     52839 TIP3     10131    TIP3     H2       HT       0.417000       1.00800           0
     52840 TIP3     10132    TIP3     OH2      OT      -0.834000       15.9994           0
     52841 TIP3     10132    TIP3     H1       HT       0.417000       1.00800           0
     52842 TIP3     10132    TIP3     H2       HT       0.417000       1.00800           0
     52843 TIP3     10133    TIP3     OH2      OT      -0.834000       15.9994           0
     52844 TIP3     10133    TIP3     H1       HT       0.417000       1.00800           0
     52845 TIP3     10133    TIP3     H2       HT       0.417000       1.00800           0
     52846 TIP3     10134    TIP3     OH2      OT      -0.834000       15.9994           0
     52847 TIP3     10134    TIP3     H1       HT       0.417000       1.00800           0
     52848 TIP3     10134    TIP3     H2       HT       0.417000       1.00800           0
     52849 TIP3     10135    TIP3     OH2      OT      -0.834000       15.9994           0
     52850 TIP3     10135    TIP3     H1       HT       0.417000       1.00800           0
     52851 TIP3     10135    TIP3     H2       HT       0.417000       1.00800           0
     52852 TIP3     10136    TIP3     OH2      OT      -0.834000       15.9994           0
     52853 TIP3     10136    TIP3     H1       HT       0.417000       1.00800           0
     52854 TIP3     10136    TIP3     H2       HT       0.417000       1.00800           0
     52855 TIP3     10137    TIP3     OH2      OT      -0.834000       15.9994           0
     52856 TIP3     10137    TIP3     H1       HT       0.417000       1.00800           0
     52857 TIP3     10137    TIP3     H2       HT       0.417000       1.00800           0
     52858 TIP3     10138    TIP3     OH2      OT      -0.834000       15.9994           0
     52859 TIP3     10138    TIP3     H1       HT       0.417000       1.00800           0
     52860 TIP3     10138    TIP3     H2       HT       0.417000       1.00800           0
     52861 TIP3     10139    TIP3     OH2      OT      -0.834000       15.9994           0
     52862 TIP3     10139    TIP3     H1       HT       0.417000       1.00800           0
     52863 TIP3     10139    TIP3     H2       HT       0.417000       1.00800           0
     52864 TIP3     10140    TIP3     OH2      OT      -0.834000       15.9994           0
     52865 TIP3     10140    TIP3     H1       HT       0.417000       1.00800           0
     52866 TIP3     10140    TIP3     H2       HT       0.417000       1.00800           0
     52867 TIP3     10141    TIP3     OH2      OT      -0.834000       15.9994           0
     52868 TIP3     10141    TIP3     H1       HT       0.417000       1.00800           0
     52869 TIP3     10141    TIP3     H2       HT       0.417000       1.00800           0
     52870 TIP3     10142    TIP3     OH2      OT      -0.834000       15.9994           0
     52871 TIP3     10142    TIP3     H1       HT       0.417000       1.00800           0
     52872 TIP3     10142    TIP3     H2       HT       0.417000       1.00800           0
     52873 TIP3     10143    TIP3     OH2      OT      -0.834000       15.9994           0
     52874 TIP3     10143    TIP3     H1       HT       0.417000       1.00800           0
     52875 TIP3     10143    TIP3     H2       HT       0.417000       1.00800           0
     52876 TIP3     10144    TIP3     OH2      OT      -0.834000       15.9994           0
     52877 TIP3     10144    TIP3     H1       HT       0.417000       1.00800           0
     52878 TIP3     10144    TIP3     H2       HT       0.417000       1.00800           0
     52879 TIP3     10145    TIP3     OH2      OT      -0.834000       15.9994           0
     52880 TIP3     10145    TIP3     H1       HT       0.417000       1.00800           0
     52881 TIP3     10145    TIP3     H2       HT       0.417000       1.00800           0
     52882 TIP3     10146    TIP3     OH2      OT      -0.834000       15.9994           0
     52883 TIP3     10146    TIP3     H1       HT       0.417000       1.00800           0
     52884 TIP3     10146    TIP3     H2       HT       0.417000       1.00800           0
     52885 TIP3     10147    TIP3     OH2      OT      -0.834000       15.9994           0
     52886 TIP3     10147    TIP3     H1       HT       0.417000       1.00800           0
     52887 TIP3     10147    TIP3     H2       HT       0.417000       1.00800           0
     52888 TIP3     10148    TIP3     OH2      OT      -0.834000       15.9994           0
     52889 TIP3     10148    TIP3     H1       HT       0.417000       1.00800           0
     52890 TIP3     10148    TIP3     H2       HT       0.417000       1.00800           0
     52891 TIP3     10149    TIP3     OH2      OT      -0.834000       15.9994           0
     52892 TIP3     10149    TIP3     H1       HT       0.417000       1.00800           0
     52893 TIP3     10149    TIP3     H2       HT       0.417000       1.00800           0
     52894 TIP3     10150    TIP3     OH2      OT      -0.834000       15.9994           0
     52895 TIP3     10150    TIP3     H1       HT       0.417000       1.00800           0
     52896 TIP3     10150    TIP3     H2       HT       0.417000       1.00800           0
     52897 TIP3     10151    TIP3     OH2      OT      -0.834000       15.9994           0
     52898 TIP3     10151    TIP3     H1       HT       0.417000       1.00800           0
     52899 TIP3     10151    TIP3     H2       HT       0.417000       1.00800           0
     52900 TIP3     10152    TIP3     OH2      OT      -0.834000       15.9994           0
     52901 TIP3     10152    TIP3     H1       HT       0.417000       1.00800           0
     52902 TIP3     10152    TIP3     H2       HT       0.417000       1.00800           0
     52903 TIP3     10153    TIP3     OH2      OT      -0.834000       15.9994           0
     52904 TIP3     10153    TIP3     H1       HT       0.417000       1.00800           0
     52905 TIP3     10153    TIP3     H2       HT       0.417000       1.00800           0
     52906 TIP3     10154    TIP3     OH2      OT      -0.834000       15.9994           0
     52907 TIP3     10154    TIP3     H1       HT       0.417000       1.00800           0
     52908 TIP3     10154    TIP3     H2       HT       0.417000       1.00800           0
     52909 TIP3     10155    TIP3     OH2      OT      -0.834000       15.9994           0
     52910 TIP3     10155    TIP3     H1       HT       0.417000       1.00800           0
     52911 TIP3     10155    TIP3     H2       HT       0.417000       1.00800           0
     52912 TIP3     10156    TIP3     OH2      OT      -0.834000       15.9994           0
     52913 TIP3     10156    TIP3     H1       HT       0.417000       1.00800           0
     52914 TIP3     10156    TIP3     H2       HT       0.417000       1.00800           0
     52915 TIP3     10157    TIP3     OH2      OT      -0.834000       15.9994           0
     52916 TIP3     10157    TIP3     H1       HT       0.417000       1.00800           0
     52917 TIP3     10157    TIP3     H2       HT       0.417000       1.00800           0
     52918 TIP3     10158    TIP3     OH2      OT      -0.834000       15.9994           0
     52919 TIP3     10158    TIP3     H1       HT       0.417000       1.00800           0
     52920 TIP3     10158    TIP3     H2       HT       0.417000       1.00800           0
     52921 TIP3     10159    TIP3     OH2      OT      -0.834000       15.9994           0
     52922 TIP3     10159    TIP3     H1       HT       0.417000       1.00800           0
     52923 TIP3     10159    TIP3     H2       HT       0.417000       1.00800           0
     52924 TIP3     10160    TIP3     OH2      OT      -0.834000       15.9994           0
     52925 TIP3     10160    TIP3     H1       HT       0.417000       1.00800           0
     52926 TIP3     10160    TIP3     H2       HT       0.417000       1.00800           0
     52927 TIP3     10161    TIP3     OH2      OT      -0.834000       15.9994           0
     52928 TIP3     10161    TIP3     H1       HT       0.417000       1.00800           0
     52929 TIP3     10161    TIP3     H2       HT       0.417000       1.00800           0
     52930 TIP3     10162    TIP3     OH2      OT      -0.834000       15.9994           0
     52931 TIP3     10162    TIP3     H1       HT       0.417000       1.00800           0
     52932 TIP3     10162    TIP3     H2       HT       0.417000       1.00800           0
     52933 TIP3     10163    TIP3     OH2      OT      -0.834000       15.9994           0
     52934 TIP3     10163    TIP3     H1       HT       0.417000       1.00800           0
     52935 TIP3     10163    TIP3     H2       HT       0.417000       1.00800           0
     52936 TIP3     10164    TIP3     OH2      OT      -0.834000       15.9994           0
     52937 TIP3     10164    TIP3     H1       HT       0.417000       1.00800           0
     52938 TIP3     10164    TIP3     H2       HT       0.417000       1.00800           0
     52939 TIP3     10165    TIP3     OH2      OT      -0.834000       15.9994           0
     52940 TIP3     10165    TIP3     H1       HT       0.417000       1.00800           0
     52941 TIP3     10165    TIP3     H2       HT       0.417000       1.00800           0
     52942 TIP3     10166    TIP3     OH2      OT      -0.834000       15.9994           0
     52943 TIP3     10166    TIP3     H1       HT       0.417000       1.00800           0
     52944 TIP3     10166    TIP3     H2       HT       0.417000       1.00800           0
     52945 TIP3     10167    TIP3     OH2      OT      -0.834000       15.9994           0
     52946 TIP3     10167    TIP3     H1       HT       0.417000       1.00800           0
     52947 TIP3     10167    TIP3     H2       HT       0.417000       1.00800           0
     52948 TIP3     10168    TIP3     OH2      OT      -0.834000       15.9994           0
     52949 TIP3     10168    TIP3     H1       HT       0.417000       1.00800           0
     52950 TIP3     10168    TIP3     H2       HT       0.417000       1.00800           0
     52951 TIP3     10169    TIP3     OH2      OT      -0.834000       15.9994           0
     52952 TIP3     10169    TIP3     H1       HT       0.417000       1.00800           0
     52953 TIP3     10169    TIP3     H2       HT       0.417000       1.00800           0
     52954 TIP3     10170    TIP3     OH2      OT      -0.834000       15.9994           0
     52955 TIP3     10170    TIP3     H1       HT       0.417000       1.00800           0
     52956 TIP3     10170    TIP3     H2       HT       0.417000       1.00800           0
     52957 TIP3     10171    TIP3     OH2      OT      -0.834000       15.9994           0
     52958 TIP3     10171    TIP3     H1       HT       0.417000       1.00800           0
     52959 TIP3     10171    TIP3     H2       HT       0.417000       1.00800           0
     52960 TIP3     10172    TIP3     OH2      OT      -0.834000       15.9994           0
     52961 TIP3     10172    TIP3     H1       HT       0.417000       1.00800           0
     52962 TIP3     10172    TIP3     H2       HT       0.417000       1.00800           0
     52963 TIP3     10173    TIP3     OH2      OT      -0.834000       15.9994           0
     52964 TIP3     10173    TIP3     H1       HT       0.417000       1.00800           0
     52965 TIP3     10173    TIP3     H2       HT       0.417000       1.00800           0
     52966 TIP3     10174    TIP3     OH2      OT      -0.834000       15.9994           0
     52967 TIP3     10174    TIP3     H1       HT       0.417000       1.00800           0
     52968 TIP3     10174    TIP3     H2       HT       0.417000       1.00800           0
     52969 TIP3     10175    TIP3     OH2      OT      -0.834000       15.9994           0
     52970 TIP3     10175    TIP3     H1       HT       0.417000       1.00800           0
     52971 TIP3     10175    TIP3     H2       HT       0.417000       1.00800           0
     52972 TIP3     10176    TIP3     OH2      OT      -0.834000       15.9994           0
     52973 TIP3     10176    TIP3     H1       HT       0.417000       1.00800           0
     52974 TIP3     10176    TIP3     H2       HT       0.417000       1.00800           0
     52975 TIP3     10177    TIP3     OH2      OT      -0.834000       15.9994           0
     52976 TIP3     10177    TIP3     H1       HT       0.417000       1.00800           0
     52977 TIP3     10177    TIP3     H2       HT       0.417000       1.00800           0
     52978 TIP3     10178    TIP3     OH2      OT      -0.834000       15.9994           0
     52979 TIP3     10178    TIP3     H1       HT       0.417000       1.00800           0
     52980 TIP3     10178    TIP3     H2       HT       0.417000       1.00800           0
     52981 TIP3     10179    TIP3     OH2      OT      -0.834000       15.9994           0
     52982 TIP3     10179    TIP3     H1       HT       0.417000       1.00800           0
     52983 TIP3     10179    TIP3     H2       HT       0.417000       1.00800           0
     52984 TIP3     10180    TIP3     OH2      OT      -0.834000       15.9994           0
     52985 TIP3     10180    TIP3     H1       HT       0.417000       1.00800           0
     52986 TIP3     10180    TIP3     H2       HT       0.417000       1.00800           0
     52987 TIP3     10181    TIP3     OH2      OT      -0.834000       15.9994           0
     52988 TIP3     10181    TIP3     H1       HT       0.417000       1.00800           0
     52989 TIP3     10181    TIP3     H2       HT       0.417000       1.00800           0
     52990 TIP3     10182    TIP3     OH2      OT      -0.834000       15.9994           0
     52991 TIP3     10182    TIP3     H1       HT       0.417000       1.00800           0
     52992 TIP3     10182    TIP3     H2       HT       0.417000       1.00800           0
     52993 TIP3     10183    TIP3     OH2      OT      -0.834000       15.9994           0
     52994 TIP3     10183    TIP3     H1       HT       0.417000       1.00800           0
     52995 TIP3     10183    TIP3     H2       HT       0.417000       1.00800           0
     52996 TIP3     10184    TIP3     OH2      OT      -0.834000       15.9994           0
     52997 TIP3     10184    TIP3     H1       HT       0.417000       1.00800           0
     52998 TIP3     10184    TIP3     H2       HT       0.417000       1.00800           0
     52999 TIP3     10185    TIP3     OH2      OT      -0.834000       15.9994           0
     53000 TIP3     10185    TIP3     H1       HT       0.417000       1.00800           0
     53001 TIP3     10185    TIP3     H2       HT       0.417000       1.00800           0
     53002 TIP3     10186    TIP3     OH2      OT      -0.834000       15.9994           0
     53003 TIP3     10186    TIP3     H1       HT       0.417000       1.00800           0
     53004 TIP3     10186    TIP3     H2       HT       0.417000       1.00800           0
     53005 TIP3     10187    TIP3     OH2      OT      -0.834000       15.9994           0
     53006 TIP3     10187    TIP3     H1       HT       0.417000       1.00800           0
     53007 TIP3     10187    TIP3     H2       HT       0.417000       1.00800           0
     53008 TIP3     10188    TIP3     OH2      OT      -0.834000       15.9994           0
     53009 TIP3     10188    TIP3     H1       HT       0.417000       1.00800           0
     53010 TIP3     10188    TIP3     H2       HT       0.417000       1.00800           0
     53011 TIP3     10189    TIP3     OH2      OT      -0.834000       15.9994           0
     53012 TIP3     10189    TIP3     H1       HT       0.417000       1.00800           0
     53013 TIP3     10189    TIP3     H2       HT       0.417000       1.00800           0
     53014 TIP3     10190    TIP3     OH2      OT      -0.834000       15.9994           0
     53015 TIP3     10190    TIP3     H1       HT       0.417000       1.00800           0
     53016 TIP3     10190    TIP3     H2       HT       0.417000       1.00800           0
     53017 TIP3     10191    TIP3     OH2      OT      -0.834000       15.9994           0
     53018 TIP3     10191    TIP3     H1       HT       0.417000       1.00800           0
     53019 TIP3     10191    TIP3     H2       HT       0.417000       1.00800           0
     53020 TIP3     10192    TIP3     OH2      OT      -0.834000       15.9994           0
     53021 TIP3     10192    TIP3     H1       HT       0.417000       1.00800           0
     53022 TIP3     10192    TIP3     H2       HT       0.417000       1.00800           0
     53023 TIP3     10193    TIP3     OH2      OT      -0.834000       15.9994           0
     53024 TIP3     10193    TIP3     H1       HT       0.417000       1.00800           0
     53025 TIP3     10193    TIP3     H2       HT       0.417000       1.00800           0
     53026 TIP3     10194    TIP3     OH2      OT      -0.834000       15.9994           0
     53027 TIP3     10194    TIP3     H1       HT       0.417000       1.00800           0
     53028 TIP3     10194    TIP3     H2       HT       0.417000       1.00800           0
     53029 TIP3     10195    TIP3     OH2      OT      -0.834000       15.9994           0
     53030 TIP3     10195    TIP3     H1       HT       0.417000       1.00800           0
     53031 TIP3     10195    TIP3     H2       HT       0.417000       1.00800           0
     53032 TIP3     10196    TIP3     OH2      OT      -0.834000       15.9994           0
     53033 TIP3     10196    TIP3     H1       HT       0.417000       1.00800           0
     53034 TIP3     10196    TIP3     H2       HT       0.417000       1.00800           0
     53035 TIP3     10197    TIP3     OH2      OT      -0.834000       15.9994           0
     53036 TIP3     10197    TIP3     H1       HT       0.417000       1.00800           0
     53037 TIP3     10197    TIP3     H2       HT       0.417000       1.00800           0
     53038 TIP3     10198    TIP3     OH2      OT      -0.834000       15.9994           0
     53039 TIP3     10198    TIP3     H1       HT       0.417000       1.00800           0
     53040 TIP3     10198    TIP3     H2       HT       0.417000       1.00800           0
     53041 TIP3     10199    TIP3     OH2      OT      -0.834000       15.9994           0
     53042 TIP3     10199    TIP3     H1       HT       0.417000       1.00800           0
     53043 TIP3     10199    TIP3     H2       HT       0.417000       1.00800           0
     53044 TIP3     10200    TIP3     OH2      OT      -0.834000       15.9994           0
     53045 TIP3     10200    TIP3     H1       HT       0.417000       1.00800           0
     53046 TIP3     10200    TIP3     H2       HT       0.417000       1.00800           0
     53047 TIP3     10201    TIP3     OH2      OT      -0.834000       15.9994           0
     53048 TIP3     10201    TIP3     H1       HT       0.417000       1.00800           0
     53049 TIP3     10201    TIP3     H2       HT       0.417000       1.00800           0
     53050 TIP3     10202    TIP3     OH2      OT      -0.834000       15.9994           0
     53051 TIP3     10202    TIP3     H1       HT       0.417000       1.00800           0
     53052 TIP3     10202    TIP3     H2       HT       0.417000       1.00800           0
     53053 TIP3     10203    TIP3     OH2      OT      -0.834000       15.9994           0
     53054 TIP3     10203    TIP3     H1       HT       0.417000       1.00800           0
     53055 TIP3     10203    TIP3     H2       HT       0.417000       1.00800           0
     53056 TIP3     10204    TIP3     OH2      OT      -0.834000       15.9994           0
     53057 TIP3     10204    TIP3     H1       HT       0.417000       1.00800           0
     53058 TIP3     10204    TIP3     H2       HT       0.417000       1.00800           0
     53059 TIP3     10205    TIP3     OH2      OT      -0.834000       15.9994           0
     53060 TIP3     10205    TIP3     H1       HT       0.417000       1.00800           0
     53061 TIP3     10205    TIP3     H2       HT       0.417000       1.00800           0
     53062 TIP3     10206    TIP3     OH2      OT      -0.834000       15.9994           0
     53063 TIP3     10206    TIP3     H1       HT       0.417000       1.00800           0
     53064 TIP3     10206    TIP3     H2       HT       0.417000       1.00800           0
     53065 TIP3     10207    TIP3     OH2      OT      -0.834000       15.9994           0
     53066 TIP3     10207    TIP3     H1       HT       0.417000       1.00800           0
     53067 TIP3     10207    TIP3     H2       HT       0.417000       1.00800           0
     53068 TIP3     10208    TIP3     OH2      OT      -0.834000       15.9994           0
     53069 TIP3     10208    TIP3     H1       HT       0.417000       1.00800           0
     53070 TIP3     10208    TIP3     H2       HT       0.417000       1.00800           0
     53071 TIP3     10209    TIP3     OH2      OT      -0.834000       15.9994           0
     53072 TIP3     10209    TIP3     H1       HT       0.417000       1.00800           0
     53073 TIP3     10209    TIP3     H2       HT       0.417000       1.00800           0
     53074 TIP3     10210    TIP3     OH2      OT      -0.834000       15.9994           0
     53075 TIP3     10210    TIP3     H1       HT       0.417000       1.00800           0
     53076 TIP3     10210    TIP3     H2       HT       0.417000       1.00800           0
     53077 TIP3     10211    TIP3     OH2      OT      -0.834000       15.9994           0
     53078 TIP3     10211    TIP3     H1       HT       0.417000       1.00800           0
     53079 TIP3     10211    TIP3     H2       HT       0.417000       1.00800           0
     53080 TIP3     10212    TIP3     OH2      OT      -0.834000       15.9994           0
     53081 TIP3     10212    TIP3     H1       HT       0.417000       1.00800           0
     53082 TIP3     10212    TIP3     H2       HT       0.417000       1.00800           0
     53083 TIP3     10213    TIP3     OH2      OT      -0.834000       15.9994           0
     53084 TIP3     10213    TIP3     H1       HT       0.417000       1.00800           0
     53085 TIP3     10213    TIP3     H2       HT       0.417000       1.00800           0
     53086 TIP3     10214    TIP3     OH2      OT      -0.834000       15.9994           0
     53087 TIP3     10214    TIP3     H1       HT       0.417000       1.00800           0
     53088 TIP3     10214    TIP3     H2       HT       0.417000       1.00800           0
     53089 TIP3     10215    TIP3     OH2      OT      -0.834000       15.9994           0
     53090 TIP3     10215    TIP3     H1       HT       0.417000       1.00800           0
     53091 TIP3     10215    TIP3     H2       HT       0.417000       1.00800           0
     53092 TIP3     10216    TIP3     OH2      OT      -0.834000       15.9994           0
     53093 TIP3     10216    TIP3     H1       HT       0.417000       1.00800           0
     53094 TIP3     10216    TIP3     H2       HT       0.417000       1.00800           0
     53095 TIP3     10217    TIP3     OH2      OT      -0.834000       15.9994           0
     53096 TIP3     10217    TIP3     H1       HT       0.417000       1.00800           0
     53097 TIP3     10217    TIP3     H2       HT       0.417000       1.00800           0
     53098 TIP3     10218    TIP3     OH2      OT      -0.834000       15.9994           0
     53099 TIP3     10218    TIP3     H1       HT       0.417000       1.00800           0
     53100 TIP3     10218    TIP3     H2       HT       0.417000       1.00800           0
     53101 TIP3     10219    TIP3     OH2      OT      -0.834000       15.9994           0
     53102 TIP3     10219    TIP3     H1       HT       0.417000       1.00800           0
     53103 TIP3     10219    TIP3     H2       HT       0.417000       1.00800           0
     53104 TIP3     10220    TIP3     OH2      OT      -0.834000       15.9994           0
     53105 TIP3     10220    TIP3     H1       HT       0.417000       1.00800           0
     53106 TIP3     10220    TIP3     H2       HT       0.417000       1.00800           0
     53107 TIP3     10221    TIP3     OH2      OT      -0.834000       15.9994           0
     53108 TIP3     10221    TIP3     H1       HT       0.417000       1.00800           0
     53109 TIP3     10221    TIP3     H2       HT       0.417000       1.00800           0
     53110 TIP3     10222    TIP3     OH2      OT      -0.834000       15.9994           0
     53111 TIP3     10222    TIP3     H1       HT       0.417000       1.00800           0
     53112 TIP3     10222    TIP3     H2       HT       0.417000       1.00800           0
     53113 TIP3     10223    TIP3     OH2      OT      -0.834000       15.9994           0
     53114 TIP3     10223    TIP3     H1       HT       0.417000       1.00800           0
     53115 TIP3     10223    TIP3     H2       HT       0.417000       1.00800           0
     53116 TIP3     10224    TIP3     OH2      OT      -0.834000       15.9994           0
     53117 TIP3     10224    TIP3     H1       HT       0.417000       1.00800           0
     53118 TIP3     10224    TIP3     H2       HT       0.417000       1.00800           0
     53119 TIP3     10225    TIP3     OH2      OT      -0.834000       15.9994           0
     53120 TIP3     10225    TIP3     H1       HT       0.417000       1.00800           0
     53121 TIP3     10225    TIP3     H2       HT       0.417000       1.00800           0
     53122 TIP3     10226    TIP3     OH2      OT      -0.834000       15.9994           0
     53123 TIP3     10226    TIP3     H1       HT       0.417000       1.00800           0
     53124 TIP3     10226    TIP3     H2       HT       0.417000       1.00800           0
     53125 TIP3     10227    TIP3     OH2      OT      -0.834000       15.9994           0
     53126 TIP3     10227    TIP3     H1       HT       0.417000       1.00800           0
     53127 TIP3     10227    TIP3     H2       HT       0.417000       1.00800           0
     53128 TIP3     10228    TIP3     OH2      OT      -0.834000       15.9994           0
     53129 TIP3     10228    TIP3     H1       HT       0.417000       1.00800           0
     53130 TIP3     10228    TIP3     H2       HT       0.417000       1.00800           0
     53131 TIP3     10229    TIP3     OH2      OT      -0.834000       15.9994           0
     53132 TIP3     10229    TIP3     H1       HT       0.417000       1.00800           0
     53133 TIP3     10229    TIP3     H2       HT       0.417000       1.00800           0
     53134 TIP3     10230    TIP3     OH2      OT      -0.834000       15.9994           0
     53135 TIP3     10230    TIP3     H1       HT       0.417000       1.00800           0
     53136 TIP3     10230    TIP3     H2       HT       0.417000       1.00800           0
     53137 TIP3     10231    TIP3     OH2      OT      -0.834000       15.9994           0
     53138 TIP3     10231    TIP3     H1       HT       0.417000       1.00800           0
     53139 TIP3     10231    TIP3     H2       HT       0.417000       1.00800           0
     53140 TIP3     10232    TIP3     OH2      OT      -0.834000       15.9994           0
     53141 TIP3     10232    TIP3     H1       HT       0.417000       1.00800           0
     53142 TIP3     10232    TIP3     H2       HT       0.417000       1.00800           0
     53143 TIP3     10233    TIP3     OH2      OT      -0.834000       15.9994           0
     53144 TIP3     10233    TIP3     H1       HT       0.417000       1.00800           0
     53145 TIP3     10233    TIP3     H2       HT       0.417000       1.00800           0
     53146 TIP3     10234    TIP3     OH2      OT      -0.834000       15.9994           0
     53147 TIP3     10234    TIP3     H1       HT       0.417000       1.00800           0
     53148 TIP3     10234    TIP3     H2       HT       0.417000       1.00800           0
     53149 TIP3     10235    TIP3     OH2      OT      -0.834000       15.9994           0
     53150 TIP3     10235    TIP3     H1       HT       0.417000       1.00800           0
     53151 TIP3     10235    TIP3     H2       HT       0.417000       1.00800           0
     53152 TIP3     10236    TIP3     OH2      OT      -0.834000       15.9994           0
     53153 TIP3     10236    TIP3     H1       HT       0.417000       1.00800           0
     53154 TIP3     10236    TIP3     H2       HT       0.417000       1.00800           0
     53155 TIP3     10237    TIP3     OH2      OT      -0.834000       15.9994           0
     53156 TIP3     10237    TIP3     H1       HT       0.417000       1.00800           0
     53157 TIP3     10237    TIP3     H2       HT       0.417000       1.00800           0
     53158 TIP3     10238    TIP3     OH2      OT      -0.834000       15.9994           0
     53159 TIP3     10238    TIP3     H1       HT       0.417000       1.00800           0
     53160 TIP3     10238    TIP3     H2       HT       0.417000       1.00800           0
     53161 TIP3     10239    TIP3     OH2      OT      -0.834000       15.9994           0
     53162 TIP3     10239    TIP3     H1       HT       0.417000       1.00800           0
     53163 TIP3     10239    TIP3     H2       HT       0.417000       1.00800           0
     53164 TIP3     10240    TIP3     OH2      OT      -0.834000       15.9994           0
     53165 TIP3     10240    TIP3     H1       HT       0.417000       1.00800           0
     53166 TIP3     10240    TIP3     H2       HT       0.417000       1.00800           0
     53167 TIP3     10241    TIP3     OH2      OT      -0.834000       15.9994           0
     53168 TIP3     10241    TIP3     H1       HT       0.417000       1.00800           0
     53169 TIP3     10241    TIP3     H2       HT       0.417000       1.00800           0
     53170 TIP3     10242    TIP3     OH2      OT      -0.834000       15.9994           0
     53171 TIP3     10242    TIP3     H1       HT       0.417000       1.00800           0
     53172 TIP3     10242    TIP3     H2       HT       0.417000       1.00800           0
     53173 TIP3     10243    TIP3     OH2      OT      -0.834000       15.9994           0
     53174 TIP3     10243    TIP3     H1       HT       0.417000       1.00800           0
     53175 TIP3     10243    TIP3     H2       HT       0.417000       1.00800           0
     53176 TIP3     10244    TIP3     OH2      OT      -0.834000       15.9994           0
     53177 TIP3     10244    TIP3     H1       HT       0.417000       1.00800           0
     53178 TIP3     10244    TIP3     H2       HT       0.417000       1.00800           0
     53179 TIP3     10245    TIP3     OH2      OT      -0.834000       15.9994           0
     53180 TIP3     10245    TIP3     H1       HT       0.417000       1.00800           0
     53181 TIP3     10245    TIP3     H2       HT       0.417000       1.00800           0
     53182 TIP3     10246    TIP3     OH2      OT      -0.834000       15.9994           0
     53183 TIP3     10246    TIP3     H1       HT       0.417000       1.00800           0
     53184 TIP3     10246    TIP3     H2       HT       0.417000       1.00800           0
     53185 TIP3     10247    TIP3     OH2      OT      -0.834000       15.9994           0
     53186 TIP3     10247    TIP3     H1       HT       0.417000       1.00800           0
     53187 TIP3     10247    TIP3     H2       HT       0.417000       1.00800           0
     53188 TIP3     10248    TIP3     OH2      OT      -0.834000       15.9994           0
     53189 TIP3     10248    TIP3     H1       HT       0.417000       1.00800           0
     53190 TIP3     10248    TIP3     H2       HT       0.417000       1.00800           0
     53191 TIP3     10249    TIP3     OH2      OT      -0.834000       15.9994           0
     53192 TIP3     10249    TIP3     H1       HT       0.417000       1.00800           0
     53193 TIP3     10249    TIP3     H2       HT       0.417000       1.00800           0
     53194 TIP3     10250    TIP3     OH2      OT      -0.834000       15.9994           0
     53195 TIP3     10250    TIP3     H1       HT       0.417000       1.00800           0
     53196 TIP3     10250    TIP3     H2       HT       0.417000       1.00800           0
     53197 TIP3     10251    TIP3     OH2      OT      -0.834000       15.9994           0
     53198 TIP3     10251    TIP3     H1       HT       0.417000       1.00800           0
     53199 TIP3     10251    TIP3     H2       HT       0.417000       1.00800           0
     53200 TIP3     10252    TIP3     OH2      OT      -0.834000       15.9994           0
     53201 TIP3     10252    TIP3     H1       HT       0.417000       1.00800           0
     53202 TIP3     10252    TIP3     H2       HT       0.417000       1.00800           0
     53203 TIP3     10253    TIP3     OH2      OT      -0.834000       15.9994           0
     53204 TIP3     10253    TIP3     H1       HT       0.417000       1.00800           0
     53205 TIP3     10253    TIP3     H2       HT       0.417000       1.00800           0
     53206 TIP3     10254    TIP3     OH2      OT      -0.834000       15.9994           0
     53207 TIP3     10254    TIP3     H1       HT       0.417000       1.00800           0
     53208 TIP3     10254    TIP3     H2       HT       0.417000       1.00800           0
     53209 TIP3     10255    TIP3     OH2      OT      -0.834000       15.9994           0
     53210 TIP3     10255    TIP3     H1       HT       0.417000       1.00800           0
     53211 TIP3     10255    TIP3     H2       HT       0.417000       1.00800           0
     53212 TIP3     10256    TIP3     OH2      OT      -0.834000       15.9994           0
     53213 TIP3     10256    TIP3     H1       HT       0.417000       1.00800           0
     53214 TIP3     10256    TIP3     H2       HT       0.417000       1.00800           0
     53215 TIP3     10257    TIP3     OH2      OT      -0.834000       15.9994           0
     53216 TIP3     10257    TIP3     H1       HT       0.417000       1.00800           0
     53217 TIP3     10257    TIP3     H2       HT       0.417000       1.00800           0
     53218 TIP3     10258    TIP3     OH2      OT      -0.834000       15.9994           0
     53219 TIP3     10258    TIP3     H1       HT       0.417000       1.00800           0
     53220 TIP3     10258    TIP3     H2       HT       0.417000       1.00800           0
     53221 TIP3     10259    TIP3     OH2      OT      -0.834000       15.9994           0
     53222 TIP3     10259    TIP3     H1       HT       0.417000       1.00800           0
     53223 TIP3     10259    TIP3     H2       HT       0.417000       1.00800           0
     53224 TIP3     10260    TIP3     OH2      OT      -0.834000       15.9994           0
     53225 TIP3     10260    TIP3     H1       HT       0.417000       1.00800           0
     53226 TIP3     10260    TIP3     H2       HT       0.417000       1.00800           0
     53227 TIP3     10261    TIP3     OH2      OT      -0.834000       15.9994           0
     53228 TIP3     10261    TIP3     H1       HT       0.417000       1.00800           0
     53229 TIP3     10261    TIP3     H2       HT       0.417000       1.00800           0
     53230 TIP3     10262    TIP3     OH2      OT      -0.834000       15.9994           0
     53231 TIP3     10262    TIP3     H1       HT       0.417000       1.00800           0
     53232 TIP3     10262    TIP3     H2       HT       0.417000       1.00800           0
     53233 TIP3     10263    TIP3     OH2      OT      -0.834000       15.9994           0
     53234 TIP3     10263    TIP3     H1       HT       0.417000       1.00800           0
     53235 TIP3     10263    TIP3     H2       HT       0.417000       1.00800           0
     53236 TIP3     10264    TIP3     OH2      OT      -0.834000       15.9994           0
     53237 TIP3     10264    TIP3     H1       HT       0.417000       1.00800           0
     53238 TIP3     10264    TIP3     H2       HT       0.417000       1.00800           0
     53239 TIP3     10265    TIP3     OH2      OT      -0.834000       15.9994           0
     53240 TIP3     10265    TIP3     H1       HT       0.417000       1.00800           0
     53241 TIP3     10265    TIP3     H2       HT       0.417000       1.00800           0
     53242 TIP3     10266    TIP3     OH2      OT      -0.834000       15.9994           0
     53243 TIP3     10266    TIP3     H1       HT       0.417000       1.00800           0
     53244 TIP3     10266    TIP3     H2       HT       0.417000       1.00800           0
     53245 TIP3     10267    TIP3     OH2      OT      -0.834000       15.9994           0
     53246 TIP3     10267    TIP3     H1       HT       0.417000       1.00800           0
     53247 TIP3     10267    TIP3     H2       HT       0.417000       1.00800           0
     53248 TIP3     10268    TIP3     OH2      OT      -0.834000       15.9994           0
     53249 TIP3     10268    TIP3     H1       HT       0.417000       1.00800           0
     53250 TIP3     10268    TIP3     H2       HT       0.417000       1.00800           0
     53251 TIP3     10269    TIP3     OH2      OT      -0.834000       15.9994           0
     53252 TIP3     10269    TIP3     H1       HT       0.417000       1.00800           0
     53253 TIP3     10269    TIP3     H2       HT       0.417000       1.00800           0
     53254 TIP3     10270    TIP3     OH2      OT      -0.834000       15.9994           0
     53255 TIP3     10270    TIP3     H1       HT       0.417000       1.00800           0
     53256 TIP3     10270    TIP3     H2       HT       0.417000       1.00800           0
     53257 TIP3     10271    TIP3     OH2      OT      -0.834000       15.9994           0
     53258 TIP3     10271    TIP3     H1       HT       0.417000       1.00800           0
     53259 TIP3     10271    TIP3     H2       HT       0.417000       1.00800           0
     53260 TIP3     10272    TIP3     OH2      OT      -0.834000       15.9994           0
     53261 TIP3     10272    TIP3     H1       HT       0.417000       1.00800           0
     53262 TIP3     10272    TIP3     H2       HT       0.417000       1.00800           0
     53263 TIP3     10273    TIP3     OH2      OT      -0.834000       15.9994           0
     53264 TIP3     10273    TIP3     H1       HT       0.417000       1.00800           0
     53265 TIP3     10273    TIP3     H2       HT       0.417000       1.00800           0
     53266 TIP3     10274    TIP3     OH2      OT      -0.834000       15.9994           0
     53267 TIP3     10274    TIP3     H1       HT       0.417000       1.00800           0
     53268 TIP3     10274    TIP3     H2       HT       0.417000       1.00800           0
     53269 TIP3     10275    TIP3     OH2      OT      -0.834000       15.9994           0
     53270 TIP3     10275    TIP3     H1       HT       0.417000       1.00800           0
     53271 TIP3     10275    TIP3     H2       HT       0.417000       1.00800           0
     53272 TIP3     10276    TIP3     OH2      OT      -0.834000       15.9994           0
     53273 TIP3     10276    TIP3     H1       HT       0.417000       1.00800           0
     53274 TIP3     10276    TIP3     H2       HT       0.417000       1.00800           0
     53275 TIP3     10277    TIP3     OH2      OT      -0.834000       15.9994           0
     53276 TIP3     10277    TIP3     H1       HT       0.417000       1.00800           0
     53277 TIP3     10277    TIP3     H2       HT       0.417000       1.00800           0
     53278 TIP3     10278    TIP3     OH2      OT      -0.834000       15.9994           0
     53279 TIP3     10278    TIP3     H1       HT       0.417000       1.00800           0
     53280 TIP3     10278    TIP3     H2       HT       0.417000       1.00800           0
     53281 TIP3     10279    TIP3     OH2      OT      -0.834000       15.9994           0
     53282 TIP3     10279    TIP3     H1       HT       0.417000       1.00800           0
     53283 TIP3     10279    TIP3     H2       HT       0.417000       1.00800           0
     53284 TIP3     10280    TIP3     OH2      OT      -0.834000       15.9994           0
     53285 TIP3     10280    TIP3     H1       HT       0.417000       1.00800           0
     53286 TIP3     10280    TIP3     H2       HT       0.417000       1.00800           0
     53287 TIP3     10281    TIP3     OH2      OT      -0.834000       15.9994           0
     53288 TIP3     10281    TIP3     H1       HT       0.417000       1.00800           0
     53289 TIP3     10281    TIP3     H2       HT       0.417000       1.00800           0
     53290 TIP3     10282    TIP3     OH2      OT      -0.834000       15.9994           0
     53291 TIP3     10282    TIP3     H1       HT       0.417000       1.00800           0
     53292 TIP3     10282    TIP3     H2       HT       0.417000       1.00800           0
     53293 TIP3     10283    TIP3     OH2      OT      -0.834000       15.9994           0
     53294 TIP3     10283    TIP3     H1       HT       0.417000       1.00800           0
     53295 TIP3     10283    TIP3     H2       HT       0.417000       1.00800           0
     53296 TIP3     10284    TIP3     OH2      OT      -0.834000       15.9994           0
     53297 TIP3     10284    TIP3     H1       HT       0.417000       1.00800           0
     53298 TIP3     10284    TIP3     H2       HT       0.417000       1.00800           0
     53299 TIP3     10285    TIP3     OH2      OT      -0.834000       15.9994           0
     53300 TIP3     10285    TIP3     H1       HT       0.417000       1.00800           0
     53301 TIP3     10285    TIP3     H2       HT       0.417000       1.00800           0
     53302 TIP3     10286    TIP3     OH2      OT      -0.834000       15.9994           0
     53303 TIP3     10286    TIP3     H1       HT       0.417000       1.00800           0
     53304 TIP3     10286    TIP3     H2       HT       0.417000       1.00800           0
     53305 TIP3     10287    TIP3     OH2      OT      -0.834000       15.9994           0
     53306 TIP3     10287    TIP3     H1       HT       0.417000       1.00800           0
     53307 TIP3     10287    TIP3     H2       HT       0.417000       1.00800           0
     53308 TIP3     10288    TIP3     OH2      OT      -0.834000       15.9994           0
     53309 TIP3     10288    TIP3     H1       HT       0.417000       1.00800           0
     53310 TIP3     10288    TIP3     H2       HT       0.417000       1.00800           0
     53311 TIP3     10289    TIP3     OH2      OT      -0.834000       15.9994           0
     53312 TIP3     10289    TIP3     H1       HT       0.417000       1.00800           0
     53313 TIP3     10289    TIP3     H2       HT       0.417000       1.00800           0
     53314 TIP3     10290    TIP3     OH2      OT      -0.834000       15.9994           0
     53315 TIP3     10290    TIP3     H1       HT       0.417000       1.00800           0
     53316 TIP3     10290    TIP3     H2       HT       0.417000       1.00800           0
     53317 TIP3     10291    TIP3     OH2      OT      -0.834000       15.9994           0
     53318 TIP3     10291    TIP3     H1       HT       0.417000       1.00800           0
     53319 TIP3     10291    TIP3     H2       HT       0.417000       1.00800           0
     53320 TIP3     10292    TIP3     OH2      OT      -0.834000       15.9994           0
     53321 TIP3     10292    TIP3     H1       HT       0.417000       1.00800           0
     53322 TIP3     10292    TIP3     H2       HT       0.417000       1.00800           0
     53323 TIP3     10293    TIP3     OH2      OT      -0.834000       15.9994           0
     53324 TIP3     10293    TIP3     H1       HT       0.417000       1.00800           0
     53325 TIP3     10293    TIP3     H2       HT       0.417000       1.00800           0
     53326 TIP3     10294    TIP3     OH2      OT      -0.834000       15.9994           0
     53327 TIP3     10294    TIP3     H1       HT       0.417000       1.00800           0
     53328 TIP3     10294    TIP3     H2       HT       0.417000       1.00800           0
     53329 TIP3     10295    TIP3     OH2      OT      -0.834000       15.9994           0
     53330 TIP3     10295    TIP3     H1       HT       0.417000       1.00800           0
     53331 TIP3     10295    TIP3     H2       HT       0.417000       1.00800           0
     53332 TIP3     10296    TIP3     OH2      OT      -0.834000       15.9994           0
     53333 TIP3     10296    TIP3     H1       HT       0.417000       1.00800           0
     53334 TIP3     10296    TIP3     H2       HT       0.417000       1.00800           0
     53335 TIP3     10297    TIP3     OH2      OT      -0.834000       15.9994           0
     53336 TIP3     10297    TIP3     H1       HT       0.417000       1.00800           0
     53337 TIP3     10297    TIP3     H2       HT       0.417000       1.00800           0
     53338 TIP3     10298    TIP3     OH2      OT      -0.834000       15.9994           0
     53339 TIP3     10298    TIP3     H1       HT       0.417000       1.00800           0
     53340 TIP3     10298    TIP3     H2       HT       0.417000       1.00800           0
     53341 TIP3     10299    TIP3     OH2      OT      -0.834000       15.9994           0
     53342 TIP3     10299    TIP3     H1       HT       0.417000       1.00800           0
     53343 TIP3     10299    TIP3     H2       HT       0.417000       1.00800           0
     53344 TIP3     10300    TIP3     OH2      OT      -0.834000       15.9994           0
     53345 TIP3     10300    TIP3     H1       HT       0.417000       1.00800           0
     53346 TIP3     10300    TIP3     H2       HT       0.417000       1.00800           0
     53347 TIP3     10301    TIP3     OH2      OT      -0.834000       15.9994           0
     53348 TIP3     10301    TIP3     H1       HT       0.417000       1.00800           0
     53349 TIP3     10301    TIP3     H2       HT       0.417000       1.00800           0
     53350 TIP3     10302    TIP3     OH2      OT      -0.834000       15.9994           0
     53351 TIP3     10302    TIP3     H1       HT       0.417000       1.00800           0
     53352 TIP3     10302    TIP3     H2       HT       0.417000       1.00800           0
     53353 TIP3     10303    TIP3     OH2      OT      -0.834000       15.9994           0
     53354 TIP3     10303    TIP3     H1       HT       0.417000       1.00800           0
     53355 TIP3     10303    TIP3     H2       HT       0.417000       1.00800           0
     53356 TIP3     10304    TIP3     OH2      OT      -0.834000       15.9994           0
     53357 TIP3     10304    TIP3     H1       HT       0.417000       1.00800           0
     53358 TIP3     10304    TIP3     H2       HT       0.417000       1.00800           0
     53359 TIP3     10305    TIP3     OH2      OT      -0.834000       15.9994           0
     53360 TIP3     10305    TIP3     H1       HT       0.417000       1.00800           0
     53361 TIP3     10305    TIP3     H2       HT       0.417000       1.00800           0
     53362 TIP3     10306    TIP3     OH2      OT      -0.834000       15.9994           0
     53363 TIP3     10306    TIP3     H1       HT       0.417000       1.00800           0
     53364 TIP3     10306    TIP3     H2       HT       0.417000       1.00800           0
     53365 TIP3     10307    TIP3     OH2      OT      -0.834000       15.9994           0
     53366 TIP3     10307    TIP3     H1       HT       0.417000       1.00800           0
     53367 TIP3     10307    TIP3     H2       HT       0.417000       1.00800           0
     53368 TIP3     10308    TIP3     OH2      OT      -0.834000       15.9994           0
     53369 TIP3     10308    TIP3     H1       HT       0.417000       1.00800           0
     53370 TIP3     10308    TIP3     H2       HT       0.417000       1.00800           0
     53371 TIP3     10309    TIP3     OH2      OT      -0.834000       15.9994           0
     53372 TIP3     10309    TIP3     H1       HT       0.417000       1.00800           0
     53373 TIP3     10309    TIP3     H2       HT       0.417000       1.00800           0
     53374 TIP3     10310    TIP3     OH2      OT      -0.834000       15.9994           0
     53375 TIP3     10310    TIP3     H1       HT       0.417000       1.00800           0
     53376 TIP3     10310    TIP3     H2       HT       0.417000       1.00800           0
     53377 TIP3     10311    TIP3     OH2      OT      -0.834000       15.9994           0
     53378 TIP3     10311    TIP3     H1       HT       0.417000       1.00800           0
     53379 TIP3     10311    TIP3     H2       HT       0.417000       1.00800           0
     53380 TIP3     10312    TIP3     OH2      OT      -0.834000       15.9994           0
     53381 TIP3     10312    TIP3     H1       HT       0.417000       1.00800           0
     53382 TIP3     10312    TIP3     H2       HT       0.417000       1.00800           0
     53383 TIP3     10313    TIP3     OH2      OT      -0.834000       15.9994           0
     53384 TIP3     10313    TIP3     H1       HT       0.417000       1.00800           0
     53385 TIP3     10313    TIP3     H2       HT       0.417000       1.00800           0
     53386 TIP3     10314    TIP3     OH2      OT      -0.834000       15.9994           0
     53387 TIP3     10314    TIP3     H1       HT       0.417000       1.00800           0
     53388 TIP3     10314    TIP3     H2       HT       0.417000       1.00800           0
     53389 TIP3     10315    TIP3     OH2      OT      -0.834000       15.9994           0
     53390 TIP3     10315    TIP3     H1       HT       0.417000       1.00800           0
     53391 TIP3     10315    TIP3     H2       HT       0.417000       1.00800           0
     53392 TIP3     10316    TIP3     OH2      OT      -0.834000       15.9994           0
     53393 TIP3     10316    TIP3     H1       HT       0.417000       1.00800           0
     53394 TIP3     10316    TIP3     H2       HT       0.417000       1.00800           0
     53395 TIP3     10317    TIP3     OH2      OT      -0.834000       15.9994           0
     53396 TIP3     10317    TIP3     H1       HT       0.417000       1.00800           0
     53397 TIP3     10317    TIP3     H2       HT       0.417000       1.00800           0
     53398 TIP3     10318    TIP3     OH2      OT      -0.834000       15.9994           0
     53399 TIP3     10318    TIP3     H1       HT       0.417000       1.00800           0
     53400 TIP3     10318    TIP3     H2       HT       0.417000       1.00800           0
     53401 TIP3     10319    TIP3     OH2      OT      -0.834000       15.9994           0
     53402 TIP3     10319    TIP3     H1       HT       0.417000       1.00800           0
     53403 TIP3     10319    TIP3     H2       HT       0.417000       1.00800           0
     53404 TIP3     10320    TIP3     OH2      OT      -0.834000       15.9994           0
     53405 TIP3     10320    TIP3     H1       HT       0.417000       1.00800           0
     53406 TIP3     10320    TIP3     H2       HT       0.417000       1.00800           0
     53407 TIP3     10321    TIP3     OH2      OT      -0.834000       15.9994           0
     53408 TIP3     10321    TIP3     H1       HT       0.417000       1.00800           0
     53409 TIP3     10321    TIP3     H2       HT       0.417000       1.00800           0
     53410 TIP3     10322    TIP3     OH2      OT      -0.834000       15.9994           0
     53411 TIP3     10322    TIP3     H1       HT       0.417000       1.00800           0
     53412 TIP3     10322    TIP3     H2       HT       0.417000       1.00800           0
     53413 TIP3     10323    TIP3     OH2      OT      -0.834000       15.9994           0
     53414 TIP3     10323    TIP3     H1       HT       0.417000       1.00800           0
     53415 TIP3     10323    TIP3     H2       HT       0.417000       1.00800           0
     53416 TIP3     10324    TIP3     OH2      OT      -0.834000       15.9994           0
     53417 TIP3     10324    TIP3     H1       HT       0.417000       1.00800           0
     53418 TIP3     10324    TIP3     H2       HT       0.417000       1.00800           0
     53419 TIP3     10325    TIP3     OH2      OT      -0.834000       15.9994           0
     53420 TIP3     10325    TIP3     H1       HT       0.417000       1.00800           0
     53421 TIP3     10325    TIP3     H2       HT       0.417000       1.00800           0
     53422 TIP3     10326    TIP3     OH2      OT      -0.834000       15.9994           0
     53423 TIP3     10326    TIP3     H1       HT       0.417000       1.00800           0
     53424 TIP3     10326    TIP3     H2       HT       0.417000       1.00800           0
     53425 TIP3     10327    TIP3     OH2      OT      -0.834000       15.9994           0
     53426 TIP3     10327    TIP3     H1       HT       0.417000       1.00800           0
     53427 TIP3     10327    TIP3     H2       HT       0.417000       1.00800           0
     53428 TIP3     10328    TIP3     OH2      OT      -0.834000       15.9994           0
     53429 TIP3     10328    TIP3     H1       HT       0.417000       1.00800           0
     53430 TIP3     10328    TIP3     H2       HT       0.417000       1.00800           0
     53431 TIP3     10329    TIP3     OH2      OT      -0.834000       15.9994           0
     53432 TIP3     10329    TIP3     H1       HT       0.417000       1.00800           0
     53433 TIP3     10329    TIP3     H2       HT       0.417000       1.00800           0
     53434 TIP3     10330    TIP3     OH2      OT      -0.834000       15.9994           0
     53435 TIP3     10330    TIP3     H1       HT       0.417000       1.00800           0
     53436 TIP3     10330    TIP3     H2       HT       0.417000       1.00800           0
     53437 TIP3     10331    TIP3     OH2      OT      -0.834000       15.9994           0
     53438 TIP3     10331    TIP3     H1       HT       0.417000       1.00800           0
     53439 TIP3     10331    TIP3     H2       HT       0.417000       1.00800           0
     53440 TIP3     10332    TIP3     OH2      OT      -0.834000       15.9994           0
     53441 TIP3     10332    TIP3     H1       HT       0.417000       1.00800           0
     53442 TIP3     10332    TIP3     H2       HT       0.417000       1.00800           0
     53443 TIP3     10333    TIP3     OH2      OT      -0.834000       15.9994           0
     53444 TIP3     10333    TIP3     H1       HT       0.417000       1.00800           0
     53445 TIP3     10333    TIP3     H2       HT       0.417000       1.00800           0
     53446 TIP3     10334    TIP3     OH2      OT      -0.834000       15.9994           0
     53447 TIP3     10334    TIP3     H1       HT       0.417000       1.00800           0
     53448 TIP3     10334    TIP3     H2       HT       0.417000       1.00800           0
     53449 TIP3     10335    TIP3     OH2      OT      -0.834000       15.9994           0
     53450 TIP3     10335    TIP3     H1       HT       0.417000       1.00800           0
     53451 TIP3     10335    TIP3     H2       HT       0.417000       1.00800           0
     53452 TIP3     10336    TIP3     OH2      OT      -0.834000       15.9994           0
     53453 TIP3     10336    TIP3     H1       HT       0.417000       1.00800           0
     53454 TIP3     10336    TIP3     H2       HT       0.417000       1.00800           0
     53455 TIP3     10337    TIP3     OH2      OT      -0.834000       15.9994           0
     53456 TIP3     10337    TIP3     H1       HT       0.417000       1.00800           0
     53457 TIP3     10337    TIP3     H2       HT       0.417000       1.00800           0
     53458 TIP3     10338    TIP3     OH2      OT      -0.834000       15.9994           0
     53459 TIP3     10338    TIP3     H1       HT       0.417000       1.00800           0
     53460 TIP3     10338    TIP3     H2       HT       0.417000       1.00800           0
     53461 TIP3     10339    TIP3     OH2      OT      -0.834000       15.9994           0
     53462 TIP3     10339    TIP3     H1       HT       0.417000       1.00800           0
     53463 TIP3     10339    TIP3     H2       HT       0.417000       1.00800           0
     53464 TIP3     10340    TIP3     OH2      OT      -0.834000       15.9994           0
     53465 TIP3     10340    TIP3     H1       HT       0.417000       1.00800           0
     53466 TIP3     10340    TIP3     H2       HT       0.417000       1.00800           0
     53467 TIP3     10341    TIP3     OH2      OT      -0.834000       15.9994           0
     53468 TIP3     10341    TIP3     H1       HT       0.417000       1.00800           0
     53469 TIP3     10341    TIP3     H2       HT       0.417000       1.00800           0
     53470 TIP3     10342    TIP3     OH2      OT      -0.834000       15.9994           0
     53471 TIP3     10342    TIP3     H1       HT       0.417000       1.00800           0
     53472 TIP3     10342    TIP3     H2       HT       0.417000       1.00800           0
     53473 TIP3     10343    TIP3     OH2      OT      -0.834000       15.9994           0
     53474 TIP3     10343    TIP3     H1       HT       0.417000       1.00800           0
     53475 TIP3     10343    TIP3     H2       HT       0.417000       1.00800           0
     53476 TIP3     10344    TIP3     OH2      OT      -0.834000       15.9994           0
     53477 TIP3     10344    TIP3     H1       HT       0.417000       1.00800           0
     53478 TIP3     10344    TIP3     H2       HT       0.417000       1.00800           0
     53479 TIP3     10345    TIP3     OH2      OT      -0.834000       15.9994           0
     53480 TIP3     10345    TIP3     H1       HT       0.417000       1.00800           0
     53481 TIP3     10345    TIP3     H2       HT       0.417000       1.00800           0
     53482 TIP3     10346    TIP3     OH2      OT      -0.834000       15.9994           0
     53483 TIP3     10346    TIP3     H1       HT       0.417000       1.00800           0
     53484 TIP3     10346    TIP3     H2       HT       0.417000       1.00800           0
     53485 TIP3     10347    TIP3     OH2      OT      -0.834000       15.9994           0
     53486 TIP3     10347    TIP3     H1       HT       0.417000       1.00800           0
     53487 TIP3     10347    TIP3     H2       HT       0.417000       1.00800           0
     53488 TIP3     10348    TIP3     OH2      OT      -0.834000       15.9994           0
     53489 TIP3     10348    TIP3     H1       HT       0.417000       1.00800           0
     53490 TIP3     10348    TIP3     H2       HT       0.417000       1.00800           0
     53491 TIP3     10349    TIP3     OH2      OT      -0.834000       15.9994           0
     53492 TIP3     10349    TIP3     H1       HT       0.417000       1.00800           0
     53493 TIP3     10349    TIP3     H2       HT       0.417000       1.00800           0
     53494 TIP3     10350    TIP3     OH2      OT      -0.834000       15.9994           0
     53495 TIP3     10350    TIP3     H1       HT       0.417000       1.00800           0
     53496 TIP3     10350    TIP3     H2       HT       0.417000       1.00800           0
     53497 TIP3     10351    TIP3     OH2      OT      -0.834000       15.9994           0
     53498 TIP3     10351    TIP3     H1       HT       0.417000       1.00800           0
     53499 TIP3     10351    TIP3     H2       HT       0.417000       1.00800           0
     53500 TIP3     10352    TIP3     OH2      OT      -0.834000       15.9994           0
     53501 TIP3     10352    TIP3     H1       HT       0.417000       1.00800           0
     53502 TIP3     10352    TIP3     H2       HT       0.417000       1.00800           0
     53503 TIP3     10353    TIP3     OH2      OT      -0.834000       15.9994           0
     53504 TIP3     10353    TIP3     H1       HT       0.417000       1.00800           0
     53505 TIP3     10353    TIP3     H2       HT       0.417000       1.00800           0
     53506 TIP3     10354    TIP3     OH2      OT      -0.834000       15.9994           0
     53507 TIP3     10354    TIP3     H1       HT       0.417000       1.00800           0
     53508 TIP3     10354    TIP3     H2       HT       0.417000       1.00800           0
     53509 TIP3     10355    TIP3     OH2      OT      -0.834000       15.9994           0
     53510 TIP3     10355    TIP3     H1       HT       0.417000       1.00800           0
     53511 TIP3     10355    TIP3     H2       HT       0.417000       1.00800           0
     53512 TIP3     10356    TIP3     OH2      OT      -0.834000       15.9994           0
     53513 TIP3     10356    TIP3     H1       HT       0.417000       1.00800           0
     53514 TIP3     10356    TIP3     H2       HT       0.417000       1.00800           0
     53515 TIP3     10357    TIP3     OH2      OT      -0.834000       15.9994           0
     53516 TIP3     10357    TIP3     H1       HT       0.417000       1.00800           0
     53517 TIP3     10357    TIP3     H2       HT       0.417000       1.00800           0
     53518 TIP3     10358    TIP3     OH2      OT      -0.834000       15.9994           0
     53519 TIP3     10358    TIP3     H1       HT       0.417000       1.00800           0
     53520 TIP3     10358    TIP3     H2       HT       0.417000       1.00800           0
     53521 TIP3     10359    TIP3     OH2      OT      -0.834000       15.9994           0
     53522 TIP3     10359    TIP3     H1       HT       0.417000       1.00800           0
     53523 TIP3     10359    TIP3     H2       HT       0.417000       1.00800           0
     53524 TIP3     10360    TIP3     OH2      OT      -0.834000       15.9994           0
     53525 TIP3     10360    TIP3     H1       HT       0.417000       1.00800           0
     53526 TIP3     10360    TIP3     H2       HT       0.417000       1.00800           0
     53527 TIP3     10361    TIP3     OH2      OT      -0.834000       15.9994           0
     53528 TIP3     10361    TIP3     H1       HT       0.417000       1.00800           0
     53529 TIP3     10361    TIP3     H2       HT       0.417000       1.00800           0
     53530 TIP3     10362    TIP3     OH2      OT      -0.834000       15.9994           0
     53531 TIP3     10362    TIP3     H1       HT       0.417000       1.00800           0
     53532 TIP3     10362    TIP3     H2       HT       0.417000       1.00800           0
     53533 TIP3     10363    TIP3     OH2      OT      -0.834000       15.9994           0
     53534 TIP3     10363    TIP3     H1       HT       0.417000       1.00800           0
     53535 TIP3     10363    TIP3     H2       HT       0.417000       1.00800           0
     53536 TIP3     10364    TIP3     OH2      OT      -0.834000       15.9994           0
     53537 TIP3     10364    TIP3     H1       HT       0.417000       1.00800           0
     53538 TIP3     10364    TIP3     H2       HT       0.417000       1.00800           0
     53539 TIP3     10365    TIP3     OH2      OT      -0.834000       15.9994           0
     53540 TIP3     10365    TIP3     H1       HT       0.417000       1.00800           0
     53541 TIP3     10365    TIP3     H2       HT       0.417000       1.00800           0
     53542 TIP3     10366    TIP3     OH2      OT      -0.834000       15.9994           0
     53543 TIP3     10366    TIP3     H1       HT       0.417000       1.00800           0
     53544 TIP3     10366    TIP3     H2       HT       0.417000       1.00800           0
     53545 TIP3     10367    TIP3     OH2      OT      -0.834000       15.9994           0
     53546 TIP3     10367    TIP3     H1       HT       0.417000       1.00800           0
     53547 TIP3     10367    TIP3     H2       HT       0.417000       1.00800           0
     53548 TIP3     10368    TIP3     OH2      OT      -0.834000       15.9994           0
     53549 TIP3     10368    TIP3     H1       HT       0.417000       1.00800           0
     53550 TIP3     10368    TIP3     H2       HT       0.417000       1.00800           0
     53551 TIP3     10369    TIP3     OH2      OT      -0.834000       15.9994           0
     53552 TIP3     10369    TIP3     H1       HT       0.417000       1.00800           0
     53553 TIP3     10369    TIP3     H2       HT       0.417000       1.00800           0
     53554 TIP3     10370    TIP3     OH2      OT      -0.834000       15.9994           0
     53555 TIP3     10370    TIP3     H1       HT       0.417000       1.00800           0
     53556 TIP3     10370    TIP3     H2       HT       0.417000       1.00800           0
     53557 TIP3     10371    TIP3     OH2      OT      -0.834000       15.9994           0
     53558 TIP3     10371    TIP3     H1       HT       0.417000       1.00800           0
     53559 TIP3     10371    TIP3     H2       HT       0.417000       1.00800           0
     53560 TIP3     10372    TIP3     OH2      OT      -0.834000       15.9994           0
     53561 TIP3     10372    TIP3     H1       HT       0.417000       1.00800           0
     53562 TIP3     10372    TIP3     H2       HT       0.417000       1.00800           0
     53563 TIP3     10373    TIP3     OH2      OT      -0.834000       15.9994           0
     53564 TIP3     10373    TIP3     H1       HT       0.417000       1.00800           0
     53565 TIP3     10373    TIP3     H2       HT       0.417000       1.00800           0
     53566 TIP3     10374    TIP3     OH2      OT      -0.834000       15.9994           0
     53567 TIP3     10374    TIP3     H1       HT       0.417000       1.00800           0
     53568 TIP3     10374    TIP3     H2       HT       0.417000       1.00800           0
     53569 TIP3     10375    TIP3     OH2      OT      -0.834000       15.9994           0
     53570 TIP3     10375    TIP3     H1       HT       0.417000       1.00800           0
     53571 TIP3     10375    TIP3     H2       HT       0.417000       1.00800           0
     53572 TIP3     10376    TIP3     OH2      OT      -0.834000       15.9994           0
     53573 TIP3     10376    TIP3     H1       HT       0.417000       1.00800           0
     53574 TIP3     10376    TIP3     H2       HT       0.417000       1.00800           0
     53575 TIP3     10377    TIP3     OH2      OT      -0.834000       15.9994           0
     53576 TIP3     10377    TIP3     H1       HT       0.417000       1.00800           0
     53577 TIP3     10377    TIP3     H2       HT       0.417000       1.00800           0
     53578 TIP3     10378    TIP3     OH2      OT      -0.834000       15.9994           0
     53579 TIP3     10378    TIP3     H1       HT       0.417000       1.00800           0
     53580 TIP3     10378    TIP3     H2       HT       0.417000       1.00800           0
     53581 TIP3     10379    TIP3     OH2      OT      -0.834000       15.9994           0
     53582 TIP3     10379    TIP3     H1       HT       0.417000       1.00800           0
     53583 TIP3     10379    TIP3     H2       HT       0.417000       1.00800           0
     53584 TIP3     10380    TIP3     OH2      OT      -0.834000       15.9994           0
     53585 TIP3     10380    TIP3     H1       HT       0.417000       1.00800           0
     53586 TIP3     10380    TIP3     H2       HT       0.417000       1.00800           0
     53587 TIP3     10381    TIP3     OH2      OT      -0.834000       15.9994           0
     53588 TIP3     10381    TIP3     H1       HT       0.417000       1.00800           0
     53589 TIP3     10381    TIP3     H2       HT       0.417000       1.00800           0
     53590 TIP3     10382    TIP3     OH2      OT      -0.834000       15.9994           0
     53591 TIP3     10382    TIP3     H1       HT       0.417000       1.00800           0
     53592 TIP3     10382    TIP3     H2       HT       0.417000       1.00800           0
     53593 TIP3     10383    TIP3     OH2      OT      -0.834000       15.9994           0
     53594 TIP3     10383    TIP3     H1       HT       0.417000       1.00800           0
     53595 TIP3     10383    TIP3     H2       HT       0.417000       1.00800           0
     53596 TIP3     10384    TIP3     OH2      OT      -0.834000       15.9994           0
     53597 TIP3     10384    TIP3     H1       HT       0.417000       1.00800           0
     53598 TIP3     10384    TIP3     H2       HT       0.417000       1.00800           0
     53599 TIP3     10385    TIP3     OH2      OT      -0.834000       15.9994           0
     53600 TIP3     10385    TIP3     H1       HT       0.417000       1.00800           0
     53601 TIP3     10385    TIP3     H2       HT       0.417000       1.00800           0
     53602 TIP3     10386    TIP3     OH2      OT      -0.834000       15.9994           0
     53603 TIP3     10386    TIP3     H1       HT       0.417000       1.00800           0
     53604 TIP3     10386    TIP3     H2       HT       0.417000       1.00800           0
     53605 TIP3     10387    TIP3     OH2      OT      -0.834000       15.9994           0
     53606 TIP3     10387    TIP3     H1       HT       0.417000       1.00800           0
     53607 TIP3     10387    TIP3     H2       HT       0.417000       1.00800           0
     53608 TIP3     10388    TIP3     OH2      OT      -0.834000       15.9994           0
     53609 TIP3     10388    TIP3     H1       HT       0.417000       1.00800           0
     53610 TIP3     10388    TIP3     H2       HT       0.417000       1.00800           0
     53611 TIP3     10389    TIP3     OH2      OT      -0.834000       15.9994           0
     53612 TIP3     10389    TIP3     H1       HT       0.417000       1.00800           0
     53613 TIP3     10389    TIP3     H2       HT       0.417000       1.00800           0
     53614 TIP3     10390    TIP3     OH2      OT      -0.834000       15.9994           0
     53615 TIP3     10390    TIP3     H1       HT       0.417000       1.00800           0
     53616 TIP3     10390    TIP3     H2       HT       0.417000       1.00800           0
     53617 TIP3     10391    TIP3     OH2      OT      -0.834000       15.9994           0
     53618 TIP3     10391    TIP3     H1       HT       0.417000       1.00800           0
     53619 TIP3     10391    TIP3     H2       HT       0.417000       1.00800           0
     53620 TIP3     10392    TIP3     OH2      OT      -0.834000       15.9994           0
     53621 TIP3     10392    TIP3     H1       HT       0.417000       1.00800           0
     53622 TIP3     10392    TIP3     H2       HT       0.417000       1.00800           0
     53623 TIP3     10393    TIP3     OH2      OT      -0.834000       15.9994           0
     53624 TIP3     10393    TIP3     H1       HT       0.417000       1.00800           0
     53625 TIP3     10393    TIP3     H2       HT       0.417000       1.00800           0
     53626 TIP3     10394    TIP3     OH2      OT      -0.834000       15.9994           0
     53627 TIP3     10394    TIP3     H1       HT       0.417000       1.00800           0
     53628 TIP3     10394    TIP3     H2       HT       0.417000       1.00800           0
     53629 TIP3     10395    TIP3     OH2      OT      -0.834000       15.9994           0
     53630 TIP3     10395    TIP3     H1       HT       0.417000       1.00800           0
     53631 TIP3     10395    TIP3     H2       HT       0.417000       1.00800           0
     53632 TIP3     10396    TIP3     OH2      OT      -0.834000       15.9994           0
     53633 TIP3     10396    TIP3     H1       HT       0.417000       1.00800           0
     53634 TIP3     10396    TIP3     H2       HT       0.417000       1.00800           0
     53635 TIP3     10397    TIP3     OH2      OT      -0.834000       15.9994           0
     53636 TIP3     10397    TIP3     H1       HT       0.417000       1.00800           0
     53637 TIP3     10397    TIP3     H2       HT       0.417000       1.00800           0
     53638 TIP3     10398    TIP3     OH2      OT      -0.834000       15.9994           0
     53639 TIP3     10398    TIP3     H1       HT       0.417000       1.00800           0
     53640 TIP3     10398    TIP3     H2       HT       0.417000       1.00800           0
     53641 TIP3     10399    TIP3     OH2      OT      -0.834000       15.9994           0
     53642 TIP3     10399    TIP3     H1       HT       0.417000       1.00800           0
     53643 TIP3     10399    TIP3     H2       HT       0.417000       1.00800           0
     53644 TIP3     10400    TIP3     OH2      OT      -0.834000       15.9994           0
     53645 TIP3     10400    TIP3     H1       HT       0.417000       1.00800           0
     53646 TIP3     10400    TIP3     H2       HT       0.417000       1.00800           0
     53647 TIP3     10401    TIP3     OH2      OT      -0.834000       15.9994           0
     53648 TIP3     10401    TIP3     H1       HT       0.417000       1.00800           0
     53649 TIP3     10401    TIP3     H2       HT       0.417000       1.00800           0
     53650 TIP3     10402    TIP3     OH2      OT      -0.834000       15.9994           0
     53651 TIP3     10402    TIP3     H1       HT       0.417000       1.00800           0
     53652 TIP3     10402    TIP3     H2       HT       0.417000       1.00800           0
     53653 TIP3     10403    TIP3     OH2      OT      -0.834000       15.9994           0
     53654 TIP3     10403    TIP3     H1       HT       0.417000       1.00800           0
     53655 TIP3     10403    TIP3     H2       HT       0.417000       1.00800           0
     53656 TIP3     10404    TIP3     OH2      OT      -0.834000       15.9994           0
     53657 TIP3     10404    TIP3     H1       HT       0.417000       1.00800           0
     53658 TIP3     10404    TIP3     H2       HT       0.417000       1.00800           0
     53659 TIP3     10405    TIP3     OH2      OT      -0.834000       15.9994           0
     53660 TIP3     10405    TIP3     H1       HT       0.417000       1.00800           0
     53661 TIP3     10405    TIP3     H2       HT       0.417000       1.00800           0
     53662 TIP3     10406    TIP3     OH2      OT      -0.834000       15.9994           0
     53663 TIP3     10406    TIP3     H1       HT       0.417000       1.00800           0
     53664 TIP3     10406    TIP3     H2       HT       0.417000       1.00800           0
     53665 TIP3     10407    TIP3     OH2      OT      -0.834000       15.9994           0
     53666 TIP3     10407    TIP3     H1       HT       0.417000       1.00800           0
     53667 TIP3     10407    TIP3     H2       HT       0.417000       1.00800           0
     53668 TIP3     10408    TIP3     OH2      OT      -0.834000       15.9994           0
     53669 TIP3     10408    TIP3     H1       HT       0.417000       1.00800           0
     53670 TIP3     10408    TIP3     H2       HT       0.417000       1.00800           0
     53671 TIP3     10409    TIP3     OH2      OT      -0.834000       15.9994           0
     53672 TIP3     10409    TIP3     H1       HT       0.417000       1.00800           0
     53673 TIP3     10409    TIP3     H2       HT       0.417000       1.00800           0
     53674 TIP3     10410    TIP3     OH2      OT      -0.834000       15.9994           0
     53675 TIP3     10410    TIP3     H1       HT       0.417000       1.00800           0
     53676 TIP3     10410    TIP3     H2       HT       0.417000       1.00800           0
     53677 TIP3     10411    TIP3     OH2      OT      -0.834000       15.9994           0
     53678 TIP3     10411    TIP3     H1       HT       0.417000       1.00800           0
     53679 TIP3     10411    TIP3     H2       HT       0.417000       1.00800           0
     53680 TIP3     10412    TIP3     OH2      OT      -0.834000       15.9994           0
     53681 TIP3     10412    TIP3     H1       HT       0.417000       1.00800           0
     53682 TIP3     10412    TIP3     H2       HT       0.417000       1.00800           0
     53683 TIP3     10413    TIP3     OH2      OT      -0.834000       15.9994           0
     53684 TIP3     10413    TIP3     H1       HT       0.417000       1.00800           0
     53685 TIP3     10413    TIP3     H2       HT       0.417000       1.00800           0
     53686 TIP3     10414    TIP3     OH2      OT      -0.834000       15.9994           0
     53687 TIP3     10414    TIP3     H1       HT       0.417000       1.00800           0
     53688 TIP3     10414    TIP3     H2       HT       0.417000       1.00800           0
     53689 TIP3     10415    TIP3     OH2      OT      -0.834000       15.9994           0
     53690 TIP3     10415    TIP3     H1       HT       0.417000       1.00800           0
     53691 TIP3     10415    TIP3     H2       HT       0.417000       1.00800           0
     53692 TIP3     10416    TIP3     OH2      OT      -0.834000       15.9994           0
     53693 TIP3     10416    TIP3     H1       HT       0.417000       1.00800           0
     53694 TIP3     10416    TIP3     H2       HT       0.417000       1.00800           0
     53695 TIP3     10417    TIP3     OH2      OT      -0.834000       15.9994           0
     53696 TIP3     10417    TIP3     H1       HT       0.417000       1.00800           0
     53697 TIP3     10417    TIP3     H2       HT       0.417000       1.00800           0
     53698 TIP3     10418    TIP3     OH2      OT      -0.834000       15.9994           0
     53699 TIP3     10418    TIP3     H1       HT       0.417000       1.00800           0
     53700 TIP3     10418    TIP3     H2       HT       0.417000       1.00800           0
     53701 TIP3     10419    TIP3     OH2      OT      -0.834000       15.9994           0
     53702 TIP3     10419    TIP3     H1       HT       0.417000       1.00800           0
     53703 TIP3     10419    TIP3     H2       HT       0.417000       1.00800           0
     53704 TIP3     10420    TIP3     OH2      OT      -0.834000       15.9994           0
     53705 TIP3     10420    TIP3     H1       HT       0.417000       1.00800           0
     53706 TIP3     10420    TIP3     H2       HT       0.417000       1.00800           0
     53707 TIP3     10421    TIP3     OH2      OT      -0.834000       15.9994           0
     53708 TIP3     10421    TIP3     H1       HT       0.417000       1.00800           0
     53709 TIP3     10421    TIP3     H2       HT       0.417000       1.00800           0
     53710 TIP3     10422    TIP3     OH2      OT      -0.834000       15.9994           0
     53711 TIP3     10422    TIP3     H1       HT       0.417000       1.00800           0
     53712 TIP3     10422    TIP3     H2       HT       0.417000       1.00800           0
     53713 TIP3     10423    TIP3     OH2      OT      -0.834000       15.9994           0
     53714 TIP3     10423    TIP3     H1       HT       0.417000       1.00800           0
     53715 TIP3     10423    TIP3     H2       HT       0.417000       1.00800           0
     53716 TIP3     10424    TIP3     OH2      OT      -0.834000       15.9994           0
     53717 TIP3     10424    TIP3     H1       HT       0.417000       1.00800           0
     53718 TIP3     10424    TIP3     H2       HT       0.417000       1.00800           0
     53719 TIP3     10425    TIP3     OH2      OT      -0.834000       15.9994           0
     53720 TIP3     10425    TIP3     H1       HT       0.417000       1.00800           0
     53721 TIP3     10425    TIP3     H2       HT       0.417000       1.00800           0
     53722 TIP3     10426    TIP3     OH2      OT      -0.834000       15.9994           0
     53723 TIP3     10426    TIP3     H1       HT       0.417000       1.00800           0
     53724 TIP3     10426    TIP3     H2       HT       0.417000       1.00800           0
     53725 TIP3     10427    TIP3     OH2      OT      -0.834000       15.9994           0
     53726 TIP3     10427    TIP3     H1       HT       0.417000       1.00800           0
     53727 TIP3     10427    TIP3     H2       HT       0.417000       1.00800           0
     53728 TIP3     10428    TIP3     OH2      OT      -0.834000       15.9994           0
     53729 TIP3     10428    TIP3     H1       HT       0.417000       1.00800           0
     53730 TIP3     10428    TIP3     H2       HT       0.417000       1.00800           0
     53731 TIP3     10429    TIP3     OH2      OT      -0.834000       15.9994           0
     53732 TIP3     10429    TIP3     H1       HT       0.417000       1.00800           0
     53733 TIP3     10429    TIP3     H2       HT       0.417000       1.00800           0
     53734 TIP3     10430    TIP3     OH2      OT      -0.834000       15.9994           0
     53735 TIP3     10430    TIP3     H1       HT       0.417000       1.00800           0
     53736 TIP3     10430    TIP3     H2       HT       0.417000       1.00800           0
     53737 TIP3     10431    TIP3     OH2      OT      -0.834000       15.9994           0
     53738 TIP3     10431    TIP3     H1       HT       0.417000       1.00800           0
     53739 TIP3     10431    TIP3     H2       HT       0.417000       1.00800           0
     53740 TIP3     10432    TIP3     OH2      OT      -0.834000       15.9994           0
     53741 TIP3     10432    TIP3     H1       HT       0.417000       1.00800           0
     53742 TIP3     10432    TIP3     H2       HT       0.417000       1.00800           0
     53743 TIP3     10433    TIP3     OH2      OT      -0.834000       15.9994           0
     53744 TIP3     10433    TIP3     H1       HT       0.417000       1.00800           0
     53745 TIP3     10433    TIP3     H2       HT       0.417000       1.00800           0
     53746 TIP3     10434    TIP3     OH2      OT      -0.834000       15.9994           0
     53747 TIP3     10434    TIP3     H1       HT       0.417000       1.00800           0
     53748 TIP3     10434    TIP3     H2       HT       0.417000       1.00800           0
     53749 TIP3     10435    TIP3     OH2      OT      -0.834000       15.9994           0
     53750 TIP3     10435    TIP3     H1       HT       0.417000       1.00800           0
     53751 TIP3     10435    TIP3     H2       HT       0.417000       1.00800           0
     53752 TIP3     10436    TIP3     OH2      OT      -0.834000       15.9994           0
     53753 TIP3     10436    TIP3     H1       HT       0.417000       1.00800           0
     53754 TIP3     10436    TIP3     H2       HT       0.417000       1.00800           0
     53755 TIP3     10437    TIP3     OH2      OT      -0.834000       15.9994           0
     53756 TIP3     10437    TIP3     H1       HT       0.417000       1.00800           0
     53757 TIP3     10437    TIP3     H2       HT       0.417000       1.00800           0
     53758 TIP3     10438    TIP3     OH2      OT      -0.834000       15.9994           0
     53759 TIP3     10438    TIP3     H1       HT       0.417000       1.00800           0
     53760 TIP3     10438    TIP3     H2       HT       0.417000       1.00800           0
     53761 TIP3     10439    TIP3     OH2      OT      -0.834000       15.9994           0
     53762 TIP3     10439    TIP3     H1       HT       0.417000       1.00800           0
     53763 TIP3     10439    TIP3     H2       HT       0.417000       1.00800           0
     53764 TIP3     10440    TIP3     OH2      OT      -0.834000       15.9994           0
     53765 TIP3     10440    TIP3     H1       HT       0.417000       1.00800           0
     53766 TIP3     10440    TIP3     H2       HT       0.417000       1.00800           0
     53767 TIP3     10441    TIP3     OH2      OT      -0.834000       15.9994           0
     53768 TIP3     10441    TIP3     H1       HT       0.417000       1.00800           0
     53769 TIP3     10441    TIP3     H2       HT       0.417000       1.00800           0
     53770 TIP3     10442    TIP3     OH2      OT      -0.834000       15.9994           0
     53771 TIP3     10442    TIP3     H1       HT       0.417000       1.00800           0
     53772 TIP3     10442    TIP3     H2       HT       0.417000       1.00800           0
     53773 TIP3     10443    TIP3     OH2      OT      -0.834000       15.9994           0
     53774 TIP3     10443    TIP3     H1       HT       0.417000       1.00800           0
     53775 TIP3     10443    TIP3     H2       HT       0.417000       1.00800           0
     53776 TIP3     10444    TIP3     OH2      OT      -0.834000       15.9994           0
     53777 TIP3     10444    TIP3     H1       HT       0.417000       1.00800           0
     53778 TIP3     10444    TIP3     H2       HT       0.417000       1.00800           0
     53779 TIP3     10445    TIP3     OH2      OT      -0.834000       15.9994           0
     53780 TIP3     10445    TIP3     H1       HT       0.417000       1.00800           0
     53781 TIP3     10445    TIP3     H2       HT       0.417000       1.00800           0
     53782 TIP3     10446    TIP3     OH2      OT      -0.834000       15.9994           0
     53783 TIP3     10446    TIP3     H1       HT       0.417000       1.00800           0
     53784 TIP3     10446    TIP3     H2       HT       0.417000       1.00800           0
     53785 TIP3     10447    TIP3     OH2      OT      -0.834000       15.9994           0
     53786 TIP3     10447    TIP3     H1       HT       0.417000       1.00800           0
     53787 TIP3     10447    TIP3     H2       HT       0.417000       1.00800           0
     53788 TIP3     10448    TIP3     OH2      OT      -0.834000       15.9994           0
     53789 TIP3     10448    TIP3     H1       HT       0.417000       1.00800           0
     53790 TIP3     10448    TIP3     H2       HT       0.417000       1.00800           0
     53791 TIP3     10449    TIP3     OH2      OT      -0.834000       15.9994           0
     53792 TIP3     10449    TIP3     H1       HT       0.417000       1.00800           0
     53793 TIP3     10449    TIP3     H2       HT       0.417000       1.00800           0
     53794 TIP3     10450    TIP3     OH2      OT      -0.834000       15.9994           0
     53795 TIP3     10450    TIP3     H1       HT       0.417000       1.00800           0
     53796 TIP3     10450    TIP3     H2       HT       0.417000       1.00800           0
     53797 TIP3     10451    TIP3     OH2      OT      -0.834000       15.9994           0
     53798 TIP3     10451    TIP3     H1       HT       0.417000       1.00800           0
     53799 TIP3     10451    TIP3     H2       HT       0.417000       1.00800           0
     53800 TIP3     10452    TIP3     OH2      OT      -0.834000       15.9994           0
     53801 TIP3     10452    TIP3     H1       HT       0.417000       1.00800           0
     53802 TIP3     10452    TIP3     H2       HT       0.417000       1.00800           0
     53803 TIP3     10453    TIP3     OH2      OT      -0.834000       15.9994           0
     53804 TIP3     10453    TIP3     H1       HT       0.417000       1.00800           0
     53805 TIP3     10453    TIP3     H2       HT       0.417000       1.00800           0
     53806 TIP3     10454    TIP3     OH2      OT      -0.834000       15.9994           0
     53807 TIP3     10454    TIP3     H1       HT       0.417000       1.00800           0
     53808 TIP3     10454    TIP3     H2       HT       0.417000       1.00800           0
     53809 TIP3     10455    TIP3     OH2      OT      -0.834000       15.9994           0
     53810 TIP3     10455    TIP3     H1       HT       0.417000       1.00800           0
     53811 TIP3     10455    TIP3     H2       HT       0.417000       1.00800           0
     53812 TIP3     10456    TIP3     OH2      OT      -0.834000       15.9994           0
     53813 TIP3     10456    TIP3     H1       HT       0.417000       1.00800           0
     53814 TIP3     10456    TIP3     H2       HT       0.417000       1.00800           0
     53815 TIP3     10457    TIP3     OH2      OT      -0.834000       15.9994           0
     53816 TIP3     10457    TIP3     H1       HT       0.417000       1.00800           0
     53817 TIP3     10457    TIP3     H2       HT       0.417000       1.00800           0
     53818 TIP3     10458    TIP3     OH2      OT      -0.834000       15.9994           0
     53819 TIP3     10458    TIP3     H1       HT       0.417000       1.00800           0
     53820 TIP3     10458    TIP3     H2       HT       0.417000       1.00800           0
     53821 TIP3     10459    TIP3     OH2      OT      -0.834000       15.9994           0
     53822 TIP3     10459    TIP3     H1       HT       0.417000       1.00800           0
     53823 TIP3     10459    TIP3     H2       HT       0.417000       1.00800           0
     53824 TIP3     10460    TIP3     OH2      OT      -0.834000       15.9994           0
     53825 TIP3     10460    TIP3     H1       HT       0.417000       1.00800           0
     53826 TIP3     10460    TIP3     H2       HT       0.417000       1.00800           0
     53827 TIP3     10461    TIP3     OH2      OT      -0.834000       15.9994           0
     53828 TIP3     10461    TIP3     H1       HT       0.417000       1.00800           0
     53829 TIP3     10461    TIP3     H2       HT       0.417000       1.00800           0
     53830 TIP3     10462    TIP3     OH2      OT      -0.834000       15.9994           0
     53831 TIP3     10462    TIP3     H1       HT       0.417000       1.00800           0
     53832 TIP3     10462    TIP3     H2       HT       0.417000       1.00800           0
     53833 TIP3     10463    TIP3     OH2      OT      -0.834000       15.9994           0
     53834 TIP3     10463    TIP3     H1       HT       0.417000       1.00800           0
     53835 TIP3     10463    TIP3     H2       HT       0.417000       1.00800           0
     53836 TIP3     10464    TIP3     OH2      OT      -0.834000       15.9994           0
     53837 TIP3     10464    TIP3     H1       HT       0.417000       1.00800           0
     53838 TIP3     10464    TIP3     H2       HT       0.417000       1.00800           0
     53839 TIP3     10465    TIP3     OH2      OT      -0.834000       15.9994           0
     53840 TIP3     10465    TIP3     H1       HT       0.417000       1.00800           0
     53841 TIP3     10465    TIP3     H2       HT       0.417000       1.00800           0
     53842 TIP3     10466    TIP3     OH2      OT      -0.834000       15.9994           0
     53843 TIP3     10466    TIP3     H1       HT       0.417000       1.00800           0
     53844 TIP3     10466    TIP3     H2       HT       0.417000       1.00800           0
     53845 TIP3     10467    TIP3     OH2      OT      -0.834000       15.9994           0
     53846 TIP3     10467    TIP3     H1       HT       0.417000       1.00800           0
     53847 TIP3     10467    TIP3     H2       HT       0.417000       1.00800           0
     53848 TIP3     10468    TIP3     OH2      OT      -0.834000       15.9994           0
     53849 TIP3     10468    TIP3     H1       HT       0.417000       1.00800           0
     53850 TIP3     10468    TIP3     H2       HT       0.417000       1.00800           0
     53851 TIP3     10469    TIP3     OH2      OT      -0.834000       15.9994           0
     53852 TIP3     10469    TIP3     H1       HT       0.417000       1.00800           0
     53853 TIP3     10469    TIP3     H2       HT       0.417000       1.00800           0
     53854 TIP3     10470    TIP3     OH2      OT      -0.834000       15.9994           0
     53855 TIP3     10470    TIP3     H1       HT       0.417000       1.00800           0
     53856 TIP3     10470    TIP3     H2       HT       0.417000       1.00800           0
     53857 TIP3     10471    TIP3     OH2      OT      -0.834000       15.9994           0
     53858 TIP3     10471    TIP3     H1       HT       0.417000       1.00800           0
     53859 TIP3     10471    TIP3     H2       HT       0.417000       1.00800           0
     53860 TIP3     10472    TIP3     OH2      OT      -0.834000       15.9994           0
     53861 TIP3     10472    TIP3     H1       HT       0.417000       1.00800           0
     53862 TIP3     10472    TIP3     H2       HT       0.417000       1.00800           0
     53863 TIP3     10473    TIP3     OH2      OT      -0.834000       15.9994           0
     53864 TIP3     10473    TIP3     H1       HT       0.417000       1.00800           0
     53865 TIP3     10473    TIP3     H2       HT       0.417000       1.00800           0
     53866 TIP3     10474    TIP3     OH2      OT      -0.834000       15.9994           0
     53867 TIP3     10474    TIP3     H1       HT       0.417000       1.00800           0
     53868 TIP3     10474    TIP3     H2       HT       0.417000       1.00800           0
     53869 TIP3     10475    TIP3     OH2      OT      -0.834000       15.9994           0
     53870 TIP3     10475    TIP3     H1       HT       0.417000       1.00800           0
     53871 TIP3     10475    TIP3     H2       HT       0.417000       1.00800           0
     53872 TIP3     10476    TIP3     OH2      OT      -0.834000       15.9994           0
     53873 TIP3     10476    TIP3     H1       HT       0.417000       1.00800           0
     53874 TIP3     10476    TIP3     H2       HT       0.417000       1.00800           0
     53875 TIP3     10477    TIP3     OH2      OT      -0.834000       15.9994           0
     53876 TIP3     10477    TIP3     H1       HT       0.417000       1.00800           0
     53877 TIP3     10477    TIP3     H2       HT       0.417000       1.00800           0
     53878 TIP3     10478    TIP3     OH2      OT      -0.834000       15.9994           0
     53879 TIP3     10478    TIP3     H1       HT       0.417000       1.00800           0
     53880 TIP3     10478    TIP3     H2       HT       0.417000       1.00800           0
     53881 TIP3     10479    TIP3     OH2      OT      -0.834000       15.9994           0
     53882 TIP3     10479    TIP3     H1       HT       0.417000       1.00800           0
     53883 TIP3     10479    TIP3     H2       HT       0.417000       1.00800           0
     53884 TIP3     10480    TIP3     OH2      OT      -0.834000       15.9994           0
     53885 TIP3     10480    TIP3     H1       HT       0.417000       1.00800           0
     53886 TIP3     10480    TIP3     H2       HT       0.417000       1.00800           0
     53887 TIP3     10481    TIP3     OH2      OT      -0.834000       15.9994           0
     53888 TIP3     10481    TIP3     H1       HT       0.417000       1.00800           0
     53889 TIP3     10481    TIP3     H2       HT       0.417000       1.00800           0
     53890 TIP3     10482    TIP3     OH2      OT      -0.834000       15.9994           0
     53891 TIP3     10482    TIP3     H1       HT       0.417000       1.00800           0
     53892 TIP3     10482    TIP3     H2       HT       0.417000       1.00800           0
     53893 TIP3     10483    TIP3     OH2      OT      -0.834000       15.9994           0
     53894 TIP3     10483    TIP3     H1       HT       0.417000       1.00800           0
     53895 TIP3     10483    TIP3     H2       HT       0.417000       1.00800           0
     53896 TIP3     10484    TIP3     OH2      OT      -0.834000       15.9994           0
     53897 TIP3     10484    TIP3     H1       HT       0.417000       1.00800           0
     53898 TIP3     10484    TIP3     H2       HT       0.417000       1.00800           0
     53899 TIP3     10485    TIP3     OH2      OT      -0.834000       15.9994           0
     53900 TIP3     10485    TIP3     H1       HT       0.417000       1.00800           0
     53901 TIP3     10485    TIP3     H2       HT       0.417000       1.00800           0
     53902 TIP3     10486    TIP3     OH2      OT      -0.834000       15.9994           0
     53903 TIP3     10486    TIP3     H1       HT       0.417000       1.00800           0
     53904 TIP3     10486    TIP3     H2       HT       0.417000       1.00800           0
     53905 TIP3     10487    TIP3     OH2      OT      -0.834000       15.9994           0
     53906 TIP3     10487    TIP3     H1       HT       0.417000       1.00800           0
     53907 TIP3     10487    TIP3     H2       HT       0.417000       1.00800           0
     53908 TIP3     10488    TIP3     OH2      OT      -0.834000       15.9994           0
     53909 TIP3     10488    TIP3     H1       HT       0.417000       1.00800           0
     53910 TIP3     10488    TIP3     H2       HT       0.417000       1.00800           0
     53911 TIP3     10489    TIP3     OH2      OT      -0.834000       15.9994           0
     53912 TIP3     10489    TIP3     H1       HT       0.417000       1.00800           0
     53913 TIP3     10489    TIP3     H2       HT       0.417000       1.00800           0
     53914 TIP3     10490    TIP3     OH2      OT      -0.834000       15.9994           0
     53915 TIP3     10490    TIP3     H1       HT       0.417000       1.00800           0
     53916 TIP3     10490    TIP3     H2       HT       0.417000       1.00800           0
     53917 TIP3     10491    TIP3     OH2      OT      -0.834000       15.9994           0
     53918 TIP3     10491    TIP3     H1       HT       0.417000       1.00800           0
     53919 TIP3     10491    TIP3     H2       HT       0.417000       1.00800           0
     53920 TIP3     10492    TIP3     OH2      OT      -0.834000       15.9994           0
     53921 TIP3     10492    TIP3     H1       HT       0.417000       1.00800           0
     53922 TIP3     10492    TIP3     H2       HT       0.417000       1.00800           0
     53923 TIP3     10493    TIP3     OH2      OT      -0.834000       15.9994           0
     53924 TIP3     10493    TIP3     H1       HT       0.417000       1.00800           0
     53925 TIP3     10493    TIP3     H2       HT       0.417000       1.00800           0
     53926 TIP3     10494    TIP3     OH2      OT      -0.834000       15.9994           0
     53927 TIP3     10494    TIP3     H1       HT       0.417000       1.00800           0
     53928 TIP3     10494    TIP3     H2       HT       0.417000       1.00800           0
     53929 TIP3     10495    TIP3     OH2      OT      -0.834000       15.9994           0
     53930 TIP3     10495    TIP3     H1       HT       0.417000       1.00800           0
     53931 TIP3     10495    TIP3     H2       HT       0.417000       1.00800           0
     53932 TIP3     10496    TIP3     OH2      OT      -0.834000       15.9994           0
     53933 TIP3     10496    TIP3     H1       HT       0.417000       1.00800           0
     53934 TIP3     10496    TIP3     H2       HT       0.417000       1.00800           0
     53935 TIP3     10497    TIP3     OH2      OT      -0.834000       15.9994           0
     53936 TIP3     10497    TIP3     H1       HT       0.417000       1.00800           0
     53937 TIP3     10497    TIP3     H2       HT       0.417000       1.00800           0
     53938 TIP3     10498    TIP3     OH2      OT      -0.834000       15.9994           0
     53939 TIP3     10498    TIP3     H1       HT       0.417000       1.00800           0
     53940 TIP3     10498    TIP3     H2       HT       0.417000       1.00800           0
     53941 TIP3     10499    TIP3     OH2      OT      -0.834000       15.9994           0
     53942 TIP3     10499    TIP3     H1       HT       0.417000       1.00800           0
     53943 TIP3     10499    TIP3     H2       HT       0.417000       1.00800           0
     53944 TIP3     10500    TIP3     OH2      OT      -0.834000       15.9994           0
     53945 TIP3     10500    TIP3     H1       HT       0.417000       1.00800           0
     53946 TIP3     10500    TIP3     H2       HT       0.417000       1.00800           0
     53947 TIP3     10501    TIP3     OH2      OT      -0.834000       15.9994           0
     53948 TIP3     10501    TIP3     H1       HT       0.417000       1.00800           0
     53949 TIP3     10501    TIP3     H2       HT       0.417000       1.00800           0
     53950 TIP3     10502    TIP3     OH2      OT      -0.834000       15.9994           0
     53951 TIP3     10502    TIP3     H1       HT       0.417000       1.00800           0
     53952 TIP3     10502    TIP3     H2       HT       0.417000       1.00800           0
     53953 TIP3     10503    TIP3     OH2      OT      -0.834000       15.9994           0
     53954 TIP3     10503    TIP3     H1       HT       0.417000       1.00800           0
     53955 TIP3     10503    TIP3     H2       HT       0.417000       1.00800           0
     53956 TIP3     10504    TIP3     OH2      OT      -0.834000       15.9994           0
     53957 TIP3     10504    TIP3     H1       HT       0.417000       1.00800           0
     53958 TIP3     10504    TIP3     H2       HT       0.417000       1.00800           0
     53959 TIP3     10505    TIP3     OH2      OT      -0.834000       15.9994           0
     53960 TIP3     10505    TIP3     H1       HT       0.417000       1.00800           0
     53961 TIP3     10505    TIP3     H2       HT       0.417000       1.00800           0
     53962 TIP3     10506    TIP3     OH2      OT      -0.834000       15.9994           0
     53963 TIP3     10506    TIP3     H1       HT       0.417000       1.00800           0
     53964 TIP3     10506    TIP3     H2       HT       0.417000       1.00800           0
     53965 TIP3     10507    TIP3     OH2      OT      -0.834000       15.9994           0
     53966 TIP3     10507    TIP3     H1       HT       0.417000       1.00800           0
     53967 TIP3     10507    TIP3     H2       HT       0.417000       1.00800           0
     53968 TIP3     10508    TIP3     OH2      OT      -0.834000       15.9994           0
     53969 TIP3     10508    TIP3     H1       HT       0.417000       1.00800           0
     53970 TIP3     10508    TIP3     H2       HT       0.417000       1.00800           0
     53971 TIP3     10509    TIP3     OH2      OT      -0.834000       15.9994           0
     53972 TIP3     10509    TIP3     H1       HT       0.417000       1.00800           0
     53973 TIP3     10509    TIP3     H2       HT       0.417000       1.00800           0
     53974 TIP3     10510    TIP3     OH2      OT      -0.834000       15.9994           0
     53975 TIP3     10510    TIP3     H1       HT       0.417000       1.00800           0
     53976 TIP3     10510    TIP3     H2       HT       0.417000       1.00800           0
     53977 TIP3     10511    TIP3     OH2      OT      -0.834000       15.9994           0
     53978 TIP3     10511    TIP3     H1       HT       0.417000       1.00800           0
     53979 TIP3     10511    TIP3     H2       HT       0.417000       1.00800           0
     53980 TIP3     10512    TIP3     OH2      OT      -0.834000       15.9994           0
     53981 TIP3     10512    TIP3     H1       HT       0.417000       1.00800           0
     53982 TIP3     10512    TIP3     H2       HT       0.417000       1.00800           0
     53983 TIP3     10513    TIP3     OH2      OT      -0.834000       15.9994           0
     53984 TIP3     10513    TIP3     H1       HT       0.417000       1.00800           0
     53985 TIP3     10513    TIP3     H2       HT       0.417000       1.00800           0
     53986 TIP3     10514    TIP3     OH2      OT      -0.834000       15.9994           0
     53987 TIP3     10514    TIP3     H1       HT       0.417000       1.00800           0
     53988 TIP3     10514    TIP3     H2       HT       0.417000       1.00800           0
     53989 TIP3     10515    TIP3     OH2      OT      -0.834000       15.9994           0
     53990 TIP3     10515    TIP3     H1       HT       0.417000       1.00800           0
     53991 TIP3     10515    TIP3     H2       HT       0.417000       1.00800           0
     53992 TIP3     10516    TIP3     OH2      OT      -0.834000       15.9994           0
     53993 TIP3     10516    TIP3     H1       HT       0.417000       1.00800           0
     53994 TIP3     10516    TIP3     H2       HT       0.417000       1.00800           0
     53995 TIP3     10517    TIP3     OH2      OT      -0.834000       15.9994           0
     53996 TIP3     10517    TIP3     H1       HT       0.417000       1.00800           0
     53997 TIP3     10517    TIP3     H2       HT       0.417000       1.00800           0
     53998 TIP3     10518    TIP3     OH2      OT      -0.834000       15.9994           0
     53999 TIP3     10518    TIP3     H1       HT       0.417000       1.00800           0
     54000 TIP3     10518    TIP3     H2       HT       0.417000       1.00800           0
     54001 TIP3     10519    TIP3     OH2      OT      -0.834000       15.9994           0
     54002 TIP3     10519    TIP3     H1       HT       0.417000       1.00800           0
     54003 TIP3     10519    TIP3     H2       HT       0.417000       1.00800           0
     54004 TIP3     10520    TIP3     OH2      OT      -0.834000       15.9994           0
     54005 TIP3     10520    TIP3     H1       HT       0.417000       1.00800           0
     54006 TIP3     10520    TIP3     H2       HT       0.417000       1.00800           0
     54007 TIP3     10521    TIP3     OH2      OT      -0.834000       15.9994           0
     54008 TIP3     10521    TIP3     H1       HT       0.417000       1.00800           0
     54009 TIP3     10521    TIP3     H2       HT       0.417000       1.00800           0
     54010 TIP3     10522    TIP3     OH2      OT      -0.834000       15.9994           0
     54011 TIP3     10522    TIP3     H1       HT       0.417000       1.00800           0
     54012 TIP3     10522    TIP3     H2       HT       0.417000       1.00800           0
     54013 TIP3     10523    TIP3     OH2      OT      -0.834000       15.9994           0
     54014 TIP3     10523    TIP3     H1       HT       0.417000       1.00800           0
     54015 TIP3     10523    TIP3     H2       HT       0.417000       1.00800           0
     54016 TIP3     10524    TIP3     OH2      OT      -0.834000       15.9994           0
     54017 TIP3     10524    TIP3     H1       HT       0.417000       1.00800           0
     54018 TIP3     10524    TIP3     H2       HT       0.417000       1.00800           0
     54019 TIP3     10525    TIP3     OH2      OT      -0.834000       15.9994           0
     54020 TIP3     10525    TIP3     H1       HT       0.417000       1.00800           0
     54021 TIP3     10525    TIP3     H2       HT       0.417000       1.00800           0
     54022 TIP3     10526    TIP3     OH2      OT      -0.834000       15.9994           0
     54023 TIP3     10526    TIP3     H1       HT       0.417000       1.00800           0
     54024 TIP3     10526    TIP3     H2       HT       0.417000       1.00800           0
     54025 TIP3     10527    TIP3     OH2      OT      -0.834000       15.9994           0
     54026 TIP3     10527    TIP3     H1       HT       0.417000       1.00800           0
     54027 TIP3     10527    TIP3     H2       HT       0.417000       1.00800           0
     54028 TIP3     10528    TIP3     OH2      OT      -0.834000       15.9994           0
     54029 TIP3     10528    TIP3     H1       HT       0.417000       1.00800           0
     54030 TIP3     10528    TIP3     H2       HT       0.417000       1.00800           0
     54031 TIP3     10529    TIP3     OH2      OT      -0.834000       15.9994           0
     54032 TIP3     10529    TIP3     H1       HT       0.417000       1.00800           0
     54033 TIP3     10529    TIP3     H2       HT       0.417000       1.00800           0
     54034 TIP3     10530    TIP3     OH2      OT      -0.834000       15.9994           0
     54035 TIP3     10530    TIP3     H1       HT       0.417000       1.00800           0
     54036 TIP3     10530    TIP3     H2       HT       0.417000       1.00800           0
     54037 TIP3     10531    TIP3     OH2      OT      -0.834000       15.9994           0
     54038 TIP3     10531    TIP3     H1       HT       0.417000       1.00800           0
     54039 TIP3     10531    TIP3     H2       HT       0.417000       1.00800           0
     54040 TIP3     10532    TIP3     OH2      OT      -0.834000       15.9994           0
     54041 TIP3     10532    TIP3     H1       HT       0.417000       1.00800           0
     54042 TIP3     10532    TIP3     H2       HT       0.417000       1.00800           0
     54043 TIP3     10533    TIP3     OH2      OT      -0.834000       15.9994           0
     54044 TIP3     10533    TIP3     H1       HT       0.417000       1.00800           0
     54045 TIP3     10533    TIP3     H2       HT       0.417000       1.00800           0
     54046 TIP3     10534    TIP3     OH2      OT      -0.834000       15.9994           0
     54047 TIP3     10534    TIP3     H1       HT       0.417000       1.00800           0
     54048 TIP3     10534    TIP3     H2       HT       0.417000       1.00800           0
     54049 TIP3     10535    TIP3     OH2      OT      -0.834000       15.9994           0
     54050 TIP3     10535    TIP3     H1       HT       0.417000       1.00800           0
     54051 TIP3     10535    TIP3     H2       HT       0.417000       1.00800           0
     54052 TIP3     10536    TIP3     OH2      OT      -0.834000       15.9994           0
     54053 TIP3     10536    TIP3     H1       HT       0.417000       1.00800           0
     54054 TIP3     10536    TIP3     H2       HT       0.417000       1.00800           0
     54055 TIP3     10537    TIP3     OH2      OT      -0.834000       15.9994           0
     54056 TIP3     10537    TIP3     H1       HT       0.417000       1.00800           0
     54057 TIP3     10537    TIP3     H2       HT       0.417000       1.00800           0
     54058 TIP3     10538    TIP3     OH2      OT      -0.834000       15.9994           0
     54059 TIP3     10538    TIP3     H1       HT       0.417000       1.00800           0
     54060 TIP3     10538    TIP3     H2       HT       0.417000       1.00800           0
     54061 TIP3     10539    TIP3     OH2      OT      -0.834000       15.9994           0
     54062 TIP3     10539    TIP3     H1       HT       0.417000       1.00800           0
     54063 TIP3     10539    TIP3     H2       HT       0.417000       1.00800           0
     54064 TIP3     10540    TIP3     OH2      OT      -0.834000       15.9994           0
     54065 TIP3     10540    TIP3     H1       HT       0.417000       1.00800           0
     54066 TIP3     10540    TIP3     H2       HT       0.417000       1.00800           0
     54067 TIP3     10541    TIP3     OH2      OT      -0.834000       15.9994           0
     54068 TIP3     10541    TIP3     H1       HT       0.417000       1.00800           0
     54069 TIP3     10541    TIP3     H2       HT       0.417000       1.00800           0
     54070 TIP3     10542    TIP3     OH2      OT      -0.834000       15.9994           0
     54071 TIP3     10542    TIP3     H1       HT       0.417000       1.00800           0
     54072 TIP3     10542    TIP3     H2       HT       0.417000       1.00800           0
     54073 TIP3     10543    TIP3     OH2      OT      -0.834000       15.9994           0
     54074 TIP3     10543    TIP3     H1       HT       0.417000       1.00800           0
     54075 TIP3     10543    TIP3     H2       HT       0.417000       1.00800           0
     54076 TIP3     10544    TIP3     OH2      OT      -0.834000       15.9994           0
     54077 TIP3     10544    TIP3     H1       HT       0.417000       1.00800           0
     54078 TIP3     10544    TIP3     H2       HT       0.417000       1.00800           0
     54079 TIP3     10545    TIP3     OH2      OT      -0.834000       15.9994           0
     54080 TIP3     10545    TIP3     H1       HT       0.417000       1.00800           0
     54081 TIP3     10545    TIP3     H2       HT       0.417000       1.00800           0
     54082 TIP3     10546    TIP3     OH2      OT      -0.834000       15.9994           0
     54083 TIP3     10546    TIP3     H1       HT       0.417000       1.00800           0
     54084 TIP3     10546    TIP3     H2       HT       0.417000       1.00800           0
     54085 TIP3     10547    TIP3     OH2      OT      -0.834000       15.9994           0
     54086 TIP3     10547    TIP3     H1       HT       0.417000       1.00800           0
     54087 TIP3     10547    TIP3     H2       HT       0.417000       1.00800           0
     54088 TIP3     10548    TIP3     OH2      OT      -0.834000       15.9994           0
     54089 TIP3     10548    TIP3     H1       HT       0.417000       1.00800           0
     54090 TIP3     10548    TIP3     H2       HT       0.417000       1.00800           0
     54091 TIP3     10549    TIP3     OH2      OT      -0.834000       15.9994           0
     54092 TIP3     10549    TIP3     H1       HT       0.417000       1.00800           0
     54093 TIP3     10549    TIP3     H2       HT       0.417000       1.00800           0
     54094 TIP3     10550    TIP3     OH2      OT      -0.834000       15.9994           0
     54095 TIP3     10550    TIP3     H1       HT       0.417000       1.00800           0
     54096 TIP3     10550    TIP3     H2       HT       0.417000       1.00800           0
     54097 TIP3     10551    TIP3     OH2      OT      -0.834000       15.9994           0
     54098 TIP3     10551    TIP3     H1       HT       0.417000       1.00800           0
     54099 TIP3     10551    TIP3     H2       HT       0.417000       1.00800           0
     54100 TIP3     10552    TIP3     OH2      OT      -0.834000       15.9994           0
     54101 TIP3     10552    TIP3     H1       HT       0.417000       1.00800           0
     54102 TIP3     10552    TIP3     H2       HT       0.417000       1.00800           0
     54103 TIP3     10553    TIP3     OH2      OT      -0.834000       15.9994           0
     54104 TIP3     10553    TIP3     H1       HT       0.417000       1.00800           0
     54105 TIP3     10553    TIP3     H2       HT       0.417000       1.00800           0
     54106 TIP3     10554    TIP3     OH2      OT      -0.834000       15.9994           0
     54107 TIP3     10554    TIP3     H1       HT       0.417000       1.00800           0
     54108 TIP3     10554    TIP3     H2       HT       0.417000       1.00800           0
     54109 TIP3     10555    TIP3     OH2      OT      -0.834000       15.9994           0
     54110 TIP3     10555    TIP3     H1       HT       0.417000       1.00800           0
     54111 TIP3     10555    TIP3     H2       HT       0.417000       1.00800           0
     54112 TIP3     10556    TIP3     OH2      OT      -0.834000       15.9994           0
     54113 TIP3     10556    TIP3     H1       HT       0.417000       1.00800           0
     54114 TIP3     10556    TIP3     H2       HT       0.417000       1.00800           0
     54115 TIP3     10557    TIP3     OH2      OT      -0.834000       15.9994           0
     54116 TIP3     10557    TIP3     H1       HT       0.417000       1.00800           0
     54117 TIP3     10557    TIP3     H2       HT       0.417000       1.00800           0
     54118 TIP3     10558    TIP3     OH2      OT      -0.834000       15.9994           0
     54119 TIP3     10558    TIP3     H1       HT       0.417000       1.00800           0
     54120 TIP3     10558    TIP3     H2       HT       0.417000       1.00800           0
     54121 TIP3     10559    TIP3     OH2      OT      -0.834000       15.9994           0
     54122 TIP3     10559    TIP3     H1       HT       0.417000       1.00800           0
     54123 TIP3     10559    TIP3     H2       HT       0.417000       1.00800           0
     54124 TIP3     10560    TIP3     OH2      OT      -0.834000       15.9994           0
     54125 TIP3     10560    TIP3     H1       HT       0.417000       1.00800           0
     54126 TIP3     10560    TIP3     H2       HT       0.417000       1.00800           0
     54127 TIP3     10561    TIP3     OH2      OT      -0.834000       15.9994           0
     54128 TIP3     10561    TIP3     H1       HT       0.417000       1.00800           0
     54129 TIP3     10561    TIP3     H2       HT       0.417000       1.00800           0
     54130 TIP3     10562    TIP3     OH2      OT      -0.834000       15.9994           0
     54131 TIP3     10562    TIP3     H1       HT       0.417000       1.00800           0
     54132 TIP3     10562    TIP3     H2       HT       0.417000       1.00800           0
     54133 TIP3     10563    TIP3     OH2      OT      -0.834000       15.9994           0
     54134 TIP3     10563    TIP3     H1       HT       0.417000       1.00800           0
     54135 TIP3     10563    TIP3     H2       HT       0.417000       1.00800           0
     54136 TIP3     10564    TIP3     OH2      OT      -0.834000       15.9994           0
     54137 TIP3     10564    TIP3     H1       HT       0.417000       1.00800           0
     54138 TIP3     10564    TIP3     H2       HT       0.417000       1.00800           0
     54139 TIP3     10565    TIP3     OH2      OT      -0.834000       15.9994           0
     54140 TIP3     10565    TIP3     H1       HT       0.417000       1.00800           0
     54141 TIP3     10565    TIP3     H2       HT       0.417000       1.00800           0
     54142 TIP3     10566    TIP3     OH2      OT      -0.834000       15.9994           0
     54143 TIP3     10566    TIP3     H1       HT       0.417000       1.00800           0
     54144 TIP3     10566    TIP3     H2       HT       0.417000       1.00800           0
     54145 TIP3     10567    TIP3     OH2      OT      -0.834000       15.9994           0
     54146 TIP3     10567    TIP3     H1       HT       0.417000       1.00800           0
     54147 TIP3     10567    TIP3     H2       HT       0.417000       1.00800           0
     54148 TIP3     10568    TIP3     OH2      OT      -0.834000       15.9994           0
     54149 TIP3     10568    TIP3     H1       HT       0.417000       1.00800           0
     54150 TIP3     10568    TIP3     H2       HT       0.417000       1.00800           0
     54151 TIP3     10569    TIP3     OH2      OT      -0.834000       15.9994           0
     54152 TIP3     10569    TIP3     H1       HT       0.417000       1.00800           0
     54153 TIP3     10569    TIP3     H2       HT       0.417000       1.00800           0
     54154 TIP3     10570    TIP3     OH2      OT      -0.834000       15.9994           0
     54155 TIP3     10570    TIP3     H1       HT       0.417000       1.00800           0
     54156 TIP3     10570    TIP3     H2       HT       0.417000       1.00800           0
     54157 TIP3     10571    TIP3     OH2      OT      -0.834000       15.9994           0
     54158 TIP3     10571    TIP3     H1       HT       0.417000       1.00800           0
     54159 TIP3     10571    TIP3     H2       HT       0.417000       1.00800           0
     54160 TIP3     10572    TIP3     OH2      OT      -0.834000       15.9994           0
     54161 TIP3     10572    TIP3     H1       HT       0.417000       1.00800           0
     54162 TIP3     10572    TIP3     H2       HT       0.417000       1.00800           0
     54163 TIP3     10573    TIP3     OH2      OT      -0.834000       15.9994           0
     54164 TIP3     10573    TIP3     H1       HT       0.417000       1.00800           0
     54165 TIP3     10573    TIP3     H2       HT       0.417000       1.00800           0
     54166 TIP3     10574    TIP3     OH2      OT      -0.834000       15.9994           0
     54167 TIP3     10574    TIP3     H1       HT       0.417000       1.00800           0
     54168 TIP3     10574    TIP3     H2       HT       0.417000       1.00800           0
     54169 TIP3     10575    TIP3     OH2      OT      -0.834000       15.9994           0
     54170 TIP3     10575    TIP3     H1       HT       0.417000       1.00800           0
     54171 TIP3     10575    TIP3     H2       HT       0.417000       1.00800           0
     54172 TIP3     10576    TIP3     OH2      OT      -0.834000       15.9994           0
     54173 TIP3     10576    TIP3     H1       HT       0.417000       1.00800           0
     54174 TIP3     10576    TIP3     H2       HT       0.417000       1.00800           0
     54175 TIP3     10577    TIP3     OH2      OT      -0.834000       15.9994           0
     54176 TIP3     10577    TIP3     H1       HT       0.417000       1.00800           0
     54177 TIP3     10577    TIP3     H2       HT       0.417000       1.00800           0
     54178 TIP3     10578    TIP3     OH2      OT      -0.834000       15.9994           0
     54179 TIP3     10578    TIP3     H1       HT       0.417000       1.00800           0
     54180 TIP3     10578    TIP3     H2       HT       0.417000       1.00800           0
     54181 TIP3     10579    TIP3     OH2      OT      -0.834000       15.9994           0
     54182 TIP3     10579    TIP3     H1       HT       0.417000       1.00800           0
     54183 TIP3     10579    TIP3     H2       HT       0.417000       1.00800           0
     54184 TIP3     10580    TIP3     OH2      OT      -0.834000       15.9994           0
     54185 TIP3     10580    TIP3     H1       HT       0.417000       1.00800           0
     54186 TIP3     10580    TIP3     H2       HT       0.417000       1.00800           0
     54187 TIP3     10581    TIP3     OH2      OT      -0.834000       15.9994           0
     54188 TIP3     10581    TIP3     H1       HT       0.417000       1.00800           0
     54189 TIP3     10581    TIP3     H2       HT       0.417000       1.00800           0
     54190 TIP3     10582    TIP3     OH2      OT      -0.834000       15.9994           0
     54191 TIP3     10582    TIP3     H1       HT       0.417000       1.00800           0
     54192 TIP3     10582    TIP3     H2       HT       0.417000       1.00800           0
     54193 TIP3     10583    TIP3     OH2      OT      -0.834000       15.9994           0
     54194 TIP3     10583    TIP3     H1       HT       0.417000       1.00800           0
     54195 TIP3     10583    TIP3     H2       HT       0.417000       1.00800           0
     54196 TIP3     10584    TIP3     OH2      OT      -0.834000       15.9994           0
     54197 TIP3     10584    TIP3     H1       HT       0.417000       1.00800           0
     54198 TIP3     10584    TIP3     H2       HT       0.417000       1.00800           0
     54199 TIP3     10585    TIP3     OH2      OT      -0.834000       15.9994           0
     54200 TIP3     10585    TIP3     H1       HT       0.417000       1.00800           0
     54201 TIP3     10585    TIP3     H2       HT       0.417000       1.00800           0
     54202 TIP3     10586    TIP3     OH2      OT      -0.834000       15.9994           0
     54203 TIP3     10586    TIP3     H1       HT       0.417000       1.00800           0
     54204 TIP3     10586    TIP3     H2       HT       0.417000       1.00800           0
     54205 TIP3     10587    TIP3     OH2      OT      -0.834000       15.9994           0
     54206 TIP3     10587    TIP3     H1       HT       0.417000       1.00800           0
     54207 TIP3     10587    TIP3     H2       HT       0.417000       1.00800           0
     54208 TIP3     10588    TIP3     OH2      OT      -0.834000       15.9994           0
     54209 TIP3     10588    TIP3     H1       HT       0.417000       1.00800           0
     54210 TIP3     10588    TIP3     H2       HT       0.417000       1.00800           0
     54211 TIP3     10589    TIP3     OH2      OT      -0.834000       15.9994           0
     54212 TIP3     10589    TIP3     H1       HT       0.417000       1.00800           0
     54213 TIP3     10589    TIP3     H2       HT       0.417000       1.00800           0
     54214 TIP3     10590    TIP3     OH2      OT      -0.834000       15.9994           0
     54215 TIP3     10590    TIP3     H1       HT       0.417000       1.00800           0
     54216 TIP3     10590    TIP3     H2       HT       0.417000       1.00800           0
     54217 TIP3     10591    TIP3     OH2      OT      -0.834000       15.9994           0
     54218 TIP3     10591    TIP3     H1       HT       0.417000       1.00800           0
     54219 TIP3     10591    TIP3     H2       HT       0.417000       1.00800           0
     54220 TIP3     10592    TIP3     OH2      OT      -0.834000       15.9994           0
     54221 TIP3     10592    TIP3     H1       HT       0.417000       1.00800           0
     54222 TIP3     10592    TIP3     H2       HT       0.417000       1.00800           0
     54223 TIP3     10593    TIP3     OH2      OT      -0.834000       15.9994           0
     54224 TIP3     10593    TIP3     H1       HT       0.417000       1.00800           0
     54225 TIP3     10593    TIP3     H2       HT       0.417000       1.00800           0
     54226 TIP3     10594    TIP3     OH2      OT      -0.834000       15.9994           0
     54227 TIP3     10594    TIP3     H1       HT       0.417000       1.00800           0
     54228 TIP3     10594    TIP3     H2       HT       0.417000       1.00800           0
     54229 TIP3     10595    TIP3     OH2      OT      -0.834000       15.9994           0
     54230 TIP3     10595    TIP3     H1       HT       0.417000       1.00800           0
     54231 TIP3     10595    TIP3     H2       HT       0.417000       1.00800           0
     54232 TIP3     10596    TIP3     OH2      OT      -0.834000       15.9994           0
     54233 TIP3     10596    TIP3     H1       HT       0.417000       1.00800           0
     54234 TIP3     10596    TIP3     H2       HT       0.417000       1.00800           0
     54235 TIP3     10597    TIP3     OH2      OT      -0.834000       15.9994           0
     54236 TIP3     10597    TIP3     H1       HT       0.417000       1.00800           0
     54237 TIP3     10597    TIP3     H2       HT       0.417000       1.00800           0
     54238 TIP3     10598    TIP3     OH2      OT      -0.834000       15.9994           0
     54239 TIP3     10598    TIP3     H1       HT       0.417000       1.00800           0
     54240 TIP3     10598    TIP3     H2       HT       0.417000       1.00800           0
     54241 TIP3     10599    TIP3     OH2      OT      -0.834000       15.9994           0
     54242 TIP3     10599    TIP3     H1       HT       0.417000       1.00800           0
     54243 TIP3     10599    TIP3     H2       HT       0.417000       1.00800           0
     54244 TIP3     10600    TIP3     OH2      OT      -0.834000       15.9994           0
     54245 TIP3     10600    TIP3     H1       HT       0.417000       1.00800           0
     54246 TIP3     10600    TIP3     H2       HT       0.417000       1.00800           0
     54247 TIP3     10601    TIP3     OH2      OT      -0.834000       15.9994           0
     54248 TIP3     10601    TIP3     H1       HT       0.417000       1.00800           0
     54249 TIP3     10601    TIP3     H2       HT       0.417000       1.00800           0
     54250 TIP3     10602    TIP3     OH2      OT      -0.834000       15.9994           0
     54251 TIP3     10602    TIP3     H1       HT       0.417000       1.00800           0
     54252 TIP3     10602    TIP3     H2       HT       0.417000       1.00800           0
     54253 TIP3     10603    TIP3     OH2      OT      -0.834000       15.9994           0
     54254 TIP3     10603    TIP3     H1       HT       0.417000       1.00800           0
     54255 TIP3     10603    TIP3     H2       HT       0.417000       1.00800           0
     54256 TIP3     10604    TIP3     OH2      OT      -0.834000       15.9994           0
     54257 TIP3     10604    TIP3     H1       HT       0.417000       1.00800           0
     54258 TIP3     10604    TIP3     H2       HT       0.417000       1.00800           0
     54259 TIP3     10605    TIP3     OH2      OT      -0.834000       15.9994           0
     54260 TIP3     10605    TIP3     H1       HT       0.417000       1.00800           0
     54261 TIP3     10605    TIP3     H2       HT       0.417000       1.00800           0
     54262 TIP3     10606    TIP3     OH2      OT      -0.834000       15.9994           0
     54263 TIP3     10606    TIP3     H1       HT       0.417000       1.00800           0
     54264 TIP3     10606    TIP3     H2       HT       0.417000       1.00800           0
     54265 TIP3     10607    TIP3     OH2      OT      -0.834000       15.9994           0
     54266 TIP3     10607    TIP3     H1       HT       0.417000       1.00800           0
     54267 TIP3     10607    TIP3     H2       HT       0.417000       1.00800           0
     54268 TIP3     10608    TIP3     OH2      OT      -0.834000       15.9994           0
     54269 TIP3     10608    TIP3     H1       HT       0.417000       1.00800           0
     54270 TIP3     10608    TIP3     H2       HT       0.417000       1.00800           0
     54271 TIP3     10609    TIP3     OH2      OT      -0.834000       15.9994           0
     54272 TIP3     10609    TIP3     H1       HT       0.417000       1.00800           0
     54273 TIP3     10609    TIP3     H2       HT       0.417000       1.00800           0
     54274 TIP3     10610    TIP3     OH2      OT      -0.834000       15.9994           0
     54275 TIP3     10610    TIP3     H1       HT       0.417000       1.00800           0
     54276 TIP3     10610    TIP3     H2       HT       0.417000       1.00800           0
     54277 TIP3     10611    TIP3     OH2      OT      -0.834000       15.9994           0
     54278 TIP3     10611    TIP3     H1       HT       0.417000       1.00800           0
     54279 TIP3     10611    TIP3     H2       HT       0.417000       1.00800           0
     54280 TIP3     10612    TIP3     OH2      OT      -0.834000       15.9994           0
     54281 TIP3     10612    TIP3     H1       HT       0.417000       1.00800           0
     54282 TIP3     10612    TIP3     H2       HT       0.417000       1.00800           0
     54283 TIP3     10613    TIP3     OH2      OT      -0.834000       15.9994           0
     54284 TIP3     10613    TIP3     H1       HT       0.417000       1.00800           0
     54285 TIP3     10613    TIP3     H2       HT       0.417000       1.00800           0
     54286 TIP3     10614    TIP3     OH2      OT      -0.834000       15.9994           0
     54287 TIP3     10614    TIP3     H1       HT       0.417000       1.00800           0
     54288 TIP3     10614    TIP3     H2       HT       0.417000       1.00800           0
     54289 TIP3     10615    TIP3     OH2      OT      -0.834000       15.9994           0
     54290 TIP3     10615    TIP3     H1       HT       0.417000       1.00800           0
     54291 TIP3     10615    TIP3     H2       HT       0.417000       1.00800           0
     54292 TIP3     10616    TIP3     OH2      OT      -0.834000       15.9994           0
     54293 TIP3     10616    TIP3     H1       HT       0.417000       1.00800           0
     54294 TIP3     10616    TIP3     H2       HT       0.417000       1.00800           0
     54295 TIP3     10617    TIP3     OH2      OT      -0.834000       15.9994           0
     54296 TIP3     10617    TIP3     H1       HT       0.417000       1.00800           0
     54297 TIP3     10617    TIP3     H2       HT       0.417000       1.00800           0
     54298 TIP3     10618    TIP3     OH2      OT      -0.834000       15.9994           0
     54299 TIP3     10618    TIP3     H1       HT       0.417000       1.00800           0
     54300 TIP3     10618    TIP3     H2       HT       0.417000       1.00800           0
     54301 TIP3     10619    TIP3     OH2      OT      -0.834000       15.9994           0
     54302 TIP3     10619    TIP3     H1       HT       0.417000       1.00800           0
     54303 TIP3     10619    TIP3     H2       HT       0.417000       1.00800           0
     54304 TIP3     10620    TIP3     OH2      OT      -0.834000       15.9994           0
     54305 TIP3     10620    TIP3     H1       HT       0.417000       1.00800           0
     54306 TIP3     10620    TIP3     H2       HT       0.417000       1.00800           0
     54307 TIP3     10621    TIP3     OH2      OT      -0.834000       15.9994           0
     54308 TIP3     10621    TIP3     H1       HT       0.417000       1.00800           0
     54309 TIP3     10621    TIP3     H2       HT       0.417000       1.00800           0
     54310 TIP3     10622    TIP3     OH2      OT      -0.834000       15.9994           0
     54311 TIP3     10622    TIP3     H1       HT       0.417000       1.00800           0
     54312 TIP3     10622    TIP3     H2       HT       0.417000       1.00800           0
     54313 TIP3     10623    TIP3     OH2      OT      -0.834000       15.9994           0
     54314 TIP3     10623    TIP3     H1       HT       0.417000       1.00800           0
     54315 TIP3     10623    TIP3     H2       HT       0.417000       1.00800           0
     54316 TIP3     10624    TIP3     OH2      OT      -0.834000       15.9994           0
     54317 TIP3     10624    TIP3     H1       HT       0.417000       1.00800           0
     54318 TIP3     10624    TIP3     H2       HT       0.417000       1.00800           0
     54319 TIP3     10625    TIP3     OH2      OT      -0.834000       15.9994           0
     54320 TIP3     10625    TIP3     H1       HT       0.417000       1.00800           0
     54321 TIP3     10625    TIP3     H2       HT       0.417000       1.00800           0
     54322 TIP3     10626    TIP3     OH2      OT      -0.834000       15.9994           0
     54323 TIP3     10626    TIP3     H1       HT       0.417000       1.00800           0
     54324 TIP3     10626    TIP3     H2       HT       0.417000       1.00800           0
     54325 TIP3     10627    TIP3     OH2      OT      -0.834000       15.9994           0
     54326 TIP3     10627    TIP3     H1       HT       0.417000       1.00800           0
     54327 TIP3     10627    TIP3     H2       HT       0.417000       1.00800           0
     54328 TIP3     10628    TIP3     OH2      OT      -0.834000       15.9994           0
     54329 TIP3     10628    TIP3     H1       HT       0.417000       1.00800           0
     54330 TIP3     10628    TIP3     H2       HT       0.417000       1.00800           0
     54331 TIP3     10629    TIP3     OH2      OT      -0.834000       15.9994           0
     54332 TIP3     10629    TIP3     H1       HT       0.417000       1.00800           0
     54333 TIP3     10629    TIP3     H2       HT       0.417000       1.00800           0
     54334 TIP3     10630    TIP3     OH2      OT      -0.834000       15.9994           0
     54335 TIP3     10630    TIP3     H1       HT       0.417000       1.00800           0
     54336 TIP3     10630    TIP3     H2       HT       0.417000       1.00800           0
     54337 TIP3     10631    TIP3     OH2      OT      -0.834000       15.9994           0
     54338 TIP3     10631    TIP3     H1       HT       0.417000       1.00800           0
     54339 TIP3     10631    TIP3     H2       HT       0.417000       1.00800           0
     54340 TIP3     10632    TIP3     OH2      OT      -0.834000       15.9994           0
     54341 TIP3     10632    TIP3     H1       HT       0.417000       1.00800           0
     54342 TIP3     10632    TIP3     H2       HT       0.417000       1.00800           0
     54343 TIP3     10633    TIP3     OH2      OT      -0.834000       15.9994           0
     54344 TIP3     10633    TIP3     H1       HT       0.417000       1.00800           0
     54345 TIP3     10633    TIP3     H2       HT       0.417000       1.00800           0
     54346 TIP3     10634    TIP3     OH2      OT      -0.834000       15.9994           0
     54347 TIP3     10634    TIP3     H1       HT       0.417000       1.00800           0
     54348 TIP3     10634    TIP3     H2       HT       0.417000       1.00800           0
     54349 TIP3     10635    TIP3     OH2      OT      -0.834000       15.9994           0
     54350 TIP3     10635    TIP3     H1       HT       0.417000       1.00800           0
     54351 TIP3     10635    TIP3     H2       HT       0.417000       1.00800           0
     54352 TIP3     10636    TIP3     OH2      OT      -0.834000       15.9994           0
     54353 TIP3     10636    TIP3     H1       HT       0.417000       1.00800           0
     54354 TIP3     10636    TIP3     H2       HT       0.417000       1.00800           0
     54355 TIP3     10637    TIP3     OH2      OT      -0.834000       15.9994           0
     54356 TIP3     10637    TIP3     H1       HT       0.417000       1.00800           0
     54357 TIP3     10637    TIP3     H2       HT       0.417000       1.00800           0
     54358 TIP3     10638    TIP3     OH2      OT      -0.834000       15.9994           0
     54359 TIP3     10638    TIP3     H1       HT       0.417000       1.00800           0
     54360 TIP3     10638    TIP3     H2       HT       0.417000       1.00800           0
     54361 TIP3     10639    TIP3     OH2      OT      -0.834000       15.9994           0
     54362 TIP3     10639    TIP3     H1       HT       0.417000       1.00800           0
     54363 TIP3     10639    TIP3     H2       HT       0.417000       1.00800           0
     54364 TIP3     10640    TIP3     OH2      OT      -0.834000       15.9994           0
     54365 TIP3     10640    TIP3     H1       HT       0.417000       1.00800           0
     54366 TIP3     10640    TIP3     H2       HT       0.417000       1.00800           0
     54367 TIP3     10641    TIP3     OH2      OT      -0.834000       15.9994           0
     54368 TIP3     10641    TIP3     H1       HT       0.417000       1.00800           0
     54369 TIP3     10641    TIP3     H2       HT       0.417000       1.00800           0
     54370 TIP3     10642    TIP3     OH2      OT      -0.834000       15.9994           0
     54371 TIP3     10642    TIP3     H1       HT       0.417000       1.00800           0
     54372 TIP3     10642    TIP3     H2       HT       0.417000       1.00800           0
     54373 TIP3     10643    TIP3     OH2      OT      -0.834000       15.9994           0
     54374 TIP3     10643    TIP3     H1       HT       0.417000       1.00800           0
     54375 TIP3     10643    TIP3     H2       HT       0.417000       1.00800           0
     54376 TIP3     10644    TIP3     OH2      OT      -0.834000       15.9994           0
     54377 TIP3     10644    TIP3     H1       HT       0.417000       1.00800           0
     54378 TIP3     10644    TIP3     H2       HT       0.417000       1.00800           0
     54379 TIP3     10645    TIP3     OH2      OT      -0.834000       15.9994           0
     54380 TIP3     10645    TIP3     H1       HT       0.417000       1.00800           0
     54381 TIP3     10645    TIP3     H2       HT       0.417000       1.00800           0
     54382 TIP3     10646    TIP3     OH2      OT      -0.834000       15.9994           0
     54383 TIP3     10646    TIP3     H1       HT       0.417000       1.00800           0
     54384 TIP3     10646    TIP3     H2       HT       0.417000       1.00800           0
     54385 TIP3     10647    TIP3     OH2      OT      -0.834000       15.9994           0
     54386 TIP3     10647    TIP3     H1       HT       0.417000       1.00800           0
     54387 TIP3     10647    TIP3     H2       HT       0.417000       1.00800           0
     54388 TIP3     10648    TIP3     OH2      OT      -0.834000       15.9994           0
     54389 TIP3     10648    TIP3     H1       HT       0.417000       1.00800           0
     54390 TIP3     10648    TIP3     H2       HT       0.417000       1.00800           0
     54391 TIP3     10649    TIP3     OH2      OT      -0.834000       15.9994           0
     54392 TIP3     10649    TIP3     H1       HT       0.417000       1.00800           0
     54393 TIP3     10649    TIP3     H2       HT       0.417000       1.00800           0
     54394 TIP3     10650    TIP3     OH2      OT      -0.834000       15.9994           0
     54395 TIP3     10650    TIP3     H1       HT       0.417000       1.00800           0
     54396 TIP3     10650    TIP3     H2       HT       0.417000       1.00800           0
     54397 TIP3     10651    TIP3     OH2      OT      -0.834000       15.9994           0
     54398 TIP3     10651    TIP3     H1       HT       0.417000       1.00800           0
     54399 TIP3     10651    TIP3     H2       HT       0.417000       1.00800           0
     54400 TIP3     10652    TIP3     OH2      OT      -0.834000       15.9994           0
     54401 TIP3     10652    TIP3     H1       HT       0.417000       1.00800           0
     54402 TIP3     10652    TIP3     H2       HT       0.417000       1.00800           0
     54403 TIP3     10653    TIP3     OH2      OT      -0.834000       15.9994           0
     54404 TIP3     10653    TIP3     H1       HT       0.417000       1.00800           0
     54405 TIP3     10653    TIP3     H2       HT       0.417000       1.00800           0
     54406 TIP3     10654    TIP3     OH2      OT      -0.834000       15.9994           0
     54407 TIP3     10654    TIP3     H1       HT       0.417000       1.00800           0
     54408 TIP3     10654    TIP3     H2       HT       0.417000       1.00800           0
     54409 TIP3     10655    TIP3     OH2      OT      -0.834000       15.9994           0
     54410 TIP3     10655    TIP3     H1       HT       0.417000       1.00800           0
     54411 TIP3     10655    TIP3     H2       HT       0.417000       1.00800           0
     54412 TIP3     10656    TIP3     OH2      OT      -0.834000       15.9994           0
     54413 TIP3     10656    TIP3     H1       HT       0.417000       1.00800           0
     54414 TIP3     10656    TIP3     H2       HT       0.417000       1.00800           0
     54415 TIP3     10657    TIP3     OH2      OT      -0.834000       15.9994           0
     54416 TIP3     10657    TIP3     H1       HT       0.417000       1.00800           0
     54417 TIP3     10657    TIP3     H2       HT       0.417000       1.00800           0
     54418 TIP3     10658    TIP3     OH2      OT      -0.834000       15.9994           0
     54419 TIP3     10658    TIP3     H1       HT       0.417000       1.00800           0
     54420 TIP3     10658    TIP3     H2       HT       0.417000       1.00800           0
     54421 TIP3     10659    TIP3     OH2      OT      -0.834000       15.9994           0
     54422 TIP3     10659    TIP3     H1       HT       0.417000       1.00800           0
     54423 TIP3     10659    TIP3     H2       HT       0.417000       1.00800           0
     54424 TIP3     10660    TIP3     OH2      OT      -0.834000       15.9994           0
     54425 TIP3     10660    TIP3     H1       HT       0.417000       1.00800           0
     54426 TIP3     10660    TIP3     H2       HT       0.417000       1.00800           0
     54427 TIP3     10661    TIP3     OH2      OT      -0.834000       15.9994           0
     54428 TIP3     10661    TIP3     H1       HT       0.417000       1.00800           0
     54429 TIP3     10661    TIP3     H2       HT       0.417000       1.00800           0
     54430 TIP3     10662    TIP3     OH2      OT      -0.834000       15.9994           0
     54431 TIP3     10662    TIP3     H1       HT       0.417000       1.00800           0
     54432 TIP3     10662    TIP3     H2       HT       0.417000       1.00800           0
     54433 TIP3     10663    TIP3     OH2      OT      -0.834000       15.9994           0
     54434 TIP3     10663    TIP3     H1       HT       0.417000       1.00800           0
     54435 TIP3     10663    TIP3     H2       HT       0.417000       1.00800           0
     54436 TIP3     10664    TIP3     OH2      OT      -0.834000       15.9994           0
     54437 TIP3     10664    TIP3     H1       HT       0.417000       1.00800           0
     54438 TIP3     10664    TIP3     H2       HT       0.417000       1.00800           0
     54439 TIP3     10665    TIP3     OH2      OT      -0.834000       15.9994           0
     54440 TIP3     10665    TIP3     H1       HT       0.417000       1.00800           0
     54441 TIP3     10665    TIP3     H2       HT       0.417000       1.00800           0
     54442 TIP3     10666    TIP3     OH2      OT      -0.834000       15.9994           0
     54443 TIP3     10666    TIP3     H1       HT       0.417000       1.00800           0
     54444 TIP3     10666    TIP3     H2       HT       0.417000       1.00800           0
     54445 TIP3     10667    TIP3     OH2      OT      -0.834000       15.9994           0
     54446 TIP3     10667    TIP3     H1       HT       0.417000       1.00800           0
     54447 TIP3     10667    TIP3     H2       HT       0.417000       1.00800           0
     54448 TIP3     10668    TIP3     OH2      OT      -0.834000       15.9994           0
     54449 TIP3     10668    TIP3     H1       HT       0.417000       1.00800           0
     54450 TIP3     10668    TIP3     H2       HT       0.417000       1.00800           0
     54451 TIP3     10669    TIP3     OH2      OT      -0.834000       15.9994           0
     54452 TIP3     10669    TIP3     H1       HT       0.417000       1.00800           0
     54453 TIP3     10669    TIP3     H2       HT       0.417000       1.00800           0
     54454 TIP3     10670    TIP3     OH2      OT      -0.834000       15.9994           0
     54455 TIP3     10670    TIP3     H1       HT       0.417000       1.00800           0
     54456 TIP3     10670    TIP3     H2       HT       0.417000       1.00800           0
     54457 TIP3     10671    TIP3     OH2      OT      -0.834000       15.9994           0
     54458 TIP3     10671    TIP3     H1       HT       0.417000       1.00800           0
     54459 TIP3     10671    TIP3     H2       HT       0.417000       1.00800           0
     54460 TIP3     10672    TIP3     OH2      OT      -0.834000       15.9994           0
     54461 TIP3     10672    TIP3     H1       HT       0.417000       1.00800           0
     54462 TIP3     10672    TIP3     H2       HT       0.417000       1.00800           0
     54463 TIP3     10673    TIP3     OH2      OT      -0.834000       15.9994           0
     54464 TIP3     10673    TIP3     H1       HT       0.417000       1.00800           0
     54465 TIP3     10673    TIP3     H2       HT       0.417000       1.00800           0
     54466 TIP3     10674    TIP3     OH2      OT      -0.834000       15.9994           0
     54467 TIP3     10674    TIP3     H1       HT       0.417000       1.00800           0
     54468 TIP3     10674    TIP3     H2       HT       0.417000       1.00800           0
     54469 TIP3     10675    TIP3     OH2      OT      -0.834000       15.9994           0
     54470 TIP3     10675    TIP3     H1       HT       0.417000       1.00800           0
     54471 TIP3     10675    TIP3     H2       HT       0.417000       1.00800           0
     54472 TIP3     10676    TIP3     OH2      OT      -0.834000       15.9994           0
     54473 TIP3     10676    TIP3     H1       HT       0.417000       1.00800           0
     54474 TIP3     10676    TIP3     H2       HT       0.417000       1.00800           0
     54475 TIP3     10677    TIP3     OH2      OT      -0.834000       15.9994           0
     54476 TIP3     10677    TIP3     H1       HT       0.417000       1.00800           0
     54477 TIP3     10677    TIP3     H2       HT       0.417000       1.00800           0
     54478 TIP3     10678    TIP3     OH2      OT      -0.834000       15.9994           0
     54479 TIP3     10678    TIP3     H1       HT       0.417000       1.00800           0
     54480 TIP3     10678    TIP3     H2       HT       0.417000       1.00800           0
     54481 TIP3     10679    TIP3     OH2      OT      -0.834000       15.9994           0
     54482 TIP3     10679    TIP3     H1       HT       0.417000       1.00800           0
     54483 TIP3     10679    TIP3     H2       HT       0.417000       1.00800           0
     54484 TIP3     10680    TIP3     OH2      OT      -0.834000       15.9994           0
     54485 TIP3     10680    TIP3     H1       HT       0.417000       1.00800           0
     54486 TIP3     10680    TIP3     H2       HT       0.417000       1.00800           0
     54487 TIP3     10681    TIP3     OH2      OT      -0.834000       15.9994           0
     54488 TIP3     10681    TIP3     H1       HT       0.417000       1.00800           0
     54489 TIP3     10681    TIP3     H2       HT       0.417000       1.00800           0
     54490 TIP3     10682    TIP3     OH2      OT      -0.834000       15.9994           0
     54491 TIP3     10682    TIP3     H1       HT       0.417000       1.00800           0
     54492 TIP3     10682    TIP3     H2       HT       0.417000       1.00800           0
     54493 TIP3     10683    TIP3     OH2      OT      -0.834000       15.9994           0
     54494 TIP3     10683    TIP3     H1       HT       0.417000       1.00800           0
     54495 TIP3     10683    TIP3     H2       HT       0.417000       1.00800           0
     54496 TIP3     10684    TIP3     OH2      OT      -0.834000       15.9994           0
     54497 TIP3     10684    TIP3     H1       HT       0.417000       1.00800           0
     54498 TIP3     10684    TIP3     H2       HT       0.417000       1.00800           0
     54499 TIP3     10685    TIP3     OH2      OT      -0.834000       15.9994           0
     54500 TIP3     10685    TIP3     H1       HT       0.417000       1.00800           0
     54501 TIP3     10685    TIP3     H2       HT       0.417000       1.00800           0
     54502 TIP3     10686    TIP3     OH2      OT      -0.834000       15.9994           0
     54503 TIP3     10686    TIP3     H1       HT       0.417000       1.00800           0
     54504 TIP3     10686    TIP3     H2       HT       0.417000       1.00800           0
     54505 TIP3     10687    TIP3     OH2      OT      -0.834000       15.9994           0
     54506 TIP3     10687    TIP3     H1       HT       0.417000       1.00800           0
     54507 TIP3     10687    TIP3     H2       HT       0.417000       1.00800           0
     54508 TIP3     10688    TIP3     OH2      OT      -0.834000       15.9994           0
     54509 TIP3     10688    TIP3     H1       HT       0.417000       1.00800           0
     54510 TIP3     10688    TIP3     H2       HT       0.417000       1.00800           0
     54511 TIP3     10689    TIP3     OH2      OT      -0.834000       15.9994           0
     54512 TIP3     10689    TIP3     H1       HT       0.417000       1.00800           0
     54513 TIP3     10689    TIP3     H2       HT       0.417000       1.00800           0
     54514 TIP3     10690    TIP3     OH2      OT      -0.834000       15.9994           0
     54515 TIP3     10690    TIP3     H1       HT       0.417000       1.00800           0
     54516 TIP3     10690    TIP3     H2       HT       0.417000       1.00800           0
     54517 TIP3     10691    TIP3     OH2      OT      -0.834000       15.9994           0
     54518 TIP3     10691    TIP3     H1       HT       0.417000       1.00800           0
     54519 TIP3     10691    TIP3     H2       HT       0.417000       1.00800           0
     54520 TIP3     10692    TIP3     OH2      OT      -0.834000       15.9994           0
     54521 TIP3     10692    TIP3     H1       HT       0.417000       1.00800           0
     54522 TIP3     10692    TIP3     H2       HT       0.417000       1.00800           0
     54523 TIP3     10693    TIP3     OH2      OT      -0.834000       15.9994           0
     54524 TIP3     10693    TIP3     H1       HT       0.417000       1.00800           0
     54525 TIP3     10693    TIP3     H2       HT       0.417000       1.00800           0
     54526 TIP3     10694    TIP3     OH2      OT      -0.834000       15.9994           0
     54527 TIP3     10694    TIP3     H1       HT       0.417000       1.00800           0
     54528 TIP3     10694    TIP3     H2       HT       0.417000       1.00800           0
     54529 TIP3     10695    TIP3     OH2      OT      -0.834000       15.9994           0
     54530 TIP3     10695    TIP3     H1       HT       0.417000       1.00800           0
     54531 TIP3     10695    TIP3     H2       HT       0.417000       1.00800           0
     54532 TIP3     10696    TIP3     OH2      OT      -0.834000       15.9994           0
     54533 TIP3     10696    TIP3     H1       HT       0.417000       1.00800           0
     54534 TIP3     10696    TIP3     H2       HT       0.417000       1.00800           0
     54535 TIP3     10697    TIP3     OH2      OT      -0.834000       15.9994           0
     54536 TIP3     10697    TIP3     H1       HT       0.417000       1.00800           0
     54537 TIP3     10697    TIP3     H2       HT       0.417000       1.00800           0
     54538 TIP3     10698    TIP3     OH2      OT      -0.834000       15.9994           0
     54539 TIP3     10698    TIP3     H1       HT       0.417000       1.00800           0
     54540 TIP3     10698    TIP3     H2       HT       0.417000       1.00800           0
     54541 TIP3     10699    TIP3     OH2      OT      -0.834000       15.9994           0
     54542 TIP3     10699    TIP3     H1       HT       0.417000       1.00800           0
     54543 TIP3     10699    TIP3     H2       HT       0.417000       1.00800           0
     54544 TIP3     10700    TIP3     OH2      OT      -0.834000       15.9994           0
     54545 TIP3     10700    TIP3     H1       HT       0.417000       1.00800           0
     54546 TIP3     10700    TIP3     H2       HT       0.417000       1.00800           0
     54547 TIP3     10701    TIP3     OH2      OT      -0.834000       15.9994           0
     54548 TIP3     10701    TIP3     H1       HT       0.417000       1.00800           0
     54549 TIP3     10701    TIP3     H2       HT       0.417000       1.00800           0
     54550 TIP3     10702    TIP3     OH2      OT      -0.834000       15.9994           0
     54551 TIP3     10702    TIP3     H1       HT       0.417000       1.00800           0
     54552 TIP3     10702    TIP3     H2       HT       0.417000       1.00800           0
     54553 TIP3     10703    TIP3     OH2      OT      -0.834000       15.9994           0
     54554 TIP3     10703    TIP3     H1       HT       0.417000       1.00800           0
     54555 TIP3     10703    TIP3     H2       HT       0.417000       1.00800           0
     54556 TIP3     10704    TIP3     OH2      OT      -0.834000       15.9994           0
     54557 TIP3     10704    TIP3     H1       HT       0.417000       1.00800           0
     54558 TIP3     10704    TIP3     H2       HT       0.417000       1.00800           0
     54559 TIP3     10705    TIP3     OH2      OT      -0.834000       15.9994           0
     54560 TIP3     10705    TIP3     H1       HT       0.417000       1.00800           0
     54561 TIP3     10705    TIP3     H2       HT       0.417000       1.00800           0
     54562 TIP3     10706    TIP3     OH2      OT      -0.834000       15.9994           0
     54563 TIP3     10706    TIP3     H1       HT       0.417000       1.00800           0
     54564 TIP3     10706    TIP3     H2       HT       0.417000       1.00800           0
     54565 TIP3     10707    TIP3     OH2      OT      -0.834000       15.9994           0
     54566 TIP3     10707    TIP3     H1       HT       0.417000       1.00800           0
     54567 TIP3     10707    TIP3     H2       HT       0.417000       1.00800           0
     54568 TIP3     10708    TIP3     OH2      OT      -0.834000       15.9994           0
     54569 TIP3     10708    TIP3     H1       HT       0.417000       1.00800           0
     54570 TIP3     10708    TIP3     H2       HT       0.417000       1.00800           0
     54571 TIP3     10709    TIP3     OH2      OT      -0.834000       15.9994           0
     54572 TIP3     10709    TIP3     H1       HT       0.417000       1.00800           0
     54573 TIP3     10709    TIP3     H2       HT       0.417000       1.00800           0
     54574 TIP3     10710    TIP3     OH2      OT      -0.834000       15.9994           0
     54575 TIP3     10710    TIP3     H1       HT       0.417000       1.00800           0
     54576 TIP3     10710    TIP3     H2       HT       0.417000       1.00800           0
     54577 TIP3     10711    TIP3     OH2      OT      -0.834000       15.9994           0
     54578 TIP3     10711    TIP3     H1       HT       0.417000       1.00800           0
     54579 TIP3     10711    TIP3     H2       HT       0.417000       1.00800           0
     54580 TIP3     10712    TIP3     OH2      OT      -0.834000       15.9994           0
     54581 TIP3     10712    TIP3     H1       HT       0.417000       1.00800           0
     54582 TIP3     10712    TIP3     H2       HT       0.417000       1.00800           0
     54583 TIP3     10713    TIP3     OH2      OT      -0.834000       15.9994           0
     54584 TIP3     10713    TIP3     H1       HT       0.417000       1.00800           0
     54585 TIP3     10713    TIP3     H2       HT       0.417000       1.00800           0
     54586 TIP3     10714    TIP3     OH2      OT      -0.834000       15.9994           0
     54587 TIP3     10714    TIP3     H1       HT       0.417000       1.00800           0
     54588 TIP3     10714    TIP3     H2       HT       0.417000       1.00800           0
     54589 TIP3     10715    TIP3     OH2      OT      -0.834000       15.9994           0
     54590 TIP3     10715    TIP3     H1       HT       0.417000       1.00800           0
     54591 TIP3     10715    TIP3     H2       HT       0.417000       1.00800           0
     54592 TIP3     10716    TIP3     OH2      OT      -0.834000       15.9994           0
     54593 TIP3     10716    TIP3     H1       HT       0.417000       1.00800           0
     54594 TIP3     10716    TIP3     H2       HT       0.417000       1.00800           0
     54595 TIP3     10717    TIP3     OH2      OT      -0.834000       15.9994           0
     54596 TIP3     10717    TIP3     H1       HT       0.417000       1.00800           0
     54597 TIP3     10717    TIP3     H2       HT       0.417000       1.00800           0
     54598 TIP3     10718    TIP3     OH2      OT      -0.834000       15.9994           0
     54599 TIP3     10718    TIP3     H1       HT       0.417000       1.00800           0
     54600 TIP3     10718    TIP3     H2       HT       0.417000       1.00800           0
     54601 TIP3     10719    TIP3     OH2      OT      -0.834000       15.9994           0
     54602 TIP3     10719    TIP3     H1       HT       0.417000       1.00800           0
     54603 TIP3     10719    TIP3     H2       HT       0.417000       1.00800           0
     54604 TIP3     10720    TIP3     OH2      OT      -0.834000       15.9994           0
     54605 TIP3     10720    TIP3     H1       HT       0.417000       1.00800           0
     54606 TIP3     10720    TIP3     H2       HT       0.417000       1.00800           0
     54607 TIP3     10721    TIP3     OH2      OT      -0.834000       15.9994           0
     54608 TIP3     10721    TIP3     H1       HT       0.417000       1.00800           0
     54609 TIP3     10721    TIP3     H2       HT       0.417000       1.00800           0
     54610 TIP3     10722    TIP3     OH2      OT      -0.834000       15.9994           0
     54611 TIP3     10722    TIP3     H1       HT       0.417000       1.00800           0
     54612 TIP3     10722    TIP3     H2       HT       0.417000       1.00800           0
     54613 TIP3     10723    TIP3     OH2      OT      -0.834000       15.9994           0
     54614 TIP3     10723    TIP3     H1       HT       0.417000       1.00800           0
     54615 TIP3     10723    TIP3     H2       HT       0.417000       1.00800           0
     54616 TIP3     10724    TIP3     OH2      OT      -0.834000       15.9994           0
     54617 TIP3     10724    TIP3     H1       HT       0.417000       1.00800           0
     54618 TIP3     10724    TIP3     H2       HT       0.417000       1.00800           0
     54619 TIP3     10725    TIP3     OH2      OT      -0.834000       15.9994           0
     54620 TIP3     10725    TIP3     H1       HT       0.417000       1.00800           0
     54621 TIP3     10725    TIP3     H2       HT       0.417000       1.00800           0
     54622 TIP3     10726    TIP3     OH2      OT      -0.834000       15.9994           0
     54623 TIP3     10726    TIP3     H1       HT       0.417000       1.00800           0
     54624 TIP3     10726    TIP3     H2       HT       0.417000       1.00800           0
     54625 TIP3     10727    TIP3     OH2      OT      -0.834000       15.9994           0
     54626 TIP3     10727    TIP3     H1       HT       0.417000       1.00800           0
     54627 TIP3     10727    TIP3     H2       HT       0.417000       1.00800           0
     54628 TIP3     10728    TIP3     OH2      OT      -0.834000       15.9994           0
     54629 TIP3     10728    TIP3     H1       HT       0.417000       1.00800           0
     54630 TIP3     10728    TIP3     H2       HT       0.417000       1.00800           0
     54631 TIP3     10729    TIP3     OH2      OT      -0.834000       15.9994           0
     54632 TIP3     10729    TIP3     H1       HT       0.417000       1.00800           0
     54633 TIP3     10729    TIP3     H2       HT       0.417000       1.00800           0
     54634 TIP3     10730    TIP3     OH2      OT      -0.834000       15.9994           0
     54635 TIP3     10730    TIP3     H1       HT       0.417000       1.00800           0
     54636 TIP3     10730    TIP3     H2       HT       0.417000       1.00800           0
     54637 TIP3     10731    TIP3     OH2      OT      -0.834000       15.9994           0
     54638 TIP3     10731    TIP3     H1       HT       0.417000       1.00800           0
     54639 TIP3     10731    TIP3     H2       HT       0.417000       1.00800           0
     54640 TIP3     10732    TIP3     OH2      OT      -0.834000       15.9994           0
     54641 TIP3     10732    TIP3     H1       HT       0.417000       1.00800           0
     54642 TIP3     10732    TIP3     H2       HT       0.417000       1.00800           0
     54643 TIP3     10733    TIP3     OH2      OT      -0.834000       15.9994           0
     54644 TIP3     10733    TIP3     H1       HT       0.417000       1.00800           0
     54645 TIP3     10733    TIP3     H2       HT       0.417000       1.00800           0
     54646 TIP3     10734    TIP3     OH2      OT      -0.834000       15.9994           0
     54647 TIP3     10734    TIP3     H1       HT       0.417000       1.00800           0
     54648 TIP3     10734    TIP3     H2       HT       0.417000       1.00800           0
     54649 TIP3     10735    TIP3     OH2      OT      -0.834000       15.9994           0
     54650 TIP3     10735    TIP3     H1       HT       0.417000       1.00800           0
     54651 TIP3     10735    TIP3     H2       HT       0.417000       1.00800           0
     54652 TIP3     10736    TIP3     OH2      OT      -0.834000       15.9994           0
     54653 TIP3     10736    TIP3     H1       HT       0.417000       1.00800           0
     54654 TIP3     10736    TIP3     H2       HT       0.417000       1.00800           0
     54655 TIP3     10737    TIP3     OH2      OT      -0.834000       15.9994           0
     54656 TIP3     10737    TIP3     H1       HT       0.417000       1.00800           0
     54657 TIP3     10737    TIP3     H2       HT       0.417000       1.00800           0
     54658 TIP3     10738    TIP3     OH2      OT      -0.834000       15.9994           0
     54659 TIP3     10738    TIP3     H1       HT       0.417000       1.00800           0
     54660 TIP3     10738    TIP3     H2       HT       0.417000       1.00800           0
     54661 TIP3     10739    TIP3     OH2      OT      -0.834000       15.9994           0
     54662 TIP3     10739    TIP3     H1       HT       0.417000       1.00800           0
     54663 TIP3     10739    TIP3     H2       HT       0.417000       1.00800           0
     54664 TIP3     10740    TIP3     OH2      OT      -0.834000       15.9994           0
     54665 TIP3     10740    TIP3     H1       HT       0.417000       1.00800           0
     54666 TIP3     10740    TIP3     H2       HT       0.417000       1.00800           0
     54667 TIP3     10741    TIP3     OH2      OT      -0.834000       15.9994           0
     54668 TIP3     10741    TIP3     H1       HT       0.417000       1.00800           0
     54669 TIP3     10741    TIP3     H2       HT       0.417000       1.00800           0
     54670 TIP3     10742    TIP3     OH2      OT      -0.834000       15.9994           0
     54671 TIP3     10742    TIP3     H1       HT       0.417000       1.00800           0
     54672 TIP3     10742    TIP3     H2       HT       0.417000       1.00800           0
     54673 TIP3     10743    TIP3     OH2      OT      -0.834000       15.9994           0
     54674 TIP3     10743    TIP3     H1       HT       0.417000       1.00800           0
     54675 TIP3     10743    TIP3     H2       HT       0.417000       1.00800           0
     54676 TIP3     10744    TIP3     OH2      OT      -0.834000       15.9994           0
     54677 TIP3     10744    TIP3     H1       HT       0.417000       1.00800           0
     54678 TIP3     10744    TIP3     H2       HT       0.417000       1.00800           0
     54679 TIP3     10745    TIP3     OH2      OT      -0.834000       15.9994           0
     54680 TIP3     10745    TIP3     H1       HT       0.417000       1.00800           0
     54681 TIP3     10745    TIP3     H2       HT       0.417000       1.00800           0
     54682 TIP3     10746    TIP3     OH2      OT      -0.834000       15.9994           0
     54683 TIP3     10746    TIP3     H1       HT       0.417000       1.00800           0
     54684 TIP3     10746    TIP3     H2       HT       0.417000       1.00800           0
     54685 TIP3     10747    TIP3     OH2      OT      -0.834000       15.9994           0
     54686 TIP3     10747    TIP3     H1       HT       0.417000       1.00800           0
     54687 TIP3     10747    TIP3     H2       HT       0.417000       1.00800           0
     54688 TIP3     10748    TIP3     OH2      OT      -0.834000       15.9994           0
     54689 TIP3     10748    TIP3     H1       HT       0.417000       1.00800           0
     54690 TIP3     10748    TIP3     H2       HT       0.417000       1.00800           0
     54691 TIP3     10749    TIP3     OH2      OT      -0.834000       15.9994           0
     54692 TIP3     10749    TIP3     H1       HT       0.417000       1.00800           0
     54693 TIP3     10749    TIP3     H2       HT       0.417000       1.00800           0
     54694 TIP3     10750    TIP3     OH2      OT      -0.834000       15.9994           0
     54695 TIP3     10750    TIP3     H1       HT       0.417000       1.00800           0
     54696 TIP3     10750    TIP3     H2       HT       0.417000       1.00800           0
     54697 TIP3     10751    TIP3     OH2      OT      -0.834000       15.9994           0
     54698 TIP3     10751    TIP3     H1       HT       0.417000       1.00800           0
     54699 TIP3     10751    TIP3     H2       HT       0.417000       1.00800           0
     54700 TIP3     10752    TIP3     OH2      OT      -0.834000       15.9994           0
     54701 TIP3     10752    TIP3     H1       HT       0.417000       1.00800           0
     54702 TIP3     10752    TIP3     H2       HT       0.417000       1.00800           0
     54703 TIP3     10753    TIP3     OH2      OT      -0.834000       15.9994           0
     54704 TIP3     10753    TIP3     H1       HT       0.417000       1.00800           0
     54705 TIP3     10753    TIP3     H2       HT       0.417000       1.00800           0
     54706 TIP3     10754    TIP3     OH2      OT      -0.834000       15.9994           0
     54707 TIP3     10754    TIP3     H1       HT       0.417000       1.00800           0
     54708 TIP3     10754    TIP3     H2       HT       0.417000       1.00800           0
     54709 TIP3     10755    TIP3     OH2      OT      -0.834000       15.9994           0
     54710 TIP3     10755    TIP3     H1       HT       0.417000       1.00800           0
     54711 TIP3     10755    TIP3     H2       HT       0.417000       1.00800           0
     54712 TIP3     10756    TIP3     OH2      OT      -0.834000       15.9994           0
     54713 TIP3     10756    TIP3     H1       HT       0.417000       1.00800           0
     54714 TIP3     10756    TIP3     H2       HT       0.417000       1.00800           0
     54715 TIP3     10757    TIP3     OH2      OT      -0.834000       15.9994           0
     54716 TIP3     10757    TIP3     H1       HT       0.417000       1.00800           0
     54717 TIP3     10757    TIP3     H2       HT       0.417000       1.00800           0
     54718 TIP3     10758    TIP3     OH2      OT      -0.834000       15.9994           0
     54719 TIP3     10758    TIP3     H1       HT       0.417000       1.00800           0
     54720 TIP3     10758    TIP3     H2       HT       0.417000       1.00800           0
     54721 TIP3     10759    TIP3     OH2      OT      -0.834000       15.9994           0
     54722 TIP3     10759    TIP3     H1       HT       0.417000       1.00800           0
     54723 TIP3     10759    TIP3     H2       HT       0.417000       1.00800           0
     54724 TIP3     10760    TIP3     OH2      OT      -0.834000       15.9994           0
     54725 TIP3     10760    TIP3     H1       HT       0.417000       1.00800           0
     54726 TIP3     10760    TIP3     H2       HT       0.417000       1.00800           0
     54727 TIP3     10761    TIP3     OH2      OT      -0.834000       15.9994           0
     54728 TIP3     10761    TIP3     H1       HT       0.417000       1.00800           0
     54729 TIP3     10761    TIP3     H2       HT       0.417000       1.00800           0
     54730 TIP3     10762    TIP3     OH2      OT      -0.834000       15.9994           0
     54731 TIP3     10762    TIP3     H1       HT       0.417000       1.00800           0
     54732 TIP3     10762    TIP3     H2       HT       0.417000       1.00800           0
     54733 TIP3     10763    TIP3     OH2      OT      -0.834000       15.9994           0
     54734 TIP3     10763    TIP3     H1       HT       0.417000       1.00800           0
     54735 TIP3     10763    TIP3     H2       HT       0.417000       1.00800           0
     54736 TIP3     10764    TIP3     OH2      OT      -0.834000       15.9994           0
     54737 TIP3     10764    TIP3     H1       HT       0.417000       1.00800           0
     54738 TIP3     10764    TIP3     H2       HT       0.417000       1.00800           0
     54739 TIP3     10765    TIP3     OH2      OT      -0.834000       15.9994           0
     54740 TIP3     10765    TIP3     H1       HT       0.417000       1.00800           0
     54741 TIP3     10765    TIP3     H2       HT       0.417000       1.00800           0
     54742 TIP3     10766    TIP3     OH2      OT      -0.834000       15.9994           0
     54743 TIP3     10766    TIP3     H1       HT       0.417000       1.00800           0
     54744 TIP3     10766    TIP3     H2       HT       0.417000       1.00800           0
     54745 TIP3     10767    TIP3     OH2      OT      -0.834000       15.9994           0
     54746 TIP3     10767    TIP3     H1       HT       0.417000       1.00800           0
     54747 TIP3     10767    TIP3     H2       HT       0.417000       1.00800           0
     54748 TIP3     10768    TIP3     OH2      OT      -0.834000       15.9994           0
     54749 TIP3     10768    TIP3     H1       HT       0.417000       1.00800           0
     54750 TIP3     10768    TIP3     H2       HT       0.417000       1.00800           0
     54751 TIP3     10769    TIP3     OH2      OT      -0.834000       15.9994           0
     54752 TIP3     10769    TIP3     H1       HT       0.417000       1.00800           0
     54753 TIP3     10769    TIP3     H2       HT       0.417000       1.00800           0
     54754 TIP3     10770    TIP3     OH2      OT      -0.834000       15.9994           0
     54755 TIP3     10770    TIP3     H1       HT       0.417000       1.00800           0
     54756 TIP3     10770    TIP3     H2       HT       0.417000       1.00800           0
     54757 TIP3     10771    TIP3     OH2      OT      -0.834000       15.9994           0
     54758 TIP3     10771    TIP3     H1       HT       0.417000       1.00800           0
     54759 TIP3     10771    TIP3     H2       HT       0.417000       1.00800           0
     54760 TIP3     10772    TIP3     OH2      OT      -0.834000       15.9994           0
     54761 TIP3     10772    TIP3     H1       HT       0.417000       1.00800           0
     54762 TIP3     10772    TIP3     H2       HT       0.417000       1.00800           0
     54763 TIP3     10773    TIP3     OH2      OT      -0.834000       15.9994           0
     54764 TIP3     10773    TIP3     H1       HT       0.417000       1.00800           0
     54765 TIP3     10773    TIP3     H2       HT       0.417000       1.00800           0
     54766 TIP3     10774    TIP3     OH2      OT      -0.834000       15.9994           0
     54767 TIP3     10774    TIP3     H1       HT       0.417000       1.00800           0
     54768 TIP3     10774    TIP3     H2       HT       0.417000       1.00800           0
     54769 TIP3     10775    TIP3     OH2      OT      -0.834000       15.9994           0
     54770 TIP3     10775    TIP3     H1       HT       0.417000       1.00800           0
     54771 TIP3     10775    TIP3     H2       HT       0.417000       1.00800           0
     54772 TIP3     10776    TIP3     OH2      OT      -0.834000       15.9994           0
     54773 TIP3     10776    TIP3     H1       HT       0.417000       1.00800           0
     54774 TIP3     10776    TIP3     H2       HT       0.417000       1.00800           0
     54775 TIP3     10777    TIP3     OH2      OT      -0.834000       15.9994           0
     54776 TIP3     10777    TIP3     H1       HT       0.417000       1.00800           0
     54777 TIP3     10777    TIP3     H2       HT       0.417000       1.00800           0
     54778 TIP3     10778    TIP3     OH2      OT      -0.834000       15.9994           0
     54779 TIP3     10778    TIP3     H1       HT       0.417000       1.00800           0
     54780 TIP3     10778    TIP3     H2       HT       0.417000       1.00800           0
     54781 TIP3     10779    TIP3     OH2      OT      -0.834000       15.9994           0
     54782 TIP3     10779    TIP3     H1       HT       0.417000       1.00800           0
     54783 TIP3     10779    TIP3     H2       HT       0.417000       1.00800           0
     54784 TIP3     10780    TIP3     OH2      OT      -0.834000       15.9994           0
     54785 TIP3     10780    TIP3     H1       HT       0.417000       1.00800           0
     54786 TIP3     10780    TIP3     H2       HT       0.417000       1.00800           0
     54787 TIP3     10781    TIP3     OH2      OT      -0.834000       15.9994           0
     54788 TIP3     10781    TIP3     H1       HT       0.417000       1.00800           0
     54789 TIP3     10781    TIP3     H2       HT       0.417000       1.00800           0
     54790 TIP3     10782    TIP3     OH2      OT      -0.834000       15.9994           0
     54791 TIP3     10782    TIP3     H1       HT       0.417000       1.00800           0
     54792 TIP3     10782    TIP3     H2       HT       0.417000       1.00800           0
     54793 TIP3     10783    TIP3     OH2      OT      -0.834000       15.9994           0
     54794 TIP3     10783    TIP3     H1       HT       0.417000       1.00800           0
     54795 TIP3     10783    TIP3     H2       HT       0.417000       1.00800           0
     54796 TIP3     10784    TIP3     OH2      OT      -0.834000       15.9994           0
     54797 TIP3     10784    TIP3     H1       HT       0.417000       1.00800           0
     54798 TIP3     10784    TIP3     H2       HT       0.417000       1.00800           0
     54799 TIP3     10785    TIP3     OH2      OT      -0.834000       15.9994           0
     54800 TIP3     10785    TIP3     H1       HT       0.417000       1.00800           0
     54801 TIP3     10785    TIP3     H2       HT       0.417000       1.00800           0
     54802 TIP3     10786    TIP3     OH2      OT      -0.834000       15.9994           0
     54803 TIP3     10786    TIP3     H1       HT       0.417000       1.00800           0
     54804 TIP3     10786    TIP3     H2       HT       0.417000       1.00800           0
     54805 TIP3     10787    TIP3     OH2      OT      -0.834000       15.9994           0
     54806 TIP3     10787    TIP3     H1       HT       0.417000       1.00800           0
     54807 TIP3     10787    TIP3     H2       HT       0.417000       1.00800           0
     54808 TIP3     10788    TIP3     OH2      OT      -0.834000       15.9994           0
     54809 TIP3     10788    TIP3     H1       HT       0.417000       1.00800           0
     54810 TIP3     10788    TIP3     H2       HT       0.417000       1.00800           0
     54811 TIP3     10789    TIP3     OH2      OT      -0.834000       15.9994           0
     54812 TIP3     10789    TIP3     H1       HT       0.417000       1.00800           0
     54813 TIP3     10789    TIP3     H2       HT       0.417000       1.00800           0
     54814 TIP3     10790    TIP3     OH2      OT      -0.834000       15.9994           0
     54815 TIP3     10790    TIP3     H1       HT       0.417000       1.00800           0
     54816 TIP3     10790    TIP3     H2       HT       0.417000       1.00800           0
     54817 TIP3     10791    TIP3     OH2      OT      -0.834000       15.9994           0
     54818 TIP3     10791    TIP3     H1       HT       0.417000       1.00800           0
     54819 TIP3     10791    TIP3     H2       HT       0.417000       1.00800           0
     54820 TIP3     10792    TIP3     OH2      OT      -0.834000       15.9994           0
     54821 TIP3     10792    TIP3     H1       HT       0.417000       1.00800           0
     54822 TIP3     10792    TIP3     H2       HT       0.417000       1.00800           0
     54823 TIP3     10793    TIP3     OH2      OT      -0.834000       15.9994           0
     54824 TIP3     10793    TIP3     H1       HT       0.417000       1.00800           0
     54825 TIP3     10793    TIP3     H2       HT       0.417000       1.00800           0
     54826 TIP3     10794    TIP3     OH2      OT      -0.834000       15.9994           0
     54827 TIP3     10794    TIP3     H1       HT       0.417000       1.00800           0
     54828 TIP3     10794    TIP3     H2       HT       0.417000       1.00800           0
     54829 TIP3     10795    TIP3     OH2      OT      -0.834000       15.9994           0
     54830 TIP3     10795    TIP3     H1       HT       0.417000       1.00800           0
     54831 TIP3     10795    TIP3     H2       HT       0.417000       1.00800           0
     54832 TIP3     10796    TIP3     OH2      OT      -0.834000       15.9994           0
     54833 TIP3     10796    TIP3     H1       HT       0.417000       1.00800           0
     54834 TIP3     10796    TIP3     H2       HT       0.417000       1.00800           0
     54835 TIP3     10797    TIP3     OH2      OT      -0.834000       15.9994           0
     54836 TIP3     10797    TIP3     H1       HT       0.417000       1.00800           0
     54837 TIP3     10797    TIP3     H2       HT       0.417000       1.00800           0
     54838 TIP3     10798    TIP3     OH2      OT      -0.834000       15.9994           0
     54839 TIP3     10798    TIP3     H1       HT       0.417000       1.00800           0
     54840 TIP3     10798    TIP3     H2       HT       0.417000       1.00800           0
     54841 TIP3     10799    TIP3     OH2      OT      -0.834000       15.9994           0
     54842 TIP3     10799    TIP3     H1       HT       0.417000       1.00800           0
     54843 TIP3     10799    TIP3     H2       HT       0.417000       1.00800           0
     54844 TIP3     10800    TIP3     OH2      OT      -0.834000       15.9994           0
     54845 TIP3     10800    TIP3     H1       HT       0.417000       1.00800           0
     54846 TIP3     10800    TIP3     H2       HT       0.417000       1.00800           0
     54847 TIP3     10801    TIP3     OH2      OT      -0.834000       15.9994           0
     54848 TIP3     10801    TIP3     H1       HT       0.417000       1.00800           0
     54849 TIP3     10801    TIP3     H2       HT       0.417000       1.00800           0
     54850 TIP3     10802    TIP3     OH2      OT      -0.834000       15.9994           0
     54851 TIP3     10802    TIP3     H1       HT       0.417000       1.00800           0
     54852 TIP3     10802    TIP3     H2       HT       0.417000       1.00800           0
     54853 TIP3     10803    TIP3     OH2      OT      -0.834000       15.9994           0
     54854 TIP3     10803    TIP3     H1       HT       0.417000       1.00800           0
     54855 TIP3     10803    TIP3     H2       HT       0.417000       1.00800           0
     54856 TIP3     10804    TIP3     OH2      OT      -0.834000       15.9994           0
     54857 TIP3     10804    TIP3     H1       HT       0.417000       1.00800           0
     54858 TIP3     10804    TIP3     H2       HT       0.417000       1.00800           0
     54859 TIP3     10805    TIP3     OH2      OT      -0.834000       15.9994           0
     54860 TIP3     10805    TIP3     H1       HT       0.417000       1.00800           0
     54861 TIP3     10805    TIP3     H2       HT       0.417000       1.00800           0
     54862 TIP3     10806    TIP3     OH2      OT      -0.834000       15.9994           0
     54863 TIP3     10806    TIP3     H1       HT       0.417000       1.00800           0
     54864 TIP3     10806    TIP3     H2       HT       0.417000       1.00800           0
     54865 TIP3     10807    TIP3     OH2      OT      -0.834000       15.9994           0
     54866 TIP3     10807    TIP3     H1       HT       0.417000       1.00800           0
     54867 TIP3     10807    TIP3     H2       HT       0.417000       1.00800           0
     54868 TIP3     10808    TIP3     OH2      OT      -0.834000       15.9994           0
     54869 TIP3     10808    TIP3     H1       HT       0.417000       1.00800           0
     54870 TIP3     10808    TIP3     H2       HT       0.417000       1.00800           0
     54871 TIP3     10809    TIP3     OH2      OT      -0.834000       15.9994           0
     54872 TIP3     10809    TIP3     H1       HT       0.417000       1.00800           0
     54873 TIP3     10809    TIP3     H2       HT       0.417000       1.00800           0
     54874 TIP3     10810    TIP3     OH2      OT      -0.834000       15.9994           0
     54875 TIP3     10810    TIP3     H1       HT       0.417000       1.00800           0
     54876 TIP3     10810    TIP3     H2       HT       0.417000       1.00800           0
     54877 TIP3     10811    TIP3     OH2      OT      -0.834000       15.9994           0
     54878 TIP3     10811    TIP3     H1       HT       0.417000       1.00800           0
     54879 TIP3     10811    TIP3     H2       HT       0.417000       1.00800           0
     54880 TIP3     10812    TIP3     OH2      OT      -0.834000       15.9994           0
     54881 TIP3     10812    TIP3     H1       HT       0.417000       1.00800           0
     54882 TIP3     10812    TIP3     H2       HT       0.417000       1.00800           0
     54883 TIP3     10813    TIP3     OH2      OT      -0.834000       15.9994           0
     54884 TIP3     10813    TIP3     H1       HT       0.417000       1.00800           0
     54885 TIP3     10813    TIP3     H2       HT       0.417000       1.00800           0
     54886 TIP3     10814    TIP3     OH2      OT      -0.834000       15.9994           0
     54887 TIP3     10814    TIP3     H1       HT       0.417000       1.00800           0
     54888 TIP3     10814    TIP3     H2       HT       0.417000       1.00800           0
     54889 TIP3     10815    TIP3     OH2      OT      -0.834000       15.9994           0
     54890 TIP3     10815    TIP3     H1       HT       0.417000       1.00800           0
     54891 TIP3     10815    TIP3     H2       HT       0.417000       1.00800           0
     54892 TIP3     10816    TIP3     OH2      OT      -0.834000       15.9994           0
     54893 TIP3     10816    TIP3     H1       HT       0.417000       1.00800           0
     54894 TIP3     10816    TIP3     H2       HT       0.417000       1.00800           0
     54895 TIP3     10817    TIP3     OH2      OT      -0.834000       15.9994           0
     54896 TIP3     10817    TIP3     H1       HT       0.417000       1.00800           0
     54897 TIP3     10817    TIP3     H2       HT       0.417000       1.00800           0
     54898 TIP3     10818    TIP3     OH2      OT      -0.834000       15.9994           0
     54899 TIP3     10818    TIP3     H1       HT       0.417000       1.00800           0
     54900 TIP3     10818    TIP3     H2       HT       0.417000       1.00800           0
     54901 TIP3     10819    TIP3     OH2      OT      -0.834000       15.9994           0
     54902 TIP3     10819    TIP3     H1       HT       0.417000       1.00800           0
     54903 TIP3     10819    TIP3     H2       HT       0.417000       1.00800           0
     54904 TIP3     10820    TIP3     OH2      OT      -0.834000       15.9994           0
     54905 TIP3     10820    TIP3     H1       HT       0.417000       1.00800           0
     54906 TIP3     10820    TIP3     H2       HT       0.417000       1.00800           0
     54907 TIP3     10821    TIP3     OH2      OT      -0.834000       15.9994           0
     54908 TIP3     10821    TIP3     H1       HT       0.417000       1.00800           0
     54909 TIP3     10821    TIP3     H2       HT       0.417000       1.00800           0
     54910 TIP3     10822    TIP3     OH2      OT      -0.834000       15.9994           0
     54911 TIP3     10822    TIP3     H1       HT       0.417000       1.00800           0
     54912 TIP3     10822    TIP3     H2       HT       0.417000       1.00800           0
     54913 TIP3     10823    TIP3     OH2      OT      -0.834000       15.9994           0
     54914 TIP3     10823    TIP3     H1       HT       0.417000       1.00800           0
     54915 TIP3     10823    TIP3     H2       HT       0.417000       1.00800           0
     54916 TIP3     10824    TIP3     OH2      OT      -0.834000       15.9994           0
     54917 TIP3     10824    TIP3     H1       HT       0.417000       1.00800           0
     54918 TIP3     10824    TIP3     H2       HT       0.417000       1.00800           0
     54919 TIP3     10825    TIP3     OH2      OT      -0.834000       15.9994           0
     54920 TIP3     10825    TIP3     H1       HT       0.417000       1.00800           0
     54921 TIP3     10825    TIP3     H2       HT       0.417000       1.00800           0
     54922 TIP3     10826    TIP3     OH2      OT      -0.834000       15.9994           0
     54923 TIP3     10826    TIP3     H1       HT       0.417000       1.00800           0
     54924 TIP3     10826    TIP3     H2       HT       0.417000       1.00800           0
     54925 TIP3     10827    TIP3     OH2      OT      -0.834000       15.9994           0
     54926 TIP3     10827    TIP3     H1       HT       0.417000       1.00800           0
     54927 TIP3     10827    TIP3     H2       HT       0.417000       1.00800           0
     54928 TIP3     10828    TIP3     OH2      OT      -0.834000       15.9994           0
     54929 TIP3     10828    TIP3     H1       HT       0.417000       1.00800           0
     54930 TIP3     10828    TIP3     H2       HT       0.417000       1.00800           0
     54931 TIP3     10829    TIP3     OH2      OT      -0.834000       15.9994           0
     54932 TIP3     10829    TIP3     H1       HT       0.417000       1.00800           0
     54933 TIP3     10829    TIP3     H2       HT       0.417000       1.00800           0
     54934 TIP3     10830    TIP3     OH2      OT      -0.834000       15.9994           0
     54935 TIP3     10830    TIP3     H1       HT       0.417000       1.00800           0
     54936 TIP3     10830    TIP3     H2       HT       0.417000       1.00800           0
     54937 TIP3     10831    TIP3     OH2      OT      -0.834000       15.9994           0
     54938 TIP3     10831    TIP3     H1       HT       0.417000       1.00800           0
     54939 TIP3     10831    TIP3     H2       HT       0.417000       1.00800           0
     54940 TIP3     10832    TIP3     OH2      OT      -0.834000       15.9994           0
     54941 TIP3     10832    TIP3     H1       HT       0.417000       1.00800           0
     54942 TIP3     10832    TIP3     H2       HT       0.417000       1.00800           0
     54943 TIP3     10833    TIP3     OH2      OT      -0.834000       15.9994           0
     54944 TIP3     10833    TIP3     H1       HT       0.417000       1.00800           0
     54945 TIP3     10833    TIP3     H2       HT       0.417000       1.00800           0
     54946 TIP3     10834    TIP3     OH2      OT      -0.834000       15.9994           0
     54947 TIP3     10834    TIP3     H1       HT       0.417000       1.00800           0
     54948 TIP3     10834    TIP3     H2       HT       0.417000       1.00800           0
     54949 TIP3     10835    TIP3     OH2      OT      -0.834000       15.9994           0
     54950 TIP3     10835    TIP3     H1       HT       0.417000       1.00800           0
     54951 TIP3     10835    TIP3     H2       HT       0.417000       1.00800           0
     54952 TIP3     10836    TIP3     OH2      OT      -0.834000       15.9994           0
     54953 TIP3     10836    TIP3     H1       HT       0.417000       1.00800           0
     54954 TIP3     10836    TIP3     H2       HT       0.417000       1.00800           0
     54955 TIP3     10837    TIP3     OH2      OT      -0.834000       15.9994           0
     54956 TIP3     10837    TIP3     H1       HT       0.417000       1.00800           0
     54957 TIP3     10837    TIP3     H2       HT       0.417000       1.00800           0
     54958 TIP3     10838    TIP3     OH2      OT      -0.834000       15.9994           0
     54959 TIP3     10838    TIP3     H1       HT       0.417000       1.00800           0
     54960 TIP3     10838    TIP3     H2       HT       0.417000       1.00800           0
     54961 TIP3     10839    TIP3     OH2      OT      -0.834000       15.9994           0
     54962 TIP3     10839    TIP3     H1       HT       0.417000       1.00800           0
     54963 TIP3     10839    TIP3     H2       HT       0.417000       1.00800           0
     54964 TIP3     10840    TIP3     OH2      OT      -0.834000       15.9994           0
     54965 TIP3     10840    TIP3     H1       HT       0.417000       1.00800           0
     54966 TIP3     10840    TIP3     H2       HT       0.417000       1.00800           0
     54967 TIP3     10841    TIP3     OH2      OT      -0.834000       15.9994           0
     54968 TIP3     10841    TIP3     H1       HT       0.417000       1.00800           0
     54969 TIP3     10841    TIP3     H2       HT       0.417000       1.00800           0
     54970 TIP3     10842    TIP3     OH2      OT      -0.834000       15.9994           0
     54971 TIP3     10842    TIP3     H1       HT       0.417000       1.00800           0
     54972 TIP3     10842    TIP3     H2       HT       0.417000       1.00800           0
     54973 TIP3     10843    TIP3     OH2      OT      -0.834000       15.9994           0
     54974 TIP3     10843    TIP3     H1       HT       0.417000       1.00800           0
     54975 TIP3     10843    TIP3     H2       HT       0.417000       1.00800           0
     54976 TIP3     10844    TIP3     OH2      OT      -0.834000       15.9994           0
     54977 TIP3     10844    TIP3     H1       HT       0.417000       1.00800           0
     54978 TIP3     10844    TIP3     H2       HT       0.417000       1.00800           0
     54979 TIP3     10845    TIP3     OH2      OT      -0.834000       15.9994           0
     54980 TIP3     10845    TIP3     H1       HT       0.417000       1.00800           0
     54981 TIP3     10845    TIP3     H2       HT       0.417000       1.00800           0
     54982 TIP3     10846    TIP3     OH2      OT      -0.834000       15.9994           0
     54983 TIP3     10846    TIP3     H1       HT       0.417000       1.00800           0
     54984 TIP3     10846    TIP3     H2       HT       0.417000       1.00800           0
     54985 TIP3     10847    TIP3     OH2      OT      -0.834000       15.9994           0
     54986 TIP3     10847    TIP3     H1       HT       0.417000       1.00800           0
     54987 TIP3     10847    TIP3     H2       HT       0.417000       1.00800           0
     54988 TIP3     10848    TIP3     OH2      OT      -0.834000       15.9994           0
     54989 TIP3     10848    TIP3     H1       HT       0.417000       1.00800           0
     54990 TIP3     10848    TIP3     H2       HT       0.417000       1.00800           0
     54991 TIP3     10849    TIP3     OH2      OT      -0.834000       15.9994           0
     54992 TIP3     10849    TIP3     H1       HT       0.417000       1.00800           0
     54993 TIP3     10849    TIP3     H2       HT       0.417000       1.00800           0
     54994 TIP3     10850    TIP3     OH2      OT      -0.834000       15.9994           0
     54995 TIP3     10850    TIP3     H1       HT       0.417000       1.00800           0
     54996 TIP3     10850    TIP3     H2       HT       0.417000       1.00800           0
     54997 TIP3     10851    TIP3     OH2      OT      -0.834000       15.9994           0
     54998 TIP3     10851    TIP3     H1       HT       0.417000       1.00800           0
     54999 TIP3     10851    TIP3     H2       HT       0.417000       1.00800           0
     55000 TIP3     10852    TIP3     OH2      OT      -0.834000       15.9994           0
     55001 TIP3     10852    TIP3     H1       HT       0.417000       1.00800           0
     55002 TIP3     10852    TIP3     H2       HT       0.417000       1.00800           0
     55003 TIP3     10853    TIP3     OH2      OT      -0.834000       15.9994           0
     55004 TIP3     10853    TIP3     H1       HT       0.417000       1.00800           0
     55005 TIP3     10853    TIP3     H2       HT       0.417000       1.00800           0
     55006 TIP3     10854    TIP3     OH2      OT      -0.834000       15.9994           0
     55007 TIP3     10854    TIP3     H1       HT       0.417000       1.00800           0
     55008 TIP3     10854    TIP3     H2       HT       0.417000       1.00800           0
     55009 TIP3     10855    TIP3     OH2      OT      -0.834000       15.9994           0
     55010 TIP3     10855    TIP3     H1       HT       0.417000       1.00800           0
     55011 TIP3     10855    TIP3     H2       HT       0.417000       1.00800           0
     55012 TIP3     10856    TIP3     OH2      OT      -0.834000       15.9994           0
     55013 TIP3     10856    TIP3     H1       HT       0.417000       1.00800           0
     55014 TIP3     10856    TIP3     H2       HT       0.417000       1.00800           0
     55015 TIP3     10857    TIP3     OH2      OT      -0.834000       15.9994           0
     55016 TIP3     10857    TIP3     H1       HT       0.417000       1.00800           0
     55017 TIP3     10857    TIP3     H2       HT       0.417000       1.00800           0
     55018 TIP3     10858    TIP3     OH2      OT      -0.834000       15.9994           0
     55019 TIP3     10858    TIP3     H1       HT       0.417000       1.00800           0
     55020 TIP3     10858    TIP3     H2       HT       0.417000       1.00800           0
     55021 TIP3     10859    TIP3     OH2      OT      -0.834000       15.9994           0
     55022 TIP3     10859    TIP3     H1       HT       0.417000       1.00800           0
     55023 TIP3     10859    TIP3     H2       HT       0.417000       1.00800           0
     55024 TIP3     10860    TIP3     OH2      OT      -0.834000       15.9994           0
     55025 TIP3     10860    TIP3     H1       HT       0.417000       1.00800           0
     55026 TIP3     10860    TIP3     H2       HT       0.417000       1.00800           0
     55027 TIP3     10861    TIP3     OH2      OT      -0.834000       15.9994           0
     55028 TIP3     10861    TIP3     H1       HT       0.417000       1.00800           0
     55029 TIP3     10861    TIP3     H2       HT       0.417000       1.00800           0
     55030 TIP3     10862    TIP3     OH2      OT      -0.834000       15.9994           0
     55031 TIP3     10862    TIP3     H1       HT       0.417000       1.00800           0
     55032 TIP3     10862    TIP3     H2       HT       0.417000       1.00800           0
     55033 TIP3     10863    TIP3     OH2      OT      -0.834000       15.9994           0
     55034 TIP3     10863    TIP3     H1       HT       0.417000       1.00800           0
     55035 TIP3     10863    TIP3     H2       HT       0.417000       1.00800           0
     55036 TIP3     10864    TIP3     OH2      OT      -0.834000       15.9994           0
     55037 TIP3     10864    TIP3     H1       HT       0.417000       1.00800           0
     55038 TIP3     10864    TIP3     H2       HT       0.417000       1.00800           0
     55039 TIP3     10865    TIP3     OH2      OT      -0.834000       15.9994           0
     55040 TIP3     10865    TIP3     H1       HT       0.417000       1.00800           0
     55041 TIP3     10865    TIP3     H2       HT       0.417000       1.00800           0
     55042 TIP3     10866    TIP3     OH2      OT      -0.834000       15.9994           0
     55043 TIP3     10866    TIP3     H1       HT       0.417000       1.00800           0
     55044 TIP3     10866    TIP3     H2       HT       0.417000       1.00800           0
     55045 TIP3     10867    TIP3     OH2      OT      -0.834000       15.9994           0
     55046 TIP3     10867    TIP3     H1       HT       0.417000       1.00800           0
     55047 TIP3     10867    TIP3     H2       HT       0.417000       1.00800           0
     55048 TIP3     10868    TIP3     OH2      OT      -0.834000       15.9994           0
     55049 TIP3     10868    TIP3     H1       HT       0.417000       1.00800           0
     55050 TIP3     10868    TIP3     H2       HT       0.417000       1.00800           0
     55051 TIP3     10869    TIP3     OH2      OT      -0.834000       15.9994           0
     55052 TIP3     10869    TIP3     H1       HT       0.417000       1.00800           0
     55053 TIP3     10869    TIP3     H2       HT       0.417000       1.00800           0
     55054 TIP3     10870    TIP3     OH2      OT      -0.834000       15.9994           0
     55055 TIP3     10870    TIP3     H1       HT       0.417000       1.00800           0
     55056 TIP3     10870    TIP3     H2       HT       0.417000       1.00800           0
     55057 TIP3     10871    TIP3     OH2      OT      -0.834000       15.9994           0
     55058 TIP3     10871    TIP3     H1       HT       0.417000       1.00800           0
     55059 TIP3     10871    TIP3     H2       HT       0.417000       1.00800           0
     55060 TIP3     10872    TIP3     OH2      OT      -0.834000       15.9994           0
     55061 TIP3     10872    TIP3     H1       HT       0.417000       1.00800           0
     55062 TIP3     10872    TIP3     H2       HT       0.417000       1.00800           0
     55063 TIP3     10873    TIP3     OH2      OT      -0.834000       15.9994           0
     55064 TIP3     10873    TIP3     H1       HT       0.417000       1.00800           0
     55065 TIP3     10873    TIP3     H2       HT       0.417000       1.00800           0
     55066 TIP3     10874    TIP3     OH2      OT      -0.834000       15.9994           0
     55067 TIP3     10874    TIP3     H1       HT       0.417000       1.00800           0
     55068 TIP3     10874    TIP3     H2       HT       0.417000       1.00800           0
     55069 TIP3     10875    TIP3     OH2      OT      -0.834000       15.9994           0
     55070 TIP3     10875    TIP3     H1       HT       0.417000       1.00800           0
     55071 TIP3     10875    TIP3     H2       HT       0.417000       1.00800           0
     55072 TIP3     10876    TIP3     OH2      OT      -0.834000       15.9994           0
     55073 TIP3     10876    TIP3     H1       HT       0.417000       1.00800           0
     55074 TIP3     10876    TIP3     H2       HT       0.417000       1.00800           0
     55075 TIP3     10877    TIP3     OH2      OT      -0.834000       15.9994           0
     55076 TIP3     10877    TIP3     H1       HT       0.417000       1.00800           0
     55077 TIP3     10877    TIP3     H2       HT       0.417000       1.00800           0
     55078 TIP3     10878    TIP3     OH2      OT      -0.834000       15.9994           0
     55079 TIP3     10878    TIP3     H1       HT       0.417000       1.00800           0
     55080 TIP3     10878    TIP3     H2       HT       0.417000       1.00800           0
     55081 TIP3     10879    TIP3     OH2      OT      -0.834000       15.9994           0
     55082 TIP3     10879    TIP3     H1       HT       0.417000       1.00800           0
     55083 TIP3     10879    TIP3     H2       HT       0.417000       1.00800           0
     55084 TIP3     10880    TIP3     OH2      OT      -0.834000       15.9994           0
     55085 TIP3     10880    TIP3     H1       HT       0.417000       1.00800           0
     55086 TIP3     10880    TIP3     H2       HT       0.417000       1.00800           0
     55087 TIP3     10881    TIP3     OH2      OT      -0.834000       15.9994           0
     55088 TIP3     10881    TIP3     H1       HT       0.417000       1.00800           0
     55089 TIP3     10881    TIP3     H2       HT       0.417000       1.00800           0
     55090 TIP3     10882    TIP3     OH2      OT      -0.834000       15.9994           0
     55091 TIP3     10882    TIP3     H1       HT       0.417000       1.00800           0
     55092 TIP3     10882    TIP3     H2       HT       0.417000       1.00800           0
     55093 TIP3     10883    TIP3     OH2      OT      -0.834000       15.9994           0
     55094 TIP3     10883    TIP3     H1       HT       0.417000       1.00800           0
     55095 TIP3     10883    TIP3     H2       HT       0.417000       1.00800           0
     55096 TIP3     10884    TIP3     OH2      OT      -0.834000       15.9994           0
     55097 TIP3     10884    TIP3     H1       HT       0.417000       1.00800           0
     55098 TIP3     10884    TIP3     H2       HT       0.417000       1.00800           0
     55099 TIP3     10885    TIP3     OH2      OT      -0.834000       15.9994           0
     55100 TIP3     10885    TIP3     H1       HT       0.417000       1.00800           0
     55101 TIP3     10885    TIP3     H2       HT       0.417000       1.00800           0
     55102 TIP3     10886    TIP3     OH2      OT      -0.834000       15.9994           0
     55103 TIP3     10886    TIP3     H1       HT       0.417000       1.00800           0
     55104 TIP3     10886    TIP3     H2       HT       0.417000       1.00800           0
     55105 TIP3     10887    TIP3     OH2      OT      -0.834000       15.9994           0
     55106 TIP3     10887    TIP3     H1       HT       0.417000       1.00800           0
     55107 TIP3     10887    TIP3     H2       HT       0.417000       1.00800           0
     55108 TIP3     10888    TIP3     OH2      OT      -0.834000       15.9994           0
     55109 TIP3     10888    TIP3     H1       HT       0.417000       1.00800           0
     55110 TIP3     10888    TIP3     H2       HT       0.417000       1.00800           0
     55111 TIP3     10889    TIP3     OH2      OT      -0.834000       15.9994           0
     55112 TIP3     10889    TIP3     H1       HT       0.417000       1.00800           0
     55113 TIP3     10889    TIP3     H2       HT       0.417000       1.00800           0
     55114 TIP3     10890    TIP3     OH2      OT      -0.834000       15.9994           0
     55115 TIP3     10890    TIP3     H1       HT       0.417000       1.00800           0
     55116 TIP3     10890    TIP3     H2       HT       0.417000       1.00800           0
     55117 TIP3     10891    TIP3     OH2      OT      -0.834000       15.9994           0
     55118 TIP3     10891    TIP3     H1       HT       0.417000       1.00800           0
     55119 TIP3     10891    TIP3     H2       HT       0.417000       1.00800           0
     55120 TIP3     10892    TIP3     OH2      OT      -0.834000       15.9994           0
     55121 TIP3     10892    TIP3     H1       HT       0.417000       1.00800           0
     55122 TIP3     10892    TIP3     H2       HT       0.417000       1.00800           0
     55123 TIP3     10893    TIP3     OH2      OT      -0.834000       15.9994           0
     55124 TIP3     10893    TIP3     H1       HT       0.417000       1.00800           0
     55125 TIP3     10893    TIP3     H2       HT       0.417000       1.00800           0
     55126 TIP3     10894    TIP3     OH2      OT      -0.834000       15.9994           0
     55127 TIP3     10894    TIP3     H1       HT       0.417000       1.00800           0
     55128 TIP3     10894    TIP3     H2       HT       0.417000       1.00800           0
     55129 TIP3     10895    TIP3     OH2      OT      -0.834000       15.9994           0
     55130 TIP3     10895    TIP3     H1       HT       0.417000       1.00800           0
     55131 TIP3     10895    TIP3     H2       HT       0.417000       1.00800           0
     55132 TIP3     10896    TIP3     OH2      OT      -0.834000       15.9994           0
     55133 TIP3     10896    TIP3     H1       HT       0.417000       1.00800           0
     55134 TIP3     10896    TIP3     H2       HT       0.417000       1.00800           0
     55135 TIP3     10897    TIP3     OH2      OT      -0.834000       15.9994           0
     55136 TIP3     10897    TIP3     H1       HT       0.417000       1.00800           0
     55137 TIP3     10897    TIP3     H2       HT       0.417000       1.00800           0
     55138 TIP3     10898    TIP3     OH2      OT      -0.834000       15.9994           0
     55139 TIP3     10898    TIP3     H1       HT       0.417000       1.00800           0
     55140 TIP3     10898    TIP3     H2       HT       0.417000       1.00800           0
     55141 TIP3     10899    TIP3     OH2      OT      -0.834000       15.9994           0
     55142 TIP3     10899    TIP3     H1       HT       0.417000       1.00800           0
     55143 TIP3     10899    TIP3     H2       HT       0.417000       1.00800           0
     55144 TIP3     10900    TIP3     OH2      OT      -0.834000       15.9994           0
     55145 TIP3     10900    TIP3     H1       HT       0.417000       1.00800           0
     55146 TIP3     10900    TIP3     H2       HT       0.417000       1.00800           0
     55147 TIP3     10901    TIP3     OH2      OT      -0.834000       15.9994           0
     55148 TIP3     10901    TIP3     H1       HT       0.417000       1.00800           0
     55149 TIP3     10901    TIP3     H2       HT       0.417000       1.00800           0
     55150 TIP3     10902    TIP3     OH2      OT      -0.834000       15.9994           0
     55151 TIP3     10902    TIP3     H1       HT       0.417000       1.00800           0
     55152 TIP3     10902    TIP3     H2       HT       0.417000       1.00800           0
     55153 TIP3     10903    TIP3     OH2      OT      -0.834000       15.9994           0
     55154 TIP3     10903    TIP3     H1       HT       0.417000       1.00800           0
     55155 TIP3     10903    TIP3     H2       HT       0.417000       1.00800           0
     55156 TIP3     10904    TIP3     OH2      OT      -0.834000       15.9994           0
     55157 TIP3     10904    TIP3     H1       HT       0.417000       1.00800           0
     55158 TIP3     10904    TIP3     H2       HT       0.417000       1.00800           0
     55159 TIP3     10905    TIP3     OH2      OT      -0.834000       15.9994           0
     55160 TIP3     10905    TIP3     H1       HT       0.417000       1.00800           0
     55161 TIP3     10905    TIP3     H2       HT       0.417000       1.00800           0
     55162 TIP3     10906    TIP3     OH2      OT      -0.834000       15.9994           0
     55163 TIP3     10906    TIP3     H1       HT       0.417000       1.00800           0
     55164 TIP3     10906    TIP3     H2       HT       0.417000       1.00800           0
     55165 TIP3     10907    TIP3     OH2      OT      -0.834000       15.9994           0
     55166 TIP3     10907    TIP3     H1       HT       0.417000       1.00800           0
     55167 TIP3     10907    TIP3     H2       HT       0.417000       1.00800           0
     55168 TIP3     10908    TIP3     OH2      OT      -0.834000       15.9994           0
     55169 TIP3     10908    TIP3     H1       HT       0.417000       1.00800           0
     55170 TIP3     10908    TIP3     H2       HT       0.417000       1.00800           0
     55171 TIP3     10909    TIP3     OH2      OT      -0.834000       15.9994           0
     55172 TIP3     10909    TIP3     H1       HT       0.417000       1.00800           0
     55173 TIP3     10909    TIP3     H2       HT       0.417000       1.00800           0
     55174 TIP3     10910    TIP3     OH2      OT      -0.834000       15.9994           0
     55175 TIP3     10910    TIP3     H1       HT       0.417000       1.00800           0
     55176 TIP3     10910    TIP3     H2       HT       0.417000       1.00800           0
     55177 TIP3     10911    TIP3     OH2      OT      -0.834000       15.9994           0
     55178 TIP3     10911    TIP3     H1       HT       0.417000       1.00800           0
     55179 TIP3     10911    TIP3     H2       HT       0.417000       1.00800           0
     55180 TIP3     10912    TIP3     OH2      OT      -0.834000       15.9994           0
     55181 TIP3     10912    TIP3     H1       HT       0.417000       1.00800           0
     55182 TIP3     10912    TIP3     H2       HT       0.417000       1.00800           0
     55183 TIP3     10913    TIP3     OH2      OT      -0.834000       15.9994           0
     55184 TIP3     10913    TIP3     H1       HT       0.417000       1.00800           0
     55185 TIP3     10913    TIP3     H2       HT       0.417000       1.00800           0
     55186 TIP3     10914    TIP3     OH2      OT      -0.834000       15.9994           0
     55187 TIP3     10914    TIP3     H1       HT       0.417000       1.00800           0
     55188 TIP3     10914    TIP3     H2       HT       0.417000       1.00800           0
     55189 TIP3     10915    TIP3     OH2      OT      -0.834000       15.9994           0
     55190 TIP3     10915    TIP3     H1       HT       0.417000       1.00800           0
     55191 TIP3     10915    TIP3     H2       HT       0.417000       1.00800           0
     55192 TIP3     10916    TIP3     OH2      OT      -0.834000       15.9994           0
     55193 TIP3     10916    TIP3     H1       HT       0.417000       1.00800           0
     55194 TIP3     10916    TIP3     H2       HT       0.417000       1.00800           0
     55195 TIP3     10917    TIP3     OH2      OT      -0.834000       15.9994           0
     55196 TIP3     10917    TIP3     H1       HT       0.417000       1.00800           0
     55197 TIP3     10917    TIP3     H2       HT       0.417000       1.00800           0
     55198 TIP3     10918    TIP3     OH2      OT      -0.834000       15.9994           0
     55199 TIP3     10918    TIP3     H1       HT       0.417000       1.00800           0
     55200 TIP3     10918    TIP3     H2       HT       0.417000       1.00800           0
     55201 TIP3     10919    TIP3     OH2      OT      -0.834000       15.9994           0
     55202 TIP3     10919    TIP3     H1       HT       0.417000       1.00800           0
     55203 TIP3     10919    TIP3     H2       HT       0.417000       1.00800           0
     55204 TIP3     10920    TIP3     OH2      OT      -0.834000       15.9994           0
     55205 TIP3     10920    TIP3     H1       HT       0.417000       1.00800           0
     55206 TIP3     10920    TIP3     H2       HT       0.417000       1.00800           0
     55207 TIP3     10921    TIP3     OH2      OT      -0.834000       15.9994           0
     55208 TIP3     10921    TIP3     H1       HT       0.417000       1.00800           0
     55209 TIP3     10921    TIP3     H2       HT       0.417000       1.00800           0
     55210 TIP3     10922    TIP3     OH2      OT      -0.834000       15.9994           0
     55211 TIP3     10922    TIP3     H1       HT       0.417000       1.00800           0
     55212 TIP3     10922    TIP3     H2       HT       0.417000       1.00800           0
     55213 TIP3     10923    TIP3     OH2      OT      -0.834000       15.9994           0
     55214 TIP3     10923    TIP3     H1       HT       0.417000       1.00800           0
     55215 TIP3     10923    TIP3     H2       HT       0.417000       1.00800           0
     55216 TIP3     10924    TIP3     OH2      OT      -0.834000       15.9994           0
     55217 TIP3     10924    TIP3     H1       HT       0.417000       1.00800           0
     55218 TIP3     10924    TIP3     H2       HT       0.417000       1.00800           0
     55219 TIP3     10925    TIP3     OH2      OT      -0.834000       15.9994           0
     55220 TIP3     10925    TIP3     H1       HT       0.417000       1.00800           0
     55221 TIP3     10925    TIP3     H2       HT       0.417000       1.00800           0
     55222 TIP3     10926    TIP3     OH2      OT      -0.834000       15.9994           0
     55223 TIP3     10926    TIP3     H1       HT       0.417000       1.00800           0
     55224 TIP3     10926    TIP3     H2       HT       0.417000       1.00800           0
     55225 TIP3     10927    TIP3     OH2      OT      -0.834000       15.9994           0
     55226 TIP3     10927    TIP3     H1       HT       0.417000       1.00800           0
     55227 TIP3     10927    TIP3     H2       HT       0.417000       1.00800           0
     55228 TIP3     10928    TIP3     OH2      OT      -0.834000       15.9994           0
     55229 TIP3     10928    TIP3     H1       HT       0.417000       1.00800           0
     55230 TIP3     10928    TIP3     H2       HT       0.417000       1.00800           0
     55231 TIP3     10929    TIP3     OH2      OT      -0.834000       15.9994           0
     55232 TIP3     10929    TIP3     H1       HT       0.417000       1.00800           0
     55233 TIP3     10929    TIP3     H2       HT       0.417000       1.00800           0
     55234 TIP3     10930    TIP3     OH2      OT      -0.834000       15.9994           0
     55235 TIP3     10930    TIP3     H1       HT       0.417000       1.00800           0
     55236 TIP3     10930    TIP3     H2       HT       0.417000       1.00800           0
     55237 TIP3     10931    TIP3     OH2      OT      -0.834000       15.9994           0
     55238 TIP3     10931    TIP3     H1       HT       0.417000       1.00800           0
     55239 TIP3     10931    TIP3     H2       HT       0.417000       1.00800           0
     55240 TIP3     10932    TIP3     OH2      OT      -0.834000       15.9994           0
     55241 TIP3     10932    TIP3     H1       HT       0.417000       1.00800           0
     55242 TIP3     10932    TIP3     H2       HT       0.417000       1.00800           0
     55243 TIP3     10933    TIP3     OH2      OT      -0.834000       15.9994           0
     55244 TIP3     10933    TIP3     H1       HT       0.417000       1.00800           0
     55245 TIP3     10933    TIP3     H2       HT       0.417000       1.00800           0
     55246 TIP3     10934    TIP3     OH2      OT      -0.834000       15.9994           0
     55247 TIP3     10934    TIP3     H1       HT       0.417000       1.00800           0
     55248 TIP3     10934    TIP3     H2       HT       0.417000       1.00800           0
     55249 TIP3     10935    TIP3     OH2      OT      -0.834000       15.9994           0
     55250 TIP3     10935    TIP3     H1       HT       0.417000       1.00800           0
     55251 TIP3     10935    TIP3     H2       HT       0.417000       1.00800           0
     55252 TIP3     10936    TIP3     OH2      OT      -0.834000       15.9994           0
     55253 TIP3     10936    TIP3     H1       HT       0.417000       1.00800           0
     55254 TIP3     10936    TIP3     H2       HT       0.417000       1.00800           0
     55255 TIP3     10937    TIP3     OH2      OT      -0.834000       15.9994           0
     55256 TIP3     10937    TIP3     H1       HT       0.417000       1.00800           0
     55257 TIP3     10937    TIP3     H2       HT       0.417000       1.00800           0
     55258 TIP3     10938    TIP3     OH2      OT      -0.834000       15.9994           0
     55259 TIP3     10938    TIP3     H1       HT       0.417000       1.00800           0
     55260 TIP3     10938    TIP3     H2       HT       0.417000       1.00800           0
     55261 TIP3     10939    TIP3     OH2      OT      -0.834000       15.9994           0
     55262 TIP3     10939    TIP3     H1       HT       0.417000       1.00800           0
     55263 TIP3     10939    TIP3     H2       HT       0.417000       1.00800           0
     55264 TIP3     10940    TIP3     OH2      OT      -0.834000       15.9994           0
     55265 TIP3     10940    TIP3     H1       HT       0.417000       1.00800           0
     55266 TIP3     10940    TIP3     H2       HT       0.417000       1.00800           0
     55267 TIP3     10941    TIP3     OH2      OT      -0.834000       15.9994           0
     55268 TIP3     10941    TIP3     H1       HT       0.417000       1.00800           0
     55269 TIP3     10941    TIP3     H2       HT       0.417000       1.00800           0
     55270 TIP3     10942    TIP3     OH2      OT      -0.834000       15.9994           0
     55271 TIP3     10942    TIP3     H1       HT       0.417000       1.00800           0
     55272 TIP3     10942    TIP3     H2       HT       0.417000       1.00800           0
     55273 TIP3     10943    TIP3     OH2      OT      -0.834000       15.9994           0
     55274 TIP3     10943    TIP3     H1       HT       0.417000       1.00800           0
     55275 TIP3     10943    TIP3     H2       HT       0.417000       1.00800           0
     55276 TIP3     10944    TIP3     OH2      OT      -0.834000       15.9994           0
     55277 TIP3     10944    TIP3     H1       HT       0.417000       1.00800           0
     55278 TIP3     10944    TIP3     H2       HT       0.417000       1.00800           0
     55279 TIP3     10945    TIP3     OH2      OT      -0.834000       15.9994           0
     55280 TIP3     10945    TIP3     H1       HT       0.417000       1.00800           0
     55281 TIP3     10945    TIP3     H2       HT       0.417000       1.00800           0
     55282 TIP3     10946    TIP3     OH2      OT      -0.834000       15.9994           0
     55283 TIP3     10946    TIP3     H1       HT       0.417000       1.00800           0
     55284 TIP3     10946    TIP3     H2       HT       0.417000       1.00800           0
     55285 TIP3     10947    TIP3     OH2      OT      -0.834000       15.9994           0
     55286 TIP3     10947    TIP3     H1       HT       0.417000       1.00800           0
     55287 TIP3     10947    TIP3     H2       HT       0.417000       1.00800           0
     55288 TIP3     10948    TIP3     OH2      OT      -0.834000       15.9994           0
     55289 TIP3     10948    TIP3     H1       HT       0.417000       1.00800           0
     55290 TIP3     10948    TIP3     H2       HT       0.417000       1.00800           0
     55291 TIP3     10949    TIP3     OH2      OT      -0.834000       15.9994           0
     55292 TIP3     10949    TIP3     H1       HT       0.417000       1.00800           0
     55293 TIP3     10949    TIP3     H2       HT       0.417000       1.00800           0
     55294 TIP3     10950    TIP3     OH2      OT      -0.834000       15.9994           0
     55295 TIP3     10950    TIP3     H1       HT       0.417000       1.00800           0
     55296 TIP3     10950    TIP3     H2       HT       0.417000       1.00800           0
     55297 TIP3     10951    TIP3     OH2      OT      -0.834000       15.9994           0
     55298 TIP3     10951    TIP3     H1       HT       0.417000       1.00800           0
     55299 TIP3     10951    TIP3     H2       HT       0.417000       1.00800           0
     55300 TIP3     10952    TIP3     OH2      OT      -0.834000       15.9994           0
     55301 TIP3     10952    TIP3     H1       HT       0.417000       1.00800           0
     55302 TIP3     10952    TIP3     H2       HT       0.417000       1.00800           0
     55303 TIP3     10953    TIP3     OH2      OT      -0.834000       15.9994           0
     55304 TIP3     10953    TIP3     H1       HT       0.417000       1.00800           0
     55305 TIP3     10953    TIP3     H2       HT       0.417000       1.00800           0
     55306 TIP3     10954    TIP3     OH2      OT      -0.834000       15.9994           0
     55307 TIP3     10954    TIP3     H1       HT       0.417000       1.00800           0
     55308 TIP3     10954    TIP3     H2       HT       0.417000       1.00800           0
     55309 TIP3     10955    TIP3     OH2      OT      -0.834000       15.9994           0
     55310 TIP3     10955    TIP3     H1       HT       0.417000       1.00800           0
     55311 TIP3     10955    TIP3     H2       HT       0.417000       1.00800           0
     55312 TIP3     10956    TIP3     OH2      OT      -0.834000       15.9994           0
     55313 TIP3     10956    TIP3     H1       HT       0.417000       1.00800           0
     55314 TIP3     10956    TIP3     H2       HT       0.417000       1.00800           0
     55315 TIP3     10957    TIP3     OH2      OT      -0.834000       15.9994           0
     55316 TIP3     10957    TIP3     H1       HT       0.417000       1.00800           0
     55317 TIP3     10957    TIP3     H2       HT       0.417000       1.00800           0
     55318 TIP3     10958    TIP3     OH2      OT      -0.834000       15.9994           0
     55319 TIP3     10958    TIP3     H1       HT       0.417000       1.00800           0
     55320 TIP3     10958    TIP3     H2       HT       0.417000       1.00800           0
     55321 TIP3     10959    TIP3     OH2      OT      -0.834000       15.9994           0
     55322 TIP3     10959    TIP3     H1       HT       0.417000       1.00800           0
     55323 TIP3     10959    TIP3     H2       HT       0.417000       1.00800           0
     55324 TIP3     10960    TIP3     OH2      OT      -0.834000       15.9994           0
     55325 TIP3     10960    TIP3     H1       HT       0.417000       1.00800           0
     55326 TIP3     10960    TIP3     H2       HT       0.417000       1.00800           0
     55327 TIP3     10961    TIP3     OH2      OT      -0.834000       15.9994           0
     55328 TIP3     10961    TIP3     H1       HT       0.417000       1.00800           0
     55329 TIP3     10961    TIP3     H2       HT       0.417000       1.00800           0
     55330 TIP3     10962    TIP3     OH2      OT      -0.834000       15.9994           0
     55331 TIP3     10962    TIP3     H1       HT       0.417000       1.00800           0
     55332 TIP3     10962    TIP3     H2       HT       0.417000       1.00800           0
     55333 TIP3     10963    TIP3     OH2      OT      -0.834000       15.9994           0
     55334 TIP3     10963    TIP3     H1       HT       0.417000       1.00800           0
     55335 TIP3     10963    TIP3     H2       HT       0.417000       1.00800           0
     55336 TIP3     10964    TIP3     OH2      OT      -0.834000       15.9994           0
     55337 TIP3     10964    TIP3     H1       HT       0.417000       1.00800           0
     55338 TIP3     10964    TIP3     H2       HT       0.417000       1.00800           0
     55339 TIP3     10965    TIP3     OH2      OT      -0.834000       15.9994           0
     55340 TIP3     10965    TIP3     H1       HT       0.417000       1.00800           0
     55341 TIP3     10965    TIP3     H2       HT       0.417000       1.00800           0
     55342 TIP3     10966    TIP3     OH2      OT      -0.834000       15.9994           0
     55343 TIP3     10966    TIP3     H1       HT       0.417000       1.00800           0
     55344 TIP3     10966    TIP3     H2       HT       0.417000       1.00800           0
     55345 TIP3     10967    TIP3     OH2      OT      -0.834000       15.9994           0
     55346 TIP3     10967    TIP3     H1       HT       0.417000       1.00800           0
     55347 TIP3     10967    TIP3     H2       HT       0.417000       1.00800           0
     55348 TIP3     10968    TIP3     OH2      OT      -0.834000       15.9994           0
     55349 TIP3     10968    TIP3     H1       HT       0.417000       1.00800           0
     55350 TIP3     10968    TIP3     H2       HT       0.417000       1.00800           0
     55351 TIP3     10969    TIP3     OH2      OT      -0.834000       15.9994           0
     55352 TIP3     10969    TIP3     H1       HT       0.417000       1.00800           0
     55353 TIP3     10969    TIP3     H2       HT       0.417000       1.00800           0
     55354 TIP3     10970    TIP3     OH2      OT      -0.834000       15.9994           0
     55355 TIP3     10970    TIP3     H1       HT       0.417000       1.00800           0
     55356 TIP3     10970    TIP3     H2       HT       0.417000       1.00800           0
     55357 TIP3     10971    TIP3     OH2      OT      -0.834000       15.9994           0
     55358 TIP3     10971    TIP3     H1       HT       0.417000       1.00800           0
     55359 TIP3     10971    TIP3     H2       HT       0.417000       1.00800           0
     55360 TIP3     10972    TIP3     OH2      OT      -0.834000       15.9994           0
     55361 TIP3     10972    TIP3     H1       HT       0.417000       1.00800           0
     55362 TIP3     10972    TIP3     H2       HT       0.417000       1.00800           0
     55363 TIP3     10973    TIP3     OH2      OT      -0.834000       15.9994           0
     55364 TIP3     10973    TIP3     H1       HT       0.417000       1.00800           0
     55365 TIP3     10973    TIP3     H2       HT       0.417000       1.00800           0
     55366 TIP3     10974    TIP3     OH2      OT      -0.834000       15.9994           0
     55367 TIP3     10974    TIP3     H1       HT       0.417000       1.00800           0
     55368 TIP3     10974    TIP3     H2       HT       0.417000       1.00800           0
     55369 TIP3     10975    TIP3     OH2      OT      -0.834000       15.9994           0
     55370 TIP3     10975    TIP3     H1       HT       0.417000       1.00800           0
     55371 TIP3     10975    TIP3     H2       HT       0.417000       1.00800           0
     55372 TIP3     10976    TIP3     OH2      OT      -0.834000       15.9994           0
     55373 TIP3     10976    TIP3     H1       HT       0.417000       1.00800           0
     55374 TIP3     10976    TIP3     H2       HT       0.417000       1.00800           0
     55375 TIP3     10977    TIP3     OH2      OT      -0.834000       15.9994           0
     55376 TIP3     10977    TIP3     H1       HT       0.417000       1.00800           0
     55377 TIP3     10977    TIP3     H2       HT       0.417000       1.00800           0
     55378 TIP3     10978    TIP3     OH2      OT      -0.834000       15.9994           0
     55379 TIP3     10978    TIP3     H1       HT       0.417000       1.00800           0
     55380 TIP3     10978    TIP3     H2       HT       0.417000       1.00800           0
     55381 TIP3     10979    TIP3     OH2      OT      -0.834000       15.9994           0
     55382 TIP3     10979    TIP3     H1       HT       0.417000       1.00800           0
     55383 TIP3     10979    TIP3     H2       HT       0.417000       1.00800           0
     55384 TIP3     10980    TIP3     OH2      OT      -0.834000       15.9994           0
     55385 TIP3     10980    TIP3     H1       HT       0.417000       1.00800           0
     55386 TIP3     10980    TIP3     H2       HT       0.417000       1.00800           0
     55387 TIP3     10981    TIP3     OH2      OT      -0.834000       15.9994           0
     55388 TIP3     10981    TIP3     H1       HT       0.417000       1.00800           0
     55389 TIP3     10981    TIP3     H2       HT       0.417000       1.00800           0
     55390 TIP3     10982    TIP3     OH2      OT      -0.834000       15.9994           0
     55391 TIP3     10982    TIP3     H1       HT       0.417000       1.00800           0
     55392 TIP3     10982    TIP3     H2       HT       0.417000       1.00800           0
     55393 TIP3     10983    TIP3     OH2      OT      -0.834000       15.9994           0
     55394 TIP3     10983    TIP3     H1       HT       0.417000       1.00800           0
     55395 TIP3     10983    TIP3     H2       HT       0.417000       1.00800           0
     55396 TIP3     10984    TIP3     OH2      OT      -0.834000       15.9994           0
     55397 TIP3     10984    TIP3     H1       HT       0.417000       1.00800           0
     55398 TIP3     10984    TIP3     H2       HT       0.417000       1.00800           0
     55399 TIP3     10985    TIP3     OH2      OT      -0.834000       15.9994           0
     55400 TIP3     10985    TIP3     H1       HT       0.417000       1.00800           0
     55401 TIP3     10985    TIP3     H2       HT       0.417000       1.00800           0
     55402 TIP3     10986    TIP3     OH2      OT      -0.834000       15.9994           0
     55403 TIP3     10986    TIP3     H1       HT       0.417000       1.00800           0
     55404 TIP3     10986    TIP3     H2       HT       0.417000       1.00800           0
     55405 TIP3     10987    TIP3     OH2      OT      -0.834000       15.9994           0
     55406 TIP3     10987    TIP3     H1       HT       0.417000       1.00800           0
     55407 TIP3     10987    TIP3     H2       HT       0.417000       1.00800           0
     55408 TIP3     10988    TIP3     OH2      OT      -0.834000       15.9994           0
     55409 TIP3     10988    TIP3     H1       HT       0.417000       1.00800           0
     55410 TIP3     10988    TIP3     H2       HT       0.417000       1.00800           0
     55411 TIP3     10989    TIP3     OH2      OT      -0.834000       15.9994           0
     55412 TIP3     10989    TIP3     H1       HT       0.417000       1.00800           0
     55413 TIP3     10989    TIP3     H2       HT       0.417000       1.00800           0
     55414 TIP3     10990    TIP3     OH2      OT      -0.834000       15.9994           0
     55415 TIP3     10990    TIP3     H1       HT       0.417000       1.00800           0
     55416 TIP3     10990    TIP3     H2       HT       0.417000       1.00800           0
     55417 TIP3     10991    TIP3     OH2      OT      -0.834000       15.9994           0
     55418 TIP3     10991    TIP3     H1       HT       0.417000       1.00800           0
     55419 TIP3     10991    TIP3     H2       HT       0.417000       1.00800           0
     55420 TIP3     10992    TIP3     OH2      OT      -0.834000       15.9994           0
     55421 TIP3     10992    TIP3     H1       HT       0.417000       1.00800           0
     55422 TIP3     10992    TIP3     H2       HT       0.417000       1.00800           0
     55423 TIP3     10993    TIP3     OH2      OT      -0.834000       15.9994           0
     55424 TIP3     10993    TIP3     H1       HT       0.417000       1.00800           0
     55425 TIP3     10993    TIP3     H2       HT       0.417000       1.00800           0
     55426 TIP3     10994    TIP3     OH2      OT      -0.834000       15.9994           0
     55427 TIP3     10994    TIP3     H1       HT       0.417000       1.00800           0
     55428 TIP3     10994    TIP3     H2       HT       0.417000       1.00800           0
     55429 TIP3     10995    TIP3     OH2      OT      -0.834000       15.9994           0
     55430 TIP3     10995    TIP3     H1       HT       0.417000       1.00800           0
     55431 TIP3     10995    TIP3     H2       HT       0.417000       1.00800           0
     55432 TIP3     10996    TIP3     OH2      OT      -0.834000       15.9994           0
     55433 TIP3     10996    TIP3     H1       HT       0.417000       1.00800           0
     55434 TIP3     10996    TIP3     H2       HT       0.417000       1.00800           0
     55435 TIP3     10997    TIP3     OH2      OT      -0.834000       15.9994           0
     55436 TIP3     10997    TIP3     H1       HT       0.417000       1.00800           0
     55437 TIP3     10997    TIP3     H2       HT       0.417000       1.00800           0
     55438 TIP3     10998    TIP3     OH2      OT      -0.834000       15.9994           0
     55439 TIP3     10998    TIP3     H1       HT       0.417000       1.00800           0
     55440 TIP3     10998    TIP3     H2       HT       0.417000       1.00800           0
     55441 TIP3     10999    TIP3     OH2      OT      -0.834000       15.9994           0
     55442 TIP3     10999    TIP3     H1       HT       0.417000       1.00800           0
     55443 TIP3     10999    TIP3     H2       HT       0.417000       1.00800           0
     55444 TIP3     11000    TIP3     OH2      OT      -0.834000       15.9994           0
     55445 TIP3     11000    TIP3     H1       HT       0.417000       1.00800           0
     55446 TIP3     11000    TIP3     H2       HT       0.417000       1.00800           0
     55447 TIP3     11001    TIP3     OH2      OT      -0.834000       15.9994           0
     55448 TIP3     11001    TIP3     H1       HT       0.417000       1.00800           0
     55449 TIP3     11001    TIP3     H2       HT       0.417000       1.00800           0
     55450 TIP3     11002    TIP3     OH2      OT      -0.834000       15.9994           0
     55451 TIP3     11002    TIP3     H1       HT       0.417000       1.00800           0
     55452 TIP3     11002    TIP3     H2       HT       0.417000       1.00800           0
     55453 TIP3     11003    TIP3     OH2      OT      -0.834000       15.9994           0
     55454 TIP3     11003    TIP3     H1       HT       0.417000       1.00800           0
     55455 TIP3     11003    TIP3     H2       HT       0.417000       1.00800           0
     55456 TIP3     11004    TIP3     OH2      OT      -0.834000       15.9994           0
     55457 TIP3     11004    TIP3     H1       HT       0.417000       1.00800           0
     55458 TIP3     11004    TIP3     H2       HT       0.417000       1.00800           0
     55459 TIP3     11005    TIP3     OH2      OT      -0.834000       15.9994           0
     55460 TIP3     11005    TIP3     H1       HT       0.417000       1.00800           0
     55461 TIP3     11005    TIP3     H2       HT       0.417000       1.00800           0
     55462 TIP3     11006    TIP3     OH2      OT      -0.834000       15.9994           0
     55463 TIP3     11006    TIP3     H1       HT       0.417000       1.00800           0
     55464 TIP3     11006    TIP3     H2       HT       0.417000       1.00800           0
     55465 TIP3     11007    TIP3     OH2      OT      -0.834000       15.9994           0
     55466 TIP3     11007    TIP3     H1       HT       0.417000       1.00800           0
     55467 TIP3     11007    TIP3     H2       HT       0.417000       1.00800           0
     55468 TIP3     11008    TIP3     OH2      OT      -0.834000       15.9994           0
     55469 TIP3     11008    TIP3     H1       HT       0.417000       1.00800           0
     55470 TIP3     11008    TIP3     H2       HT       0.417000       1.00800           0
     55471 TIP3     11009    TIP3     OH2      OT      -0.834000       15.9994           0
     55472 TIP3     11009    TIP3     H1       HT       0.417000       1.00800           0
     55473 TIP3     11009    TIP3     H2       HT       0.417000       1.00800           0
     55474 TIP3     11010    TIP3     OH2      OT      -0.834000       15.9994           0
     55475 TIP3     11010    TIP3     H1       HT       0.417000       1.00800           0
     55476 TIP3     11010    TIP3     H2       HT       0.417000       1.00800           0
     55477 TIP3     11011    TIP3     OH2      OT      -0.834000       15.9994           0
     55478 TIP3     11011    TIP3     H1       HT       0.417000       1.00800           0
     55479 TIP3     11011    TIP3     H2       HT       0.417000       1.00800           0
     55480 TIP3     11012    TIP3     OH2      OT      -0.834000       15.9994           0
     55481 TIP3     11012    TIP3     H1       HT       0.417000       1.00800           0
     55482 TIP3     11012    TIP3     H2       HT       0.417000       1.00800           0
     55483 TIP3     11013    TIP3     OH2      OT      -0.834000       15.9994           0
     55484 TIP3     11013    TIP3     H1       HT       0.417000       1.00800           0
     55485 TIP3     11013    TIP3     H2       HT       0.417000       1.00800           0
     55486 TIP3     11014    TIP3     OH2      OT      -0.834000       15.9994           0
     55487 TIP3     11014    TIP3     H1       HT       0.417000       1.00800           0
     55488 TIP3     11014    TIP3     H2       HT       0.417000       1.00800           0
     55489 TIP3     11015    TIP3     OH2      OT      -0.834000       15.9994           0
     55490 TIP3     11015    TIP3     H1       HT       0.417000       1.00800           0
     55491 TIP3     11015    TIP3     H2       HT       0.417000       1.00800           0
     55492 TIP3     11016    TIP3     OH2      OT      -0.834000       15.9994           0
     55493 TIP3     11016    TIP3     H1       HT       0.417000       1.00800           0
     55494 TIP3     11016    TIP3     H2       HT       0.417000       1.00800           0
     55495 TIP3     11017    TIP3     OH2      OT      -0.834000       15.9994           0
     55496 TIP3     11017    TIP3     H1       HT       0.417000       1.00800           0
     55497 TIP3     11017    TIP3     H2       HT       0.417000       1.00800           0
     55498 TIP3     11018    TIP3     OH2      OT      -0.834000       15.9994           0
     55499 TIP3     11018    TIP3     H1       HT       0.417000       1.00800           0
     55500 TIP3     11018    TIP3     H2       HT       0.417000       1.00800           0
     55501 TIP3     11019    TIP3     OH2      OT      -0.834000       15.9994           0
     55502 TIP3     11019    TIP3     H1       HT       0.417000       1.00800           0
     55503 TIP3     11019    TIP3     H2       HT       0.417000       1.00800           0
     55504 TIP3     11020    TIP3     OH2      OT      -0.834000       15.9994           0
     55505 TIP3     11020    TIP3     H1       HT       0.417000       1.00800           0
     55506 TIP3     11020    TIP3     H2       HT       0.417000       1.00800           0
     55507 TIP3     11021    TIP3     OH2      OT      -0.834000       15.9994           0
     55508 TIP3     11021    TIP3     H1       HT       0.417000       1.00800           0
     55509 TIP3     11021    TIP3     H2       HT       0.417000       1.00800           0
     55510 TIP3     11022    TIP3     OH2      OT      -0.834000       15.9994           0
     55511 TIP3     11022    TIP3     H1       HT       0.417000       1.00800           0
     55512 TIP3     11022    TIP3     H2       HT       0.417000       1.00800           0
     55513 TIP3     11023    TIP3     OH2      OT      -0.834000       15.9994           0
     55514 TIP3     11023    TIP3     H1       HT       0.417000       1.00800           0
     55515 TIP3     11023    TIP3     H2       HT       0.417000       1.00800           0
     55516 TIP3     11024    TIP3     OH2      OT      -0.834000       15.9994           0
     55517 TIP3     11024    TIP3     H1       HT       0.417000       1.00800           0
     55518 TIP3     11024    TIP3     H2       HT       0.417000       1.00800           0
     55519 TIP3     11025    TIP3     OH2      OT      -0.834000       15.9994           0
     55520 TIP3     11025    TIP3     H1       HT       0.417000       1.00800           0
     55521 TIP3     11025    TIP3     H2       HT       0.417000       1.00800           0
     55522 TIP3     11026    TIP3     OH2      OT      -0.834000       15.9994           0
     55523 TIP3     11026    TIP3     H1       HT       0.417000       1.00800           0
     55524 TIP3     11026    TIP3     H2       HT       0.417000       1.00800           0
     55525 TIP3     11027    TIP3     OH2      OT      -0.834000       15.9994           0
     55526 TIP3     11027    TIP3     H1       HT       0.417000       1.00800           0
     55527 TIP3     11027    TIP3     H2       HT       0.417000       1.00800           0
     55528 TIP3     11028    TIP3     OH2      OT      -0.834000       15.9994           0
     55529 TIP3     11028    TIP3     H1       HT       0.417000       1.00800           0
     55530 TIP3     11028    TIP3     H2       HT       0.417000       1.00800           0
     55531 TIP3     11029    TIP3     OH2      OT      -0.834000       15.9994           0
     55532 TIP3     11029    TIP3     H1       HT       0.417000       1.00800           0
     55533 TIP3     11029    TIP3     H2       HT       0.417000       1.00800           0
     55534 TIP3     11030    TIP3     OH2      OT      -0.834000       15.9994           0
     55535 TIP3     11030    TIP3     H1       HT       0.417000       1.00800           0
     55536 TIP3     11030    TIP3     H2       HT       0.417000       1.00800           0
     55537 TIP3     11031    TIP3     OH2      OT      -0.834000       15.9994           0
     55538 TIP3     11031    TIP3     H1       HT       0.417000       1.00800           0
     55539 TIP3     11031    TIP3     H2       HT       0.417000       1.00800           0
     55540 TIP3     11032    TIP3     OH2      OT      -0.834000       15.9994           0
     55541 TIP3     11032    TIP3     H1       HT       0.417000       1.00800           0
     55542 TIP3     11032    TIP3     H2       HT       0.417000       1.00800           0
     55543 TIP3     11033    TIP3     OH2      OT      -0.834000       15.9994           0
     55544 TIP3     11033    TIP3     H1       HT       0.417000       1.00800           0
     55545 TIP3     11033    TIP3     H2       HT       0.417000       1.00800           0
     55546 TIP3     11034    TIP3     OH2      OT      -0.834000       15.9994           0
     55547 TIP3     11034    TIP3     H1       HT       0.417000       1.00800           0
     55548 TIP3     11034    TIP3     H2       HT       0.417000       1.00800           0
     55549 TIP3     11035    TIP3     OH2      OT      -0.834000       15.9994           0
     55550 TIP3     11035    TIP3     H1       HT       0.417000       1.00800           0
     55551 TIP3     11035    TIP3     H2       HT       0.417000       1.00800           0
     55552 TIP3     11036    TIP3     OH2      OT      -0.834000       15.9994           0
     55553 TIP3     11036    TIP3     H1       HT       0.417000       1.00800           0
     55554 TIP3     11036    TIP3     H2       HT       0.417000       1.00800           0
     55555 TIP3     11037    TIP3     OH2      OT      -0.834000       15.9994           0
     55556 TIP3     11037    TIP3     H1       HT       0.417000       1.00800           0
     55557 TIP3     11037    TIP3     H2       HT       0.417000       1.00800           0
     55558 TIP3     11038    TIP3     OH2      OT      -0.834000       15.9994           0
     55559 TIP3     11038    TIP3     H1       HT       0.417000       1.00800           0
     55560 TIP3     11038    TIP3     H2       HT       0.417000       1.00800           0
     55561 TIP3     11039    TIP3     OH2      OT      -0.834000       15.9994           0
     55562 TIP3     11039    TIP3     H1       HT       0.417000       1.00800           0
     55563 TIP3     11039    TIP3     H2       HT       0.417000       1.00800           0
     55564 TIP3     11040    TIP3     OH2      OT      -0.834000       15.9994           0
     55565 TIP3     11040    TIP3     H1       HT       0.417000       1.00800           0
     55566 TIP3     11040    TIP3     H2       HT       0.417000       1.00800           0
     55567 TIP3     11041    TIP3     OH2      OT      -0.834000       15.9994           0
     55568 TIP3     11041    TIP3     H1       HT       0.417000       1.00800           0
     55569 TIP3     11041    TIP3     H2       HT       0.417000       1.00800           0
     55570 TIP3     11042    TIP3     OH2      OT      -0.834000       15.9994           0
     55571 TIP3     11042    TIP3     H1       HT       0.417000       1.00800           0
     55572 TIP3     11042    TIP3     H2       HT       0.417000       1.00800           0
     55573 TIP3     11043    TIP3     OH2      OT      -0.834000       15.9994           0
     55574 TIP3     11043    TIP3     H1       HT       0.417000       1.00800           0
     55575 TIP3     11043    TIP3     H2       HT       0.417000       1.00800           0
     55576 TIP3     11044    TIP3     OH2      OT      -0.834000       15.9994           0
     55577 TIP3     11044    TIP3     H1       HT       0.417000       1.00800           0
     55578 TIP3     11044    TIP3     H2       HT       0.417000       1.00800           0
     55579 TIP3     11045    TIP3     OH2      OT      -0.834000       15.9994           0
     55580 TIP3     11045    TIP3     H1       HT       0.417000       1.00800           0
     55581 TIP3     11045    TIP3     H2       HT       0.417000       1.00800           0
     55582 TIP3     11046    TIP3     OH2      OT      -0.834000       15.9994           0
     55583 TIP3     11046    TIP3     H1       HT       0.417000       1.00800           0
     55584 TIP3     11046    TIP3     H2       HT       0.417000       1.00800           0
     55585 TIP3     11047    TIP3     OH2      OT      -0.834000       15.9994           0
     55586 TIP3     11047    TIP3     H1       HT       0.417000       1.00800           0
     55587 TIP3     11047    TIP3     H2       HT       0.417000       1.00800           0
     55588 TIP3     11048    TIP3     OH2      OT      -0.834000       15.9994           0
     55589 TIP3     11048    TIP3     H1       HT       0.417000       1.00800           0
     55590 TIP3     11048    TIP3     H2       HT       0.417000       1.00800           0
     55591 TIP3     11049    TIP3     OH2      OT      -0.834000       15.9994           0
     55592 TIP3     11049    TIP3     H1       HT       0.417000       1.00800           0
     55593 TIP3     11049    TIP3     H2       HT       0.417000       1.00800           0
     55594 TIP3     11050    TIP3     OH2      OT      -0.834000       15.9994           0
     55595 TIP3     11050    TIP3     H1       HT       0.417000       1.00800           0
     55596 TIP3     11050    TIP3     H2       HT       0.417000       1.00800           0
     55597 TIP3     11051    TIP3     OH2      OT      -0.834000       15.9994           0
     55598 TIP3     11051    TIP3     H1       HT       0.417000       1.00800           0
     55599 TIP3     11051    TIP3     H2       HT       0.417000       1.00800           0
     55600 TIP3     11052    TIP3     OH2      OT      -0.834000       15.9994           0
     55601 TIP3     11052    TIP3     H1       HT       0.417000       1.00800           0
     55602 TIP3     11052    TIP3     H2       HT       0.417000       1.00800           0
     55603 TIP3     11053    TIP3     OH2      OT      -0.834000       15.9994           0
     55604 TIP3     11053    TIP3     H1       HT       0.417000       1.00800           0
     55605 TIP3     11053    TIP3     H2       HT       0.417000       1.00800           0
     55606 TIP3     11054    TIP3     OH2      OT      -0.834000       15.9994           0
     55607 TIP3     11054    TIP3     H1       HT       0.417000       1.00800           0
     55608 TIP3     11054    TIP3     H2       HT       0.417000       1.00800           0
     55609 TIP3     11055    TIP3     OH2      OT      -0.834000       15.9994           0
     55610 TIP3     11055    TIP3     H1       HT       0.417000       1.00800           0
     55611 TIP3     11055    TIP3     H2       HT       0.417000       1.00800           0
     55612 TIP3     11056    TIP3     OH2      OT      -0.834000       15.9994           0
     55613 TIP3     11056    TIP3     H1       HT       0.417000       1.00800           0
     55614 TIP3     11056    TIP3     H2       HT       0.417000       1.00800           0
     55615 TIP3     11057    TIP3     OH2      OT      -0.834000       15.9994           0
     55616 TIP3     11057    TIP3     H1       HT       0.417000       1.00800           0
     55617 TIP3     11057    TIP3     H2       HT       0.417000       1.00800           0
     55618 TIP3     11058    TIP3     OH2      OT      -0.834000       15.9994           0
     55619 TIP3     11058    TIP3     H1       HT       0.417000       1.00800           0
     55620 TIP3     11058    TIP3     H2       HT       0.417000       1.00800           0
     55621 TIP3     11059    TIP3     OH2      OT      -0.834000       15.9994           0
     55622 TIP3     11059    TIP3     H1       HT       0.417000       1.00800           0
     55623 TIP3     11059    TIP3     H2       HT       0.417000       1.00800           0
     55624 TIP3     11060    TIP3     OH2      OT      -0.834000       15.9994           0
     55625 TIP3     11060    TIP3     H1       HT       0.417000       1.00800           0
     55626 TIP3     11060    TIP3     H2       HT       0.417000       1.00800           0
     55627 TIP3     11061    TIP3     OH2      OT      -0.834000       15.9994           0
     55628 TIP3     11061    TIP3     H1       HT       0.417000       1.00800           0
     55629 TIP3     11061    TIP3     H2       HT       0.417000       1.00800           0
     55630 TIP3     11062    TIP3     OH2      OT      -0.834000       15.9994           0
     55631 TIP3     11062    TIP3     H1       HT       0.417000       1.00800           0
     55632 TIP3     11062    TIP3     H2       HT       0.417000       1.00800           0
     55633 TIP3     11063    TIP3     OH2      OT      -0.834000       15.9994           0
     55634 TIP3     11063    TIP3     H1       HT       0.417000       1.00800           0
     55635 TIP3     11063    TIP3     H2       HT       0.417000       1.00800           0
     55636 TIP3     11064    TIP3     OH2      OT      -0.834000       15.9994           0
     55637 TIP3     11064    TIP3     H1       HT       0.417000       1.00800           0
     55638 TIP3     11064    TIP3     H2       HT       0.417000       1.00800           0
     55639 TIP3     11065    TIP3     OH2      OT      -0.834000       15.9994           0
     55640 TIP3     11065    TIP3     H1       HT       0.417000       1.00800           0
     55641 TIP3     11065    TIP3     H2       HT       0.417000       1.00800           0
     55642 TIP3     11066    TIP3     OH2      OT      -0.834000       15.9994           0
     55643 TIP3     11066    TIP3     H1       HT       0.417000       1.00800           0
     55644 TIP3     11066    TIP3     H2       HT       0.417000       1.00800           0
     55645 TIP3     11067    TIP3     OH2      OT      -0.834000       15.9994           0
     55646 TIP3     11067    TIP3     H1       HT       0.417000       1.00800           0
     55647 TIP3     11067    TIP3     H2       HT       0.417000       1.00800           0
     55648 TIP3     11068    TIP3     OH2      OT      -0.834000       15.9994           0
     55649 TIP3     11068    TIP3     H1       HT       0.417000       1.00800           0
     55650 TIP3     11068    TIP3     H2       HT       0.417000       1.00800           0
     55651 TIP3     11069    TIP3     OH2      OT      -0.834000       15.9994           0
     55652 TIP3     11069    TIP3     H1       HT       0.417000       1.00800           0
     55653 TIP3     11069    TIP3     H2       HT       0.417000       1.00800           0
     55654 TIP3     11070    TIP3     OH2      OT      -0.834000       15.9994           0
     55655 TIP3     11070    TIP3     H1       HT       0.417000       1.00800           0
     55656 TIP3     11070    TIP3     H2       HT       0.417000       1.00800           0
     55657 TIP3     11071    TIP3     OH2      OT      -0.834000       15.9994           0
     55658 TIP3     11071    TIP3     H1       HT       0.417000       1.00800           0
     55659 TIP3     11071    TIP3     H2       HT       0.417000       1.00800           0
     55660 TIP3     11072    TIP3     OH2      OT      -0.834000       15.9994           0
     55661 TIP3     11072    TIP3     H1       HT       0.417000       1.00800           0
     55662 TIP3     11072    TIP3     H2       HT       0.417000       1.00800           0
     55663 TIP3     11073    TIP3     OH2      OT      -0.834000       15.9994           0
     55664 TIP3     11073    TIP3     H1       HT       0.417000       1.00800           0
     55665 TIP3     11073    TIP3     H2       HT       0.417000       1.00800           0
     55666 TIP3     11074    TIP3     OH2      OT      -0.834000       15.9994           0
     55667 TIP3     11074    TIP3     H1       HT       0.417000       1.00800           0
     55668 TIP3     11074    TIP3     H2       HT       0.417000       1.00800           0
     55669 TIP3     11075    TIP3     OH2      OT      -0.834000       15.9994           0
     55670 TIP3     11075    TIP3     H1       HT       0.417000       1.00800           0
     55671 TIP3     11075    TIP3     H2       HT       0.417000       1.00800           0
     55672 TIP3     11076    TIP3     OH2      OT      -0.834000       15.9994           0
     55673 TIP3     11076    TIP3     H1       HT       0.417000       1.00800           0
     55674 TIP3     11076    TIP3     H2       HT       0.417000       1.00800           0
     55675 TIP3     11077    TIP3     OH2      OT      -0.834000       15.9994           0
     55676 TIP3     11077    TIP3     H1       HT       0.417000       1.00800           0
     55677 TIP3     11077    TIP3     H2       HT       0.417000       1.00800           0
     55678 TIP3     11078    TIP3     OH2      OT      -0.834000       15.9994           0
     55679 TIP3     11078    TIP3     H1       HT       0.417000       1.00800           0
     55680 TIP3     11078    TIP3     H2       HT       0.417000       1.00800           0
     55681 TIP3     11079    TIP3     OH2      OT      -0.834000       15.9994           0
     55682 TIP3     11079    TIP3     H1       HT       0.417000       1.00800           0
     55683 TIP3     11079    TIP3     H2       HT       0.417000       1.00800           0
     55684 TIP3     11080    TIP3     OH2      OT      -0.834000       15.9994           0
     55685 TIP3     11080    TIP3     H1       HT       0.417000       1.00800           0
     55686 TIP3     11080    TIP3     H2       HT       0.417000       1.00800           0
     55687 TIP3     11081    TIP3     OH2      OT      -0.834000       15.9994           0
     55688 TIP3     11081    TIP3     H1       HT       0.417000       1.00800           0
     55689 TIP3     11081    TIP3     H2       HT       0.417000       1.00800           0
     55690 TIP3     11082    TIP3     OH2      OT      -0.834000       15.9994           0
     55691 TIP3     11082    TIP3     H1       HT       0.417000       1.00800           0
     55692 TIP3     11082    TIP3     H2       HT       0.417000       1.00800           0
     55693 TIP3     11083    TIP3     OH2      OT      -0.834000       15.9994           0
     55694 TIP3     11083    TIP3     H1       HT       0.417000       1.00800           0
     55695 TIP3     11083    TIP3     H2       HT       0.417000       1.00800           0
     55696 TIP3     11084    TIP3     OH2      OT      -0.834000       15.9994           0
     55697 TIP3     11084    TIP3     H1       HT       0.417000       1.00800           0
     55698 TIP3     11084    TIP3     H2       HT       0.417000       1.00800           0
     55699 TIP3     11085    TIP3     OH2      OT      -0.834000       15.9994           0
     55700 TIP3     11085    TIP3     H1       HT       0.417000       1.00800           0
     55701 TIP3     11085    TIP3     H2       HT       0.417000       1.00800           0
     55702 TIP3     11086    TIP3     OH2      OT      -0.834000       15.9994           0
     55703 TIP3     11086    TIP3     H1       HT       0.417000       1.00800           0
     55704 TIP3     11086    TIP3     H2       HT       0.417000       1.00800           0
     55705 TIP3     11087    TIP3     OH2      OT      -0.834000       15.9994           0
     55706 TIP3     11087    TIP3     H1       HT       0.417000       1.00800           0
     55707 TIP3     11087    TIP3     H2       HT       0.417000       1.00800           0
     55708 TIP3     11088    TIP3     OH2      OT      -0.834000       15.9994           0
     55709 TIP3     11088    TIP3     H1       HT       0.417000       1.00800           0
     55710 TIP3     11088    TIP3     H2       HT       0.417000       1.00800           0
     55711 TIP3     11089    TIP3     OH2      OT      -0.834000       15.9994           0
     55712 TIP3     11089    TIP3     H1       HT       0.417000       1.00800           0
     55713 TIP3     11089    TIP3     H2       HT       0.417000       1.00800           0
     55714 TIP3     11090    TIP3     OH2      OT      -0.834000       15.9994           0
     55715 TIP3     11090    TIP3     H1       HT       0.417000       1.00800           0
     55716 TIP3     11090    TIP3     H2       HT       0.417000       1.00800           0
     55717 TIP3     11091    TIP3     OH2      OT      -0.834000       15.9994           0
     55718 TIP3     11091    TIP3     H1       HT       0.417000       1.00800           0
     55719 TIP3     11091    TIP3     H2       HT       0.417000       1.00800           0
     55720 TIP3     11092    TIP3     OH2      OT      -0.834000       15.9994           0
     55721 TIP3     11092    TIP3     H1       HT       0.417000       1.00800           0
     55722 TIP3     11092    TIP3     H2       HT       0.417000       1.00800           0
     55723 TIP3     11093    TIP3     OH2      OT      -0.834000       15.9994           0
     55724 TIP3     11093    TIP3     H1       HT       0.417000       1.00800           0
     55725 TIP3     11093    TIP3     H2       HT       0.417000       1.00800           0
     55726 TIP3     11094    TIP3     OH2      OT      -0.834000       15.9994           0
     55727 TIP3     11094    TIP3     H1       HT       0.417000       1.00800           0
     55728 TIP3     11094    TIP3     H2       HT       0.417000       1.00800           0
     55729 TIP3     11095    TIP3     OH2      OT      -0.834000       15.9994           0
     55730 TIP3     11095    TIP3     H1       HT       0.417000       1.00800           0
     55731 TIP3     11095    TIP3     H2       HT       0.417000       1.00800           0
     55732 TIP3     11096    TIP3     OH2      OT      -0.834000       15.9994           0
     55733 TIP3     11096    TIP3     H1       HT       0.417000       1.00800           0
     55734 TIP3     11096    TIP3     H2       HT       0.417000       1.00800           0
     55735 TIP3     11097    TIP3     OH2      OT      -0.834000       15.9994           0
     55736 TIP3     11097    TIP3     H1       HT       0.417000       1.00800           0
     55737 TIP3     11097    TIP3     H2       HT       0.417000       1.00800           0
     55738 TIP3     11098    TIP3     OH2      OT      -0.834000       15.9994           0
     55739 TIP3     11098    TIP3     H1       HT       0.417000       1.00800           0
     55740 TIP3     11098    TIP3     H2       HT       0.417000       1.00800           0
     55741 TIP3     11099    TIP3     OH2      OT      -0.834000       15.9994           0
     55742 TIP3     11099    TIP3     H1       HT       0.417000       1.00800           0
     55743 TIP3     11099    TIP3     H2       HT       0.417000       1.00800           0
     55744 TIP3     11100    TIP3     OH2      OT      -0.834000       15.9994           0
     55745 TIP3     11100    TIP3     H1       HT       0.417000       1.00800           0
     55746 TIP3     11100    TIP3     H2       HT       0.417000       1.00800           0
     55747 TIP3     11101    TIP3     OH2      OT      -0.834000       15.9994           0
     55748 TIP3     11101    TIP3     H1       HT       0.417000       1.00800           0
     55749 TIP3     11101    TIP3     H2       HT       0.417000       1.00800           0
     55750 TIP3     11102    TIP3     OH2      OT      -0.834000       15.9994           0
     55751 TIP3     11102    TIP3     H1       HT       0.417000       1.00800           0
     55752 TIP3     11102    TIP3     H2       HT       0.417000       1.00800           0
     55753 TIP3     11103    TIP3     OH2      OT      -0.834000       15.9994           0
     55754 TIP3     11103    TIP3     H1       HT       0.417000       1.00800           0
     55755 TIP3     11103    TIP3     H2       HT       0.417000       1.00800           0
     55756 TIP3     11104    TIP3     OH2      OT      -0.834000       15.9994           0
     55757 TIP3     11104    TIP3     H1       HT       0.417000       1.00800           0
     55758 TIP3     11104    TIP3     H2       HT       0.417000       1.00800           0
     55759 TIP3     11105    TIP3     OH2      OT      -0.834000       15.9994           0
     55760 TIP3     11105    TIP3     H1       HT       0.417000       1.00800           0
     55761 TIP3     11105    TIP3     H2       HT       0.417000       1.00800           0
     55762 TIP3     11106    TIP3     OH2      OT      -0.834000       15.9994           0
     55763 TIP3     11106    TIP3     H1       HT       0.417000       1.00800           0
     55764 TIP3     11106    TIP3     H2       HT       0.417000       1.00800           0
     55765 TIP3     11107    TIP3     OH2      OT      -0.834000       15.9994           0
     55766 TIP3     11107    TIP3     H1       HT       0.417000       1.00800           0
     55767 TIP3     11107    TIP3     H2       HT       0.417000       1.00800           0
     55768 TIP3     11108    TIP3     OH2      OT      -0.834000       15.9994           0
     55769 TIP3     11108    TIP3     H1       HT       0.417000       1.00800           0
     55770 TIP3     11108    TIP3     H2       HT       0.417000       1.00800           0
     55771 TIP3     11109    TIP3     OH2      OT      -0.834000       15.9994           0
     55772 TIP3     11109    TIP3     H1       HT       0.417000       1.00800           0
     55773 TIP3     11109    TIP3     H2       HT       0.417000       1.00800           0
     55774 TIP3     11110    TIP3     OH2      OT      -0.834000       15.9994           0
     55775 TIP3     11110    TIP3     H1       HT       0.417000       1.00800           0
     55776 TIP3     11110    TIP3     H2       HT       0.417000       1.00800           0
     55777 TIP3     11111    TIP3     OH2      OT      -0.834000       15.9994           0
     55778 TIP3     11111    TIP3     H1       HT       0.417000       1.00800           0
     55779 TIP3     11111    TIP3     H2       HT       0.417000       1.00800           0
     55780 TIP3     11112    TIP3     OH2      OT      -0.834000       15.9994           0
     55781 TIP3     11112    TIP3     H1       HT       0.417000       1.00800           0
     55782 TIP3     11112    TIP3     H2       HT       0.417000       1.00800           0
     55783 TIP3     11113    TIP3     OH2      OT      -0.834000       15.9994           0
     55784 TIP3     11113    TIP3     H1       HT       0.417000       1.00800           0
     55785 TIP3     11113    TIP3     H2       HT       0.417000       1.00800           0
     55786 TIP3     11114    TIP3     OH2      OT      -0.834000       15.9994           0
     55787 TIP3     11114    TIP3     H1       HT       0.417000       1.00800           0
     55788 TIP3     11114    TIP3     H2       HT       0.417000       1.00800           0
     55789 TIP3     11115    TIP3     OH2      OT      -0.834000       15.9994           0
     55790 TIP3     11115    TIP3     H1       HT       0.417000       1.00800           0
     55791 TIP3     11115    TIP3     H2       HT       0.417000       1.00800           0
     55792 TIP3     11116    TIP3     OH2      OT      -0.834000       15.9994           0
     55793 TIP3     11116    TIP3     H1       HT       0.417000       1.00800           0
     55794 TIP3     11116    TIP3     H2       HT       0.417000       1.00800           0
     55795 TIP3     11117    TIP3     OH2      OT      -0.834000       15.9994           0
     55796 TIP3     11117    TIP3     H1       HT       0.417000       1.00800           0
     55797 TIP3     11117    TIP3     H2       HT       0.417000       1.00800           0
     55798 TIP3     11118    TIP3     OH2      OT      -0.834000       15.9994           0
     55799 TIP3     11118    TIP3     H1       HT       0.417000       1.00800           0
     55800 TIP3     11118    TIP3     H2       HT       0.417000       1.00800           0
     55801 TIP3     11119    TIP3     OH2      OT      -0.834000       15.9994           0
     55802 TIP3     11119    TIP3     H1       HT       0.417000       1.00800           0
     55803 TIP3     11119    TIP3     H2       HT       0.417000       1.00800           0
     55804 TIP3     11120    TIP3     OH2      OT      -0.834000       15.9994           0
     55805 TIP3     11120    TIP3     H1       HT       0.417000       1.00800           0
     55806 TIP3     11120    TIP3     H2       HT       0.417000       1.00800           0
     55807 TIP3     11121    TIP3     OH2      OT      -0.834000       15.9994           0
     55808 TIP3     11121    TIP3     H1       HT       0.417000       1.00800           0
     55809 TIP3     11121    TIP3     H2       HT       0.417000       1.00800           0
     55810 TIP3     11122    TIP3     OH2      OT      -0.834000       15.9994           0
     55811 TIP3     11122    TIP3     H1       HT       0.417000       1.00800           0
     55812 TIP3     11122    TIP3     H2       HT       0.417000       1.00800           0
     55813 TIP3     11123    TIP3     OH2      OT      -0.834000       15.9994           0
     55814 TIP3     11123    TIP3     H1       HT       0.417000       1.00800           0
     55815 TIP3     11123    TIP3     H2       HT       0.417000       1.00800           0
     55816 TIP3     11124    TIP3     OH2      OT      -0.834000       15.9994           0
     55817 TIP3     11124    TIP3     H1       HT       0.417000       1.00800           0
     55818 TIP3     11124    TIP3     H2       HT       0.417000       1.00800           0
     55819 TIP3     11125    TIP3     OH2      OT      -0.834000       15.9994           0
     55820 TIP3     11125    TIP3     H1       HT       0.417000       1.00800           0
     55821 TIP3     11125    TIP3     H2       HT       0.417000       1.00800           0
     55822 TIP3     11126    TIP3     OH2      OT      -0.834000       15.9994           0
     55823 TIP3     11126    TIP3     H1       HT       0.417000       1.00800           0
     55824 TIP3     11126    TIP3     H2       HT       0.417000       1.00800           0
     55825 TIP3     11127    TIP3     OH2      OT      -0.834000       15.9994           0
     55826 TIP3     11127    TIP3     H1       HT       0.417000       1.00800           0
     55827 TIP3     11127    TIP3     H2       HT       0.417000       1.00800           0
     55828 TIP3     11128    TIP3     OH2      OT      -0.834000       15.9994           0
     55829 TIP3     11128    TIP3     H1       HT       0.417000       1.00800           0
     55830 TIP3     11128    TIP3     H2       HT       0.417000       1.00800           0
     55831 TIP3     11129    TIP3     OH2      OT      -0.834000       15.9994           0
     55832 TIP3     11129    TIP3     H1       HT       0.417000       1.00800           0
     55833 TIP3     11129    TIP3     H2       HT       0.417000       1.00800           0
     55834 TIP3     11130    TIP3     OH2      OT      -0.834000       15.9994           0
     55835 TIP3     11130    TIP3     H1       HT       0.417000       1.00800           0
     55836 TIP3     11130    TIP3     H2       HT       0.417000       1.00800           0
     55837 TIP3     11131    TIP3     OH2      OT      -0.834000       15.9994           0
     55838 TIP3     11131    TIP3     H1       HT       0.417000       1.00800           0
     55839 TIP3     11131    TIP3     H2       HT       0.417000       1.00800           0
     55840 TIP3     11132    TIP3     OH2      OT      -0.834000       15.9994           0
     55841 TIP3     11132    TIP3     H1       HT       0.417000       1.00800           0
     55842 TIP3     11132    TIP3     H2       HT       0.417000       1.00800           0
     55843 TIP3     11133    TIP3     OH2      OT      -0.834000       15.9994           0
     55844 TIP3     11133    TIP3     H1       HT       0.417000       1.00800           0
     55845 TIP3     11133    TIP3     H2       HT       0.417000       1.00800           0
     55846 TIP3     11134    TIP3     OH2      OT      -0.834000       15.9994           0
     55847 TIP3     11134    TIP3     H1       HT       0.417000       1.00800           0
     55848 TIP3     11134    TIP3     H2       HT       0.417000       1.00800           0
     55849 TIP3     11135    TIP3     OH2      OT      -0.834000       15.9994           0
     55850 TIP3     11135    TIP3     H1       HT       0.417000       1.00800           0
     55851 TIP3     11135    TIP3     H2       HT       0.417000       1.00800           0
     55852 TIP3     11136    TIP3     OH2      OT      -0.834000       15.9994           0
     55853 TIP3     11136    TIP3     H1       HT       0.417000       1.00800           0
     55854 TIP3     11136    TIP3     H2       HT       0.417000       1.00800           0
     55855 TIP3     11137    TIP3     OH2      OT      -0.834000       15.9994           0
     55856 TIP3     11137    TIP3     H1       HT       0.417000       1.00800           0
     55857 TIP3     11137    TIP3     H2       HT       0.417000       1.00800           0
     55858 TIP3     11138    TIP3     OH2      OT      -0.834000       15.9994           0
     55859 TIP3     11138    TIP3     H1       HT       0.417000       1.00800           0
     55860 TIP3     11138    TIP3     H2       HT       0.417000       1.00800           0
     55861 TIP3     11139    TIP3     OH2      OT      -0.834000       15.9994           0
     55862 TIP3     11139    TIP3     H1       HT       0.417000       1.00800           0
     55863 TIP3     11139    TIP3     H2       HT       0.417000       1.00800           0
     55864 TIP3     11140    TIP3     OH2      OT      -0.834000       15.9994           0
     55865 TIP3     11140    TIP3     H1       HT       0.417000       1.00800           0
     55866 TIP3     11140    TIP3     H2       HT       0.417000       1.00800           0
     55867 TIP3     11141    TIP3     OH2      OT      -0.834000       15.9994           0
     55868 TIP3     11141    TIP3     H1       HT       0.417000       1.00800           0
     55869 TIP3     11141    TIP3     H2       HT       0.417000       1.00800           0
     55870 TIP3     11142    TIP3     OH2      OT      -0.834000       15.9994           0
     55871 TIP3     11142    TIP3     H1       HT       0.417000       1.00800           0
     55872 TIP3     11142    TIP3     H2       HT       0.417000       1.00800           0
     55873 TIP3     11143    TIP3     OH2      OT      -0.834000       15.9994           0
     55874 TIP3     11143    TIP3     H1       HT       0.417000       1.00800           0
     55875 TIP3     11143    TIP3     H2       HT       0.417000       1.00800           0
     55876 TIP3     11144    TIP3     OH2      OT      -0.834000       15.9994           0
     55877 TIP3     11144    TIP3     H1       HT       0.417000       1.00800           0
     55878 TIP3     11144    TIP3     H2       HT       0.417000       1.00800           0
     55879 TIP3     11145    TIP3     OH2      OT      -0.834000       15.9994           0
     55880 TIP3     11145    TIP3     H1       HT       0.417000       1.00800           0
     55881 TIP3     11145    TIP3     H2       HT       0.417000       1.00800           0
     55882 TIP3     11146    TIP3     OH2      OT      -0.834000       15.9994           0
     55883 TIP3     11146    TIP3     H1       HT       0.417000       1.00800           0
     55884 TIP3     11146    TIP3     H2       HT       0.417000       1.00800           0
     55885 TIP3     11147    TIP3     OH2      OT      -0.834000       15.9994           0
     55886 TIP3     11147    TIP3     H1       HT       0.417000       1.00800           0
     55887 TIP3     11147    TIP3     H2       HT       0.417000       1.00800           0
     55888 TIP3     11148    TIP3     OH2      OT      -0.834000       15.9994           0
     55889 TIP3     11148    TIP3     H1       HT       0.417000       1.00800           0
     55890 TIP3     11148    TIP3     H2       HT       0.417000       1.00800           0
     55891 TIP3     11149    TIP3     OH2      OT      -0.834000       15.9994           0
     55892 TIP3     11149    TIP3     H1       HT       0.417000       1.00800           0
     55893 TIP3     11149    TIP3     H2       HT       0.417000       1.00800           0
     55894 TIP3     11150    TIP3     OH2      OT      -0.834000       15.9994           0
     55895 TIP3     11150    TIP3     H1       HT       0.417000       1.00800           0
     55896 TIP3     11150    TIP3     H2       HT       0.417000       1.00800           0
     55897 TIP3     11151    TIP3     OH2      OT      -0.834000       15.9994           0
     55898 TIP3     11151    TIP3     H1       HT       0.417000       1.00800           0
     55899 TIP3     11151    TIP3     H2       HT       0.417000       1.00800           0
     55900 TIP3     11152    TIP3     OH2      OT      -0.834000       15.9994           0
     55901 TIP3     11152    TIP3     H1       HT       0.417000       1.00800           0
     55902 TIP3     11152    TIP3     H2       HT       0.417000       1.00800           0
     55903 TIP3     11153    TIP3     OH2      OT      -0.834000       15.9994           0
     55904 TIP3     11153    TIP3     H1       HT       0.417000       1.00800           0
     55905 TIP3     11153    TIP3     H2       HT       0.417000       1.00800           0
     55906 TIP3     11154    TIP3     OH2      OT      -0.834000       15.9994           0
     55907 TIP3     11154    TIP3     H1       HT       0.417000       1.00800           0
     55908 TIP3     11154    TIP3     H2       HT       0.417000       1.00800           0
     55909 TIP3     11155    TIP3     OH2      OT      -0.834000       15.9994           0
     55910 TIP3     11155    TIP3     H1       HT       0.417000       1.00800           0
     55911 TIP3     11155    TIP3     H2       HT       0.417000       1.00800           0
     55912 TIP3     11156    TIP3     OH2      OT      -0.834000       15.9994           0
     55913 TIP3     11156    TIP3     H1       HT       0.417000       1.00800           0
     55914 TIP3     11156    TIP3     H2       HT       0.417000       1.00800           0
     55915 TIP3     11157    TIP3     OH2      OT      -0.834000       15.9994           0
     55916 TIP3     11157    TIP3     H1       HT       0.417000       1.00800           0
     55917 TIP3     11157    TIP3     H2       HT       0.417000       1.00800           0
     55918 TIP3     11158    TIP3     OH2      OT      -0.834000       15.9994           0
     55919 TIP3     11158    TIP3     H1       HT       0.417000       1.00800           0
     55920 TIP3     11158    TIP3     H2       HT       0.417000       1.00800           0
     55921 TIP3     11159    TIP3     OH2      OT      -0.834000       15.9994           0
     55922 TIP3     11159    TIP3     H1       HT       0.417000       1.00800           0
     55923 TIP3     11159    TIP3     H2       HT       0.417000       1.00800           0
     55924 TIP3     11160    TIP3     OH2      OT      -0.834000       15.9994           0
     55925 TIP3     11160    TIP3     H1       HT       0.417000       1.00800           0
     55926 TIP3     11160    TIP3     H2       HT       0.417000       1.00800           0
     55927 TIP3     11161    TIP3     OH2      OT      -0.834000       15.9994           0
     55928 TIP3     11161    TIP3     H1       HT       0.417000       1.00800           0
     55929 TIP3     11161    TIP3     H2       HT       0.417000       1.00800           0
     55930 TIP3     11162    TIP3     OH2      OT      -0.834000       15.9994           0
     55931 TIP3     11162    TIP3     H1       HT       0.417000       1.00800           0
     55932 TIP3     11162    TIP3     H2       HT       0.417000       1.00800           0
     55933 TIP3     11163    TIP3     OH2      OT      -0.834000       15.9994           0
     55934 TIP3     11163    TIP3     H1       HT       0.417000       1.00800           0
     55935 TIP3     11163    TIP3     H2       HT       0.417000       1.00800           0
     55936 TIP3     11164    TIP3     OH2      OT      -0.834000       15.9994           0
     55937 TIP3     11164    TIP3     H1       HT       0.417000       1.00800           0
     55938 TIP3     11164    TIP3     H2       HT       0.417000       1.00800           0
     55939 TIP3     11165    TIP3     OH2      OT      -0.834000       15.9994           0
     55940 TIP3     11165    TIP3     H1       HT       0.417000       1.00800           0
     55941 TIP3     11165    TIP3     H2       HT       0.417000       1.00800           0
     55942 TIP3     11166    TIP3     OH2      OT      -0.834000       15.9994           0
     55943 TIP3     11166    TIP3     H1       HT       0.417000       1.00800           0
     55944 TIP3     11166    TIP3     H2       HT       0.417000       1.00800           0
     55945 TIP3     11167    TIP3     OH2      OT      -0.834000       15.9994           0
     55946 TIP3     11167    TIP3     H1       HT       0.417000       1.00800           0
     55947 TIP3     11167    TIP3     H2       HT       0.417000       1.00800           0
     55948 TIP3     11168    TIP3     OH2      OT      -0.834000       15.9994           0
     55949 TIP3     11168    TIP3     H1       HT       0.417000       1.00800           0
     55950 TIP3     11168    TIP3     H2       HT       0.417000       1.00800           0
     55951 TIP3     11169    TIP3     OH2      OT      -0.834000       15.9994           0
     55952 TIP3     11169    TIP3     H1       HT       0.417000       1.00800           0
     55953 TIP3     11169    TIP3     H2       HT       0.417000       1.00800           0
     55954 TIP3     11170    TIP3     OH2      OT      -0.834000       15.9994           0
     55955 TIP3     11170    TIP3     H1       HT       0.417000       1.00800           0
     55956 TIP3     11170    TIP3     H2       HT       0.417000       1.00800           0
     55957 TIP3     11171    TIP3     OH2      OT      -0.834000       15.9994           0
     55958 TIP3     11171    TIP3     H1       HT       0.417000       1.00800           0
     55959 TIP3     11171    TIP3     H2       HT       0.417000       1.00800           0
     55960 TIP3     11172    TIP3     OH2      OT      -0.834000       15.9994           0
     55961 TIP3     11172    TIP3     H1       HT       0.417000       1.00800           0
     55962 TIP3     11172    TIP3     H2       HT       0.417000       1.00800           0
     55963 TIP3     11173    TIP3     OH2      OT      -0.834000       15.9994           0
     55964 TIP3     11173    TIP3     H1       HT       0.417000       1.00800           0
     55965 TIP3     11173    TIP3     H2       HT       0.417000       1.00800           0
     55966 TIP3     11174    TIP3     OH2      OT      -0.834000       15.9994           0
     55967 TIP3     11174    TIP3     H1       HT       0.417000       1.00800           0
     55968 TIP3     11174    TIP3     H2       HT       0.417000       1.00800           0
     55969 TIP3     11175    TIP3     OH2      OT      -0.834000       15.9994           0
     55970 TIP3     11175    TIP3     H1       HT       0.417000       1.00800           0
     55971 TIP3     11175    TIP3     H2       HT       0.417000       1.00800           0
     55972 TIP3     11176    TIP3     OH2      OT      -0.834000       15.9994           0
     55973 TIP3     11176    TIP3     H1       HT       0.417000       1.00800           0
     55974 TIP3     11176    TIP3     H2       HT       0.417000       1.00800           0
     55975 TIP3     11177    TIP3     OH2      OT      -0.834000       15.9994           0
     55976 TIP3     11177    TIP3     H1       HT       0.417000       1.00800           0
     55977 TIP3     11177    TIP3     H2       HT       0.417000       1.00800           0
     55978 TIP3     11178    TIP3     OH2      OT      -0.834000       15.9994           0
     55979 TIP3     11178    TIP3     H1       HT       0.417000       1.00800           0
     55980 TIP3     11178    TIP3     H2       HT       0.417000       1.00800           0
     55981 TIP3     11179    TIP3     OH2      OT      -0.834000       15.9994           0
     55982 TIP3     11179    TIP3     H1       HT       0.417000       1.00800           0
     55983 TIP3     11179    TIP3     H2       HT       0.417000       1.00800           0
     55984 TIP3     11180    TIP3     OH2      OT      -0.834000       15.9994           0
     55985 TIP3     11180    TIP3     H1       HT       0.417000       1.00800           0
     55986 TIP3     11180    TIP3     H2       HT       0.417000       1.00800           0
     55987 TIP3     11181    TIP3     OH2      OT      -0.834000       15.9994           0
     55988 TIP3     11181    TIP3     H1       HT       0.417000       1.00800           0
     55989 TIP3     11181    TIP3     H2       HT       0.417000       1.00800           0
     55990 TIP3     11182    TIP3     OH2      OT      -0.834000       15.9994           0
     55991 TIP3     11182    TIP3     H1       HT       0.417000       1.00800           0
     55992 TIP3     11182    TIP3     H2       HT       0.417000       1.00800           0
     55993 TIP3     11183    TIP3     OH2      OT      -0.834000       15.9994           0
     55994 TIP3     11183    TIP3     H1       HT       0.417000       1.00800           0
     55995 TIP3     11183    TIP3     H2       HT       0.417000       1.00800           0
     55996 TIP3     11184    TIP3     OH2      OT      -0.834000       15.9994           0
     55997 TIP3     11184    TIP3     H1       HT       0.417000       1.00800           0
     55998 TIP3     11184    TIP3     H2       HT       0.417000       1.00800           0
     55999 TIP3     11185    TIP3     OH2      OT      -0.834000       15.9994           0
     56000 TIP3     11185    TIP3     H1       HT       0.417000       1.00800           0
     56001 TIP3     11185    TIP3     H2       HT       0.417000       1.00800           0
     56002 TIP3     11186    TIP3     OH2      OT      -0.834000       15.9994           0
     56003 TIP3     11186    TIP3     H1       HT       0.417000       1.00800           0
     56004 TIP3     11186    TIP3     H2       HT       0.417000       1.00800           0
     56005 TIP3     11187    TIP3     OH2      OT      -0.834000       15.9994           0
     56006 TIP3     11187    TIP3     H1       HT       0.417000       1.00800           0
     56007 TIP3     11187    TIP3     H2       HT       0.417000       1.00800           0
     56008 TIP3     11188    TIP3     OH2      OT      -0.834000       15.9994           0
     56009 TIP3     11188    TIP3     H1       HT       0.417000       1.00800           0
     56010 TIP3     11188    TIP3     H2       HT       0.417000       1.00800           0
     56011 TIP3     11189    TIP3     OH2      OT      -0.834000       15.9994           0
     56012 TIP3     11189    TIP3     H1       HT       0.417000       1.00800           0
     56013 TIP3     11189    TIP3     H2       HT       0.417000       1.00800           0
     56014 TIP3     11190    TIP3     OH2      OT      -0.834000       15.9994           0
     56015 TIP3     11190    TIP3     H1       HT       0.417000       1.00800           0
     56016 TIP3     11190    TIP3     H2       HT       0.417000       1.00800           0
     56017 TIP3     11191    TIP3     OH2      OT      -0.834000       15.9994           0
     56018 TIP3     11191    TIP3     H1       HT       0.417000       1.00800           0
     56019 TIP3     11191    TIP3     H2       HT       0.417000       1.00800           0
     56020 TIP3     11192    TIP3     OH2      OT      -0.834000       15.9994           0
     56021 TIP3     11192    TIP3     H1       HT       0.417000       1.00800           0
     56022 TIP3     11192    TIP3     H2       HT       0.417000       1.00800           0
     56023 TIP3     11193    TIP3     OH2      OT      -0.834000       15.9994           0
     56024 TIP3     11193    TIP3     H1       HT       0.417000       1.00800           0
     56025 TIP3     11193    TIP3     H2       HT       0.417000       1.00800           0
     56026 TIP3     11194    TIP3     OH2      OT      -0.834000       15.9994           0
     56027 TIP3     11194    TIP3     H1       HT       0.417000       1.00800           0
     56028 TIP3     11194    TIP3     H2       HT       0.417000       1.00800           0
     56029 TIP3     11195    TIP3     OH2      OT      -0.834000       15.9994           0
     56030 TIP3     11195    TIP3     H1       HT       0.417000       1.00800           0
     56031 TIP3     11195    TIP3     H2       HT       0.417000       1.00800           0
     56032 TIP3     11196    TIP3     OH2      OT      -0.834000       15.9994           0
     56033 TIP3     11196    TIP3     H1       HT       0.417000       1.00800           0
     56034 TIP3     11196    TIP3     H2       HT       0.417000       1.00800           0
     56035 TIP3     11197    TIP3     OH2      OT      -0.834000       15.9994           0
     56036 TIP3     11197    TIP3     H1       HT       0.417000       1.00800           0
     56037 TIP3     11197    TIP3     H2       HT       0.417000       1.00800           0
     56038 TIP3     11198    TIP3     OH2      OT      -0.834000       15.9994           0
     56039 TIP3     11198    TIP3     H1       HT       0.417000       1.00800           0
     56040 TIP3     11198    TIP3     H2       HT       0.417000       1.00800           0
     56041 TIP3     11199    TIP3     OH2      OT      -0.834000       15.9994           0
     56042 TIP3     11199    TIP3     H1       HT       0.417000       1.00800           0
     56043 TIP3     11199    TIP3     H2       HT       0.417000       1.00800           0
     56044 TIP3     11200    TIP3     OH2      OT      -0.834000       15.9994           0
     56045 TIP3     11200    TIP3     H1       HT       0.417000       1.00800           0
     56046 TIP3     11200    TIP3     H2       HT       0.417000       1.00800           0
     56047 TIP3     11201    TIP3     OH2      OT      -0.834000       15.9994           0
     56048 TIP3     11201    TIP3     H1       HT       0.417000       1.00800           0
     56049 TIP3     11201    TIP3     H2       HT       0.417000       1.00800           0
     56050 TIP3     11202    TIP3     OH2      OT      -0.834000       15.9994           0
     56051 TIP3     11202    TIP3     H1       HT       0.417000       1.00800           0
     56052 TIP3     11202    TIP3     H2       HT       0.417000       1.00800           0
     56053 TIP3     11203    TIP3     OH2      OT      -0.834000       15.9994           0
     56054 TIP3     11203    TIP3     H1       HT       0.417000       1.00800           0
     56055 TIP3     11203    TIP3     H2       HT       0.417000       1.00800           0
     56056 TIP3     11204    TIP3     OH2      OT      -0.834000       15.9994           0
     56057 TIP3     11204    TIP3     H1       HT       0.417000       1.00800           0
     56058 TIP3     11204    TIP3     H2       HT       0.417000       1.00800           0
     56059 TIP3     11205    TIP3     OH2      OT      -0.834000       15.9994           0
     56060 TIP3     11205    TIP3     H1       HT       0.417000       1.00800           0
     56061 TIP3     11205    TIP3     H2       HT       0.417000       1.00800           0
     56062 TIP3     11206    TIP3     OH2      OT      -0.834000       15.9994           0
     56063 TIP3     11206    TIP3     H1       HT       0.417000       1.00800           0
     56064 TIP3     11206    TIP3     H2       HT       0.417000       1.00800           0
     56065 TIP3     11207    TIP3     OH2      OT      -0.834000       15.9994           0
     56066 TIP3     11207    TIP3     H1       HT       0.417000       1.00800           0
     56067 TIP3     11207    TIP3     H2       HT       0.417000       1.00800           0
     56068 TIP3     11208    TIP3     OH2      OT      -0.834000       15.9994           0
     56069 TIP3     11208    TIP3     H1       HT       0.417000       1.00800           0
     56070 TIP3     11208    TIP3     H2       HT       0.417000       1.00800           0
     56071 TIP3     11209    TIP3     OH2      OT      -0.834000       15.9994           0
     56072 TIP3     11209    TIP3     H1       HT       0.417000       1.00800           0
     56073 TIP3     11209    TIP3     H2       HT       0.417000       1.00800           0
     56074 TIP3     11210    TIP3     OH2      OT      -0.834000       15.9994           0
     56075 TIP3     11210    TIP3     H1       HT       0.417000       1.00800           0
     56076 TIP3     11210    TIP3     H2       HT       0.417000       1.00800           0
     56077 TIP3     11211    TIP3     OH2      OT      -0.834000       15.9994           0
     56078 TIP3     11211    TIP3     H1       HT       0.417000       1.00800           0
     56079 TIP3     11211    TIP3     H2       HT       0.417000       1.00800           0
     56080 TIP3     11212    TIP3     OH2      OT      -0.834000       15.9994           0
     56081 TIP3     11212    TIP3     H1       HT       0.417000       1.00800           0
     56082 TIP3     11212    TIP3     H2       HT       0.417000       1.00800           0
     56083 TIP3     11213    TIP3     OH2      OT      -0.834000       15.9994           0
     56084 TIP3     11213    TIP3     H1       HT       0.417000       1.00800           0
     56085 TIP3     11213    TIP3     H2       HT       0.417000       1.00800           0
     56086 TIP3     11214    TIP3     OH2      OT      -0.834000       15.9994           0
     56087 TIP3     11214    TIP3     H1       HT       0.417000       1.00800           0
     56088 TIP3     11214    TIP3     H2       HT       0.417000       1.00800           0
     56089 TIP3     11215    TIP3     OH2      OT      -0.834000       15.9994           0
     56090 TIP3     11215    TIP3     H1       HT       0.417000       1.00800           0
     56091 TIP3     11215    TIP3     H2       HT       0.417000       1.00800           0
     56092 TIP3     11216    TIP3     OH2      OT      -0.834000       15.9994           0
     56093 TIP3     11216    TIP3     H1       HT       0.417000       1.00800           0
     56094 TIP3     11216    TIP3     H2       HT       0.417000       1.00800           0
     56095 TIP3     11217    TIP3     OH2      OT      -0.834000       15.9994           0
     56096 TIP3     11217    TIP3     H1       HT       0.417000       1.00800           0
     56097 TIP3     11217    TIP3     H2       HT       0.417000       1.00800           0
     56098 TIP3     11218    TIP3     OH2      OT      -0.834000       15.9994           0
     56099 TIP3     11218    TIP3     H1       HT       0.417000       1.00800           0
     56100 TIP3     11218    TIP3     H2       HT       0.417000       1.00800           0
     56101 TIP3     11219    TIP3     OH2      OT      -0.834000       15.9994           0
     56102 TIP3     11219    TIP3     H1       HT       0.417000       1.00800           0
     56103 TIP3     11219    TIP3     H2       HT       0.417000       1.00800           0
     56104 TIP3     11220    TIP3     OH2      OT      -0.834000       15.9994           0
     56105 TIP3     11220    TIP3     H1       HT       0.417000       1.00800           0
     56106 TIP3     11220    TIP3     H2       HT       0.417000       1.00800           0
     56107 TIP3     11221    TIP3     OH2      OT      -0.834000       15.9994           0
     56108 TIP3     11221    TIP3     H1       HT       0.417000       1.00800           0
     56109 TIP3     11221    TIP3     H2       HT       0.417000       1.00800           0
     56110 TIP3     11222    TIP3     OH2      OT      -0.834000       15.9994           0
     56111 TIP3     11222    TIP3     H1       HT       0.417000       1.00800           0
     56112 TIP3     11222    TIP3     H2       HT       0.417000       1.00800           0
     56113 TIP3     11223    TIP3     OH2      OT      -0.834000       15.9994           0
     56114 TIP3     11223    TIP3     H1       HT       0.417000       1.00800           0
     56115 TIP3     11223    TIP3     H2       HT       0.417000       1.00800           0
     56116 TIP3     11224    TIP3     OH2      OT      -0.834000       15.9994           0
     56117 TIP3     11224    TIP3     H1       HT       0.417000       1.00800           0
     56118 TIP3     11224    TIP3     H2       HT       0.417000       1.00800           0
     56119 TIP3     11225    TIP3     OH2      OT      -0.834000       15.9994           0
     56120 TIP3     11225    TIP3     H1       HT       0.417000       1.00800           0
     56121 TIP3     11225    TIP3     H2       HT       0.417000       1.00800           0
     56122 TIP3     11226    TIP3     OH2      OT      -0.834000       15.9994           0
     56123 TIP3     11226    TIP3     H1       HT       0.417000       1.00800           0
     56124 TIP3     11226    TIP3     H2       HT       0.417000       1.00800           0
     56125 TIP3     11227    TIP3     OH2      OT      -0.834000       15.9994           0
     56126 TIP3     11227    TIP3     H1       HT       0.417000       1.00800           0
     56127 TIP3     11227    TIP3     H2       HT       0.417000       1.00800           0
     56128 TIP3     11228    TIP3     OH2      OT      -0.834000       15.9994           0
     56129 TIP3     11228    TIP3     H1       HT       0.417000       1.00800           0
     56130 TIP3     11228    TIP3     H2       HT       0.417000       1.00800           0
     56131 TIP3     11229    TIP3     OH2      OT      -0.834000       15.9994           0
     56132 TIP3     11229    TIP3     H1       HT       0.417000       1.00800           0
     56133 TIP3     11229    TIP3     H2       HT       0.417000       1.00800           0
     56134 TIP3     11230    TIP3     OH2      OT      -0.834000       15.9994           0
     56135 TIP3     11230    TIP3     H1       HT       0.417000       1.00800           0
     56136 TIP3     11230    TIP3     H2       HT       0.417000       1.00800           0
     56137 TIP3     11231    TIP3     OH2      OT      -0.834000       15.9994           0
     56138 TIP3     11231    TIP3     H1       HT       0.417000       1.00800           0
     56139 TIP3     11231    TIP3     H2       HT       0.417000       1.00800           0
     56140 TIP3     11232    TIP3     OH2      OT      -0.834000       15.9994           0
     56141 TIP3     11232    TIP3     H1       HT       0.417000       1.00800           0
     56142 TIP3     11232    TIP3     H2       HT       0.417000       1.00800           0
     56143 TIP3     11233    TIP3     OH2      OT      -0.834000       15.9994           0
     56144 TIP3     11233    TIP3     H1       HT       0.417000       1.00800           0
     56145 TIP3     11233    TIP3     H2       HT       0.417000       1.00800           0
     56146 TIP3     11234    TIP3     OH2      OT      -0.834000       15.9994           0
     56147 TIP3     11234    TIP3     H1       HT       0.417000       1.00800           0
     56148 TIP3     11234    TIP3     H2       HT       0.417000       1.00800           0
     56149 TIP3     11235    TIP3     OH2      OT      -0.834000       15.9994           0
     56150 TIP3     11235    TIP3     H1       HT       0.417000       1.00800           0
     56151 TIP3     11235    TIP3     H2       HT       0.417000       1.00800           0
     56152 TIP3     11236    TIP3     OH2      OT      -0.834000       15.9994           0
     56153 TIP3     11236    TIP3     H1       HT       0.417000       1.00800           0
     56154 TIP3     11236    TIP3     H2       HT       0.417000       1.00800           0
     56155 TIP3     11237    TIP3     OH2      OT      -0.834000       15.9994           0
     56156 TIP3     11237    TIP3     H1       HT       0.417000       1.00800           0
     56157 TIP3     11237    TIP3     H2       HT       0.417000       1.00800           0
     56158 TIP3     11238    TIP3     OH2      OT      -0.834000       15.9994           0
     56159 TIP3     11238    TIP3     H1       HT       0.417000       1.00800           0
     56160 TIP3     11238    TIP3     H2       HT       0.417000       1.00800           0
     56161 TIP3     11239    TIP3     OH2      OT      -0.834000       15.9994           0
     56162 TIP3     11239    TIP3     H1       HT       0.417000       1.00800           0
     56163 TIP3     11239    TIP3     H2       HT       0.417000       1.00800           0
     56164 TIP3     11240    TIP3     OH2      OT      -0.834000       15.9994           0
     56165 TIP3     11240    TIP3     H1       HT       0.417000       1.00800           0
     56166 TIP3     11240    TIP3     H2       HT       0.417000       1.00800           0
     56167 TIP3     11241    TIP3     OH2      OT      -0.834000       15.9994           0
     56168 TIP3     11241    TIP3     H1       HT       0.417000       1.00800           0
     56169 TIP3     11241    TIP3     H2       HT       0.417000       1.00800           0
     56170 TIP3     11242    TIP3     OH2      OT      -0.834000       15.9994           0
     56171 TIP3     11242    TIP3     H1       HT       0.417000       1.00800           0
     56172 TIP3     11242    TIP3     H2       HT       0.417000       1.00800           0
     56173 TIP3     11243    TIP3     OH2      OT      -0.834000       15.9994           0
     56174 TIP3     11243    TIP3     H1       HT       0.417000       1.00800           0
     56175 TIP3     11243    TIP3     H2       HT       0.417000       1.00800           0
     56176 TIP3     11244    TIP3     OH2      OT      -0.834000       15.9994           0
     56177 TIP3     11244    TIP3     H1       HT       0.417000       1.00800           0
     56178 TIP3     11244    TIP3     H2       HT       0.417000       1.00800           0
     56179 TIP3     11245    TIP3     OH2      OT      -0.834000       15.9994           0
     56180 TIP3     11245    TIP3     H1       HT       0.417000       1.00800           0
     56181 TIP3     11245    TIP3     H2       HT       0.417000       1.00800           0
     56182 TIP3     11246    TIP3     OH2      OT      -0.834000       15.9994           0
     56183 TIP3     11246    TIP3     H1       HT       0.417000       1.00800           0
     56184 TIP3     11246    TIP3     H2       HT       0.417000       1.00800           0
     56185 TIP3     11247    TIP3     OH2      OT      -0.834000       15.9994           0
     56186 TIP3     11247    TIP3     H1       HT       0.417000       1.00800           0
     56187 TIP3     11247    TIP3     H2       HT       0.417000       1.00800           0
     56188 TIP3     11248    TIP3     OH2      OT      -0.834000       15.9994           0
     56189 TIP3     11248    TIP3     H1       HT       0.417000       1.00800           0
     56190 TIP3     11248    TIP3     H2       HT       0.417000       1.00800           0
     56191 TIP3     11249    TIP3     OH2      OT      -0.834000       15.9994           0
     56192 TIP3     11249    TIP3     H1       HT       0.417000       1.00800           0
     56193 TIP3     11249    TIP3     H2       HT       0.417000       1.00800           0
     56194 TIP3     11250    TIP3     OH2      OT      -0.834000       15.9994           0
     56195 TIP3     11250    TIP3     H1       HT       0.417000       1.00800           0
     56196 TIP3     11250    TIP3     H2       HT       0.417000       1.00800           0
     56197 TIP3     11251    TIP3     OH2      OT      -0.834000       15.9994           0
     56198 TIP3     11251    TIP3     H1       HT       0.417000       1.00800           0
     56199 TIP3     11251    TIP3     H2       HT       0.417000       1.00800           0
     56200 TIP3     11252    TIP3     OH2      OT      -0.834000       15.9994           0
     56201 TIP3     11252    TIP3     H1       HT       0.417000       1.00800           0
     56202 TIP3     11252    TIP3     H2       HT       0.417000       1.00800           0
     56203 TIP3     11253    TIP3     OH2      OT      -0.834000       15.9994           0
     56204 TIP3     11253    TIP3     H1       HT       0.417000       1.00800           0
     56205 TIP3     11253    TIP3     H2       HT       0.417000       1.00800           0
     56206 TIP3     11254    TIP3     OH2      OT      -0.834000       15.9994           0
     56207 TIP3     11254    TIP3     H1       HT       0.417000       1.00800           0
     56208 TIP3     11254    TIP3     H2       HT       0.417000       1.00800           0
     56209 TIP3     11255    TIP3     OH2      OT      -0.834000       15.9994           0
     56210 TIP3     11255    TIP3     H1       HT       0.417000       1.00800           0
     56211 TIP3     11255    TIP3     H2       HT       0.417000       1.00800           0
     56212 TIP3     11256    TIP3     OH2      OT      -0.834000       15.9994           0
     56213 TIP3     11256    TIP3     H1       HT       0.417000       1.00800           0
     56214 TIP3     11256    TIP3     H2       HT       0.417000       1.00800           0
     56215 TIP3     11257    TIP3     OH2      OT      -0.834000       15.9994           0
     56216 TIP3     11257    TIP3     H1       HT       0.417000       1.00800           0
     56217 TIP3     11257    TIP3     H2       HT       0.417000       1.00800           0
     56218 TIP3     11258    TIP3     OH2      OT      -0.834000       15.9994           0
     56219 TIP3     11258    TIP3     H1       HT       0.417000       1.00800           0
     56220 TIP3     11258    TIP3     H2       HT       0.417000       1.00800           0
     56221 TIP3     11259    TIP3     OH2      OT      -0.834000       15.9994           0
     56222 TIP3     11259    TIP3     H1       HT       0.417000       1.00800           0
     56223 TIP3     11259    TIP3     H2       HT       0.417000       1.00800           0
     56224 TIP3     11260    TIP3     OH2      OT      -0.834000       15.9994           0
     56225 TIP3     11260    TIP3     H1       HT       0.417000       1.00800           0
     56226 TIP3     11260    TIP3     H2       HT       0.417000       1.00800           0
     56227 TIP3     11261    TIP3     OH2      OT      -0.834000       15.9994           0
     56228 TIP3     11261    TIP3     H1       HT       0.417000       1.00800           0
     56229 TIP3     11261    TIP3     H2       HT       0.417000       1.00800           0
     56230 TIP3     11262    TIP3     OH2      OT      -0.834000       15.9994           0
     56231 TIP3     11262    TIP3     H1       HT       0.417000       1.00800           0
     56232 TIP3     11262    TIP3     H2       HT       0.417000       1.00800           0
     56233 TIP3     11263    TIP3     OH2      OT      -0.834000       15.9994           0
     56234 TIP3     11263    TIP3     H1       HT       0.417000       1.00800           0
     56235 TIP3     11263    TIP3     H2       HT       0.417000       1.00800           0
     56236 TIP3     11264    TIP3     OH2      OT      -0.834000       15.9994           0
     56237 TIP3     11264    TIP3     H1       HT       0.417000       1.00800           0
     56238 TIP3     11264    TIP3     H2       HT       0.417000       1.00800           0
     56239 TIP3     11265    TIP3     OH2      OT      -0.834000       15.9994           0
     56240 TIP3     11265    TIP3     H1       HT       0.417000       1.00800           0
     56241 TIP3     11265    TIP3     H2       HT       0.417000       1.00800           0
     56242 TIP3     11266    TIP3     OH2      OT      -0.834000       15.9994           0
     56243 TIP3     11266    TIP3     H1       HT       0.417000       1.00800           0
     56244 TIP3     11266    TIP3     H2       HT       0.417000       1.00800           0
     56245 TIP3     11267    TIP3     OH2      OT      -0.834000       15.9994           0
     56246 TIP3     11267    TIP3     H1       HT       0.417000       1.00800           0
     56247 TIP3     11267    TIP3     H2       HT       0.417000       1.00800           0
     56248 TIP3     11268    TIP3     OH2      OT      -0.834000       15.9994           0
     56249 TIP3     11268    TIP3     H1       HT       0.417000       1.00800           0
     56250 TIP3     11268    TIP3     H2       HT       0.417000       1.00800           0
     56251 TIP3     11269    TIP3     OH2      OT      -0.834000       15.9994           0
     56252 TIP3     11269    TIP3     H1       HT       0.417000       1.00800           0
     56253 TIP3     11269    TIP3     H2       HT       0.417000       1.00800           0
     56254 TIP3     11270    TIP3     OH2      OT      -0.834000       15.9994           0
     56255 TIP3     11270    TIP3     H1       HT       0.417000       1.00800           0
     56256 TIP3     11270    TIP3     H2       HT       0.417000       1.00800           0
     56257 TIP3     11271    TIP3     OH2      OT      -0.834000       15.9994           0
     56258 TIP3     11271    TIP3     H1       HT       0.417000       1.00800           0
     56259 TIP3     11271    TIP3     H2       HT       0.417000       1.00800           0
     56260 TIP3     11272    TIP3     OH2      OT      -0.834000       15.9994           0
     56261 TIP3     11272    TIP3     H1       HT       0.417000       1.00800           0
     56262 TIP3     11272    TIP3     H2       HT       0.417000       1.00800           0
     56263 TIP3     11273    TIP3     OH2      OT      -0.834000       15.9994           0
     56264 TIP3     11273    TIP3     H1       HT       0.417000       1.00800           0
     56265 TIP3     11273    TIP3     H2       HT       0.417000       1.00800           0
     56266 TIP3     11274    TIP3     OH2      OT      -0.834000       15.9994           0
     56267 TIP3     11274    TIP3     H1       HT       0.417000       1.00800           0
     56268 TIP3     11274    TIP3     H2       HT       0.417000       1.00800           0
     56269 TIP3     11275    TIP3     OH2      OT      -0.834000       15.9994           0
     56270 TIP3     11275    TIP3     H1       HT       0.417000       1.00800           0
     56271 TIP3     11275    TIP3     H2       HT       0.417000       1.00800           0
     56272 TIP3     11276    TIP3     OH2      OT      -0.834000       15.9994           0
     56273 TIP3     11276    TIP3     H1       HT       0.417000       1.00800           0
     56274 TIP3     11276    TIP3     H2       HT       0.417000       1.00800           0
     56275 TIP3     11277    TIP3     OH2      OT      -0.834000       15.9994           0
     56276 TIP3     11277    TIP3     H1       HT       0.417000       1.00800           0
     56277 TIP3     11277    TIP3     H2       HT       0.417000       1.00800           0
     56278 TIP3     11278    TIP3     OH2      OT      -0.834000       15.9994           0
     56279 TIP3     11278    TIP3     H1       HT       0.417000       1.00800           0
     56280 TIP3     11278    TIP3     H2       HT       0.417000       1.00800           0
     56281 TIP3     11279    TIP3     OH2      OT      -0.834000       15.9994           0
     56282 TIP3     11279    TIP3     H1       HT       0.417000       1.00800           0
     56283 TIP3     11279    TIP3     H2       HT       0.417000       1.00800           0
     56284 TIP3     11280    TIP3     OH2      OT      -0.834000       15.9994           0
     56285 TIP3     11280    TIP3     H1       HT       0.417000       1.00800           0
     56286 TIP3     11280    TIP3     H2       HT       0.417000       1.00800           0
     56287 TIP3     11281    TIP3     OH2      OT      -0.834000       15.9994           0
     56288 TIP3     11281    TIP3     H1       HT       0.417000       1.00800           0
     56289 TIP3     11281    TIP3     H2       HT       0.417000       1.00800           0
     56290 TIP3     11282    TIP3     OH2      OT      -0.834000       15.9994           0
     56291 TIP3     11282    TIP3     H1       HT       0.417000       1.00800           0
     56292 TIP3     11282    TIP3     H2       HT       0.417000       1.00800           0
     56293 TIP3     11283    TIP3     OH2      OT      -0.834000       15.9994           0
     56294 TIP3     11283    TIP3     H1       HT       0.417000       1.00800           0
     56295 TIP3     11283    TIP3     H2       HT       0.417000       1.00800           0
     56296 TIP3     11284    TIP3     OH2      OT      -0.834000       15.9994           0
     56297 TIP3     11284    TIP3     H1       HT       0.417000       1.00800           0
     56298 TIP3     11284    TIP3     H2       HT       0.417000       1.00800           0
     56299 TIP3     11285    TIP3     OH2      OT      -0.834000       15.9994           0
     56300 TIP3     11285    TIP3     H1       HT       0.417000       1.00800           0
     56301 TIP3     11285    TIP3     H2       HT       0.417000       1.00800           0
     56302 TIP3     11286    TIP3     OH2      OT      -0.834000       15.9994           0
     56303 TIP3     11286    TIP3     H1       HT       0.417000       1.00800           0
     56304 TIP3     11286    TIP3     H2       HT       0.417000       1.00800           0
     56305 TIP3     11287    TIP3     OH2      OT      -0.834000       15.9994           0
     56306 TIP3     11287    TIP3     H1       HT       0.417000       1.00800           0
     56307 TIP3     11287    TIP3     H2       HT       0.417000       1.00800           0
     56308 TIP3     11288    TIP3     OH2      OT      -0.834000       15.9994           0
     56309 TIP3     11288    TIP3     H1       HT       0.417000       1.00800           0
     56310 TIP3     11288    TIP3     H2       HT       0.417000       1.00800           0
     56311 TIP3     11289    TIP3     OH2      OT      -0.834000       15.9994           0
     56312 TIP3     11289    TIP3     H1       HT       0.417000       1.00800           0
     56313 TIP3     11289    TIP3     H2       HT       0.417000       1.00800           0
     56314 TIP3     11290    TIP3     OH2      OT      -0.834000       15.9994           0
     56315 TIP3     11290    TIP3     H1       HT       0.417000       1.00800           0
     56316 TIP3     11290    TIP3     H2       HT       0.417000       1.00800           0
     56317 TIP3     11291    TIP3     OH2      OT      -0.834000       15.9994           0
     56318 TIP3     11291    TIP3     H1       HT       0.417000       1.00800           0
     56319 TIP3     11291    TIP3     H2       HT       0.417000       1.00800           0
     56320 TIP3     11292    TIP3     OH2      OT      -0.834000       15.9994           0
     56321 TIP3     11292    TIP3     H1       HT       0.417000       1.00800           0
     56322 TIP3     11292    TIP3     H2       HT       0.417000       1.00800           0
     56323 TIP3     11293    TIP3     OH2      OT      -0.834000       15.9994           0
     56324 TIP3     11293    TIP3     H1       HT       0.417000       1.00800           0
     56325 TIP3     11293    TIP3     H2       HT       0.417000       1.00800           0
     56326 TIP3     11294    TIP3     OH2      OT      -0.834000       15.9994           0
     56327 TIP3     11294    TIP3     H1       HT       0.417000       1.00800           0
     56328 TIP3     11294    TIP3     H2       HT       0.417000       1.00800           0
     56329 TIP3     11295    TIP3     OH2      OT      -0.834000       15.9994           0
     56330 TIP3     11295    TIP3     H1       HT       0.417000       1.00800           0
     56331 TIP3     11295    TIP3     H2       HT       0.417000       1.00800           0
     56332 TIP3     11296    TIP3     OH2      OT      -0.834000       15.9994           0
     56333 TIP3     11296    TIP3     H1       HT       0.417000       1.00800           0
     56334 TIP3     11296    TIP3     H2       HT       0.417000       1.00800           0
     56335 TIP3     11297    TIP3     OH2      OT      -0.834000       15.9994           0
     56336 TIP3     11297    TIP3     H1       HT       0.417000       1.00800           0
     56337 TIP3     11297    TIP3     H2       HT       0.417000       1.00800           0
     56338 TIP3     11298    TIP3     OH2      OT      -0.834000       15.9994           0
     56339 TIP3     11298    TIP3     H1       HT       0.417000       1.00800           0
     56340 TIP3     11298    TIP3     H2       HT       0.417000       1.00800           0
     56341 TIP3     11299    TIP3     OH2      OT      -0.834000       15.9994           0
     56342 TIP3     11299    TIP3     H1       HT       0.417000       1.00800           0
     56343 TIP3     11299    TIP3     H2       HT       0.417000       1.00800           0
     56344 TIP3     11300    TIP3     OH2      OT      -0.834000       15.9994           0
     56345 TIP3     11300    TIP3     H1       HT       0.417000       1.00800           0
     56346 TIP3     11300    TIP3     H2       HT       0.417000       1.00800           0
     56347 TIP3     11301    TIP3     OH2      OT      -0.834000       15.9994           0
     56348 TIP3     11301    TIP3     H1       HT       0.417000       1.00800           0
     56349 TIP3     11301    TIP3     H2       HT       0.417000       1.00800           0
     56350 TIP3     11302    TIP3     OH2      OT      -0.834000       15.9994           0
     56351 TIP3     11302    TIP3     H1       HT       0.417000       1.00800           0
     56352 TIP3     11302    TIP3     H2       HT       0.417000       1.00800           0
     56353 TIP3     11303    TIP3     OH2      OT      -0.834000       15.9994           0
     56354 TIP3     11303    TIP3     H1       HT       0.417000       1.00800           0
     56355 TIP3     11303    TIP3     H2       HT       0.417000       1.00800           0
     56356 TIP3     11304    TIP3     OH2      OT      -0.834000       15.9994           0
     56357 TIP3     11304    TIP3     H1       HT       0.417000       1.00800           0
     56358 TIP3     11304    TIP3     H2       HT       0.417000       1.00800           0
     56359 TIP3     11305    TIP3     OH2      OT      -0.834000       15.9994           0
     56360 TIP3     11305    TIP3     H1       HT       0.417000       1.00800           0
     56361 TIP3     11305    TIP3     H2       HT       0.417000       1.00800           0
     56362 TIP3     11306    TIP3     OH2      OT      -0.834000       15.9994           0
     56363 TIP3     11306    TIP3     H1       HT       0.417000       1.00800           0
     56364 TIP3     11306    TIP3     H2       HT       0.417000       1.00800           0
     56365 TIP3     11307    TIP3     OH2      OT      -0.834000       15.9994           0
     56366 TIP3     11307    TIP3     H1       HT       0.417000       1.00800           0
     56367 TIP3     11307    TIP3     H2       HT       0.417000       1.00800           0
     56368 TIP3     11308    TIP3     OH2      OT      -0.834000       15.9994           0
     56369 TIP3     11308    TIP3     H1       HT       0.417000       1.00800           0
     56370 TIP3     11308    TIP3     H2       HT       0.417000       1.00800           0
     56371 TIP3     11309    TIP3     OH2      OT      -0.834000       15.9994           0
     56372 TIP3     11309    TIP3     H1       HT       0.417000       1.00800           0
     56373 TIP3     11309    TIP3     H2       HT       0.417000       1.00800           0
     56374 TIP3     11310    TIP3     OH2      OT      -0.834000       15.9994           0
     56375 TIP3     11310    TIP3     H1       HT       0.417000       1.00800           0
     56376 TIP3     11310    TIP3     H2       HT       0.417000       1.00800           0
     56377 TIP3     11311    TIP3     OH2      OT      -0.834000       15.9994           0
     56378 TIP3     11311    TIP3     H1       HT       0.417000       1.00800           0
     56379 TIP3     11311    TIP3     H2       HT       0.417000       1.00800           0
     56380 TIP3     11312    TIP3     OH2      OT      -0.834000       15.9994           0
     56381 TIP3     11312    TIP3     H1       HT       0.417000       1.00800           0
     56382 TIP3     11312    TIP3     H2       HT       0.417000       1.00800           0
     56383 TIP3     11313    TIP3     OH2      OT      -0.834000       15.9994           0
     56384 TIP3     11313    TIP3     H1       HT       0.417000       1.00800           0
     56385 TIP3     11313    TIP3     H2       HT       0.417000       1.00800           0
     56386 TIP3     11314    TIP3     OH2      OT      -0.834000       15.9994           0
     56387 TIP3     11314    TIP3     H1       HT       0.417000       1.00800           0
     56388 TIP3     11314    TIP3     H2       HT       0.417000       1.00800           0
     56389 TIP3     11315    TIP3     OH2      OT      -0.834000       15.9994           0
     56390 TIP3     11315    TIP3     H1       HT       0.417000       1.00800           0
     56391 TIP3     11315    TIP3     H2       HT       0.417000       1.00800           0
     56392 TIP3     11316    TIP3     OH2      OT      -0.834000       15.9994           0
     56393 TIP3     11316    TIP3     H1       HT       0.417000       1.00800           0
     56394 TIP3     11316    TIP3     H2       HT       0.417000       1.00800           0
     56395 TIP3     11317    TIP3     OH2      OT      -0.834000       15.9994           0
     56396 TIP3     11317    TIP3     H1       HT       0.417000       1.00800           0
     56397 TIP3     11317    TIP3     H2       HT       0.417000       1.00800           0
     56398 TIP3     11318    TIP3     OH2      OT      -0.834000       15.9994           0
     56399 TIP3     11318    TIP3     H1       HT       0.417000       1.00800           0
     56400 TIP3     11318    TIP3     H2       HT       0.417000       1.00800           0
     56401 TIP3     11319    TIP3     OH2      OT      -0.834000       15.9994           0
     56402 TIP3     11319    TIP3     H1       HT       0.417000       1.00800           0
     56403 TIP3     11319    TIP3     H2       HT       0.417000       1.00800           0
     56404 TIP3     11320    TIP3     OH2      OT      -0.834000       15.9994           0
     56405 TIP3     11320    TIP3     H1       HT       0.417000       1.00800           0
     56406 TIP3     11320    TIP3     H2       HT       0.417000       1.00800           0
     56407 TIP3     11321    TIP3     OH2      OT      -0.834000       15.9994           0
     56408 TIP3     11321    TIP3     H1       HT       0.417000       1.00800           0
     56409 TIP3     11321    TIP3     H2       HT       0.417000       1.00800           0
     56410 TIP3     11322    TIP3     OH2      OT      -0.834000       15.9994           0
     56411 TIP3     11322    TIP3     H1       HT       0.417000       1.00800           0
     56412 TIP3     11322    TIP3     H2       HT       0.417000       1.00800           0
     56413 TIP3     11323    TIP3     OH2      OT      -0.834000       15.9994           0
     56414 TIP3     11323    TIP3     H1       HT       0.417000       1.00800           0
     56415 TIP3     11323    TIP3     H2       HT       0.417000       1.00800           0
     56416 TIP3     11324    TIP3     OH2      OT      -0.834000       15.9994           0
     56417 TIP3     11324    TIP3     H1       HT       0.417000       1.00800           0
     56418 TIP3     11324    TIP3     H2       HT       0.417000       1.00800           0
     56419 TIP3     11325    TIP3     OH2      OT      -0.834000       15.9994           0
     56420 TIP3     11325    TIP3     H1       HT       0.417000       1.00800           0
     56421 TIP3     11325    TIP3     H2       HT       0.417000       1.00800           0
     56422 TIP3     11326    TIP3     OH2      OT      -0.834000       15.9994           0
     56423 TIP3     11326    TIP3     H1       HT       0.417000       1.00800           0
     56424 TIP3     11326    TIP3     H2       HT       0.417000       1.00800           0
     56425 TIP3     11327    TIP3     OH2      OT      -0.834000       15.9994           0
     56426 TIP3     11327    TIP3     H1       HT       0.417000       1.00800           0
     56427 TIP3     11327    TIP3     H2       HT       0.417000       1.00800           0
     56428 TIP3     11328    TIP3     OH2      OT      -0.834000       15.9994           0
     56429 TIP3     11328    TIP3     H1       HT       0.417000       1.00800           0
     56430 TIP3     11328    TIP3     H2       HT       0.417000       1.00800           0
     56431 TIP3     11329    TIP3     OH2      OT      -0.834000       15.9994           0
     56432 TIP3     11329    TIP3     H1       HT       0.417000       1.00800           0
     56433 TIP3     11329    TIP3     H2       HT       0.417000       1.00800           0
     56434 TIP3     11330    TIP3     OH2      OT      -0.834000       15.9994           0
     56435 TIP3     11330    TIP3     H1       HT       0.417000       1.00800           0
     56436 TIP3     11330    TIP3     H2       HT       0.417000       1.00800           0
     56437 TIP3     11331    TIP3     OH2      OT      -0.834000       15.9994           0
     56438 TIP3     11331    TIP3     H1       HT       0.417000       1.00800           0
     56439 TIP3     11331    TIP3     H2       HT       0.417000       1.00800           0
     56440 TIP3     11332    TIP3     OH2      OT      -0.834000       15.9994           0
     56441 TIP3     11332    TIP3     H1       HT       0.417000       1.00800           0
     56442 TIP3     11332    TIP3     H2       HT       0.417000       1.00800           0
     56443 TIP3     11333    TIP3     OH2      OT      -0.834000       15.9994           0
     56444 TIP3     11333    TIP3     H1       HT       0.417000       1.00800           0
     56445 TIP3     11333    TIP3     H2       HT       0.417000       1.00800           0
     56446 TIP3     11334    TIP3     OH2      OT      -0.834000       15.9994           0
     56447 TIP3     11334    TIP3     H1       HT       0.417000       1.00800           0
     56448 TIP3     11334    TIP3     H2       HT       0.417000       1.00800           0
     56449 TIP3     11335    TIP3     OH2      OT      -0.834000       15.9994           0
     56450 TIP3     11335    TIP3     H1       HT       0.417000       1.00800           0
     56451 TIP3     11335    TIP3     H2       HT       0.417000       1.00800           0
     56452 TIP3     11336    TIP3     OH2      OT      -0.834000       15.9994           0
     56453 TIP3     11336    TIP3     H1       HT       0.417000       1.00800           0
     56454 TIP3     11336    TIP3     H2       HT       0.417000       1.00800           0
     56455 TIP3     11337    TIP3     OH2      OT      -0.834000       15.9994           0
     56456 TIP3     11337    TIP3     H1       HT       0.417000       1.00800           0
     56457 TIP3     11337    TIP3     H2       HT       0.417000       1.00800           0
     56458 TIP3     11338    TIP3     OH2      OT      -0.834000       15.9994           0
     56459 TIP3     11338    TIP3     H1       HT       0.417000       1.00800           0
     56460 TIP3     11338    TIP3     H2       HT       0.417000       1.00800           0
     56461 TIP3     11339    TIP3     OH2      OT      -0.834000       15.9994           0
     56462 TIP3     11339    TIP3     H1       HT       0.417000       1.00800           0
     56463 TIP3     11339    TIP3     H2       HT       0.417000       1.00800           0
     56464 TIP3     11340    TIP3     OH2      OT      -0.834000       15.9994           0
     56465 TIP3     11340    TIP3     H1       HT       0.417000       1.00800           0
     56466 TIP3     11340    TIP3     H2       HT       0.417000       1.00800           0
     56467 TIP3     11341    TIP3     OH2      OT      -0.834000       15.9994           0
     56468 TIP3     11341    TIP3     H1       HT       0.417000       1.00800           0
     56469 TIP3     11341    TIP3     H2       HT       0.417000       1.00800           0
     56470 TIP3     11342    TIP3     OH2      OT      -0.834000       15.9994           0
     56471 TIP3     11342    TIP3     H1       HT       0.417000       1.00800           0
     56472 TIP3     11342    TIP3     H2       HT       0.417000       1.00800           0
     56473 TIP3     11343    TIP3     OH2      OT      -0.834000       15.9994           0
     56474 TIP3     11343    TIP3     H1       HT       0.417000       1.00800           0
     56475 TIP3     11343    TIP3     H2       HT       0.417000       1.00800           0
     56476 TIP3     11344    TIP3     OH2      OT      -0.834000       15.9994           0
     56477 TIP3     11344    TIP3     H1       HT       0.417000       1.00800           0
     56478 TIP3     11344    TIP3     H2       HT       0.417000       1.00800           0
     56479 TIP3     11345    TIP3     OH2      OT      -0.834000       15.9994           0
     56480 TIP3     11345    TIP3     H1       HT       0.417000       1.00800           0
     56481 TIP3     11345    TIP3     H2       HT       0.417000       1.00800           0
     56482 TIP3     11346    TIP3     OH2      OT      -0.834000       15.9994           0
     56483 TIP3     11346    TIP3     H1       HT       0.417000       1.00800           0
     56484 TIP3     11346    TIP3     H2       HT       0.417000       1.00800           0
     56485 TIP3     11347    TIP3     OH2      OT      -0.834000       15.9994           0
     56486 TIP3     11347    TIP3     H1       HT       0.417000       1.00800           0
     56487 TIP3     11347    TIP3     H2       HT       0.417000       1.00800           0
     56488 TIP3     11348    TIP3     OH2      OT      -0.834000       15.9994           0
     56489 TIP3     11348    TIP3     H1       HT       0.417000       1.00800           0
     56490 TIP3     11348    TIP3     H2       HT       0.417000       1.00800           0
     56491 TIP3     11349    TIP3     OH2      OT      -0.834000       15.9994           0
     56492 TIP3     11349    TIP3     H1       HT       0.417000       1.00800           0
     56493 TIP3     11349    TIP3     H2       HT       0.417000       1.00800           0
     56494 TIP3     11350    TIP3     OH2      OT      -0.834000       15.9994           0
     56495 TIP3     11350    TIP3     H1       HT       0.417000       1.00800           0
     56496 TIP3     11350    TIP3     H2       HT       0.417000       1.00800           0
     56497 TIP3     11351    TIP3     OH2      OT      -0.834000       15.9994           0
     56498 TIP3     11351    TIP3     H1       HT       0.417000       1.00800           0
     56499 TIP3     11351    TIP3     H2       HT       0.417000       1.00800           0
     56500 TIP3     11352    TIP3     OH2      OT      -0.834000       15.9994           0
     56501 TIP3     11352    TIP3     H1       HT       0.417000       1.00800           0
     56502 TIP3     11352    TIP3     H2       HT       0.417000       1.00800           0
     56503 TIP3     11353    TIP3     OH2      OT      -0.834000       15.9994           0
     56504 TIP3     11353    TIP3     H1       HT       0.417000       1.00800           0
     56505 TIP3     11353    TIP3     H2       HT       0.417000       1.00800           0
     56506 TIP3     11354    TIP3     OH2      OT      -0.834000       15.9994           0
     56507 TIP3     11354    TIP3     H1       HT       0.417000       1.00800           0
     56508 TIP3     11354    TIP3     H2       HT       0.417000       1.00800           0
     56509 TIP3     11355    TIP3     OH2      OT      -0.834000       15.9994           0
     56510 TIP3     11355    TIP3     H1       HT       0.417000       1.00800           0
     56511 TIP3     11355    TIP3     H2       HT       0.417000       1.00800           0
     56512 TIP3     11356    TIP3     OH2      OT      -0.834000       15.9994           0
     56513 TIP3     11356    TIP3     H1       HT       0.417000       1.00800           0
     56514 TIP3     11356    TIP3     H2       HT       0.417000       1.00800           0
     56515 TIP3     11357    TIP3     OH2      OT      -0.834000       15.9994           0
     56516 TIP3     11357    TIP3     H1       HT       0.417000       1.00800           0
     56517 TIP3     11357    TIP3     H2       HT       0.417000       1.00800           0
     56518 TIP3     11358    TIP3     OH2      OT      -0.834000       15.9994           0
     56519 TIP3     11358    TIP3     H1       HT       0.417000       1.00800           0
     56520 TIP3     11358    TIP3     H2       HT       0.417000       1.00800           0
     56521 TIP3     11359    TIP3     OH2      OT      -0.834000       15.9994           0
     56522 TIP3     11359    TIP3     H1       HT       0.417000       1.00800           0
     56523 TIP3     11359    TIP3     H2       HT       0.417000       1.00800           0
     56524 TIP3     11360    TIP3     OH2      OT      -0.834000       15.9994           0
     56525 TIP3     11360    TIP3     H1       HT       0.417000       1.00800           0
     56526 TIP3     11360    TIP3     H2       HT       0.417000       1.00800           0
     56527 TIP3     11361    TIP3     OH2      OT      -0.834000       15.9994           0
     56528 TIP3     11361    TIP3     H1       HT       0.417000       1.00800           0
     56529 TIP3     11361    TIP3     H2       HT       0.417000       1.00800           0
     56530 TIP3     11362    TIP3     OH2      OT      -0.834000       15.9994           0
     56531 TIP3     11362    TIP3     H1       HT       0.417000       1.00800           0
     56532 TIP3     11362    TIP3     H2       HT       0.417000       1.00800           0
     56533 TIP3     11363    TIP3     OH2      OT      -0.834000       15.9994           0
     56534 TIP3     11363    TIP3     H1       HT       0.417000       1.00800           0
     56535 TIP3     11363    TIP3     H2       HT       0.417000       1.00800           0
     56536 TIP3     11364    TIP3     OH2      OT      -0.834000       15.9994           0
     56537 TIP3     11364    TIP3     H1       HT       0.417000       1.00800           0
     56538 TIP3     11364    TIP3     H2       HT       0.417000       1.00800           0
     56539 TIP3     11365    TIP3     OH2      OT      -0.834000       15.9994           0
     56540 TIP3     11365    TIP3     H1       HT       0.417000       1.00800           0
     56541 TIP3     11365    TIP3     H2       HT       0.417000       1.00800           0
     56542 TIP3     11366    TIP3     OH2      OT      -0.834000       15.9994           0
     56543 TIP3     11366    TIP3     H1       HT       0.417000       1.00800           0
     56544 TIP3     11366    TIP3     H2       HT       0.417000       1.00800           0
     56545 TIP3     11367    TIP3     OH2      OT      -0.834000       15.9994           0
     56546 TIP3     11367    TIP3     H1       HT       0.417000       1.00800           0
     56547 TIP3     11367    TIP3     H2       HT       0.417000       1.00800           0
     56548 TIP3     11368    TIP3     OH2      OT      -0.834000       15.9994           0
     56549 TIP3     11368    TIP3     H1       HT       0.417000       1.00800           0
     56550 TIP3     11368    TIP3     H2       HT       0.417000       1.00800           0
     56551 TIP3     11369    TIP3     OH2      OT      -0.834000       15.9994           0
     56552 TIP3     11369    TIP3     H1       HT       0.417000       1.00800           0
     56553 TIP3     11369    TIP3     H2       HT       0.417000       1.00800           0
     56554 TIP3     11370    TIP3     OH2      OT      -0.834000       15.9994           0
     56555 TIP3     11370    TIP3     H1       HT       0.417000       1.00800           0
     56556 TIP3     11370    TIP3     H2       HT       0.417000       1.00800           0
     56557 TIP3     11371    TIP3     OH2      OT      -0.834000       15.9994           0
     56558 TIP3     11371    TIP3     H1       HT       0.417000       1.00800           0
     56559 TIP3     11371    TIP3     H2       HT       0.417000       1.00800           0
     56560 TIP3     11372    TIP3     OH2      OT      -0.834000       15.9994           0
     56561 TIP3     11372    TIP3     H1       HT       0.417000       1.00800           0
     56562 TIP3     11372    TIP3     H2       HT       0.417000       1.00800           0
     56563 TIP3     11373    TIP3     OH2      OT      -0.834000       15.9994           0
     56564 TIP3     11373    TIP3     H1       HT       0.417000       1.00800           0
     56565 TIP3     11373    TIP3     H2       HT       0.417000       1.00800           0
     56566 TIP3     11374    TIP3     OH2      OT      -0.834000       15.9994           0
     56567 TIP3     11374    TIP3     H1       HT       0.417000       1.00800           0
     56568 TIP3     11374    TIP3     H2       HT       0.417000       1.00800           0
     56569 TIP3     11375    TIP3     OH2      OT      -0.834000       15.9994           0
     56570 TIP3     11375    TIP3     H1       HT       0.417000       1.00800           0
     56571 TIP3     11375    TIP3     H2       HT       0.417000       1.00800           0
     56572 TIP3     11376    TIP3     OH2      OT      -0.834000       15.9994           0
     56573 TIP3     11376    TIP3     H1       HT       0.417000       1.00800           0
     56574 TIP3     11376    TIP3     H2       HT       0.417000       1.00800           0
     56575 TIP3     11377    TIP3     OH2      OT      -0.834000       15.9994           0
     56576 TIP3     11377    TIP3     H1       HT       0.417000       1.00800           0
     56577 TIP3     11377    TIP3     H2       HT       0.417000       1.00800           0
     56578 TIP3     11378    TIP3     OH2      OT      -0.834000       15.9994           0
     56579 TIP3     11378    TIP3     H1       HT       0.417000       1.00800           0
     56580 TIP3     11378    TIP3     H2       HT       0.417000       1.00800           0
     56581 TIP3     11379    TIP3     OH2      OT      -0.834000       15.9994           0
     56582 TIP3     11379    TIP3     H1       HT       0.417000       1.00800           0
     56583 TIP3     11379    TIP3     H2       HT       0.417000       1.00800           0
     56584 TIP3     11380    TIP3     OH2      OT      -0.834000       15.9994           0
     56585 TIP3     11380    TIP3     H1       HT       0.417000       1.00800           0
     56586 TIP3     11380    TIP3     H2       HT       0.417000       1.00800           0
     56587 TIP3     11381    TIP3     OH2      OT      -0.834000       15.9994           0
     56588 TIP3     11381    TIP3     H1       HT       0.417000       1.00800           0
     56589 TIP3     11381    TIP3     H2       HT       0.417000       1.00800           0
     56590 TIP3     11382    TIP3     OH2      OT      -0.834000       15.9994           0
     56591 TIP3     11382    TIP3     H1       HT       0.417000       1.00800           0
     56592 TIP3     11382    TIP3     H2       HT       0.417000       1.00800           0
     56593 TIP3     11383    TIP3     OH2      OT      -0.834000       15.9994           0
     56594 TIP3     11383    TIP3     H1       HT       0.417000       1.00800           0
     56595 TIP3     11383    TIP3     H2       HT       0.417000       1.00800           0
     56596 TIP3     11384    TIP3     OH2      OT      -0.834000       15.9994           0
     56597 TIP3     11384    TIP3     H1       HT       0.417000       1.00800           0
     56598 TIP3     11384    TIP3     H2       HT       0.417000       1.00800           0
     56599 TIP3     11385    TIP3     OH2      OT      -0.834000       15.9994           0
     56600 TIP3     11385    TIP3     H1       HT       0.417000       1.00800           0
     56601 TIP3     11385    TIP3     H2       HT       0.417000       1.00800           0
     56602 TIP3     11386    TIP3     OH2      OT      -0.834000       15.9994           0
     56603 TIP3     11386    TIP3     H1       HT       0.417000       1.00800           0
     56604 TIP3     11386    TIP3     H2       HT       0.417000       1.00800           0
     56605 TIP3     11387    TIP3     OH2      OT      -0.834000       15.9994           0
     56606 TIP3     11387    TIP3     H1       HT       0.417000       1.00800           0
     56607 TIP3     11387    TIP3     H2       HT       0.417000       1.00800           0
     56608 TIP3     11388    TIP3     OH2      OT      -0.834000       15.9994           0
     56609 TIP3     11388    TIP3     H1       HT       0.417000       1.00800           0
     56610 TIP3     11388    TIP3     H2       HT       0.417000       1.00800           0
     56611 TIP3     11389    TIP3     OH2      OT      -0.834000       15.9994           0
     56612 TIP3     11389    TIP3     H1       HT       0.417000       1.00800           0
     56613 TIP3     11389    TIP3     H2       HT       0.417000       1.00800           0
     56614 TIP3     11390    TIP3     OH2      OT      -0.834000       15.9994           0
     56615 TIP3     11390    TIP3     H1       HT       0.417000       1.00800           0
     56616 TIP3     11390    TIP3     H2       HT       0.417000       1.00800           0
     56617 TIP3     11391    TIP3     OH2      OT      -0.834000       15.9994           0
     56618 TIP3     11391    TIP3     H1       HT       0.417000       1.00800           0
     56619 TIP3     11391    TIP3     H2       HT       0.417000       1.00800           0
     56620 TIP3     11392    TIP3     OH2      OT      -0.834000       15.9994           0
     56621 TIP3     11392    TIP3     H1       HT       0.417000       1.00800           0
     56622 TIP3     11392    TIP3     H2       HT       0.417000       1.00800           0
     56623 TIP3     11393    TIP3     OH2      OT      -0.834000       15.9994           0
     56624 TIP3     11393    TIP3     H1       HT       0.417000       1.00800           0
     56625 TIP3     11393    TIP3     H2       HT       0.417000       1.00800           0
     56626 TIP3     11394    TIP3     OH2      OT      -0.834000       15.9994           0
     56627 TIP3     11394    TIP3     H1       HT       0.417000       1.00800           0
     56628 TIP3     11394    TIP3     H2       HT       0.417000       1.00800           0
     56629 TIP3     11395    TIP3     OH2      OT      -0.834000       15.9994           0
     56630 TIP3     11395    TIP3     H1       HT       0.417000       1.00800           0
     56631 TIP3     11395    TIP3     H2       HT       0.417000       1.00800           0
     56632 TIP3     11396    TIP3     OH2      OT      -0.834000       15.9994           0
     56633 TIP3     11396    TIP3     H1       HT       0.417000       1.00800           0
     56634 TIP3     11396    TIP3     H2       HT       0.417000       1.00800           0
     56635 TIP3     11397    TIP3     OH2      OT      -0.834000       15.9994           0
     56636 TIP3     11397    TIP3     H1       HT       0.417000       1.00800           0
     56637 TIP3     11397    TIP3     H2       HT       0.417000       1.00800           0
     56638 TIP3     11398    TIP3     OH2      OT      -0.834000       15.9994           0
     56639 TIP3     11398    TIP3     H1       HT       0.417000       1.00800           0
     56640 TIP3     11398    TIP3     H2       HT       0.417000       1.00800           0
     56641 TIP3     11399    TIP3     OH2      OT      -0.834000       15.9994           0
     56642 TIP3     11399    TIP3     H1       HT       0.417000       1.00800           0
     56643 TIP3     11399    TIP3     H2       HT       0.417000       1.00800           0
     56644 TIP3     11400    TIP3     OH2      OT      -0.834000       15.9994           0
     56645 TIP3     11400    TIP3     H1       HT       0.417000       1.00800           0
     56646 TIP3     11400    TIP3     H2       HT       0.417000       1.00800           0
     56647 TIP3     11401    TIP3     OH2      OT      -0.834000       15.9994           0
     56648 TIP3     11401    TIP3     H1       HT       0.417000       1.00800           0
     56649 TIP3     11401    TIP3     H2       HT       0.417000       1.00800           0
     56650 TIP3     11402    TIP3     OH2      OT      -0.834000       15.9994           0
     56651 TIP3     11402    TIP3     H1       HT       0.417000       1.00800           0
     56652 TIP3     11402    TIP3     H2       HT       0.417000       1.00800           0
     56653 TIP3     11403    TIP3     OH2      OT      -0.834000       15.9994           0
     56654 TIP3     11403    TIP3     H1       HT       0.417000       1.00800           0
     56655 TIP3     11403    TIP3     H2       HT       0.417000       1.00800           0
     56656 TIP3     11404    TIP3     OH2      OT      -0.834000       15.9994           0
     56657 TIP3     11404    TIP3     H1       HT       0.417000       1.00800           0
     56658 TIP3     11404    TIP3     H2       HT       0.417000       1.00800           0
     56659 TIP3     11405    TIP3     OH2      OT      -0.834000       15.9994           0
     56660 TIP3     11405    TIP3     H1       HT       0.417000       1.00800           0
     56661 TIP3     11405    TIP3     H2       HT       0.417000       1.00800           0
     56662 TIP3     11406    TIP3     OH2      OT      -0.834000       15.9994           0
     56663 TIP3     11406    TIP3     H1       HT       0.417000       1.00800           0
     56664 TIP3     11406    TIP3     H2       HT       0.417000       1.00800           0
     56665 TIP3     11407    TIP3     OH2      OT      -0.834000       15.9994           0
     56666 TIP3     11407    TIP3     H1       HT       0.417000       1.00800           0
     56667 TIP3     11407    TIP3     H2       HT       0.417000       1.00800           0
     56668 TIP3     11408    TIP3     OH2      OT      -0.834000       15.9994           0
     56669 TIP3     11408    TIP3     H1       HT       0.417000       1.00800           0
     56670 TIP3     11408    TIP3     H2       HT       0.417000       1.00800           0
     56671 TIP3     11409    TIP3     OH2      OT      -0.834000       15.9994           0
     56672 TIP3     11409    TIP3     H1       HT       0.417000       1.00800           0
     56673 TIP3     11409    TIP3     H2       HT       0.417000       1.00800           0
     56674 TIP3     11410    TIP3     OH2      OT      -0.834000       15.9994           0
     56675 TIP3     11410    TIP3     H1       HT       0.417000       1.00800           0
     56676 TIP3     11410    TIP3     H2       HT       0.417000       1.00800           0
     56677 TIP3     11411    TIP3     OH2      OT      -0.834000       15.9994           0
     56678 TIP3     11411    TIP3     H1       HT       0.417000       1.00800           0
     56679 TIP3     11411    TIP3     H2       HT       0.417000       1.00800           0
     56680 TIP3     11412    TIP3     OH2      OT      -0.834000       15.9994           0
     56681 TIP3     11412    TIP3     H1       HT       0.417000       1.00800           0
     56682 TIP3     11412    TIP3     H2       HT       0.417000       1.00800           0
     56683 TIP3     11413    TIP3     OH2      OT      -0.834000       15.9994           0
     56684 TIP3     11413    TIP3     H1       HT       0.417000       1.00800           0
     56685 TIP3     11413    TIP3     H2       HT       0.417000       1.00800           0
     56686 TIP3     11414    TIP3     OH2      OT      -0.834000       15.9994           0
     56687 TIP3     11414    TIP3     H1       HT       0.417000       1.00800           0
     56688 TIP3     11414    TIP3     H2       HT       0.417000       1.00800           0
     56689 TIP3     11415    TIP3     OH2      OT      -0.834000       15.9994           0
     56690 TIP3     11415    TIP3     H1       HT       0.417000       1.00800           0
     56691 TIP3     11415    TIP3     H2       HT       0.417000       1.00800           0
     56692 TIP3     11416    TIP3     OH2      OT      -0.834000       15.9994           0
     56693 TIP3     11416    TIP3     H1       HT       0.417000       1.00800           0
     56694 TIP3     11416    TIP3     H2       HT       0.417000       1.00800           0
     56695 TIP3     11417    TIP3     OH2      OT      -0.834000       15.9994           0
     56696 TIP3     11417    TIP3     H1       HT       0.417000       1.00800           0
     56697 TIP3     11417    TIP3     H2       HT       0.417000       1.00800           0
     56698 TIP3     11418    TIP3     OH2      OT      -0.834000       15.9994           0
     56699 TIP3     11418    TIP3     H1       HT       0.417000       1.00800           0
     56700 TIP3     11418    TIP3     H2       HT       0.417000       1.00800           0
     56701 TIP3     11419    TIP3     OH2      OT      -0.834000       15.9994           0
     56702 TIP3     11419    TIP3     H1       HT       0.417000       1.00800           0
     56703 TIP3     11419    TIP3     H2       HT       0.417000       1.00800           0
     56704 TIP3     11420    TIP3     OH2      OT      -0.834000       15.9994           0
     56705 TIP3     11420    TIP3     H1       HT       0.417000       1.00800           0
     56706 TIP3     11420    TIP3     H2       HT       0.417000       1.00800           0
     56707 TIP3     11421    TIP3     OH2      OT      -0.834000       15.9994           0
     56708 TIP3     11421    TIP3     H1       HT       0.417000       1.00800           0
     56709 TIP3     11421    TIP3     H2       HT       0.417000       1.00800           0
     56710 TIP3     11422    TIP3     OH2      OT      -0.834000       15.9994           0
     56711 TIP3     11422    TIP3     H1       HT       0.417000       1.00800           0
     56712 TIP3     11422    TIP3     H2       HT       0.417000       1.00800           0
     56713 TIP3     11423    TIP3     OH2      OT      -0.834000       15.9994           0
     56714 TIP3     11423    TIP3     H1       HT       0.417000       1.00800           0
     56715 TIP3     11423    TIP3     H2       HT       0.417000       1.00800           0
     56716 TIP3     11424    TIP3     OH2      OT      -0.834000       15.9994           0
     56717 TIP3     11424    TIP3     H1       HT       0.417000       1.00800           0
     56718 TIP3     11424    TIP3     H2       HT       0.417000       1.00800           0
     56719 TIP3     11425    TIP3     OH2      OT      -0.834000       15.9994           0
     56720 TIP3     11425    TIP3     H1       HT       0.417000       1.00800           0
     56721 TIP3     11425    TIP3     H2       HT       0.417000       1.00800           0
     56722 TIP3     11426    TIP3     OH2      OT      -0.834000       15.9994           0
     56723 TIP3     11426    TIP3     H1       HT       0.417000       1.00800           0
     56724 TIP3     11426    TIP3     H2       HT       0.417000       1.00800           0
     56725 TIP3     11427    TIP3     OH2      OT      -0.834000       15.9994           0
     56726 TIP3     11427    TIP3     H1       HT       0.417000       1.00800           0
     56727 TIP3     11427    TIP3     H2       HT       0.417000       1.00800           0
     56728 TIP3     11428    TIP3     OH2      OT      -0.834000       15.9994           0
     56729 TIP3     11428    TIP3     H1       HT       0.417000       1.00800           0
     56730 TIP3     11428    TIP3     H2       HT       0.417000       1.00800           0
     56731 TIP3     11429    TIP3     OH2      OT      -0.834000       15.9994           0
     56732 TIP3     11429    TIP3     H1       HT       0.417000       1.00800           0
     56733 TIP3     11429    TIP3     H2       HT       0.417000       1.00800           0
     56734 TIP3     11430    TIP3     OH2      OT      -0.834000       15.9994           0
     56735 TIP3     11430    TIP3     H1       HT       0.417000       1.00800           0
     56736 TIP3     11430    TIP3     H2       HT       0.417000       1.00800           0
     56737 TIP3     11431    TIP3     OH2      OT      -0.834000       15.9994           0
     56738 TIP3     11431    TIP3     H1       HT       0.417000       1.00800           0
     56739 TIP3     11431    TIP3     H2       HT       0.417000       1.00800           0
     56740 TIP3     11432    TIP3     OH2      OT      -0.834000       15.9994           0
     56741 TIP3     11432    TIP3     H1       HT       0.417000       1.00800           0
     56742 TIP3     11432    TIP3     H2       HT       0.417000       1.00800           0
     56743 TIP3     11433    TIP3     OH2      OT      -0.834000       15.9994           0
     56744 TIP3     11433    TIP3     H1       HT       0.417000       1.00800           0
     56745 TIP3     11433    TIP3     H2       HT       0.417000       1.00800           0
     56746 TIP3     11434    TIP3     OH2      OT      -0.834000       15.9994           0
     56747 TIP3     11434    TIP3     H1       HT       0.417000       1.00800           0
     56748 TIP3     11434    TIP3     H2       HT       0.417000       1.00800           0
     56749 TIP3     11435    TIP3     OH2      OT      -0.834000       15.9994           0
     56750 TIP3     11435    TIP3     H1       HT       0.417000       1.00800           0
     56751 TIP3     11435    TIP3     H2       HT       0.417000       1.00800           0
     56752 TIP3     11436    TIP3     OH2      OT      -0.834000       15.9994           0
     56753 TIP3     11436    TIP3     H1       HT       0.417000       1.00800           0
     56754 TIP3     11436    TIP3     H2       HT       0.417000       1.00800           0
     56755 TIP3     11437    TIP3     OH2      OT      -0.834000       15.9994           0
     56756 TIP3     11437    TIP3     H1       HT       0.417000       1.00800           0
     56757 TIP3     11437    TIP3     H2       HT       0.417000       1.00800           0
     56758 TIP3     11438    TIP3     OH2      OT      -0.834000       15.9994           0
     56759 TIP3     11438    TIP3     H1       HT       0.417000       1.00800           0
     56760 TIP3     11438    TIP3     H2       HT       0.417000       1.00800           0
     56761 TIP3     11439    TIP3     OH2      OT      -0.834000       15.9994           0
     56762 TIP3     11439    TIP3     H1       HT       0.417000       1.00800           0
     56763 TIP3     11439    TIP3     H2       HT       0.417000       1.00800           0
     56764 TIP3     11440    TIP3     OH2      OT      -0.834000       15.9994           0
     56765 TIP3     11440    TIP3     H1       HT       0.417000       1.00800           0
     56766 TIP3     11440    TIP3     H2       HT       0.417000       1.00800           0
     56767 TIP3     11441    TIP3     OH2      OT      -0.834000       15.9994           0
     56768 TIP3     11441    TIP3     H1       HT       0.417000       1.00800           0
     56769 TIP3     11441    TIP3     H2       HT       0.417000       1.00800           0
     56770 TIP3     11442    TIP3     OH2      OT      -0.834000       15.9994           0
     56771 TIP3     11442    TIP3     H1       HT       0.417000       1.00800           0
     56772 TIP3     11442    TIP3     H2       HT       0.417000       1.00800           0
     56773 TIP3     11443    TIP3     OH2      OT      -0.834000       15.9994           0
     56774 TIP3     11443    TIP3     H1       HT       0.417000       1.00800           0
     56775 TIP3     11443    TIP3     H2       HT       0.417000       1.00800           0
     56776 TIP3     11444    TIP3     OH2      OT      -0.834000       15.9994           0
     56777 TIP3     11444    TIP3     H1       HT       0.417000       1.00800           0
     56778 TIP3     11444    TIP3     H2       HT       0.417000       1.00800           0
     56779 TIP3     11445    TIP3     OH2      OT      -0.834000       15.9994           0
     56780 TIP3     11445    TIP3     H1       HT       0.417000       1.00800           0
     56781 TIP3     11445    TIP3     H2       HT       0.417000       1.00800           0
     56782 TIP3     11446    TIP3     OH2      OT      -0.834000       15.9994           0
     56783 TIP3     11446    TIP3     H1       HT       0.417000       1.00800           0
     56784 TIP3     11446    TIP3     H2       HT       0.417000       1.00800           0
     56785 TIP3     11447    TIP3     OH2      OT      -0.834000       15.9994           0
     56786 TIP3     11447    TIP3     H1       HT       0.417000       1.00800           0
     56787 TIP3     11447    TIP3     H2       HT       0.417000       1.00800           0
     56788 TIP3     11448    TIP3     OH2      OT      -0.834000       15.9994           0
     56789 TIP3     11448    TIP3     H1       HT       0.417000       1.00800           0
     56790 TIP3     11448    TIP3     H2       HT       0.417000       1.00800           0
     56791 TIP3     11449    TIP3     OH2      OT      -0.834000       15.9994           0
     56792 TIP3     11449    TIP3     H1       HT       0.417000       1.00800           0
     56793 TIP3     11449    TIP3     H2       HT       0.417000       1.00800           0
     56794 TIP3     11450    TIP3     OH2      OT      -0.834000       15.9994           0
     56795 TIP3     11450    TIP3     H1       HT       0.417000       1.00800           0
     56796 TIP3     11450    TIP3     H2       HT       0.417000       1.00800           0
     56797 TIP3     11451    TIP3     OH2      OT      -0.834000       15.9994           0
     56798 TIP3     11451    TIP3     H1       HT       0.417000       1.00800           0
     56799 TIP3     11451    TIP3     H2       HT       0.417000       1.00800           0
     56800 TIP3     11452    TIP3     OH2      OT      -0.834000       15.9994           0
     56801 TIP3     11452    TIP3     H1       HT       0.417000       1.00800           0
     56802 TIP3     11452    TIP3     H2       HT       0.417000       1.00800           0
     56803 TIP3     11453    TIP3     OH2      OT      -0.834000       15.9994           0
     56804 TIP3     11453    TIP3     H1       HT       0.417000       1.00800           0
     56805 TIP3     11453    TIP3     H2       HT       0.417000       1.00800           0
     56806 TIP3     11454    TIP3     OH2      OT      -0.834000       15.9994           0
     56807 TIP3     11454    TIP3     H1       HT       0.417000       1.00800           0
     56808 TIP3     11454    TIP3     H2       HT       0.417000       1.00800           0
     56809 TIP3     11455    TIP3     OH2      OT      -0.834000       15.9994           0
     56810 TIP3     11455    TIP3     H1       HT       0.417000       1.00800           0
     56811 TIP3     11455    TIP3     H2       HT       0.417000       1.00800           0
     56812 TIP3     11456    TIP3     OH2      OT      -0.834000       15.9994           0
     56813 TIP3     11456    TIP3     H1       HT       0.417000       1.00800           0
     56814 TIP3     11456    TIP3     H2       HT       0.417000       1.00800           0
     56815 TIP3     11457    TIP3     OH2      OT      -0.834000       15.9994           0
     56816 TIP3     11457    TIP3     H1       HT       0.417000       1.00800           0
     56817 TIP3     11457    TIP3     H2       HT       0.417000       1.00800           0
     56818 TIP3     11458    TIP3     OH2      OT      -0.834000       15.9994           0
     56819 TIP3     11458    TIP3     H1       HT       0.417000       1.00800           0
     56820 TIP3     11458    TIP3     H2       HT       0.417000       1.00800           0
     56821 TIP3     11459    TIP3     OH2      OT      -0.834000       15.9994           0
     56822 TIP3     11459    TIP3     H1       HT       0.417000       1.00800           0
     56823 TIP3     11459    TIP3     H2       HT       0.417000       1.00800           0
     56824 TIP3     11460    TIP3     OH2      OT      -0.834000       15.9994           0
     56825 TIP3     11460    TIP3     H1       HT       0.417000       1.00800           0
     56826 TIP3     11460    TIP3     H2       HT       0.417000       1.00800           0
     56827 TIP3     11461    TIP3     OH2      OT      -0.834000       15.9994           0
     56828 TIP3     11461    TIP3     H1       HT       0.417000       1.00800           0
     56829 TIP3     11461    TIP3     H2       HT       0.417000       1.00800           0
     56830 TIP3     11462    TIP3     OH2      OT      -0.834000       15.9994           0
     56831 TIP3     11462    TIP3     H1       HT       0.417000       1.00800           0
     56832 TIP3     11462    TIP3     H2       HT       0.417000       1.00800           0
     56833 TIP3     11463    TIP3     OH2      OT      -0.834000       15.9994           0
     56834 TIP3     11463    TIP3     H1       HT       0.417000       1.00800           0
     56835 TIP3     11463    TIP3     H2       HT       0.417000       1.00800           0
     56836 TIP3     11464    TIP3     OH2      OT      -0.834000       15.9994           0
     56837 TIP3     11464    TIP3     H1       HT       0.417000       1.00800           0
     56838 TIP3     11464    TIP3     H2       HT       0.417000       1.00800           0
     56839 TIP3     11465    TIP3     OH2      OT      -0.834000       15.9994           0
     56840 TIP3     11465    TIP3     H1       HT       0.417000       1.00800           0
     56841 TIP3     11465    TIP3     H2       HT       0.417000       1.00800           0
     56842 TIP3     11466    TIP3     OH2      OT      -0.834000       15.9994           0
     56843 TIP3     11466    TIP3     H1       HT       0.417000       1.00800           0
     56844 TIP3     11466    TIP3     H2       HT       0.417000       1.00800           0
     56845 TIP3     11467    TIP3     OH2      OT      -0.834000       15.9994           0
     56846 TIP3     11467    TIP3     H1       HT       0.417000       1.00800           0
     56847 TIP3     11467    TIP3     H2       HT       0.417000       1.00800           0
     56848 TIP3     11468    TIP3     OH2      OT      -0.834000       15.9994           0
     56849 TIP3     11468    TIP3     H1       HT       0.417000       1.00800           0
     56850 TIP3     11468    TIP3     H2       HT       0.417000       1.00800           0
     56851 TIP3     11469    TIP3     OH2      OT      -0.834000       15.9994           0
     56852 TIP3     11469    TIP3     H1       HT       0.417000       1.00800           0
     56853 TIP3     11469    TIP3     H2       HT       0.417000       1.00800           0
     56854 TIP3     11470    TIP3     OH2      OT      -0.834000       15.9994           0
     56855 TIP3     11470    TIP3     H1       HT       0.417000       1.00800           0
     56856 TIP3     11470    TIP3     H2       HT       0.417000       1.00800           0
     56857 TIP3     11471    TIP3     OH2      OT      -0.834000       15.9994           0
     56858 TIP3     11471    TIP3     H1       HT       0.417000       1.00800           0
     56859 TIP3     11471    TIP3     H2       HT       0.417000       1.00800           0
     56860 TIP3     11472    TIP3     OH2      OT      -0.834000       15.9994           0
     56861 TIP3     11472    TIP3     H1       HT       0.417000       1.00800           0
     56862 TIP3     11472    TIP3     H2       HT       0.417000       1.00800           0
     56863 TIP3     11473    TIP3     OH2      OT      -0.834000       15.9994           0
     56864 TIP3     11473    TIP3     H1       HT       0.417000       1.00800           0
     56865 TIP3     11473    TIP3     H2       HT       0.417000       1.00800           0
     56866 TIP3     11474    TIP3     OH2      OT      -0.834000       15.9994           0
     56867 TIP3     11474    TIP3     H1       HT       0.417000       1.00800           0
     56868 TIP3     11474    TIP3     H2       HT       0.417000       1.00800           0
     56869 TIP3     11475    TIP3     OH2      OT      -0.834000       15.9994           0
     56870 TIP3     11475    TIP3     H1       HT       0.417000       1.00800           0
     56871 TIP3     11475    TIP3     H2       HT       0.417000       1.00800           0
     56872 TIP3     11476    TIP3     OH2      OT      -0.834000       15.9994           0
     56873 TIP3     11476    TIP3     H1       HT       0.417000       1.00800           0
     56874 TIP3     11476    TIP3     H2       HT       0.417000       1.00800           0
     56875 TIP3     11477    TIP3     OH2      OT      -0.834000       15.9994           0
     56876 TIP3     11477    TIP3     H1       HT       0.417000       1.00800           0
     56877 TIP3     11477    TIP3     H2       HT       0.417000       1.00800           0
     56878 TIP3     11478    TIP3     OH2      OT      -0.834000       15.9994           0
     56879 TIP3     11478    TIP3     H1       HT       0.417000       1.00800           0
     56880 TIP3     11478    TIP3     H2       HT       0.417000       1.00800           0
     56881 TIP3     11479    TIP3     OH2      OT      -0.834000       15.9994           0
     56882 TIP3     11479    TIP3     H1       HT       0.417000       1.00800           0
     56883 TIP3     11479    TIP3     H2       HT       0.417000       1.00800           0
     56884 TIP3     11480    TIP3     OH2      OT      -0.834000       15.9994           0
     56885 TIP3     11480    TIP3     H1       HT       0.417000       1.00800           0
     56886 TIP3     11480    TIP3     H2       HT       0.417000       1.00800           0
     56887 TIP3     11481    TIP3     OH2      OT      -0.834000       15.9994           0
     56888 TIP3     11481    TIP3     H1       HT       0.417000       1.00800           0
     56889 TIP3     11481    TIP3     H2       HT       0.417000       1.00800           0
     56890 TIP3     11482    TIP3     OH2      OT      -0.834000       15.9994           0
     56891 TIP3     11482    TIP3     H1       HT       0.417000       1.00800           0
     56892 TIP3     11482    TIP3     H2       HT       0.417000       1.00800           0
     56893 TIP3     11483    TIP3     OH2      OT      -0.834000       15.9994           0
     56894 TIP3     11483    TIP3     H1       HT       0.417000       1.00800           0
     56895 TIP3     11483    TIP3     H2       HT       0.417000       1.00800           0
     56896 TIP3     11484    TIP3     OH2      OT      -0.834000       15.9994           0
     56897 TIP3     11484    TIP3     H1       HT       0.417000       1.00800           0
     56898 TIP3     11484    TIP3     H2       HT       0.417000       1.00800           0
     56899 TIP3     11485    TIP3     OH2      OT      -0.834000       15.9994           0
     56900 TIP3     11485    TIP3     H1       HT       0.417000       1.00800           0
     56901 TIP3     11485    TIP3     H2       HT       0.417000       1.00800           0
     56902 TIP3     11486    TIP3     OH2      OT      -0.834000       15.9994           0
     56903 TIP3     11486    TIP3     H1       HT       0.417000       1.00800           0
     56904 TIP3     11486    TIP3     H2       HT       0.417000       1.00800           0
     56905 TIP3     11487    TIP3     OH2      OT      -0.834000       15.9994           0
     56906 TIP3     11487    TIP3     H1       HT       0.417000       1.00800           0
     56907 TIP3     11487    TIP3     H2       HT       0.417000       1.00800           0
     56908 TIP3     11488    TIP3     OH2      OT      -0.834000       15.9994           0
     56909 TIP3     11488    TIP3     H1       HT       0.417000       1.00800           0
     56910 TIP3     11488    TIP3     H2       HT       0.417000       1.00800           0
     56911 TIP3     11489    TIP3     OH2      OT      -0.834000       15.9994           0
     56912 TIP3     11489    TIP3     H1       HT       0.417000       1.00800           0
     56913 TIP3     11489    TIP3     H2       HT       0.417000       1.00800           0
     56914 TIP3     11490    TIP3     OH2      OT      -0.834000       15.9994           0
     56915 TIP3     11490    TIP3     H1       HT       0.417000       1.00800           0
     56916 TIP3     11490    TIP3     H2       HT       0.417000       1.00800           0
     56917 TIP3     11491    TIP3     OH2      OT      -0.834000       15.9994           0
     56918 TIP3     11491    TIP3     H1       HT       0.417000       1.00800           0
     56919 TIP3     11491    TIP3     H2       HT       0.417000       1.00800           0
     56920 TIP3     11492    TIP3     OH2      OT      -0.834000       15.9994           0
     56921 TIP3     11492    TIP3     H1       HT       0.417000       1.00800           0
     56922 TIP3     11492    TIP3     H2       HT       0.417000       1.00800           0
     56923 TIP3     11493    TIP3     OH2      OT      -0.834000       15.9994           0
     56924 TIP3     11493    TIP3     H1       HT       0.417000       1.00800           0
     56925 TIP3     11493    TIP3     H2       HT       0.417000       1.00800           0
     56926 TIP3     11494    TIP3     OH2      OT      -0.834000       15.9994           0
     56927 TIP3     11494    TIP3     H1       HT       0.417000       1.00800           0
     56928 TIP3     11494    TIP3     H2       HT       0.417000       1.00800           0
     56929 TIP3     11495    TIP3     OH2      OT      -0.834000       15.9994           0
     56930 TIP3     11495    TIP3     H1       HT       0.417000       1.00800           0
     56931 TIP3     11495    TIP3     H2       HT       0.417000       1.00800           0
     56932 TIP3     11496    TIP3     OH2      OT      -0.834000       15.9994           0
     56933 TIP3     11496    TIP3     H1       HT       0.417000       1.00800           0
     56934 TIP3     11496    TIP3     H2       HT       0.417000       1.00800           0
     56935 TIP3     11497    TIP3     OH2      OT      -0.834000       15.9994           0
     56936 TIP3     11497    TIP3     H1       HT       0.417000       1.00800           0
     56937 TIP3     11497    TIP3     H2       HT       0.417000       1.00800           0
     56938 TIP3     11498    TIP3     OH2      OT      -0.834000       15.9994           0
     56939 TIP3     11498    TIP3     H1       HT       0.417000       1.00800           0
     56940 TIP3     11498    TIP3     H2       HT       0.417000       1.00800           0
     56941 TIP3     11499    TIP3     OH2      OT      -0.834000       15.9994           0
     56942 TIP3     11499    TIP3     H1       HT       0.417000       1.00800           0
     56943 TIP3     11499    TIP3     H2       HT       0.417000       1.00800           0
     56944 TIP3     11500    TIP3     OH2      OT      -0.834000       15.9994           0
     56945 TIP3     11500    TIP3     H1       HT       0.417000       1.00800           0
     56946 TIP3     11500    TIP3     H2       HT       0.417000       1.00800           0
     56947 TIP3     11501    TIP3     OH2      OT      -0.834000       15.9994           0
     56948 TIP3     11501    TIP3     H1       HT       0.417000       1.00800           0
     56949 TIP3     11501    TIP3     H2       HT       0.417000       1.00800           0
     56950 TIP3     11502    TIP3     OH2      OT      -0.834000       15.9994           0
     56951 TIP3     11502    TIP3     H1       HT       0.417000       1.00800           0
     56952 TIP3     11502    TIP3     H2       HT       0.417000       1.00800           0
     56953 TIP3     11503    TIP3     OH2      OT      -0.834000       15.9994           0
     56954 TIP3     11503    TIP3     H1       HT       0.417000       1.00800           0
     56955 TIP3     11503    TIP3     H2       HT       0.417000       1.00800           0
     56956 TIP3     11504    TIP3     OH2      OT      -0.834000       15.9994           0
     56957 TIP3     11504    TIP3     H1       HT       0.417000       1.00800           0
     56958 TIP3     11504    TIP3     H2       HT       0.417000       1.00800           0
     56959 TIP3     11505    TIP3     OH2      OT      -0.834000       15.9994           0
     56960 TIP3     11505    TIP3     H1       HT       0.417000       1.00800           0
     56961 TIP3     11505    TIP3     H2       HT       0.417000       1.00800           0
     56962 TIP3     11506    TIP3     OH2      OT      -0.834000       15.9994           0
     56963 TIP3     11506    TIP3     H1       HT       0.417000       1.00800           0
     56964 TIP3     11506    TIP3     H2       HT       0.417000       1.00800           0
     56965 TIP3     11507    TIP3     OH2      OT      -0.834000       15.9994           0
     56966 TIP3     11507    TIP3     H1       HT       0.417000       1.00800           0
     56967 TIP3     11507    TIP3     H2       HT       0.417000       1.00800           0
     56968 TIP3     11508    TIP3     OH2      OT      -0.834000       15.9994           0
     56969 TIP3     11508    TIP3     H1       HT       0.417000       1.00800           0
     56970 TIP3     11508    TIP3     H2       HT       0.417000       1.00800           0
     56971 TIP3     11509    TIP3     OH2      OT      -0.834000       15.9994           0
     56972 TIP3     11509    TIP3     H1       HT       0.417000       1.00800           0
     56973 TIP3     11509    TIP3     H2       HT       0.417000       1.00800           0
     56974 TIP3     11510    TIP3     OH2      OT      -0.834000       15.9994           0
     56975 TIP3     11510    TIP3     H1       HT       0.417000       1.00800           0
     56976 TIP3     11510    TIP3     H2       HT       0.417000       1.00800           0
     56977 TIP3     11511    TIP3     OH2      OT      -0.834000       15.9994           0
     56978 TIP3     11511    TIP3     H1       HT       0.417000       1.00800           0
     56979 TIP3     11511    TIP3     H2       HT       0.417000       1.00800           0
     56980 TIP3     11512    TIP3     OH2      OT      -0.834000       15.9994           0
     56981 TIP3     11512    TIP3     H1       HT       0.417000       1.00800           0
     56982 TIP3     11512    TIP3     H2       HT       0.417000       1.00800           0
     56983 TIP3     11513    TIP3     OH2      OT      -0.834000       15.9994           0
     56984 TIP3     11513    TIP3     H1       HT       0.417000       1.00800           0
     56985 TIP3     11513    TIP3     H2       HT       0.417000       1.00800           0
     56986 TIP3     11514    TIP3     OH2      OT      -0.834000       15.9994           0
     56987 TIP3     11514    TIP3     H1       HT       0.417000       1.00800           0
     56988 TIP3     11514    TIP3     H2       HT       0.417000       1.00800           0
     56989 TIP3     11515    TIP3     OH2      OT      -0.834000       15.9994           0
     56990 TIP3     11515    TIP3     H1       HT       0.417000       1.00800           0
     56991 TIP3     11515    TIP3     H2       HT       0.417000       1.00800           0
     56992 TIP3     11516    TIP3     OH2      OT      -0.834000       15.9994           0
     56993 TIP3     11516    TIP3     H1       HT       0.417000       1.00800           0
     56994 TIP3     11516    TIP3     H2       HT       0.417000       1.00800           0
     56995 TIP3     11517    TIP3     OH2      OT      -0.834000       15.9994           0
     56996 TIP3     11517    TIP3     H1       HT       0.417000       1.00800           0
     56997 TIP3     11517    TIP3     H2       HT       0.417000       1.00800           0
     56998 TIP3     11518    TIP3     OH2      OT      -0.834000       15.9994           0
     56999 TIP3     11518    TIP3     H1       HT       0.417000       1.00800           0
     57000 TIP3     11518    TIP3     H2       HT       0.417000       1.00800           0
     57001 TIP3     11519    TIP3     OH2      OT      -0.834000       15.9994           0
     57002 TIP3     11519    TIP3     H1       HT       0.417000       1.00800           0
     57003 TIP3     11519    TIP3     H2       HT       0.417000       1.00800           0
     57004 TIP3     11520    TIP3     OH2      OT      -0.834000       15.9994           0
     57005 TIP3     11520    TIP3     H1       HT       0.417000       1.00800           0
     57006 TIP3     11520    TIP3     H2       HT       0.417000       1.00800           0
     57007 TIP3     11521    TIP3     OH2      OT      -0.834000       15.9994           0
     57008 TIP3     11521    TIP3     H1       HT       0.417000       1.00800           0
     57009 TIP3     11521    TIP3     H2       HT       0.417000       1.00800           0
     57010 TIP3     11522    TIP3     OH2      OT      -0.834000       15.9994           0
     57011 TIP3     11522    TIP3     H1       HT       0.417000       1.00800           0
     57012 TIP3     11522    TIP3     H2       HT       0.417000       1.00800           0
     57013 TIP3     11523    TIP3     OH2      OT      -0.834000       15.9994           0
     57014 TIP3     11523    TIP3     H1       HT       0.417000       1.00800           0
     57015 TIP3     11523    TIP3     H2       HT       0.417000       1.00800           0
     57016 TIP3     11524    TIP3     OH2      OT      -0.834000       15.9994           0
     57017 TIP3     11524    TIP3     H1       HT       0.417000       1.00800           0
     57018 TIP3     11524    TIP3     H2       HT       0.417000       1.00800           0
     57019 TIP3     11525    TIP3     OH2      OT      -0.834000       15.9994           0
     57020 TIP3     11525    TIP3     H1       HT       0.417000       1.00800           0
     57021 TIP3     11525    TIP3     H2       HT       0.417000       1.00800           0
     57022 TIP3     11526    TIP3     OH2      OT      -0.834000       15.9994           0
     57023 TIP3     11526    TIP3     H1       HT       0.417000       1.00800           0
     57024 TIP3     11526    TIP3     H2       HT       0.417000       1.00800           0
     57025 TIP3     11527    TIP3     OH2      OT      -0.834000       15.9994           0
     57026 TIP3     11527    TIP3     H1       HT       0.417000       1.00800           0
     57027 TIP3     11527    TIP3     H2       HT       0.417000       1.00800           0
     57028 TIP3     11528    TIP3     OH2      OT      -0.834000       15.9994           0
     57029 TIP3     11528    TIP3     H1       HT       0.417000       1.00800           0
     57030 TIP3     11528    TIP3     H2       HT       0.417000       1.00800           0
     57031 TIP3     11529    TIP3     OH2      OT      -0.834000       15.9994           0
     57032 TIP3     11529    TIP3     H1       HT       0.417000       1.00800           0
     57033 TIP3     11529    TIP3     H2       HT       0.417000       1.00800           0
     57034 TIP3     11530    TIP3     OH2      OT      -0.834000       15.9994           0
     57035 TIP3     11530    TIP3     H1       HT       0.417000       1.00800           0
     57036 TIP3     11530    TIP3     H2       HT       0.417000       1.00800           0
     57037 TIP3     11531    TIP3     OH2      OT      -0.834000       15.9994           0
     57038 TIP3     11531    TIP3     H1       HT       0.417000       1.00800           0
     57039 TIP3     11531    TIP3     H2       HT       0.417000       1.00800           0
     57040 TIP3     11532    TIP3     OH2      OT      -0.834000       15.9994           0
     57041 TIP3     11532    TIP3     H1       HT       0.417000       1.00800           0
     57042 TIP3     11532    TIP3     H2       HT       0.417000       1.00800           0
     57043 TIP3     11533    TIP3     OH2      OT      -0.834000       15.9994           0
     57044 TIP3     11533    TIP3     H1       HT       0.417000       1.00800           0
     57045 TIP3     11533    TIP3     H2       HT       0.417000       1.00800           0
     57046 TIP3     11534    TIP3     OH2      OT      -0.834000       15.9994           0
     57047 TIP3     11534    TIP3     H1       HT       0.417000       1.00800           0
     57048 TIP3     11534    TIP3     H2       HT       0.417000       1.00800           0
     57049 TIP3     11535    TIP3     OH2      OT      -0.834000       15.9994           0
     57050 TIP3     11535    TIP3     H1       HT       0.417000       1.00800           0
     57051 TIP3     11535    TIP3     H2       HT       0.417000       1.00800           0
     57052 TIP3     11536    TIP3     OH2      OT      -0.834000       15.9994           0
     57053 TIP3     11536    TIP3     H1       HT       0.417000       1.00800           0
     57054 TIP3     11536    TIP3     H2       HT       0.417000       1.00800           0
     57055 TIP3     11537    TIP3     OH2      OT      -0.834000       15.9994           0
     57056 TIP3     11537    TIP3     H1       HT       0.417000       1.00800           0
     57057 TIP3     11537    TIP3     H2       HT       0.417000       1.00800           0
     57058 TIP3     11538    TIP3     OH2      OT      -0.834000       15.9994           0
     57059 TIP3     11538    TIP3     H1       HT       0.417000       1.00800           0
     57060 TIP3     11538    TIP3     H2       HT       0.417000       1.00800           0
     57061 TIP3     11539    TIP3     OH2      OT      -0.834000       15.9994           0
     57062 TIP3     11539    TIP3     H1       HT       0.417000       1.00800           0
     57063 TIP3     11539    TIP3     H2       HT       0.417000       1.00800           0
     57064 TIP3     11540    TIP3     OH2      OT      -0.834000       15.9994           0
     57065 TIP3     11540    TIP3     H1       HT       0.417000       1.00800           0
     57066 TIP3     11540    TIP3     H2       HT       0.417000       1.00800           0
     57067 TIP3     11541    TIP3     OH2      OT      -0.834000       15.9994           0
     57068 TIP3     11541    TIP3     H1       HT       0.417000       1.00800           0
     57069 TIP3     11541    TIP3     H2       HT       0.417000       1.00800           0
     57070 TIP3     11542    TIP3     OH2      OT      -0.834000       15.9994           0
     57071 TIP3     11542    TIP3     H1       HT       0.417000       1.00800           0
     57072 TIP3     11542    TIP3     H2       HT       0.417000       1.00800           0
     57073 TIP3     11543    TIP3     OH2      OT      -0.834000       15.9994           0
     57074 TIP3     11543    TIP3     H1       HT       0.417000       1.00800           0
     57075 TIP3     11543    TIP3     H2       HT       0.417000       1.00800           0
     57076 TIP3     11544    TIP3     OH2      OT      -0.834000       15.9994           0
     57077 TIP3     11544    TIP3     H1       HT       0.417000       1.00800           0
     57078 TIP3     11544    TIP3     H2       HT       0.417000       1.00800           0
     57079 TIP3     11545    TIP3     OH2      OT      -0.834000       15.9994           0
     57080 TIP3     11545    TIP3     H1       HT       0.417000       1.00800           0
     57081 TIP3     11545    TIP3     H2       HT       0.417000       1.00800           0
     57082 TIP3     11546    TIP3     OH2      OT      -0.834000       15.9994           0
     57083 TIP3     11546    TIP3     H1       HT       0.417000       1.00800           0
     57084 TIP3     11546    TIP3     H2       HT       0.417000       1.00800           0
     57085 TIP3     11547    TIP3     OH2      OT      -0.834000       15.9994           0
     57086 TIP3     11547    TIP3     H1       HT       0.417000       1.00800           0
     57087 TIP3     11547    TIP3     H2       HT       0.417000       1.00800           0
     57088 TIP3     11548    TIP3     OH2      OT      -0.834000       15.9994           0
     57089 TIP3     11548    TIP3     H1       HT       0.417000       1.00800           0
     57090 TIP3     11548    TIP3     H2       HT       0.417000       1.00800           0
     57091 TIP3     11549    TIP3     OH2      OT      -0.834000       15.9994           0
     57092 TIP3     11549    TIP3     H1       HT       0.417000       1.00800           0
     57093 TIP3     11549    TIP3     H2       HT       0.417000       1.00800           0
     57094 TIP3     11550    TIP3     OH2      OT      -0.834000       15.9994           0
     57095 TIP3     11550    TIP3     H1       HT       0.417000       1.00800           0
     57096 TIP3     11550    TIP3     H2       HT       0.417000       1.00800           0
     57097 TIP3     11551    TIP3     OH2      OT      -0.834000       15.9994           0
     57098 TIP3     11551    TIP3     H1       HT       0.417000       1.00800           0
     57099 TIP3     11551    TIP3     H2       HT       0.417000       1.00800           0
     57100 TIP3     11552    TIP3     OH2      OT      -0.834000       15.9994           0
     57101 TIP3     11552    TIP3     H1       HT       0.417000       1.00800           0
     57102 TIP3     11552    TIP3     H2       HT       0.417000       1.00800           0
     57103 TIP3     11553    TIP3     OH2      OT      -0.834000       15.9994           0
     57104 TIP3     11553    TIP3     H1       HT       0.417000       1.00800           0
     57105 TIP3     11553    TIP3     H2       HT       0.417000       1.00800           0
     57106 TIP3     11554    TIP3     OH2      OT      -0.834000       15.9994           0
     57107 TIP3     11554    TIP3     H1       HT       0.417000       1.00800           0
     57108 TIP3     11554    TIP3     H2       HT       0.417000       1.00800           0
     57109 TIP3     11555    TIP3     OH2      OT      -0.834000       15.9994           0
     57110 TIP3     11555    TIP3     H1       HT       0.417000       1.00800           0
     57111 TIP3     11555    TIP3     H2       HT       0.417000       1.00800           0
     57112 TIP3     11556    TIP3     OH2      OT      -0.834000       15.9994           0
     57113 TIP3     11556    TIP3     H1       HT       0.417000       1.00800           0
     57114 TIP3     11556    TIP3     H2       HT       0.417000       1.00800           0
     57115 TIP3     11557    TIP3     OH2      OT      -0.834000       15.9994           0
     57116 TIP3     11557    TIP3     H1       HT       0.417000       1.00800           0
     57117 TIP3     11557    TIP3     H2       HT       0.417000       1.00800           0
     57118 TIP3     11558    TIP3     OH2      OT      -0.834000       15.9994           0
     57119 TIP3     11558    TIP3     H1       HT       0.417000       1.00800           0
     57120 TIP3     11558    TIP3     H2       HT       0.417000       1.00800           0
     57121 TIP3     11559    TIP3     OH2      OT      -0.834000       15.9994           0
     57122 TIP3     11559    TIP3     H1       HT       0.417000       1.00800           0
     57123 TIP3     11559    TIP3     H2       HT       0.417000       1.00800           0
     57124 TIP3     11560    TIP3     OH2      OT      -0.834000       15.9994           0
     57125 TIP3     11560    TIP3     H1       HT       0.417000       1.00800           0
     57126 TIP3     11560    TIP3     H2       HT       0.417000       1.00800           0
     57127 TIP3     11561    TIP3     OH2      OT      -0.834000       15.9994           0
     57128 TIP3     11561    TIP3     H1       HT       0.417000       1.00800           0
     57129 TIP3     11561    TIP3     H2       HT       0.417000       1.00800           0
     57130 TIP3     11562    TIP3     OH2      OT      -0.834000       15.9994           0
     57131 TIP3     11562    TIP3     H1       HT       0.417000       1.00800           0
     57132 TIP3     11562    TIP3     H2       HT       0.417000       1.00800           0
     57133 TIP3     11563    TIP3     OH2      OT      -0.834000       15.9994           0
     57134 TIP3     11563    TIP3     H1       HT       0.417000       1.00800           0
     57135 TIP3     11563    TIP3     H2       HT       0.417000       1.00800           0
     57136 TIP3     11564    TIP3     OH2      OT      -0.834000       15.9994           0
     57137 TIP3     11564    TIP3     H1       HT       0.417000       1.00800           0
     57138 TIP3     11564    TIP3     H2       HT       0.417000       1.00800           0
     57139 TIP3     11565    TIP3     OH2      OT      -0.834000       15.9994           0
     57140 TIP3     11565    TIP3     H1       HT       0.417000       1.00800           0
     57141 TIP3     11565    TIP3     H2       HT       0.417000       1.00800           0
     57142 TIP3     11566    TIP3     OH2      OT      -0.834000       15.9994           0
     57143 TIP3     11566    TIP3     H1       HT       0.417000       1.00800           0
     57144 TIP3     11566    TIP3     H2       HT       0.417000       1.00800           0
     57145 TIP3     11567    TIP3     OH2      OT      -0.834000       15.9994           0
     57146 TIP3     11567    TIP3     H1       HT       0.417000       1.00800           0
     57147 TIP3     11567    TIP3     H2       HT       0.417000       1.00800           0
     57148 TIP3     11568    TIP3     OH2      OT      -0.834000       15.9994           0
     57149 TIP3     11568    TIP3     H1       HT       0.417000       1.00800           0
     57150 TIP3     11568    TIP3     H2       HT       0.417000       1.00800           0
     57151 TIP3     11569    TIP3     OH2      OT      -0.834000       15.9994           0
     57152 TIP3     11569    TIP3     H1       HT       0.417000       1.00800           0
     57153 TIP3     11569    TIP3     H2       HT       0.417000       1.00800           0
     57154 TIP3     11570    TIP3     OH2      OT      -0.834000       15.9994           0
     57155 TIP3     11570    TIP3     H1       HT       0.417000       1.00800           0
     57156 TIP3     11570    TIP3     H2       HT       0.417000       1.00800           0
     57157 TIP3     11571    TIP3     OH2      OT      -0.834000       15.9994           0
     57158 TIP3     11571    TIP3     H1       HT       0.417000       1.00800           0
     57159 TIP3     11571    TIP3     H2       HT       0.417000       1.00800           0
     57160 TIP3     11572    TIP3     OH2      OT      -0.834000       15.9994           0
     57161 TIP3     11572    TIP3     H1       HT       0.417000       1.00800           0
     57162 TIP3     11572    TIP3     H2       HT       0.417000       1.00800           0
     57163 TIP3     11573    TIP3     OH2      OT      -0.834000       15.9994           0
     57164 TIP3     11573    TIP3     H1       HT       0.417000       1.00800           0
     57165 TIP3     11573    TIP3     H2       HT       0.417000       1.00800           0
     57166 TIP3     11574    TIP3     OH2      OT      -0.834000       15.9994           0
     57167 TIP3     11574    TIP3     H1       HT       0.417000       1.00800           0
     57168 TIP3     11574    TIP3     H2       HT       0.417000       1.00800           0
     57169 TIP3     11575    TIP3     OH2      OT      -0.834000       15.9994           0
     57170 TIP3     11575    TIP3     H1       HT       0.417000       1.00800           0
     57171 TIP3     11575    TIP3     H2       HT       0.417000       1.00800           0
     57172 TIP3     11576    TIP3     OH2      OT      -0.834000       15.9994           0
     57173 TIP3     11576    TIP3     H1       HT       0.417000       1.00800           0
     57174 TIP3     11576    TIP3     H2       HT       0.417000       1.00800           0
     57175 TIP3     11577    TIP3     OH2      OT      -0.834000       15.9994           0
     57176 TIP3     11577    TIP3     H1       HT       0.417000       1.00800           0
     57177 TIP3     11577    TIP3     H2       HT       0.417000       1.00800           0
     57178 TIP3     11578    TIP3     OH2      OT      -0.834000       15.9994           0
     57179 TIP3     11578    TIP3     H1       HT       0.417000       1.00800           0
     57180 TIP3     11578    TIP3     H2       HT       0.417000       1.00800           0
     57181 TIP3     11579    TIP3     OH2      OT      -0.834000       15.9994           0
     57182 TIP3     11579    TIP3     H1       HT       0.417000       1.00800           0
     57183 TIP3     11579    TIP3     H2       HT       0.417000       1.00800           0
     57184 TIP3     11580    TIP3     OH2      OT      -0.834000       15.9994           0
     57185 TIP3     11580    TIP3     H1       HT       0.417000       1.00800           0
     57186 TIP3     11580    TIP3     H2       HT       0.417000       1.00800           0
     57187 TIP3     11581    TIP3     OH2      OT      -0.834000       15.9994           0
     57188 TIP3     11581    TIP3     H1       HT       0.417000       1.00800           0
     57189 TIP3     11581    TIP3     H2       HT       0.417000       1.00800           0
     57190 TIP3     11582    TIP3     OH2      OT      -0.834000       15.9994           0
     57191 TIP3     11582    TIP3     H1       HT       0.417000       1.00800           0
     57192 TIP3     11582    TIP3     H2       HT       0.417000       1.00800           0
     57193 TIP3     11583    TIP3     OH2      OT      -0.834000       15.9994           0
     57194 TIP3     11583    TIP3     H1       HT       0.417000       1.00800           0
     57195 TIP3     11583    TIP3     H2       HT       0.417000       1.00800           0
     57196 TIP3     11584    TIP3     OH2      OT      -0.834000       15.9994           0
     57197 TIP3     11584    TIP3     H1       HT       0.417000       1.00800           0
     57198 TIP3     11584    TIP3     H2       HT       0.417000       1.00800           0
     57199 TIP3     11585    TIP3     OH2      OT      -0.834000       15.9994           0
     57200 TIP3     11585    TIP3     H1       HT       0.417000       1.00800           0
     57201 TIP3     11585    TIP3     H2       HT       0.417000       1.00800           0
     57202 TIP3     11586    TIP3     OH2      OT      -0.834000       15.9994           0
     57203 TIP3     11586    TIP3     H1       HT       0.417000       1.00800           0
     57204 TIP3     11586    TIP3     H2       HT       0.417000       1.00800           0
     57205 TIP3     11587    TIP3     OH2      OT      -0.834000       15.9994           0
     57206 TIP3     11587    TIP3     H1       HT       0.417000       1.00800           0
     57207 TIP3     11587    TIP3     H2       HT       0.417000       1.00800           0
     57208 TIP3     11588    TIP3     OH2      OT      -0.834000       15.9994           0
     57209 TIP3     11588    TIP3     H1       HT       0.417000       1.00800           0
     57210 TIP3     11588    TIP3     H2       HT       0.417000       1.00800           0
     57211 TIP3     11589    TIP3     OH2      OT      -0.834000       15.9994           0
     57212 TIP3     11589    TIP3     H1       HT       0.417000       1.00800           0
     57213 TIP3     11589    TIP3     H2       HT       0.417000       1.00800           0
     57214 TIP3     11590    TIP3     OH2      OT      -0.834000       15.9994           0
     57215 TIP3     11590    TIP3     H1       HT       0.417000       1.00800           0
     57216 TIP3     11590    TIP3     H2       HT       0.417000       1.00800           0
     57217 TIP3     11591    TIP3     OH2      OT      -0.834000       15.9994           0
     57218 TIP3     11591    TIP3     H1       HT       0.417000       1.00800           0
     57219 TIP3     11591    TIP3     H2       HT       0.417000       1.00800           0
     57220 TIP3     11592    TIP3     OH2      OT      -0.834000       15.9994           0
     57221 TIP3     11592    TIP3     H1       HT       0.417000       1.00800           0
     57222 TIP3     11592    TIP3     H2       HT       0.417000       1.00800           0
     57223 TIP3     11593    TIP3     OH2      OT      -0.834000       15.9994           0
     57224 TIP3     11593    TIP3     H1       HT       0.417000       1.00800           0
     57225 TIP3     11593    TIP3     H2       HT       0.417000       1.00800           0
     57226 TIP3     11594    TIP3     OH2      OT      -0.834000       15.9994           0
     57227 TIP3     11594    TIP3     H1       HT       0.417000       1.00800           0
     57228 TIP3     11594    TIP3     H2       HT       0.417000       1.00800           0
     57229 TIP3     11595    TIP3     OH2      OT      -0.834000       15.9994           0
     57230 TIP3     11595    TIP3     H1       HT       0.417000       1.00800           0
     57231 TIP3     11595    TIP3     H2       HT       0.417000       1.00800           0
     57232 TIP3     11596    TIP3     OH2      OT      -0.834000       15.9994           0
     57233 TIP3     11596    TIP3     H1       HT       0.417000       1.00800           0
     57234 TIP3     11596    TIP3     H2       HT       0.417000       1.00800           0
     57235 TIP3     11597    TIP3     OH2      OT      -0.834000       15.9994           0
     57236 TIP3     11597    TIP3     H1       HT       0.417000       1.00800           0
     57237 TIP3     11597    TIP3     H2       HT       0.417000       1.00800           0
     57238 TIP3     11598    TIP3     OH2      OT      -0.834000       15.9994           0
     57239 TIP3     11598    TIP3     H1       HT       0.417000       1.00800           0
     57240 TIP3     11598    TIP3     H2       HT       0.417000       1.00800           0
     57241 TIP3     11599    TIP3     OH2      OT      -0.834000       15.9994           0
     57242 TIP3     11599    TIP3     H1       HT       0.417000       1.00800           0
     57243 TIP3     11599    TIP3     H2       HT       0.417000       1.00800           0
     57244 TIP3     11600    TIP3     OH2      OT      -0.834000       15.9994           0
     57245 TIP3     11600    TIP3     H1       HT       0.417000       1.00800           0
     57246 TIP3     11600    TIP3     H2       HT       0.417000       1.00800           0
     57247 TIP3     11601    TIP3     OH2      OT      -0.834000       15.9994           0
     57248 TIP3     11601    TIP3     H1       HT       0.417000       1.00800           0
     57249 TIP3     11601    TIP3     H2       HT       0.417000       1.00800           0
     57250 TIP3     11602    TIP3     OH2      OT      -0.834000       15.9994           0
     57251 TIP3     11602    TIP3     H1       HT       0.417000       1.00800           0
     57252 TIP3     11602    TIP3     H2       HT       0.417000       1.00800           0
     57253 TIP3     11603    TIP3     OH2      OT      -0.834000       15.9994           0
     57254 TIP3     11603    TIP3     H1       HT       0.417000       1.00800           0
     57255 TIP3     11603    TIP3     H2       HT       0.417000       1.00800           0
     57256 TIP3     11604    TIP3     OH2      OT      -0.834000       15.9994           0
     57257 TIP3     11604    TIP3     H1       HT       0.417000       1.00800           0
     57258 TIP3     11604    TIP3     H2       HT       0.417000       1.00800           0
     57259 TIP3     11605    TIP3     OH2      OT      -0.834000       15.9994           0
     57260 TIP3     11605    TIP3     H1       HT       0.417000       1.00800           0
     57261 TIP3     11605    TIP3     H2       HT       0.417000       1.00800           0
     57262 TIP3     11606    TIP3     OH2      OT      -0.834000       15.9994           0
     57263 TIP3     11606    TIP3     H1       HT       0.417000       1.00800           0
     57264 TIP3     11606    TIP3     H2       HT       0.417000       1.00800           0
     57265 TIP3     11607    TIP3     OH2      OT      -0.834000       15.9994           0
     57266 TIP3     11607    TIP3     H1       HT       0.417000       1.00800           0
     57267 TIP3     11607    TIP3     H2       HT       0.417000       1.00800           0
     57268 TIP3     11608    TIP3     OH2      OT      -0.834000       15.9994           0
     57269 TIP3     11608    TIP3     H1       HT       0.417000       1.00800           0
     57270 TIP3     11608    TIP3     H2       HT       0.417000       1.00800           0
     57271 TIP3     11609    TIP3     OH2      OT      -0.834000       15.9994           0
     57272 TIP3     11609    TIP3     H1       HT       0.417000       1.00800           0
     57273 TIP3     11609    TIP3     H2       HT       0.417000       1.00800           0
     57274 TIP3     11610    TIP3     OH2      OT      -0.834000       15.9994           0
     57275 TIP3     11610    TIP3     H1       HT       0.417000       1.00800           0
     57276 TIP3     11610    TIP3     H2       HT       0.417000       1.00800           0
     57277 TIP3     11611    TIP3     OH2      OT      -0.834000       15.9994           0
     57278 TIP3     11611    TIP3     H1       HT       0.417000       1.00800           0
     57279 TIP3     11611    TIP3     H2       HT       0.417000       1.00800           0
     57280 TIP3     11612    TIP3     OH2      OT      -0.834000       15.9994           0
     57281 TIP3     11612    TIP3     H1       HT       0.417000       1.00800           0
     57282 TIP3     11612    TIP3     H2       HT       0.417000       1.00800           0
     57283 TIP3     11613    TIP3     OH2      OT      -0.834000       15.9994           0
     57284 TIP3     11613    TIP3     H1       HT       0.417000       1.00800           0
     57285 TIP3     11613    TIP3     H2       HT       0.417000       1.00800           0
     57286 TIP3     11614    TIP3     OH2      OT      -0.834000       15.9994           0
     57287 TIP3     11614    TIP3     H1       HT       0.417000       1.00800           0
     57288 TIP3     11614    TIP3     H2       HT       0.417000       1.00800           0
     57289 TIP3     11615    TIP3     OH2      OT      -0.834000       15.9994           0
     57290 TIP3     11615    TIP3     H1       HT       0.417000       1.00800           0
     57291 TIP3     11615    TIP3     H2       HT       0.417000       1.00800           0
     57292 TIP3     11616    TIP3     OH2      OT      -0.834000       15.9994           0
     57293 TIP3     11616    TIP3     H1       HT       0.417000       1.00800           0
     57294 TIP3     11616    TIP3     H2       HT       0.417000       1.00800           0
     57295 TIP3     11617    TIP3     OH2      OT      -0.834000       15.9994           0
     57296 TIP3     11617    TIP3     H1       HT       0.417000       1.00800           0
     57297 TIP3     11617    TIP3     H2       HT       0.417000       1.00800           0
     57298 TIP3     11618    TIP3     OH2      OT      -0.834000       15.9994           0
     57299 TIP3     11618    TIP3     H1       HT       0.417000       1.00800           0
     57300 TIP3     11618    TIP3     H2       HT       0.417000       1.00800           0
     57301 TIP3     11619    TIP3     OH2      OT      -0.834000       15.9994           0
     57302 TIP3     11619    TIP3     H1       HT       0.417000       1.00800           0
     57303 TIP3     11619    TIP3     H2       HT       0.417000       1.00800           0
     57304 TIP3     11620    TIP3     OH2      OT      -0.834000       15.9994           0
     57305 TIP3     11620    TIP3     H1       HT       0.417000       1.00800           0
     57306 TIP3     11620    TIP3     H2       HT       0.417000       1.00800           0
     57307 TIP3     11621    TIP3     OH2      OT      -0.834000       15.9994           0
     57308 TIP3     11621    TIP3     H1       HT       0.417000       1.00800           0
     57309 TIP3     11621    TIP3     H2       HT       0.417000       1.00800           0
     57310 TIP3     11622    TIP3     OH2      OT      -0.834000       15.9994           0
     57311 TIP3     11622    TIP3     H1       HT       0.417000       1.00800           0
     57312 TIP3     11622    TIP3     H2       HT       0.417000       1.00800           0
     57313 TIP3     11623    TIP3     OH2      OT      -0.834000       15.9994           0
     57314 TIP3     11623    TIP3     H1       HT       0.417000       1.00800           0
     57315 TIP3     11623    TIP3     H2       HT       0.417000       1.00800           0
     57316 TIP3     11624    TIP3     OH2      OT      -0.834000       15.9994           0
     57317 TIP3     11624    TIP3     H1       HT       0.417000       1.00800           0
     57318 TIP3     11624    TIP3     H2       HT       0.417000       1.00800           0
     57319 TIP3     11625    TIP3     OH2      OT      -0.834000       15.9994           0
     57320 TIP3     11625    TIP3     H1       HT       0.417000       1.00800           0
     57321 TIP3     11625    TIP3     H2       HT       0.417000       1.00800           0
     57322 TIP3     11626    TIP3     OH2      OT      -0.834000       15.9994           0
     57323 TIP3     11626    TIP3     H1       HT       0.417000       1.00800           0
     57324 TIP3     11626    TIP3     H2       HT       0.417000       1.00800           0
     57325 TIP3     11627    TIP3     OH2      OT      -0.834000       15.9994           0
     57326 TIP3     11627    TIP3     H1       HT       0.417000       1.00800           0
     57327 TIP3     11627    TIP3     H2       HT       0.417000       1.00800           0
     57328 TIP3     11628    TIP3     OH2      OT      -0.834000       15.9994           0
     57329 TIP3     11628    TIP3     H1       HT       0.417000       1.00800           0
     57330 TIP3     11628    TIP3     H2       HT       0.417000       1.00800           0
     57331 TIP3     11629    TIP3     OH2      OT      -0.834000       15.9994           0
     57332 TIP3     11629    TIP3     H1       HT       0.417000       1.00800           0
     57333 TIP3     11629    TIP3     H2       HT       0.417000       1.00800           0
     57334 TIP3     11630    TIP3     OH2      OT      -0.834000       15.9994           0
     57335 TIP3     11630    TIP3     H1       HT       0.417000       1.00800           0
     57336 TIP3     11630    TIP3     H2       HT       0.417000       1.00800           0
     57337 TIP3     11631    TIP3     OH2      OT      -0.834000       15.9994           0
     57338 TIP3     11631    TIP3     H1       HT       0.417000       1.00800           0
     57339 TIP3     11631    TIP3     H2       HT       0.417000       1.00800           0
     57340 TIP3     11632    TIP3     OH2      OT      -0.834000       15.9994           0
     57341 TIP3     11632    TIP3     H1       HT       0.417000       1.00800           0
     57342 TIP3     11632    TIP3     H2       HT       0.417000       1.00800           0
     57343 TIP3     11633    TIP3     OH2      OT      -0.834000       15.9994           0
     57344 TIP3     11633    TIP3     H1       HT       0.417000       1.00800           0
     57345 TIP3     11633    TIP3     H2       HT       0.417000       1.00800           0
     57346 TIP3     11634    TIP3     OH2      OT      -0.834000       15.9994           0
     57347 TIP3     11634    TIP3     H1       HT       0.417000       1.00800           0
     57348 TIP3     11634    TIP3     H2       HT       0.417000       1.00800           0
     57349 TIP3     11635    TIP3     OH2      OT      -0.834000       15.9994           0
     57350 TIP3     11635    TIP3     H1       HT       0.417000       1.00800           0
     57351 TIP3     11635    TIP3     H2       HT       0.417000       1.00800           0
     57352 TIP3     11636    TIP3     OH2      OT      -0.834000       15.9994           0
     57353 TIP3     11636    TIP3     H1       HT       0.417000       1.00800           0
     57354 TIP3     11636    TIP3     H2       HT       0.417000       1.00800           0
     57355 TIP3     11637    TIP3     OH2      OT      -0.834000       15.9994           0
     57356 TIP3     11637    TIP3     H1       HT       0.417000       1.00800           0
     57357 TIP3     11637    TIP3     H2       HT       0.417000       1.00800           0
     57358 TIP3     11638    TIP3     OH2      OT      -0.834000       15.9994           0
     57359 TIP3     11638    TIP3     H1       HT       0.417000       1.00800           0
     57360 TIP3     11638    TIP3     H2       HT       0.417000       1.00800           0
     57361 TIP3     11639    TIP3     OH2      OT      -0.834000       15.9994           0
     57362 TIP3     11639    TIP3     H1       HT       0.417000       1.00800           0
     57363 TIP3     11639    TIP3     H2       HT       0.417000       1.00800           0
     57364 TIP3     11640    TIP3     OH2      OT      -0.834000       15.9994           0
     57365 TIP3     11640    TIP3     H1       HT       0.417000       1.00800           0
     57366 TIP3     11640    TIP3     H2       HT       0.417000       1.00800           0
     57367 TIP3     11641    TIP3     OH2      OT      -0.834000       15.9994           0
     57368 TIP3     11641    TIP3     H1       HT       0.417000       1.00800           0
     57369 TIP3     11641    TIP3     H2       HT       0.417000       1.00800           0
     57370 TIP3     11642    TIP3     OH2      OT      -0.834000       15.9994           0
     57371 TIP3     11642    TIP3     H1       HT       0.417000       1.00800           0
     57372 TIP3     11642    TIP3     H2       HT       0.417000       1.00800           0
     57373 TIP3     11643    TIP3     OH2      OT      -0.834000       15.9994           0
     57374 TIP3     11643    TIP3     H1       HT       0.417000       1.00800           0
     57375 TIP3     11643    TIP3     H2       HT       0.417000       1.00800           0
     57376 TIP3     11644    TIP3     OH2      OT      -0.834000       15.9994           0
     57377 TIP3     11644    TIP3     H1       HT       0.417000       1.00800           0
     57378 TIP3     11644    TIP3     H2       HT       0.417000       1.00800           0
     57379 TIP3     11645    TIP3     OH2      OT      -0.834000       15.9994           0
     57380 TIP3     11645    TIP3     H1       HT       0.417000       1.00800           0
     57381 TIP3     11645    TIP3     H2       HT       0.417000       1.00800           0
     57382 TIP3     11646    TIP3     OH2      OT      -0.834000       15.9994           0
     57383 TIP3     11646    TIP3     H1       HT       0.417000       1.00800           0
     57384 TIP3     11646    TIP3     H2       HT       0.417000       1.00800           0
     57385 TIP3     11647    TIP3     OH2      OT      -0.834000       15.9994           0
     57386 TIP3     11647    TIP3     H1       HT       0.417000       1.00800           0
     57387 TIP3     11647    TIP3     H2       HT       0.417000       1.00800           0
     57388 TIP3     11648    TIP3     OH2      OT      -0.834000       15.9994           0
     57389 TIP3     11648    TIP3     H1       HT       0.417000       1.00800           0
     57390 TIP3     11648    TIP3     H2       HT       0.417000       1.00800           0
     57391 TIP3     11649    TIP3     OH2      OT      -0.834000       15.9994           0
     57392 TIP3     11649    TIP3     H1       HT       0.417000       1.00800           0
     57393 TIP3     11649    TIP3     H2       HT       0.417000       1.00800           0
     57394 TIP3     11650    TIP3     OH2      OT      -0.834000       15.9994           0
     57395 TIP3     11650    TIP3     H1       HT       0.417000       1.00800           0
     57396 TIP3     11650    TIP3     H2       HT       0.417000       1.00800           0
     57397 TIP3     11651    TIP3     OH2      OT      -0.834000       15.9994           0
     57398 TIP3     11651    TIP3     H1       HT       0.417000       1.00800           0
     57399 TIP3     11651    TIP3     H2       HT       0.417000       1.00800           0
     57400 TIP3     11652    TIP3     OH2      OT      -0.834000       15.9994           0
     57401 TIP3     11652    TIP3     H1       HT       0.417000       1.00800           0
     57402 TIP3     11652    TIP3     H2       HT       0.417000       1.00800           0
     57403 TIP3     11653    TIP3     OH2      OT      -0.834000       15.9994           0
     57404 TIP3     11653    TIP3     H1       HT       0.417000       1.00800           0
     57405 TIP3     11653    TIP3     H2       HT       0.417000       1.00800           0
     57406 TIP3     11654    TIP3     OH2      OT      -0.834000       15.9994           0
     57407 TIP3     11654    TIP3     H1       HT       0.417000       1.00800           0
     57408 TIP3     11654    TIP3     H2       HT       0.417000       1.00800           0
     57409 TIP3     11655    TIP3     OH2      OT      -0.834000       15.9994           0
     57410 TIP3     11655    TIP3     H1       HT       0.417000       1.00800           0
     57411 TIP3     11655    TIP3     H2       HT       0.417000       1.00800           0
     57412 TIP3     11656    TIP3     OH2      OT      -0.834000       15.9994           0
     57413 TIP3     11656    TIP3     H1       HT       0.417000       1.00800           0
     57414 TIP3     11656    TIP3     H2       HT       0.417000       1.00800           0
     57415 TIP3     11657    TIP3     OH2      OT      -0.834000       15.9994           0
     57416 TIP3     11657    TIP3     H1       HT       0.417000       1.00800           0
     57417 TIP3     11657    TIP3     H2       HT       0.417000       1.00800           0
     57418 TIP3     11658    TIP3     OH2      OT      -0.834000       15.9994           0
     57419 TIP3     11658    TIP3     H1       HT       0.417000       1.00800           0
     57420 TIP3     11658    TIP3     H2       HT       0.417000       1.00800           0
     57421 TIP3     11659    TIP3     OH2      OT      -0.834000       15.9994           0
     57422 TIP3     11659    TIP3     H1       HT       0.417000       1.00800           0
     57423 TIP3     11659    TIP3     H2       HT       0.417000       1.00800           0
     57424 TIP3     11660    TIP3     OH2      OT      -0.834000       15.9994           0
     57425 TIP3     11660    TIP3     H1       HT       0.417000       1.00800           0
     57426 TIP3     11660    TIP3     H2       HT       0.417000       1.00800           0
     57427 TIP3     11661    TIP3     OH2      OT      -0.834000       15.9994           0
     57428 TIP3     11661    TIP3     H1       HT       0.417000       1.00800           0
     57429 TIP3     11661    TIP3     H2       HT       0.417000       1.00800           0
     57430 TIP3     11662    TIP3     OH2      OT      -0.834000       15.9994           0
     57431 TIP3     11662    TIP3     H1       HT       0.417000       1.00800           0
     57432 TIP3     11662    TIP3     H2       HT       0.417000       1.00800           0
     57433 TIP3     11663    TIP3     OH2      OT      -0.834000       15.9994           0
     57434 TIP3     11663    TIP3     H1       HT       0.417000       1.00800           0
     57435 TIP3     11663    TIP3     H2       HT       0.417000       1.00800           0
     57436 TIP3     11664    TIP3     OH2      OT      -0.834000       15.9994           0
     57437 TIP3     11664    TIP3     H1       HT       0.417000       1.00800           0
     57438 TIP3     11664    TIP3     H2       HT       0.417000       1.00800           0
     57439 TIP3     11665    TIP3     OH2      OT      -0.834000       15.9994           0
     57440 TIP3     11665    TIP3     H1       HT       0.417000       1.00800           0
     57441 TIP3     11665    TIP3     H2       HT       0.417000       1.00800           0
     57442 TIP3     11666    TIP3     OH2      OT      -0.834000       15.9994           0
     57443 TIP3     11666    TIP3     H1       HT       0.417000       1.00800           0
     57444 TIP3     11666    TIP3     H2       HT       0.417000       1.00800           0
     57445 TIP3     11667    TIP3     OH2      OT      -0.834000       15.9994           0
     57446 TIP3     11667    TIP3     H1       HT       0.417000       1.00800           0
     57447 TIP3     11667    TIP3     H2       HT       0.417000       1.00800           0
     57448 TIP3     11668    TIP3     OH2      OT      -0.834000       15.9994           0
     57449 TIP3     11668    TIP3     H1       HT       0.417000       1.00800           0
     57450 TIP3     11668    TIP3     H2       HT       0.417000       1.00800           0
     57451 TIP3     11669    TIP3     OH2      OT      -0.834000       15.9994           0
     57452 TIP3     11669    TIP3     H1       HT       0.417000       1.00800           0
     57453 TIP3     11669    TIP3     H2       HT       0.417000       1.00800           0
     57454 TIP3     11670    TIP3     OH2      OT      -0.834000       15.9994           0
     57455 TIP3     11670    TIP3     H1       HT       0.417000       1.00800           0
     57456 TIP3     11670    TIP3     H2       HT       0.417000       1.00800           0
     57457 TIP3     11671    TIP3     OH2      OT      -0.834000       15.9994           0
     57458 TIP3     11671    TIP3     H1       HT       0.417000       1.00800           0
     57459 TIP3     11671    TIP3     H2       HT       0.417000       1.00800           0
     57460 TIP3     11672    TIP3     OH2      OT      -0.834000       15.9994           0
     57461 TIP3     11672    TIP3     H1       HT       0.417000       1.00800           0
     57462 TIP3     11672    TIP3     H2       HT       0.417000       1.00800           0
     57463 TIP3     11673    TIP3     OH2      OT      -0.834000       15.9994           0
     57464 TIP3     11673    TIP3     H1       HT       0.417000       1.00800           0
     57465 TIP3     11673    TIP3     H2       HT       0.417000       1.00800           0
     57466 TIP3     11674    TIP3     OH2      OT      -0.834000       15.9994           0
     57467 TIP3     11674    TIP3     H1       HT       0.417000       1.00800           0
     57468 TIP3     11674    TIP3     H2       HT       0.417000       1.00800           0
     57469 TIP3     11675    TIP3     OH2      OT      -0.834000       15.9994           0
     57470 TIP3     11675    TIP3     H1       HT       0.417000       1.00800           0
     57471 TIP3     11675    TIP3     H2       HT       0.417000       1.00800           0
     57472 TIP3     11676    TIP3     OH2      OT      -0.834000       15.9994           0
     57473 TIP3     11676    TIP3     H1       HT       0.417000       1.00800           0
     57474 TIP3     11676    TIP3     H2       HT       0.417000       1.00800           0
     57475 TIP3     11677    TIP3     OH2      OT      -0.834000       15.9994           0
     57476 TIP3     11677    TIP3     H1       HT       0.417000       1.00800           0
     57477 TIP3     11677    TIP3     H2       HT       0.417000       1.00800           0
     57478 TIP3     11678    TIP3     OH2      OT      -0.834000       15.9994           0
     57479 TIP3     11678    TIP3     H1       HT       0.417000       1.00800           0
     57480 TIP3     11678    TIP3     H2       HT       0.417000       1.00800           0
     57481 TIP3     11679    TIP3     OH2      OT      -0.834000       15.9994           0
     57482 TIP3     11679    TIP3     H1       HT       0.417000       1.00800           0
     57483 TIP3     11679    TIP3     H2       HT       0.417000       1.00800           0
     57484 TIP3     11680    TIP3     OH2      OT      -0.834000       15.9994           0
     57485 TIP3     11680    TIP3     H1       HT       0.417000       1.00800           0
     57486 TIP3     11680    TIP3     H2       HT       0.417000       1.00800           0
     57487 TIP3     11681    TIP3     OH2      OT      -0.834000       15.9994           0
     57488 TIP3     11681    TIP3     H1       HT       0.417000       1.00800           0
     57489 TIP3     11681    TIP3     H2       HT       0.417000       1.00800           0
     57490 TIP3     11682    TIP3     OH2      OT      -0.834000       15.9994           0
     57491 TIP3     11682    TIP3     H1       HT       0.417000       1.00800           0
     57492 TIP3     11682    TIP3     H2       HT       0.417000       1.00800           0
     57493 TIP3     11683    TIP3     OH2      OT      -0.834000       15.9994           0
     57494 TIP3     11683    TIP3     H1       HT       0.417000       1.00800           0
     57495 TIP3     11683    TIP3     H2       HT       0.417000       1.00800           0
     57496 TIP3     11684    TIP3     OH2      OT      -0.834000       15.9994           0
     57497 TIP3     11684    TIP3     H1       HT       0.417000       1.00800           0
     57498 TIP3     11684    TIP3     H2       HT       0.417000       1.00800           0
     57499 TIP3     11685    TIP3     OH2      OT      -0.834000       15.9994           0
     57500 TIP3     11685    TIP3     H1       HT       0.417000       1.00800           0
     57501 TIP3     11685    TIP3     H2       HT       0.417000       1.00800           0
     57502 TIP3     11686    TIP3     OH2      OT      -0.834000       15.9994           0
     57503 TIP3     11686    TIP3     H1       HT       0.417000       1.00800           0
     57504 TIP3     11686    TIP3     H2       HT       0.417000       1.00800           0
     57505 TIP3     11687    TIP3     OH2      OT      -0.834000       15.9994           0
     57506 TIP3     11687    TIP3     H1       HT       0.417000       1.00800           0
     57507 TIP3     11687    TIP3     H2       HT       0.417000       1.00800           0
     57508 TIP3     11688    TIP3     OH2      OT      -0.834000       15.9994           0
     57509 TIP3     11688    TIP3     H1       HT       0.417000       1.00800           0
     57510 TIP3     11688    TIP3     H2       HT       0.417000       1.00800           0
     57511 TIP3     11689    TIP3     OH2      OT      -0.834000       15.9994           0
     57512 TIP3     11689    TIP3     H1       HT       0.417000       1.00800           0
     57513 TIP3     11689    TIP3     H2       HT       0.417000       1.00800           0
     57514 TIP3     11690    TIP3     OH2      OT      -0.834000       15.9994           0
     57515 TIP3     11690    TIP3     H1       HT       0.417000       1.00800           0
     57516 TIP3     11690    TIP3     H2       HT       0.417000       1.00800           0
     57517 TIP3     11691    TIP3     OH2      OT      -0.834000       15.9994           0
     57518 TIP3     11691    TIP3     H1       HT       0.417000       1.00800           0
     57519 TIP3     11691    TIP3     H2       HT       0.417000       1.00800           0
     57520 TIP3     11692    TIP3     OH2      OT      -0.834000       15.9994           0
     57521 TIP3     11692    TIP3     H1       HT       0.417000       1.00800           0
     57522 TIP3     11692    TIP3     H2       HT       0.417000       1.00800           0
     57523 TIP3     11693    TIP3     OH2      OT      -0.834000       15.9994           0
     57524 TIP3     11693    TIP3     H1       HT       0.417000       1.00800           0
     57525 TIP3     11693    TIP3     H2       HT       0.417000       1.00800           0
     57526 TIP3     11694    TIP3     OH2      OT      -0.834000       15.9994           0
     57527 TIP3     11694    TIP3     H1       HT       0.417000       1.00800           0
     57528 TIP3     11694    TIP3     H2       HT       0.417000       1.00800           0
     57529 TIP3     11695    TIP3     OH2      OT      -0.834000       15.9994           0
     57530 TIP3     11695    TIP3     H1       HT       0.417000       1.00800           0
     57531 TIP3     11695    TIP3     H2       HT       0.417000       1.00800           0
     57532 TIP3     11696    TIP3     OH2      OT      -0.834000       15.9994           0
     57533 TIP3     11696    TIP3     H1       HT       0.417000       1.00800           0
     57534 TIP3     11696    TIP3     H2       HT       0.417000       1.00800           0
     57535 TIP3     11697    TIP3     OH2      OT      -0.834000       15.9994           0
     57536 TIP3     11697    TIP3     H1       HT       0.417000       1.00800           0
     57537 TIP3     11697    TIP3     H2       HT       0.417000       1.00800           0
     57538 TIP3     11698    TIP3     OH2      OT      -0.834000       15.9994           0
     57539 TIP3     11698    TIP3     H1       HT       0.417000       1.00800           0
     57540 TIP3     11698    TIP3     H2       HT       0.417000       1.00800           0
     57541 TIP3     11699    TIP3     OH2      OT      -0.834000       15.9994           0
     57542 TIP3     11699    TIP3     H1       HT       0.417000       1.00800           0
     57543 TIP3     11699    TIP3     H2       HT       0.417000       1.00800           0
     57544 TIP3     11700    TIP3     OH2      OT      -0.834000       15.9994           0
     57545 TIP3     11700    TIP3     H1       HT       0.417000       1.00800           0
     57546 TIP3     11700    TIP3     H2       HT       0.417000       1.00800           0
     57547 TIP3     11701    TIP3     OH2      OT      -0.834000       15.9994           0
     57548 TIP3     11701    TIP3     H1       HT       0.417000       1.00800           0
     57549 TIP3     11701    TIP3     H2       HT       0.417000       1.00800           0
     57550 TIP3     11702    TIP3     OH2      OT      -0.834000       15.9994           0
     57551 TIP3     11702    TIP3     H1       HT       0.417000       1.00800           0
     57552 TIP3     11702    TIP3     H2       HT       0.417000       1.00800           0
     57553 TIP3     11703    TIP3     OH2      OT      -0.834000       15.9994           0
     57554 TIP3     11703    TIP3     H1       HT       0.417000       1.00800           0
     57555 TIP3     11703    TIP3     H2       HT       0.417000       1.00800           0
     57556 TIP3     11704    TIP3     OH2      OT      -0.834000       15.9994           0
     57557 TIP3     11704    TIP3     H1       HT       0.417000       1.00800           0
     57558 TIP3     11704    TIP3     H2       HT       0.417000       1.00800           0
     57559 TIP3     11705    TIP3     OH2      OT      -0.834000       15.9994           0
     57560 TIP3     11705    TIP3     H1       HT       0.417000       1.00800           0
     57561 TIP3     11705    TIP3     H2       HT       0.417000       1.00800           0
     57562 TIP3     11706    TIP3     OH2      OT      -0.834000       15.9994           0
     57563 TIP3     11706    TIP3     H1       HT       0.417000       1.00800           0
     57564 TIP3     11706    TIP3     H2       HT       0.417000       1.00800           0
     57565 TIP3     11707    TIP3     OH2      OT      -0.834000       15.9994           0
     57566 TIP3     11707    TIP3     H1       HT       0.417000       1.00800           0
     57567 TIP3     11707    TIP3     H2       HT       0.417000       1.00800           0
     57568 TIP3     11708    TIP3     OH2      OT      -0.834000       15.9994           0
     57569 TIP3     11708    TIP3     H1       HT       0.417000       1.00800           0
     57570 TIP3     11708    TIP3     H2       HT       0.417000       1.00800           0
     57571 TIP3     11709    TIP3     OH2      OT      -0.834000       15.9994           0
     57572 TIP3     11709    TIP3     H1       HT       0.417000       1.00800           0
     57573 TIP3     11709    TIP3     H2       HT       0.417000       1.00800           0
     57574 TIP3     11710    TIP3     OH2      OT      -0.834000       15.9994           0
     57575 TIP3     11710    TIP3     H1       HT       0.417000       1.00800           0
     57576 TIP3     11710    TIP3     H2       HT       0.417000       1.00800           0
     57577 TIP3     11711    TIP3     OH2      OT      -0.834000       15.9994           0
     57578 TIP3     11711    TIP3     H1       HT       0.417000       1.00800           0
     57579 TIP3     11711    TIP3     H2       HT       0.417000       1.00800           0
     57580 TIP3     11712    TIP3     OH2      OT      -0.834000       15.9994           0
     57581 TIP3     11712    TIP3     H1       HT       0.417000       1.00800           0
     57582 TIP3     11712    TIP3     H2       HT       0.417000       1.00800           0
     57583 TIP3     11713    TIP3     OH2      OT      -0.834000       15.9994           0
     57584 TIP3     11713    TIP3     H1       HT       0.417000       1.00800           0
     57585 TIP3     11713    TIP3     H2       HT       0.417000       1.00800           0
     57586 TIP3     11714    TIP3     OH2      OT      -0.834000       15.9994           0
     57587 TIP3     11714    TIP3     H1       HT       0.417000       1.00800           0
     57588 TIP3     11714    TIP3     H2       HT       0.417000       1.00800           0
     57589 TIP3     11715    TIP3     OH2      OT      -0.834000       15.9994           0
     57590 TIP3     11715    TIP3     H1       HT       0.417000       1.00800           0
     57591 TIP3     11715    TIP3     H2       HT       0.417000       1.00800           0
     57592 TIP3     11716    TIP3     OH2      OT      -0.834000       15.9994           0
     57593 TIP3     11716    TIP3     H1       HT       0.417000       1.00800           0
     57594 TIP3     11716    TIP3     H2       HT       0.417000       1.00800           0
     57595 TIP3     11717    TIP3     OH2      OT      -0.834000       15.9994           0
     57596 TIP3     11717    TIP3     H1       HT       0.417000       1.00800           0
     57597 TIP3     11717    TIP3     H2       HT       0.417000       1.00800           0
     57598 TIP3     11718    TIP3     OH2      OT      -0.834000       15.9994           0
     57599 TIP3     11718    TIP3     H1       HT       0.417000       1.00800           0
     57600 TIP3     11718    TIP3     H2       HT       0.417000       1.00800           0
     57601 TIP3     11719    TIP3     OH2      OT      -0.834000       15.9994           0
     57602 TIP3     11719    TIP3     H1       HT       0.417000       1.00800           0
     57603 TIP3     11719    TIP3     H2       HT       0.417000       1.00800           0
     57604 TIP3     11720    TIP3     OH2      OT      -0.834000       15.9994           0
     57605 TIP3     11720    TIP3     H1       HT       0.417000       1.00800           0
     57606 TIP3     11720    TIP3     H2       HT       0.417000       1.00800           0
     57607 TIP3     11721    TIP3     OH2      OT      -0.834000       15.9994           0
     57608 TIP3     11721    TIP3     H1       HT       0.417000       1.00800           0
     57609 TIP3     11721    TIP3     H2       HT       0.417000       1.00800           0
     57610 TIP3     11722    TIP3     OH2      OT      -0.834000       15.9994           0
     57611 TIP3     11722    TIP3     H1       HT       0.417000       1.00800           0
     57612 TIP3     11722    TIP3     H2       HT       0.417000       1.00800           0
     57613 TIP3     11723    TIP3     OH2      OT      -0.834000       15.9994           0
     57614 TIP3     11723    TIP3     H1       HT       0.417000       1.00800           0
     57615 TIP3     11723    TIP3     H2       HT       0.417000       1.00800           0
     57616 TIP3     11724    TIP3     OH2      OT      -0.834000       15.9994           0
     57617 TIP3     11724    TIP3     H1       HT       0.417000       1.00800           0
     57618 TIP3     11724    TIP3     H2       HT       0.417000       1.00800           0
     57619 TIP3     11725    TIP3     OH2      OT      -0.834000       15.9994           0
     57620 TIP3     11725    TIP3     H1       HT       0.417000       1.00800           0
     57621 TIP3     11725    TIP3     H2       HT       0.417000       1.00800           0
     57622 TIP3     11726    TIP3     OH2      OT      -0.834000       15.9994           0
     57623 TIP3     11726    TIP3     H1       HT       0.417000       1.00800           0
     57624 TIP3     11726    TIP3     H2       HT       0.417000       1.00800           0
     57625 TIP3     11727    TIP3     OH2      OT      -0.834000       15.9994           0
     57626 TIP3     11727    TIP3     H1       HT       0.417000       1.00800           0
     57627 TIP3     11727    TIP3     H2       HT       0.417000       1.00800           0
     57628 TIP3     11728    TIP3     OH2      OT      -0.834000       15.9994           0
     57629 TIP3     11728    TIP3     H1       HT       0.417000       1.00800           0
     57630 TIP3     11728    TIP3     H2       HT       0.417000       1.00800           0
     57631 TIP3     11729    TIP3     OH2      OT      -0.834000       15.9994           0
     57632 TIP3     11729    TIP3     H1       HT       0.417000       1.00800           0
     57633 TIP3     11729    TIP3     H2       HT       0.417000       1.00800           0
     57634 TIP3     11730    TIP3     OH2      OT      -0.834000       15.9994           0
     57635 TIP3     11730    TIP3     H1       HT       0.417000       1.00800           0
     57636 TIP3     11730    TIP3     H2       HT       0.417000       1.00800           0
     57637 TIP3     11731    TIP3     OH2      OT      -0.834000       15.9994           0
     57638 TIP3     11731    TIP3     H1       HT       0.417000       1.00800           0
     57639 TIP3     11731    TIP3     H2       HT       0.417000       1.00800           0
     57640 TIP3     11732    TIP3     OH2      OT      -0.834000       15.9994           0
     57641 TIP3     11732    TIP3     H1       HT       0.417000       1.00800           0
     57642 TIP3     11732    TIP3     H2       HT       0.417000       1.00800           0
     57643 TIP3     11733    TIP3     OH2      OT      -0.834000       15.9994           0
     57644 TIP3     11733    TIP3     H1       HT       0.417000       1.00800           0
     57645 TIP3     11733    TIP3     H2       HT       0.417000       1.00800           0
     57646 TIP3     11734    TIP3     OH2      OT      -0.834000       15.9994           0
     57647 TIP3     11734    TIP3     H1       HT       0.417000       1.00800           0
     57648 TIP3     11734    TIP3     H2       HT       0.417000       1.00800           0
     57649 TIP3     11735    TIP3     OH2      OT      -0.834000       15.9994           0
     57650 TIP3     11735    TIP3     H1       HT       0.417000       1.00800           0
     57651 TIP3     11735    TIP3     H2       HT       0.417000       1.00800           0
     57652 TIP3     11736    TIP3     OH2      OT      -0.834000       15.9994           0
     57653 TIP3     11736    TIP3     H1       HT       0.417000       1.00800           0
     57654 TIP3     11736    TIP3     H2       HT       0.417000       1.00800           0
     57655 TIP3     11737    TIP3     OH2      OT      -0.834000       15.9994           0
     57656 TIP3     11737    TIP3     H1       HT       0.417000       1.00800           0
     57657 TIP3     11737    TIP3     H2       HT       0.417000       1.00800           0
     57658 TIP3     11738    TIP3     OH2      OT      -0.834000       15.9994           0
     57659 TIP3     11738    TIP3     H1       HT       0.417000       1.00800           0
     57660 TIP3     11738    TIP3     H2       HT       0.417000       1.00800           0
     57661 TIP3     11739    TIP3     OH2      OT      -0.834000       15.9994           0
     57662 TIP3     11739    TIP3     H1       HT       0.417000       1.00800           0
     57663 TIP3     11739    TIP3     H2       HT       0.417000       1.00800           0
     57664 TIP3     11740    TIP3     OH2      OT      -0.834000       15.9994           0
     57665 TIP3     11740    TIP3     H1       HT       0.417000       1.00800           0
     57666 TIP3     11740    TIP3     H2       HT       0.417000       1.00800           0
     57667 TIP3     11741    TIP3     OH2      OT      -0.834000       15.9994           0
     57668 TIP3     11741    TIP3     H1       HT       0.417000       1.00800           0
     57669 TIP3     11741    TIP3     H2       HT       0.417000       1.00800           0
     57670 TIP3     11742    TIP3     OH2      OT      -0.834000       15.9994           0
     57671 TIP3     11742    TIP3     H1       HT       0.417000       1.00800           0
     57672 TIP3     11742    TIP3     H2       HT       0.417000       1.00800           0
     57673 TIP3     11743    TIP3     OH2      OT      -0.834000       15.9994           0
     57674 TIP3     11743    TIP3     H1       HT       0.417000       1.00800           0
     57675 TIP3     11743    TIP3     H2       HT       0.417000       1.00800           0
     57676 TIP3     11744    TIP3     OH2      OT      -0.834000       15.9994           0
     57677 TIP3     11744    TIP3     H1       HT       0.417000       1.00800           0
     57678 TIP3     11744    TIP3     H2       HT       0.417000       1.00800           0
     57679 TIP3     11745    TIP3     OH2      OT      -0.834000       15.9994           0
     57680 TIP3     11745    TIP3     H1       HT       0.417000       1.00800           0
     57681 TIP3     11745    TIP3     H2       HT       0.417000       1.00800           0
     57682 TIP3     11746    TIP3     OH2      OT      -0.834000       15.9994           0
     57683 TIP3     11746    TIP3     H1       HT       0.417000       1.00800           0
     57684 TIP3     11746    TIP3     H2       HT       0.417000       1.00800           0
     57685 TIP3     11747    TIP3     OH2      OT      -0.834000       15.9994           0
     57686 TIP3     11747    TIP3     H1       HT       0.417000       1.00800           0
     57687 TIP3     11747    TIP3     H2       HT       0.417000       1.00800           0
     57688 TIP3     11748    TIP3     OH2      OT      -0.834000       15.9994           0
     57689 TIP3     11748    TIP3     H1       HT       0.417000       1.00800           0
     57690 TIP3     11748    TIP3     H2       HT       0.417000       1.00800           0
     57691 TIP3     11749    TIP3     OH2      OT      -0.834000       15.9994           0
     57692 TIP3     11749    TIP3     H1       HT       0.417000       1.00800           0
     57693 TIP3     11749    TIP3     H2       HT       0.417000       1.00800           0
     57694 TIP3     11750    TIP3     OH2      OT      -0.834000       15.9994           0
     57695 TIP3     11750    TIP3     H1       HT       0.417000       1.00800           0
     57696 TIP3     11750    TIP3     H2       HT       0.417000       1.00800           0
     57697 TIP3     11751    TIP3     OH2      OT      -0.834000       15.9994           0
     57698 TIP3     11751    TIP3     H1       HT       0.417000       1.00800           0
     57699 TIP3     11751    TIP3     H2       HT       0.417000       1.00800           0
     57700 TIP3     11752    TIP3     OH2      OT      -0.834000       15.9994           0
     57701 TIP3     11752    TIP3     H1       HT       0.417000       1.00800           0
     57702 TIP3     11752    TIP3     H2       HT       0.417000       1.00800           0
     57703 TIP3     11753    TIP3     OH2      OT      -0.834000       15.9994           0
     57704 TIP3     11753    TIP3     H1       HT       0.417000       1.00800           0
     57705 TIP3     11753    TIP3     H2       HT       0.417000       1.00800           0
     57706 TIP3     11754    TIP3     OH2      OT      -0.834000       15.9994           0
     57707 TIP3     11754    TIP3     H1       HT       0.417000       1.00800           0
     57708 TIP3     11754    TIP3     H2       HT       0.417000       1.00800           0
     57709 TIP3     11755    TIP3     OH2      OT      -0.834000       15.9994           0
     57710 TIP3     11755    TIP3     H1       HT       0.417000       1.00800           0
     57711 TIP3     11755    TIP3     H2       HT       0.417000       1.00800           0
     57712 TIP3     11756    TIP3     OH2      OT      -0.834000       15.9994           0
     57713 TIP3     11756    TIP3     H1       HT       0.417000       1.00800           0
     57714 TIP3     11756    TIP3     H2       HT       0.417000       1.00800           0
     57715 TIP3     11757    TIP3     OH2      OT      -0.834000       15.9994           0
     57716 TIP3     11757    TIP3     H1       HT       0.417000       1.00800           0
     57717 TIP3     11757    TIP3     H2       HT       0.417000       1.00800           0
     57718 TIP3     11758    TIP3     OH2      OT      -0.834000       15.9994           0
     57719 TIP3     11758    TIP3     H1       HT       0.417000       1.00800           0
     57720 TIP3     11758    TIP3     H2       HT       0.417000       1.00800           0
     57721 TIP3     11759    TIP3     OH2      OT      -0.834000       15.9994           0
     57722 TIP3     11759    TIP3     H1       HT       0.417000       1.00800           0
     57723 TIP3     11759    TIP3     H2       HT       0.417000       1.00800           0
     57724 TIP3     11760    TIP3     OH2      OT      -0.834000       15.9994           0
     57725 TIP3     11760    TIP3     H1       HT       0.417000       1.00800           0
     57726 TIP3     11760    TIP3     H2       HT       0.417000       1.00800           0
     57727 TIP3     11761    TIP3     OH2      OT      -0.834000       15.9994           0
     57728 TIP3     11761    TIP3     H1       HT       0.417000       1.00800           0
     57729 TIP3     11761    TIP3     H2       HT       0.417000       1.00800           0
     57730 TIP3     11762    TIP3     OH2      OT      -0.834000       15.9994           0
     57731 TIP3     11762    TIP3     H1       HT       0.417000       1.00800           0
     57732 TIP3     11762    TIP3     H2       HT       0.417000       1.00800           0
     57733 TIP3     11763    TIP3     OH2      OT      -0.834000       15.9994           0
     57734 TIP3     11763    TIP3     H1       HT       0.417000       1.00800           0
     57735 TIP3     11763    TIP3     H2       HT       0.417000       1.00800           0
     57736 TIP3     11764    TIP3     OH2      OT      -0.834000       15.9994           0
     57737 TIP3     11764    TIP3     H1       HT       0.417000       1.00800           0
     57738 TIP3     11764    TIP3     H2       HT       0.417000       1.00800           0
     57739 TIP3     11765    TIP3     OH2      OT      -0.834000       15.9994           0
     57740 TIP3     11765    TIP3     H1       HT       0.417000       1.00800           0
     57741 TIP3     11765    TIP3     H2       HT       0.417000       1.00800           0
     57742 TIP3     11766    TIP3     OH2      OT      -0.834000       15.9994           0
     57743 TIP3     11766    TIP3     H1       HT       0.417000       1.00800           0
     57744 TIP3     11766    TIP3     H2       HT       0.417000       1.00800           0
     57745 TIP3     11767    TIP3     OH2      OT      -0.834000       15.9994           0
     57746 TIP3     11767    TIP3     H1       HT       0.417000       1.00800           0
     57747 TIP3     11767    TIP3     H2       HT       0.417000       1.00800           0
     57748 TIP3     11768    TIP3     OH2      OT      -0.834000       15.9994           0
     57749 TIP3     11768    TIP3     H1       HT       0.417000       1.00800           0
     57750 TIP3     11768    TIP3     H2       HT       0.417000       1.00800           0
     57751 TIP3     11769    TIP3     OH2      OT      -0.834000       15.9994           0
     57752 TIP3     11769    TIP3     H1       HT       0.417000       1.00800           0
     57753 TIP3     11769    TIP3     H2       HT       0.417000       1.00800           0
     57754 TIP3     11770    TIP3     OH2      OT      -0.834000       15.9994           0
     57755 TIP3     11770    TIP3     H1       HT       0.417000       1.00800           0
     57756 TIP3     11770    TIP3     H2       HT       0.417000       1.00800           0
     57757 TIP3     11771    TIP3     OH2      OT      -0.834000       15.9994           0
     57758 TIP3     11771    TIP3     H1       HT       0.417000       1.00800           0
     57759 TIP3     11771    TIP3     H2       HT       0.417000       1.00800           0
     57760 TIP3     11772    TIP3     OH2      OT      -0.834000       15.9994           0
     57761 TIP3     11772    TIP3     H1       HT       0.417000       1.00800           0
     57762 TIP3     11772    TIP3     H2       HT       0.417000       1.00800           0
     57763 TIP3     11773    TIP3     OH2      OT      -0.834000       15.9994           0
     57764 TIP3     11773    TIP3     H1       HT       0.417000       1.00800           0
     57765 TIP3     11773    TIP3     H2       HT       0.417000       1.00800           0
     57766 TIP3     11774    TIP3     OH2      OT      -0.834000       15.9994           0
     57767 TIP3     11774    TIP3     H1       HT       0.417000       1.00800           0
     57768 TIP3     11774    TIP3     H2       HT       0.417000       1.00800           0
     57769 TIP3     11775    TIP3     OH2      OT      -0.834000       15.9994           0
     57770 TIP3     11775    TIP3     H1       HT       0.417000       1.00800           0
     57771 TIP3     11775    TIP3     H2       HT       0.417000       1.00800           0
     57772 TIP3     11776    TIP3     OH2      OT      -0.834000       15.9994           0
     57773 TIP3     11776    TIP3     H1       HT       0.417000       1.00800           0
     57774 TIP3     11776    TIP3     H2       HT       0.417000       1.00800           0
     57775 TIP3     11777    TIP3     OH2      OT      -0.834000       15.9994           0
     57776 TIP3     11777    TIP3     H1       HT       0.417000       1.00800           0
     57777 TIP3     11777    TIP3     H2       HT       0.417000       1.00800           0
     57778 TIP3     11778    TIP3     OH2      OT      -0.834000       15.9994           0
     57779 TIP3     11778    TIP3     H1       HT       0.417000       1.00800           0
     57780 TIP3     11778    TIP3     H2       HT       0.417000       1.00800           0
     57781 TIP3     11779    TIP3     OH2      OT      -0.834000       15.9994           0
     57782 TIP3     11779    TIP3     H1       HT       0.417000       1.00800           0
     57783 TIP3     11779    TIP3     H2       HT       0.417000       1.00800           0
     57784 TIP3     11780    TIP3     OH2      OT      -0.834000       15.9994           0
     57785 TIP3     11780    TIP3     H1       HT       0.417000       1.00800           0
     57786 TIP3     11780    TIP3     H2       HT       0.417000       1.00800           0
     57787 TIP3     11781    TIP3     OH2      OT      -0.834000       15.9994           0
     57788 TIP3     11781    TIP3     H1       HT       0.417000       1.00800           0
     57789 TIP3     11781    TIP3     H2       HT       0.417000       1.00800           0
     57790 TIP3     11782    TIP3     OH2      OT      -0.834000       15.9994           0
     57791 TIP3     11782    TIP3     H1       HT       0.417000       1.00800           0
     57792 TIP3     11782    TIP3     H2       HT       0.417000       1.00800           0
     57793 TIP3     11783    TIP3     OH2      OT      -0.834000       15.9994           0
     57794 TIP3     11783    TIP3     H1       HT       0.417000       1.00800           0
     57795 TIP3     11783    TIP3     H2       HT       0.417000       1.00800           0
     57796 TIP3     11784    TIP3     OH2      OT      -0.834000       15.9994           0
     57797 TIP3     11784    TIP3     H1       HT       0.417000       1.00800           0
     57798 TIP3     11784    TIP3     H2       HT       0.417000       1.00800           0
     57799 TIP3     11785    TIP3     OH2      OT      -0.834000       15.9994           0
     57800 TIP3     11785    TIP3     H1       HT       0.417000       1.00800           0
     57801 TIP3     11785    TIP3     H2       HT       0.417000       1.00800           0
     57802 TIP3     11786    TIP3     OH2      OT      -0.834000       15.9994           0
     57803 TIP3     11786    TIP3     H1       HT       0.417000       1.00800           0
     57804 TIP3     11786    TIP3     H2       HT       0.417000       1.00800           0
     57805 TIP3     11787    TIP3     OH2      OT      -0.834000       15.9994           0
     57806 TIP3     11787    TIP3     H1       HT       0.417000       1.00800           0
     57807 TIP3     11787    TIP3     H2       HT       0.417000       1.00800           0
     57808 TIP3     11788    TIP3     OH2      OT      -0.834000       15.9994           0
     57809 TIP3     11788    TIP3     H1       HT       0.417000       1.00800           0
     57810 TIP3     11788    TIP3     H2       HT       0.417000       1.00800           0
     57811 TIP3     11789    TIP3     OH2      OT      -0.834000       15.9994           0
     57812 TIP3     11789    TIP3     H1       HT       0.417000       1.00800           0
     57813 TIP3     11789    TIP3     H2       HT       0.417000       1.00800           0
     57814 TIP3     11790    TIP3     OH2      OT      -0.834000       15.9994           0
     57815 TIP3     11790    TIP3     H1       HT       0.417000       1.00800           0
     57816 TIP3     11790    TIP3     H2       HT       0.417000       1.00800           0
     57817 TIP3     11791    TIP3     OH2      OT      -0.834000       15.9994           0
     57818 TIP3     11791    TIP3     H1       HT       0.417000       1.00800           0
     57819 TIP3     11791    TIP3     H2       HT       0.417000       1.00800           0
     57820 TIP3     11792    TIP3     OH2      OT      -0.834000       15.9994           0
     57821 TIP3     11792    TIP3     H1       HT       0.417000       1.00800           0
     57822 TIP3     11792    TIP3     H2       HT       0.417000       1.00800           0
     57823 TIP3     11793    TIP3     OH2      OT      -0.834000       15.9994           0
     57824 TIP3     11793    TIP3     H1       HT       0.417000       1.00800           0
     57825 TIP3     11793    TIP3     H2       HT       0.417000       1.00800           0
     57826 TIP3     11794    TIP3     OH2      OT      -0.834000       15.9994           0
     57827 TIP3     11794    TIP3     H1       HT       0.417000       1.00800           0
     57828 TIP3     11794    TIP3     H2       HT       0.417000       1.00800           0
     57829 TIP3     11795    TIP3     OH2      OT      -0.834000       15.9994           0
     57830 TIP3     11795    TIP3     H1       HT       0.417000       1.00800           0
     57831 TIP3     11795    TIP3     H2       HT       0.417000       1.00800           0
     57832 TIP3     11796    TIP3     OH2      OT      -0.834000       15.9994           0
     57833 TIP3     11796    TIP3     H1       HT       0.417000       1.00800           0
     57834 TIP3     11796    TIP3     H2       HT       0.417000       1.00800           0
     57835 TIP3     11797    TIP3     OH2      OT      -0.834000       15.9994           0
     57836 TIP3     11797    TIP3     H1       HT       0.417000       1.00800           0
     57837 TIP3     11797    TIP3     H2       HT       0.417000       1.00800           0
     57838 TIP3     11798    TIP3     OH2      OT      -0.834000       15.9994           0
     57839 TIP3     11798    TIP3     H1       HT       0.417000       1.00800           0
     57840 TIP3     11798    TIP3     H2       HT       0.417000       1.00800           0
     57841 TIP3     11799    TIP3     OH2      OT      -0.834000       15.9994           0
     57842 TIP3     11799    TIP3     H1       HT       0.417000       1.00800           0
     57843 TIP3     11799    TIP3     H2       HT       0.417000       1.00800           0
     57844 TIP3     11800    TIP3     OH2      OT      -0.834000       15.9994           0
     57845 TIP3     11800    TIP3     H1       HT       0.417000       1.00800           0
     57846 TIP3     11800    TIP3     H2       HT       0.417000       1.00800           0
     57847 TIP3     11801    TIP3     OH2      OT      -0.834000       15.9994           0
     57848 TIP3     11801    TIP3     H1       HT       0.417000       1.00800           0
     57849 TIP3     11801    TIP3     H2       HT       0.417000       1.00800           0
     57850 TIP3     11802    TIP3     OH2      OT      -0.834000       15.9994           0
     57851 TIP3     11802    TIP3     H1       HT       0.417000       1.00800           0
     57852 TIP3     11802    TIP3     H2       HT       0.417000       1.00800           0
     57853 TIP3     11803    TIP3     OH2      OT      -0.834000       15.9994           0
     57854 TIP3     11803    TIP3     H1       HT       0.417000       1.00800           0
     57855 TIP3     11803    TIP3     H2       HT       0.417000       1.00800           0
     57856 TIP3     11804    TIP3     OH2      OT      -0.834000       15.9994           0
     57857 TIP3     11804    TIP3     H1       HT       0.417000       1.00800           0
     57858 TIP3     11804    TIP3     H2       HT       0.417000       1.00800           0
     57859 TIP3     11805    TIP3     OH2      OT      -0.834000       15.9994           0
     57860 TIP3     11805    TIP3     H1       HT       0.417000       1.00800           0
     57861 TIP3     11805    TIP3     H2       HT       0.417000       1.00800           0
     57862 TIP3     11806    TIP3     OH2      OT      -0.834000       15.9994           0
     57863 TIP3     11806    TIP3     H1       HT       0.417000       1.00800           0
     57864 TIP3     11806    TIP3     H2       HT       0.417000       1.00800           0
     57865 TIP3     11807    TIP3     OH2      OT      -0.834000       15.9994           0
     57866 TIP3     11807    TIP3     H1       HT       0.417000       1.00800           0
     57867 TIP3     11807    TIP3     H2       HT       0.417000       1.00800           0
     57868 TIP3     11808    TIP3     OH2      OT      -0.834000       15.9994           0
     57869 TIP3     11808    TIP3     H1       HT       0.417000       1.00800           0
     57870 TIP3     11808    TIP3     H2       HT       0.417000       1.00800           0
     57871 TIP3     11809    TIP3     OH2      OT      -0.834000       15.9994           0
     57872 TIP3     11809    TIP3     H1       HT       0.417000       1.00800           0
     57873 TIP3     11809    TIP3     H2       HT       0.417000       1.00800           0
     57874 TIP3     11810    TIP3     OH2      OT      -0.834000       15.9994           0
     57875 TIP3     11810    TIP3     H1       HT       0.417000       1.00800           0
     57876 TIP3     11810    TIP3     H2       HT       0.417000       1.00800           0
     57877 TIP3     11811    TIP3     OH2      OT      -0.834000       15.9994           0
     57878 TIP3     11811    TIP3     H1       HT       0.417000       1.00800           0
     57879 TIP3     11811    TIP3     H2       HT       0.417000       1.00800           0
     57880 TIP3     11812    TIP3     OH2      OT      -0.834000       15.9994           0
     57881 TIP3     11812    TIP3     H1       HT       0.417000       1.00800           0
     57882 TIP3     11812    TIP3     H2       HT       0.417000       1.00800           0
     57883 TIP3     11813    TIP3     OH2      OT      -0.834000       15.9994           0
     57884 TIP3     11813    TIP3     H1       HT       0.417000       1.00800           0
     57885 TIP3     11813    TIP3     H2       HT       0.417000       1.00800           0
     57886 TIP3     11814    TIP3     OH2      OT      -0.834000       15.9994           0
     57887 TIP3     11814    TIP3     H1       HT       0.417000       1.00800           0
     57888 TIP3     11814    TIP3     H2       HT       0.417000       1.00800           0
     57889 TIP3     11815    TIP3     OH2      OT      -0.834000       15.9994           0
     57890 TIP3     11815    TIP3     H1       HT       0.417000       1.00800           0
     57891 TIP3     11815    TIP3     H2       HT       0.417000       1.00800           0
     57892 TIP3     11816    TIP3     OH2      OT      -0.834000       15.9994           0
     57893 TIP3     11816    TIP3     H1       HT       0.417000       1.00800           0
     57894 TIP3     11816    TIP3     H2       HT       0.417000       1.00800           0
     57895 TIP3     11817    TIP3     OH2      OT      -0.834000       15.9994           0
     57896 TIP3     11817    TIP3     H1       HT       0.417000       1.00800           0
     57897 TIP3     11817    TIP3     H2       HT       0.417000       1.00800           0
     57898 TIP3     11818    TIP3     OH2      OT      -0.834000       15.9994           0
     57899 TIP3     11818    TIP3     H1       HT       0.417000       1.00800           0
     57900 TIP3     11818    TIP3     H2       HT       0.417000       1.00800           0
     57901 TIP3     11819    TIP3     OH2      OT      -0.834000       15.9994           0
     57902 TIP3     11819    TIP3     H1       HT       0.417000       1.00800           0
     57903 TIP3     11819    TIP3     H2       HT       0.417000       1.00800           0
     57904 TIP3     11820    TIP3     OH2      OT      -0.834000       15.9994           0
     57905 TIP3     11820    TIP3     H1       HT       0.417000       1.00800           0
     57906 TIP3     11820    TIP3     H2       HT       0.417000       1.00800           0
     57907 TIP3     11821    TIP3     OH2      OT      -0.834000       15.9994           0
     57908 TIP3     11821    TIP3     H1       HT       0.417000       1.00800           0
     57909 TIP3     11821    TIP3     H2       HT       0.417000       1.00800           0
     57910 TIP3     11822    TIP3     OH2      OT      -0.834000       15.9994           0
     57911 TIP3     11822    TIP3     H1       HT       0.417000       1.00800           0
     57912 TIP3     11822    TIP3     H2       HT       0.417000       1.00800           0
     57913 TIP3     11823    TIP3     OH2      OT      -0.834000       15.9994           0
     57914 TIP3     11823    TIP3     H1       HT       0.417000       1.00800           0
     57915 TIP3     11823    TIP3     H2       HT       0.417000       1.00800           0
     57916 TIP3     11824    TIP3     OH2      OT      -0.834000       15.9994           0
     57917 TIP3     11824    TIP3     H1       HT       0.417000       1.00800           0
     57918 TIP3     11824    TIP3     H2       HT       0.417000       1.00800           0
     57919 TIP3     11825    TIP3     OH2      OT      -0.834000       15.9994           0
     57920 TIP3     11825    TIP3     H1       HT       0.417000       1.00800           0
     57921 TIP3     11825    TIP3     H2       HT       0.417000       1.00800           0
     57922 TIP3     11826    TIP3     OH2      OT      -0.834000       15.9994           0
     57923 TIP3     11826    TIP3     H1       HT       0.417000       1.00800           0
     57924 TIP3     11826    TIP3     H2       HT       0.417000       1.00800           0
     57925 TIP3     11827    TIP3     OH2      OT      -0.834000       15.9994           0
     57926 TIP3     11827    TIP3     H1       HT       0.417000       1.00800           0
     57927 TIP3     11827    TIP3     H2       HT       0.417000       1.00800           0
     57928 TIP3     11828    TIP3     OH2      OT      -0.834000       15.9994           0
     57929 TIP3     11828    TIP3     H1       HT       0.417000       1.00800           0
     57930 TIP3     11828    TIP3     H2       HT       0.417000       1.00800           0
     57931 TIP3     11829    TIP3     OH2      OT      -0.834000       15.9994           0
     57932 TIP3     11829    TIP3     H1       HT       0.417000       1.00800           0
     57933 TIP3     11829    TIP3     H2       HT       0.417000       1.00800           0
     57934 TIP3     11830    TIP3     OH2      OT      -0.834000       15.9994           0
     57935 TIP3     11830    TIP3     H1       HT       0.417000       1.00800           0
     57936 TIP3     11830    TIP3     H2       HT       0.417000       1.00800           0
     57937 TIP3     11831    TIP3     OH2      OT      -0.834000       15.9994           0
     57938 TIP3     11831    TIP3     H1       HT       0.417000       1.00800           0
     57939 TIP3     11831    TIP3     H2       HT       0.417000       1.00800           0
     57940 TIP3     11832    TIP3     OH2      OT      -0.834000       15.9994           0
     57941 TIP3     11832    TIP3     H1       HT       0.417000       1.00800           0
     57942 TIP3     11832    TIP3     H2       HT       0.417000       1.00800           0
     57943 TIP3     11833    TIP3     OH2      OT      -0.834000       15.9994           0
     57944 TIP3     11833    TIP3     H1       HT       0.417000       1.00800           0
     57945 TIP3     11833    TIP3     H2       HT       0.417000       1.00800           0
     57946 TIP3     11834    TIP3     OH2      OT      -0.834000       15.9994           0
     57947 TIP3     11834    TIP3     H1       HT       0.417000       1.00800           0
     57948 TIP3     11834    TIP3     H2       HT       0.417000       1.00800           0
     57949 TIP3     11835    TIP3     OH2      OT      -0.834000       15.9994           0
     57950 TIP3     11835    TIP3     H1       HT       0.417000       1.00800           0
     57951 TIP3     11835    TIP3     H2       HT       0.417000       1.00800           0
     57952 TIP3     11836    TIP3     OH2      OT      -0.834000       15.9994           0
     57953 TIP3     11836    TIP3     H1       HT       0.417000       1.00800           0
     57954 TIP3     11836    TIP3     H2       HT       0.417000       1.00800           0
     57955 TIP3     11837    TIP3     OH2      OT      -0.834000       15.9994           0
     57956 TIP3     11837    TIP3     H1       HT       0.417000       1.00800           0
     57957 TIP3     11837    TIP3     H2       HT       0.417000       1.00800           0
     57958 TIP3     11838    TIP3     OH2      OT      -0.834000       15.9994           0
     57959 TIP3     11838    TIP3     H1       HT       0.417000       1.00800           0
     57960 TIP3     11838    TIP3     H2       HT       0.417000       1.00800           0
     57961 TIP3     11839    TIP3     OH2      OT      -0.834000       15.9994           0
     57962 TIP3     11839    TIP3     H1       HT       0.417000       1.00800           0
     57963 TIP3     11839    TIP3     H2       HT       0.417000       1.00800           0
     57964 TIP3     11840    TIP3     OH2      OT      -0.834000       15.9994           0
     57965 TIP3     11840    TIP3     H1       HT       0.417000       1.00800           0
     57966 TIP3     11840    TIP3     H2       HT       0.417000       1.00800           0
     57967 TIP3     11841    TIP3     OH2      OT      -0.834000       15.9994           0
     57968 TIP3     11841    TIP3     H1       HT       0.417000       1.00800           0
     57969 TIP3     11841    TIP3     H2       HT       0.417000       1.00800           0
     57970 TIP3     11842    TIP3     OH2      OT      -0.834000       15.9994           0
     57971 TIP3     11842    TIP3     H1       HT       0.417000       1.00800           0
     57972 TIP3     11842    TIP3     H2       HT       0.417000       1.00800           0
     57973 TIP3     11843    TIP3     OH2      OT      -0.834000       15.9994           0
     57974 TIP3     11843    TIP3     H1       HT       0.417000       1.00800           0
     57975 TIP3     11843    TIP3     H2       HT       0.417000       1.00800           0
     57976 TIP3     11844    TIP3     OH2      OT      -0.834000       15.9994           0
     57977 TIP3     11844    TIP3     H1       HT       0.417000       1.00800           0
     57978 TIP3     11844    TIP3     H2       HT       0.417000       1.00800           0
     57979 TIP3     11845    TIP3     OH2      OT      -0.834000       15.9994           0
     57980 TIP3     11845    TIP3     H1       HT       0.417000       1.00800           0
     57981 TIP3     11845    TIP3     H2       HT       0.417000       1.00800           0
     57982 TIP3     11846    TIP3     OH2      OT      -0.834000       15.9994           0
     57983 TIP3     11846    TIP3     H1       HT       0.417000       1.00800           0
     57984 TIP3     11846    TIP3     H2       HT       0.417000       1.00800           0
     57985 TIP3     11847    TIP3     OH2      OT      -0.834000       15.9994           0
     57986 TIP3     11847    TIP3     H1       HT       0.417000       1.00800           0
     57987 TIP3     11847    TIP3     H2       HT       0.417000       1.00800           0
     57988 TIP3     11848    TIP3     OH2      OT      -0.834000       15.9994           0
     57989 TIP3     11848    TIP3     H1       HT       0.417000       1.00800           0
     57990 TIP3     11848    TIP3     H2       HT       0.417000       1.00800           0
     57991 TIP3     11849    TIP3     OH2      OT      -0.834000       15.9994           0
     57992 TIP3     11849    TIP3     H1       HT       0.417000       1.00800           0
     57993 TIP3     11849    TIP3     H2       HT       0.417000       1.00800           0
     57994 TIP3     11850    TIP3     OH2      OT      -0.834000       15.9994           0
     57995 TIP3     11850    TIP3     H1       HT       0.417000       1.00800           0
     57996 TIP3     11850    TIP3     H2       HT       0.417000       1.00800           0
     57997 TIP3     11851    TIP3     OH2      OT      -0.834000       15.9994           0
     57998 TIP3     11851    TIP3     H1       HT       0.417000       1.00800           0
     57999 TIP3     11851    TIP3     H2       HT       0.417000       1.00800           0
     58000 TIP3     11852    TIP3     OH2      OT      -0.834000       15.9994           0
     58001 TIP3     11852    TIP3     H1       HT       0.417000       1.00800           0
     58002 TIP3     11852    TIP3     H2       HT       0.417000       1.00800           0
     58003 TIP3     11853    TIP3     OH2      OT      -0.834000       15.9994           0
     58004 TIP3     11853    TIP3     H1       HT       0.417000       1.00800           0
     58005 TIP3     11853    TIP3     H2       HT       0.417000       1.00800           0
     58006 TIP3     11854    TIP3     OH2      OT      -0.834000       15.9994           0
     58007 TIP3     11854    TIP3     H1       HT       0.417000       1.00800           0
     58008 TIP3     11854    TIP3     H2       HT       0.417000       1.00800           0
     58009 TIP3     11855    TIP3     OH2      OT      -0.834000       15.9994           0
     58010 TIP3     11855    TIP3     H1       HT       0.417000       1.00800           0
     58011 TIP3     11855    TIP3     H2       HT       0.417000       1.00800           0
     58012 TIP3     11856    TIP3     OH2      OT      -0.834000       15.9994           0
     58013 TIP3     11856    TIP3     H1       HT       0.417000       1.00800           0
     58014 TIP3     11856    TIP3     H2       HT       0.417000       1.00800           0
     58015 TIP3     11857    TIP3     OH2      OT      -0.834000       15.9994           0
     58016 TIP3     11857    TIP3     H1       HT       0.417000       1.00800           0
     58017 TIP3     11857    TIP3     H2       HT       0.417000       1.00800           0
     58018 TIP3     11858    TIP3     OH2      OT      -0.834000       15.9994           0
     58019 TIP3     11858    TIP3     H1       HT       0.417000       1.00800           0
     58020 TIP3     11858    TIP3     H2       HT       0.417000       1.00800           0
     58021 TIP3     11859    TIP3     OH2      OT      -0.834000       15.9994           0
     58022 TIP3     11859    TIP3     H1       HT       0.417000       1.00800           0
     58023 TIP3     11859    TIP3     H2       HT       0.417000       1.00800           0
     58024 TIP3     11860    TIP3     OH2      OT      -0.834000       15.9994           0
     58025 TIP3     11860    TIP3     H1       HT       0.417000       1.00800           0
     58026 TIP3     11860    TIP3     H2       HT       0.417000       1.00800           0
     58027 TIP3     11861    TIP3     OH2      OT      -0.834000       15.9994           0
     58028 TIP3     11861    TIP3     H1       HT       0.417000       1.00800           0
     58029 TIP3     11861    TIP3     H2       HT       0.417000       1.00800           0
     58030 TIP3     11862    TIP3     OH2      OT      -0.834000       15.9994           0
     58031 TIP3     11862    TIP3     H1       HT       0.417000       1.00800           0
     58032 TIP3     11862    TIP3     H2       HT       0.417000       1.00800           0
     58033 TIP3     11863    TIP3     OH2      OT      -0.834000       15.9994           0
     58034 TIP3     11863    TIP3     H1       HT       0.417000       1.00800           0
     58035 TIP3     11863    TIP3     H2       HT       0.417000       1.00800           0
     58036 TIP3     11864    TIP3     OH2      OT      -0.834000       15.9994           0
     58037 TIP3     11864    TIP3     H1       HT       0.417000       1.00800           0
     58038 TIP3     11864    TIP3     H2       HT       0.417000       1.00800           0
     58039 TIP3     11865    TIP3     OH2      OT      -0.834000       15.9994           0
     58040 TIP3     11865    TIP3     H1       HT       0.417000       1.00800           0
     58041 TIP3     11865    TIP3     H2       HT       0.417000       1.00800           0
     58042 TIP3     11866    TIP3     OH2      OT      -0.834000       15.9994           0
     58043 TIP3     11866    TIP3     H1       HT       0.417000       1.00800           0
     58044 TIP3     11866    TIP3     H2       HT       0.417000       1.00800           0
     58045 TIP3     11867    TIP3     OH2      OT      -0.834000       15.9994           0
     58046 TIP3     11867    TIP3     H1       HT       0.417000       1.00800           0
     58047 TIP3     11867    TIP3     H2       HT       0.417000       1.00800           0
     58048 TIP3     11868    TIP3     OH2      OT      -0.834000       15.9994           0
     58049 TIP3     11868    TIP3     H1       HT       0.417000       1.00800           0
     58050 TIP3     11868    TIP3     H2       HT       0.417000       1.00800           0
     58051 TIP3     11869    TIP3     OH2      OT      -0.834000       15.9994           0
     58052 TIP3     11869    TIP3     H1       HT       0.417000       1.00800           0
     58053 TIP3     11869    TIP3     H2       HT       0.417000       1.00800           0
     58054 TIP3     11870    TIP3     OH2      OT      -0.834000       15.9994           0
     58055 TIP3     11870    TIP3     H1       HT       0.417000       1.00800           0
     58056 TIP3     11870    TIP3     H2       HT       0.417000       1.00800           0
     58057 TIP3     11871    TIP3     OH2      OT      -0.834000       15.9994           0
     58058 TIP3     11871    TIP3     H1       HT       0.417000       1.00800           0
     58059 TIP3     11871    TIP3     H2       HT       0.417000       1.00800           0
     58060 TIP3     11872    TIP3     OH2      OT      -0.834000       15.9994           0
     58061 TIP3     11872    TIP3     H1       HT       0.417000       1.00800           0
     58062 TIP3     11872    TIP3     H2       HT       0.417000       1.00800           0
     58063 TIP3     11873    TIP3     OH2      OT      -0.834000       15.9994           0
     58064 TIP3     11873    TIP3     H1       HT       0.417000       1.00800           0
     58065 TIP3     11873    TIP3     H2       HT       0.417000       1.00800           0
     58066 TIP3     11874    TIP3     OH2      OT      -0.834000       15.9994           0
     58067 TIP3     11874    TIP3     H1       HT       0.417000       1.00800           0
     58068 TIP3     11874    TIP3     H2       HT       0.417000       1.00800           0
     58069 TIP3     11875    TIP3     OH2      OT      -0.834000       15.9994           0
     58070 TIP3     11875    TIP3     H1       HT       0.417000       1.00800           0
     58071 TIP3     11875    TIP3     H2       HT       0.417000       1.00800           0
     58072 TIP3     11876    TIP3     OH2      OT      -0.834000       15.9994           0
     58073 TIP3     11876    TIP3     H1       HT       0.417000       1.00800           0
     58074 TIP3     11876    TIP3     H2       HT       0.417000       1.00800           0
     58075 TIP3     11877    TIP3     OH2      OT      -0.834000       15.9994           0
     58076 TIP3     11877    TIP3     H1       HT       0.417000       1.00800           0
     58077 TIP3     11877    TIP3     H2       HT       0.417000       1.00800           0
     58078 TIP3     11878    TIP3     OH2      OT      -0.834000       15.9994           0
     58079 TIP3     11878    TIP3     H1       HT       0.417000       1.00800           0
     58080 TIP3     11878    TIP3     H2       HT       0.417000       1.00800           0
     58081 TIP3     11879    TIP3     OH2      OT      -0.834000       15.9994           0
     58082 TIP3     11879    TIP3     H1       HT       0.417000       1.00800           0
     58083 TIP3     11879    TIP3     H2       HT       0.417000       1.00800           0
     58084 TIP3     11880    TIP3     OH2      OT      -0.834000       15.9994           0
     58085 TIP3     11880    TIP3     H1       HT       0.417000       1.00800           0
     58086 TIP3     11880    TIP3     H2       HT       0.417000       1.00800           0
     58087 TIP3     11881    TIP3     OH2      OT      -0.834000       15.9994           0
     58088 TIP3     11881    TIP3     H1       HT       0.417000       1.00800           0
     58089 TIP3     11881    TIP3     H2       HT       0.417000       1.00800           0
     58090 TIP3     11882    TIP3     OH2      OT      -0.834000       15.9994           0
     58091 TIP3     11882    TIP3     H1       HT       0.417000       1.00800           0
     58092 TIP3     11882    TIP3     H2       HT       0.417000       1.00800           0
     58093 TIP3     11883    TIP3     OH2      OT      -0.834000       15.9994           0
     58094 TIP3     11883    TIP3     H1       HT       0.417000       1.00800           0
     58095 TIP3     11883    TIP3     H2       HT       0.417000       1.00800           0
     58096 TIP3     11884    TIP3     OH2      OT      -0.834000       15.9994           0
     58097 TIP3     11884    TIP3     H1       HT       0.417000       1.00800           0
     58098 TIP3     11884    TIP3     H2       HT       0.417000       1.00800           0
     58099 TIP3     11885    TIP3     OH2      OT      -0.834000       15.9994           0
     58100 TIP3     11885    TIP3     H1       HT       0.417000       1.00800           0
     58101 TIP3     11885    TIP3     H2       HT       0.417000       1.00800           0
     58102 TIP3     11886    TIP3     OH2      OT      -0.834000       15.9994           0
     58103 TIP3     11886    TIP3     H1       HT       0.417000       1.00800           0
     58104 TIP3     11886    TIP3     H2       HT       0.417000       1.00800           0
     58105 TIP3     11887    TIP3     OH2      OT      -0.834000       15.9994           0
     58106 TIP3     11887    TIP3     H1       HT       0.417000       1.00800           0
     58107 TIP3     11887    TIP3     H2       HT       0.417000       1.00800           0
     58108 TIP3     11888    TIP3     OH2      OT      -0.834000       15.9994           0
     58109 TIP3     11888    TIP3     H1       HT       0.417000       1.00800           0
     58110 TIP3     11888    TIP3     H2       HT       0.417000       1.00800           0
     58111 TIP3     11889    TIP3     OH2      OT      -0.834000       15.9994           0
     58112 TIP3     11889    TIP3     H1       HT       0.417000       1.00800           0
     58113 TIP3     11889    TIP3     H2       HT       0.417000       1.00800           0
     58114 TIP3     11890    TIP3     OH2      OT      -0.834000       15.9994           0
     58115 TIP3     11890    TIP3     H1       HT       0.417000       1.00800           0
     58116 TIP3     11890    TIP3     H2       HT       0.417000       1.00800           0
     58117 TIP3     11891    TIP3     OH2      OT      -0.834000       15.9994           0
     58118 TIP3     11891    TIP3     H1       HT       0.417000       1.00800           0
     58119 TIP3     11891    TIP3     H2       HT       0.417000       1.00800           0
     58120 TIP3     11892    TIP3     OH2      OT      -0.834000       15.9994           0
     58121 TIP3     11892    TIP3     H1       HT       0.417000       1.00800           0
     58122 TIP3     11892    TIP3     H2       HT       0.417000       1.00800           0
     58123 TIP3     11893    TIP3     OH2      OT      -0.834000       15.9994           0
     58124 TIP3     11893    TIP3     H1       HT       0.417000       1.00800           0
     58125 TIP3     11893    TIP3     H2       HT       0.417000       1.00800           0
     58126 TIP3     11894    TIP3     OH2      OT      -0.834000       15.9994           0
     58127 TIP3     11894    TIP3     H1       HT       0.417000       1.00800           0
     58128 TIP3     11894    TIP3     H2       HT       0.417000       1.00800           0
     58129 TIP3     11895    TIP3     OH2      OT      -0.834000       15.9994           0
     58130 TIP3     11895    TIP3     H1       HT       0.417000       1.00800           0
     58131 TIP3     11895    TIP3     H2       HT       0.417000       1.00800           0
     58132 TIP3     11896    TIP3     OH2      OT      -0.834000       15.9994           0
     58133 TIP3     11896    TIP3     H1       HT       0.417000       1.00800           0
     58134 TIP3     11896    TIP3     H2       HT       0.417000       1.00800           0
     58135 TIP3     11897    TIP3     OH2      OT      -0.834000       15.9994           0
     58136 TIP3     11897    TIP3     H1       HT       0.417000       1.00800           0
     58137 TIP3     11897    TIP3     H2       HT       0.417000       1.00800           0
     58138 TIP3     11898    TIP3     OH2      OT      -0.834000       15.9994           0
     58139 TIP3     11898    TIP3     H1       HT       0.417000       1.00800           0
     58140 TIP3     11898    TIP3     H2       HT       0.417000       1.00800           0
     58141 TIP3     11899    TIP3     OH2      OT      -0.834000       15.9994           0
     58142 TIP3     11899    TIP3     H1       HT       0.417000       1.00800           0
     58143 TIP3     11899    TIP3     H2       HT       0.417000       1.00800           0
     58144 TIP3     11900    TIP3     OH2      OT      -0.834000       15.9994           0
     58145 TIP3     11900    TIP3     H1       HT       0.417000       1.00800           0
     58146 TIP3     11900    TIP3     H2       HT       0.417000       1.00800           0
     58147 TIP3     11901    TIP3     OH2      OT      -0.834000       15.9994           0
     58148 TIP3     11901    TIP3     H1       HT       0.417000       1.00800           0
     58149 TIP3     11901    TIP3     H2       HT       0.417000       1.00800           0
     58150 TIP3     11902    TIP3     OH2      OT      -0.834000       15.9994           0
     58151 TIP3     11902    TIP3     H1       HT       0.417000       1.00800           0
     58152 TIP3     11902    TIP3     H2       HT       0.417000       1.00800           0
     58153 TIP3     11903    TIP3     OH2      OT      -0.834000       15.9994           0
     58154 TIP3     11903    TIP3     H1       HT       0.417000       1.00800           0
     58155 TIP3     11903    TIP3     H2       HT       0.417000       1.00800           0
     58156 TIP3     11904    TIP3     OH2      OT      -0.834000       15.9994           0
     58157 TIP3     11904    TIP3     H1       HT       0.417000       1.00800           0
     58158 TIP3     11904    TIP3     H2       HT       0.417000       1.00800           0
     58159 TIP3     11905    TIP3     OH2      OT      -0.834000       15.9994           0
     58160 TIP3     11905    TIP3     H1       HT       0.417000       1.00800           0
     58161 TIP3     11905    TIP3     H2       HT       0.417000       1.00800           0
     58162 TIP3     11906    TIP3     OH2      OT      -0.834000       15.9994           0
     58163 TIP3     11906    TIP3     H1       HT       0.417000       1.00800           0
     58164 TIP3     11906    TIP3     H2       HT       0.417000       1.00800           0
     58165 TIP3     11907    TIP3     OH2      OT      -0.834000       15.9994           0
     58166 TIP3     11907    TIP3     H1       HT       0.417000       1.00800           0
     58167 TIP3     11907    TIP3     H2       HT       0.417000       1.00800           0
     58168 TIP3     11908    TIP3     OH2      OT      -0.834000       15.9994           0
     58169 TIP3     11908    TIP3     H1       HT       0.417000       1.00800           0
     58170 TIP3     11908    TIP3     H2       HT       0.417000       1.00800           0
     58171 TIP3     11909    TIP3     OH2      OT      -0.834000       15.9994           0
     58172 TIP3     11909    TIP3     H1       HT       0.417000       1.00800           0
     58173 TIP3     11909    TIP3     H2       HT       0.417000       1.00800           0
     58174 TIP3     11910    TIP3     OH2      OT      -0.834000       15.9994           0
     58175 TIP3     11910    TIP3     H1       HT       0.417000       1.00800           0
     58176 TIP3     11910    TIP3     H2       HT       0.417000       1.00800           0
     58177 TIP3     11911    TIP3     OH2      OT      -0.834000       15.9994           0
     58178 TIP3     11911    TIP3     H1       HT       0.417000       1.00800           0
     58179 TIP3     11911    TIP3     H2       HT       0.417000       1.00800           0
     58180 TIP3     11912    TIP3     OH2      OT      -0.834000       15.9994           0
     58181 TIP3     11912    TIP3     H1       HT       0.417000       1.00800           0
     58182 TIP3     11912    TIP3     H2       HT       0.417000       1.00800           0
     58183 TIP3     11913    TIP3     OH2      OT      -0.834000       15.9994           0
     58184 TIP3     11913    TIP3     H1       HT       0.417000       1.00800           0
     58185 TIP3     11913    TIP3     H2       HT       0.417000       1.00800           0
     58186 TIP3     11914    TIP3     OH2      OT      -0.834000       15.9994           0
     58187 TIP3     11914    TIP3     H1       HT       0.417000       1.00800           0
     58188 TIP3     11914    TIP3     H2       HT       0.417000       1.00800           0
     58189 TIP3     11915    TIP3     OH2      OT      -0.834000       15.9994           0
     58190 TIP3     11915    TIP3     H1       HT       0.417000       1.00800           0
     58191 TIP3     11915    TIP3     H2       HT       0.417000       1.00800           0
     58192 TIP3     11916    TIP3     OH2      OT      -0.834000       15.9994           0
     58193 TIP3     11916    TIP3     H1       HT       0.417000       1.00800           0
     58194 TIP3     11916    TIP3     H2       HT       0.417000       1.00800           0
     58195 TIP3     11917    TIP3     OH2      OT      -0.834000       15.9994           0
     58196 TIP3     11917    TIP3     H1       HT       0.417000       1.00800           0
     58197 TIP3     11917    TIP3     H2       HT       0.417000       1.00800           0
     58198 TIP3     11918    TIP3     OH2      OT      -0.834000       15.9994           0
     58199 TIP3     11918    TIP3     H1       HT       0.417000       1.00800           0
     58200 TIP3     11918    TIP3     H2       HT       0.417000       1.00800           0
     58201 TIP3     11919    TIP3     OH2      OT      -0.834000       15.9994           0
     58202 TIP3     11919    TIP3     H1       HT       0.417000       1.00800           0
     58203 TIP3     11919    TIP3     H2       HT       0.417000       1.00800           0
     58204 TIP3     11920    TIP3     OH2      OT      -0.834000       15.9994           0
     58205 TIP3     11920    TIP3     H1       HT       0.417000       1.00800           0
     58206 TIP3     11920    TIP3     H2       HT       0.417000       1.00800           0
     58207 TIP3     11921    TIP3     OH2      OT      -0.834000       15.9994           0
     58208 TIP3     11921    TIP3     H1       HT       0.417000       1.00800           0
     58209 TIP3     11921    TIP3     H2       HT       0.417000       1.00800           0
     58210 TIP3     11922    TIP3     OH2      OT      -0.834000       15.9994           0
     58211 TIP3     11922    TIP3     H1       HT       0.417000       1.00800           0
     58212 TIP3     11922    TIP3     H2       HT       0.417000       1.00800           0
     58213 TIP3     11923    TIP3     OH2      OT      -0.834000       15.9994           0
     58214 TIP3     11923    TIP3     H1       HT       0.417000       1.00800           0
     58215 TIP3     11923    TIP3     H2       HT       0.417000       1.00800           0
     58216 TIP3     11924    TIP3     OH2      OT      -0.834000       15.9994           0
     58217 TIP3     11924    TIP3     H1       HT       0.417000       1.00800           0
     58218 TIP3     11924    TIP3     H2       HT       0.417000       1.00800           0
     58219 TIP3     11925    TIP3     OH2      OT      -0.834000       15.9994           0
     58220 TIP3     11925    TIP3     H1       HT       0.417000       1.00800           0
     58221 TIP3     11925    TIP3     H2       HT       0.417000       1.00800           0
     58222 TIP3     11926    TIP3     OH2      OT      -0.834000       15.9994           0
     58223 TIP3     11926    TIP3     H1       HT       0.417000       1.00800           0
     58224 TIP3     11926    TIP3     H2       HT       0.417000       1.00800           0
     58225 TIP3     11927    TIP3     OH2      OT      -0.834000       15.9994           0
     58226 TIP3     11927    TIP3     H1       HT       0.417000       1.00800           0
     58227 TIP3     11927    TIP3     H2       HT       0.417000       1.00800           0
     58228 TIP3     11928    TIP3     OH2      OT      -0.834000       15.9994           0
     58229 TIP3     11928    TIP3     H1       HT       0.417000       1.00800           0
     58230 TIP3     11928    TIP3     H2       HT       0.417000       1.00800           0
     58231 TIP3     11929    TIP3     OH2      OT      -0.834000       15.9994           0
     58232 TIP3     11929    TIP3     H1       HT       0.417000       1.00800           0
     58233 TIP3     11929    TIP3     H2       HT       0.417000       1.00800           0
     58234 TIP3     11930    TIP3     OH2      OT      -0.834000       15.9994           0
     58235 TIP3     11930    TIP3     H1       HT       0.417000       1.00800           0
     58236 TIP3     11930    TIP3     H2       HT       0.417000       1.00800           0
     58237 TIP3     11931    TIP3     OH2      OT      -0.834000       15.9994           0
     58238 TIP3     11931    TIP3     H1       HT       0.417000       1.00800           0
     58239 TIP3     11931    TIP3     H2       HT       0.417000       1.00800           0
     58240 TIP3     11932    TIP3     OH2      OT      -0.834000       15.9994           0
     58241 TIP3     11932    TIP3     H1       HT       0.417000       1.00800           0
     58242 TIP3     11932    TIP3     H2       HT       0.417000       1.00800           0
     58243 TIP3     11933    TIP3     OH2      OT      -0.834000       15.9994           0
     58244 TIP3     11933    TIP3     H1       HT       0.417000       1.00800           0
     58245 TIP3     11933    TIP3     H2       HT       0.417000       1.00800           0
     58246 TIP3     11934    TIP3     OH2      OT      -0.834000       15.9994           0
     58247 TIP3     11934    TIP3     H1       HT       0.417000       1.00800           0
     58248 TIP3     11934    TIP3     H2       HT       0.417000       1.00800           0
     58249 TIP3     11935    TIP3     OH2      OT      -0.834000       15.9994           0
     58250 TIP3     11935    TIP3     H1       HT       0.417000       1.00800           0
     58251 TIP3     11935    TIP3     H2       HT       0.417000       1.00800           0
     58252 TIP3     11936    TIP3     OH2      OT      -0.834000       15.9994           0
     58253 TIP3     11936    TIP3     H1       HT       0.417000       1.00800           0
     58254 TIP3     11936    TIP3     H2       HT       0.417000       1.00800           0
     58255 TIP3     11937    TIP3     OH2      OT      -0.834000       15.9994           0
     58256 TIP3     11937    TIP3     H1       HT       0.417000       1.00800           0
     58257 TIP3     11937    TIP3     H2       HT       0.417000       1.00800           0
     58258 TIP3     11938    TIP3     OH2      OT      -0.834000       15.9994           0
     58259 TIP3     11938    TIP3     H1       HT       0.417000       1.00800           0
     58260 TIP3     11938    TIP3     H2       HT       0.417000       1.00800           0
     58261 TIP3     11939    TIP3     OH2      OT      -0.834000       15.9994           0
     58262 TIP3     11939    TIP3     H1       HT       0.417000       1.00800           0
     58263 TIP3     11939    TIP3     H2       HT       0.417000       1.00800           0
     58264 TIP3     11940    TIP3     OH2      OT      -0.834000       15.9994           0
     58265 TIP3     11940    TIP3     H1       HT       0.417000       1.00800           0
     58266 TIP3     11940    TIP3     H2       HT       0.417000       1.00800           0
     58267 TIP3     11941    TIP3     OH2      OT      -0.834000       15.9994           0
     58268 TIP3     11941    TIP3     H1       HT       0.417000       1.00800           0
     58269 TIP3     11941    TIP3     H2       HT       0.417000       1.00800           0
     58270 TIP3     11942    TIP3     OH2      OT      -0.834000       15.9994           0
     58271 TIP3     11942    TIP3     H1       HT       0.417000       1.00800           0
     58272 TIP3     11942    TIP3     H2       HT       0.417000       1.00800           0
     58273 TIP3     11943    TIP3     OH2      OT      -0.834000       15.9994           0
     58274 TIP3     11943    TIP3     H1       HT       0.417000       1.00800           0
     58275 TIP3     11943    TIP3     H2       HT       0.417000       1.00800           0
     58276 TIP3     11944    TIP3     OH2      OT      -0.834000       15.9994           0
     58277 TIP3     11944    TIP3     H1       HT       0.417000       1.00800           0
     58278 TIP3     11944    TIP3     H2       HT       0.417000       1.00800           0
     58279 TIP3     11945    TIP3     OH2      OT      -0.834000       15.9994           0
     58280 TIP3     11945    TIP3     H1       HT       0.417000       1.00800           0
     58281 TIP3     11945    TIP3     H2       HT       0.417000       1.00800           0
     58282 TIP3     11946    TIP3     OH2      OT      -0.834000       15.9994           0
     58283 TIP3     11946    TIP3     H1       HT       0.417000       1.00800           0
     58284 TIP3     11946    TIP3     H2       HT       0.417000       1.00800           0
     58285 TIP3     11947    TIP3     OH2      OT      -0.834000       15.9994           0
     58286 TIP3     11947    TIP3     H1       HT       0.417000       1.00800           0
     58287 TIP3     11947    TIP3     H2       HT       0.417000       1.00800           0
     58288 TIP3     11948    TIP3     OH2      OT      -0.834000       15.9994           0
     58289 TIP3     11948    TIP3     H1       HT       0.417000       1.00800           0
     58290 TIP3     11948    TIP3     H2       HT       0.417000       1.00800           0
     58291 TIP3     11949    TIP3     OH2      OT      -0.834000       15.9994           0
     58292 TIP3     11949    TIP3     H1       HT       0.417000       1.00800           0
     58293 TIP3     11949    TIP3     H2       HT       0.417000       1.00800           0
     58294 TIP3     11950    TIP3     OH2      OT      -0.834000       15.9994           0
     58295 TIP3     11950    TIP3     H1       HT       0.417000       1.00800           0
     58296 TIP3     11950    TIP3     H2       HT       0.417000       1.00800           0
     58297 TIP3     11951    TIP3     OH2      OT      -0.834000       15.9994           0
     58298 TIP3     11951    TIP3     H1       HT       0.417000       1.00800           0
     58299 TIP3     11951    TIP3     H2       HT       0.417000       1.00800           0
     58300 TIP3     11952    TIP3     OH2      OT      -0.834000       15.9994           0
     58301 TIP3     11952    TIP3     H1       HT       0.417000       1.00800           0
     58302 TIP3     11952    TIP3     H2       HT       0.417000       1.00800           0
     58303 TIP3     11953    TIP3     OH2      OT      -0.834000       15.9994           0
     58304 TIP3     11953    TIP3     H1       HT       0.417000       1.00800           0
     58305 TIP3     11953    TIP3     H2       HT       0.417000       1.00800           0
     58306 TIP3     11954    TIP3     OH2      OT      -0.834000       15.9994           0
     58307 TIP3     11954    TIP3     H1       HT       0.417000       1.00800           0
     58308 TIP3     11954    TIP3     H2       HT       0.417000       1.00800           0
     58309 TIP3     11955    TIP3     OH2      OT      -0.834000       15.9994           0
     58310 TIP3     11955    TIP3     H1       HT       0.417000       1.00800           0
     58311 TIP3     11955    TIP3     H2       HT       0.417000       1.00800           0
     58312 TIP3     11956    TIP3     OH2      OT      -0.834000       15.9994           0
     58313 TIP3     11956    TIP3     H1       HT       0.417000       1.00800           0
     58314 TIP3     11956    TIP3     H2       HT       0.417000       1.00800           0
     58315 TIP3     11957    TIP3     OH2      OT      -0.834000       15.9994           0
     58316 TIP3     11957    TIP3     H1       HT       0.417000       1.00800           0
     58317 TIP3     11957    TIP3     H2       HT       0.417000       1.00800           0
     58318 TIP3     11958    TIP3     OH2      OT      -0.834000       15.9994           0
     58319 TIP3     11958    TIP3     H1       HT       0.417000       1.00800           0
     58320 TIP3     11958    TIP3     H2       HT       0.417000       1.00800           0
     58321 TIP3     11959    TIP3     OH2      OT      -0.834000       15.9994           0
     58322 TIP3     11959    TIP3     H1       HT       0.417000       1.00800           0
     58323 TIP3     11959    TIP3     H2       HT       0.417000       1.00800           0
     58324 TIP3     11960    TIP3     OH2      OT      -0.834000       15.9994           0
     58325 TIP3     11960    TIP3     H1       HT       0.417000       1.00800           0
     58326 TIP3     11960    TIP3     H2       HT       0.417000       1.00800           0
     58327 TIP3     11961    TIP3     OH2      OT      -0.834000       15.9994           0
     58328 TIP3     11961    TIP3     H1       HT       0.417000       1.00800           0
     58329 TIP3     11961    TIP3     H2       HT       0.417000       1.00800           0
     58330 TIP3     11962    TIP3     OH2      OT      -0.834000       15.9994           0
     58331 TIP3     11962    TIP3     H1       HT       0.417000       1.00800           0
     58332 TIP3     11962    TIP3     H2       HT       0.417000       1.00800           0
     58333 TIP3     11963    TIP3     OH2      OT      -0.834000       15.9994           0
     58334 TIP3     11963    TIP3     H1       HT       0.417000       1.00800           0
     58335 TIP3     11963    TIP3     H2       HT       0.417000       1.00800           0
     58336 TIP3     11964    TIP3     OH2      OT      -0.834000       15.9994           0
     58337 TIP3     11964    TIP3     H1       HT       0.417000       1.00800           0
     58338 TIP3     11964    TIP3     H2       HT       0.417000       1.00800           0
     58339 TIP3     11965    TIP3     OH2      OT      -0.834000       15.9994           0
     58340 TIP3     11965    TIP3     H1       HT       0.417000       1.00800           0
     58341 TIP3     11965    TIP3     H2       HT       0.417000       1.00800           0
     58342 TIP3     11966    TIP3     OH2      OT      -0.834000       15.9994           0
     58343 TIP3     11966    TIP3     H1       HT       0.417000       1.00800           0
     58344 TIP3     11966    TIP3     H2       HT       0.417000       1.00800           0
     58345 TIP3     11967    TIP3     OH2      OT      -0.834000       15.9994           0
     58346 TIP3     11967    TIP3     H1       HT       0.417000       1.00800           0
     58347 TIP3     11967    TIP3     H2       HT       0.417000       1.00800           0
     58348 TIP3     11968    TIP3     OH2      OT      -0.834000       15.9994           0
     58349 TIP3     11968    TIP3     H1       HT       0.417000       1.00800           0
     58350 TIP3     11968    TIP3     H2       HT       0.417000       1.00800           0
     58351 TIP3     11969    TIP3     OH2      OT      -0.834000       15.9994           0
     58352 TIP3     11969    TIP3     H1       HT       0.417000       1.00800           0
     58353 TIP3     11969    TIP3     H2       HT       0.417000       1.00800           0
     58354 TIP3     11970    TIP3     OH2      OT      -0.834000       15.9994           0
     58355 TIP3     11970    TIP3     H1       HT       0.417000       1.00800           0
     58356 TIP3     11970    TIP3     H2       HT       0.417000       1.00800           0
     58357 TIP3     11971    TIP3     OH2      OT      -0.834000       15.9994           0
     58358 TIP3     11971    TIP3     H1       HT       0.417000       1.00800           0
     58359 TIP3     11971    TIP3     H2       HT       0.417000       1.00800           0
     58360 TIP3     11972    TIP3     OH2      OT      -0.834000       15.9994           0
     58361 TIP3     11972    TIP3     H1       HT       0.417000       1.00800           0
     58362 TIP3     11972    TIP3     H2       HT       0.417000       1.00800           0
     58363 TIP3     11973    TIP3     OH2      OT      -0.834000       15.9994           0
     58364 TIP3     11973    TIP3     H1       HT       0.417000       1.00800           0
     58365 TIP3     11973    TIP3     H2       HT       0.417000       1.00800           0
     58366 TIP3     11974    TIP3     OH2      OT      -0.834000       15.9994           0
     58367 TIP3     11974    TIP3     H1       HT       0.417000       1.00800           0
     58368 TIP3     11974    TIP3     H2       HT       0.417000       1.00800           0
     58369 TIP3     11975    TIP3     OH2      OT      -0.834000       15.9994           0
     58370 TIP3     11975    TIP3     H1       HT       0.417000       1.00800           0
     58371 TIP3     11975    TIP3     H2       HT       0.417000       1.00800           0
     58372 TIP3     11976    TIP3     OH2      OT      -0.834000       15.9994           0
     58373 TIP3     11976    TIP3     H1       HT       0.417000       1.00800           0
     58374 TIP3     11976    TIP3     H2       HT       0.417000       1.00800           0
     58375 TIP3     11977    TIP3     OH2      OT      -0.834000       15.9994           0
     58376 TIP3     11977    TIP3     H1       HT       0.417000       1.00800           0
     58377 TIP3     11977    TIP3     H2       HT       0.417000       1.00800           0
     58378 TIP3     11978    TIP3     OH2      OT      -0.834000       15.9994           0
     58379 TIP3     11978    TIP3     H1       HT       0.417000       1.00800           0
     58380 TIP3     11978    TIP3     H2       HT       0.417000       1.00800           0
     58381 TIP3     11979    TIP3     OH2      OT      -0.834000       15.9994           0
     58382 TIP3     11979    TIP3     H1       HT       0.417000       1.00800           0
     58383 TIP3     11979    TIP3     H2       HT       0.417000       1.00800           0
     58384 TIP3     11980    TIP3     OH2      OT      -0.834000       15.9994           0
     58385 TIP3     11980    TIP3     H1       HT       0.417000       1.00800           0
     58386 TIP3     11980    TIP3     H2       HT       0.417000       1.00800           0
     58387 TIP3     11981    TIP3     OH2      OT      -0.834000       15.9994           0
     58388 TIP3     11981    TIP3     H1       HT       0.417000       1.00800           0
     58389 TIP3     11981    TIP3     H2       HT       0.417000       1.00800           0
     58390 TIP3     11982    TIP3     OH2      OT      -0.834000       15.9994           0
     58391 TIP3     11982    TIP3     H1       HT       0.417000       1.00800           0
     58392 TIP3     11982    TIP3     H2       HT       0.417000       1.00800           0
     58393 TIP3     11983    TIP3     OH2      OT      -0.834000       15.9994           0
     58394 TIP3     11983    TIP3     H1       HT       0.417000       1.00800           0
     58395 TIP3     11983    TIP3     H2       HT       0.417000       1.00800           0
     58396 TIP3     11984    TIP3     OH2      OT      -0.834000       15.9994           0
     58397 TIP3     11984    TIP3     H1       HT       0.417000       1.00800           0
     58398 TIP3     11984    TIP3     H2       HT       0.417000       1.00800           0
     58399 TIP3     11985    TIP3     OH2      OT      -0.834000       15.9994           0
     58400 TIP3     11985    TIP3     H1       HT       0.417000       1.00800           0
     58401 TIP3     11985    TIP3     H2       HT       0.417000       1.00800           0
     58402 TIP3     11986    TIP3     OH2      OT      -0.834000       15.9994           0
     58403 TIP3     11986    TIP3     H1       HT       0.417000       1.00800           0
     58404 TIP3     11986    TIP3     H2       HT       0.417000       1.00800           0
     58405 TIP3     11987    TIP3     OH2      OT      -0.834000       15.9994           0
     58406 TIP3     11987    TIP3     H1       HT       0.417000       1.00800           0
     58407 TIP3     11987    TIP3     H2       HT       0.417000       1.00800           0
     58408 TIP3     11988    TIP3     OH2      OT      -0.834000       15.9994           0
     58409 TIP3     11988    TIP3     H1       HT       0.417000       1.00800           0
     58410 TIP3     11988    TIP3     H2       HT       0.417000       1.00800           0
     58411 TIP3     11989    TIP3     OH2      OT      -0.834000       15.9994           0
     58412 TIP3     11989    TIP3     H1       HT       0.417000       1.00800           0
     58413 TIP3     11989    TIP3     H2       HT       0.417000       1.00800           0
     58414 TIP3     11990    TIP3     OH2      OT      -0.834000       15.9994           0
     58415 TIP3     11990    TIP3     H1       HT       0.417000       1.00800           0
     58416 TIP3     11990    TIP3     H2       HT       0.417000       1.00800           0
     58417 TIP3     11991    TIP3     OH2      OT      -0.834000       15.9994           0
     58418 TIP3     11991    TIP3     H1       HT       0.417000       1.00800           0
     58419 TIP3     11991    TIP3     H2       HT       0.417000       1.00800           0
     58420 TIP3     11992    TIP3     OH2      OT      -0.834000       15.9994           0
     58421 TIP3     11992    TIP3     H1       HT       0.417000       1.00800           0
     58422 TIP3     11992    TIP3     H2       HT       0.417000       1.00800           0
     58423 TIP3     11993    TIP3     OH2      OT      -0.834000       15.9994           0
     58424 TIP3     11993    TIP3     H1       HT       0.417000       1.00800           0
     58425 TIP3     11993    TIP3     H2       HT       0.417000       1.00800           0
     58426 TIP3     11994    TIP3     OH2      OT      -0.834000       15.9994           0
     58427 TIP3     11994    TIP3     H1       HT       0.417000       1.00800           0
     58428 TIP3     11994    TIP3     H2       HT       0.417000       1.00800           0
     58429 TIP3     11995    TIP3     OH2      OT      -0.834000       15.9994           0
     58430 TIP3     11995    TIP3     H1       HT       0.417000       1.00800           0
     58431 TIP3     11995    TIP3     H2       HT       0.417000       1.00800           0
     58432 TIP3     11996    TIP3     OH2      OT      -0.834000       15.9994           0
     58433 TIP3     11996    TIP3     H1       HT       0.417000       1.00800           0
     58434 TIP3     11996    TIP3     H2       HT       0.417000       1.00800           0
     58435 TIP3     11997    TIP3     OH2      OT      -0.834000       15.9994           0
     58436 TIP3     11997    TIP3     H1       HT       0.417000       1.00800           0
     58437 TIP3     11997    TIP3     H2       HT       0.417000       1.00800           0
     58438 TIP3     11998    TIP3     OH2      OT      -0.834000       15.9994           0
     58439 TIP3     11998    TIP3     H1       HT       0.417000       1.00800           0
     58440 TIP3     11998    TIP3     H2       HT       0.417000       1.00800           0
     58441 TIP3     11999    TIP3     OH2      OT      -0.834000       15.9994           0
     58442 TIP3     11999    TIP3     H1       HT       0.417000       1.00800           0
     58443 TIP3     11999    TIP3     H2       HT       0.417000       1.00800           0
     58444 TIP3     12000    TIP3     OH2      OT      -0.834000       15.9994           0
     58445 TIP3     12000    TIP3     H1       HT       0.417000       1.00800           0
     58446 TIP3     12000    TIP3     H2       HT       0.417000       1.00800           0
     58447 TIP3     12001    TIP3     OH2      OT      -0.834000       15.9994           0
     58448 TIP3     12001    TIP3     H1       HT       0.417000       1.00800           0
     58449 TIP3     12001    TIP3     H2       HT       0.417000       1.00800           0
     58450 TIP3     12002    TIP3     OH2      OT      -0.834000       15.9994           0
     58451 TIP3     12002    TIP3     H1       HT       0.417000       1.00800           0
     58452 TIP3     12002    TIP3     H2       HT       0.417000       1.00800           0
     58453 TIP3     12003    TIP3     OH2      OT      -0.834000       15.9994           0
     58454 TIP3     12003    TIP3     H1       HT       0.417000       1.00800           0
     58455 TIP3     12003    TIP3     H2       HT       0.417000       1.00800           0
     58456 TIP3     12004    TIP3     OH2      OT      -0.834000       15.9994           0
     58457 TIP3     12004    TIP3     H1       HT       0.417000       1.00800           0
     58458 TIP3     12004    TIP3     H2       HT       0.417000       1.00800           0
     58459 TIP3     12005    TIP3     OH2      OT      -0.834000       15.9994           0
     58460 TIP3     12005    TIP3     H1       HT       0.417000       1.00800           0
     58461 TIP3     12005    TIP3     H2       HT       0.417000       1.00800           0
     58462 TIP3     12006    TIP3     OH2      OT      -0.834000       15.9994           0
     58463 TIP3     12006    TIP3     H1       HT       0.417000       1.00800           0
     58464 TIP3     12006    TIP3     H2       HT       0.417000       1.00800           0
     58465 TIP3     12007    TIP3     OH2      OT      -0.834000       15.9994           0
     58466 TIP3     12007    TIP3     H1       HT       0.417000       1.00800           0
     58467 TIP3     12007    TIP3     H2       HT       0.417000       1.00800           0
     58468 TIP3     12008    TIP3     OH2      OT      -0.834000       15.9994           0
     58469 TIP3     12008    TIP3     H1       HT       0.417000       1.00800           0
     58470 TIP3     12008    TIP3     H2       HT       0.417000       1.00800           0
     58471 TIP3     12009    TIP3     OH2      OT      -0.834000       15.9994           0
     58472 TIP3     12009    TIP3     H1       HT       0.417000       1.00800           0
     58473 TIP3     12009    TIP3     H2       HT       0.417000       1.00800           0
     58474 TIP3     12010    TIP3     OH2      OT      -0.834000       15.9994           0
     58475 TIP3     12010    TIP3     H1       HT       0.417000       1.00800           0
     58476 TIP3     12010    TIP3     H2       HT       0.417000       1.00800           0
     58477 TIP3     12011    TIP3     OH2      OT      -0.834000       15.9994           0
     58478 TIP3     12011    TIP3     H1       HT       0.417000       1.00800           0
     58479 TIP3     12011    TIP3     H2       HT       0.417000       1.00800           0
     58480 TIP3     12012    TIP3     OH2      OT      -0.834000       15.9994           0
     58481 TIP3     12012    TIP3     H1       HT       0.417000       1.00800           0
     58482 TIP3     12012    TIP3     H2       HT       0.417000       1.00800           0
     58483 TIP3     12013    TIP3     OH2      OT      -0.834000       15.9994           0
     58484 TIP3     12013    TIP3     H1       HT       0.417000       1.00800           0
     58485 TIP3     12013    TIP3     H2       HT       0.417000       1.00800           0
     58486 TIP3     12014    TIP3     OH2      OT      -0.834000       15.9994           0
     58487 TIP3     12014    TIP3     H1       HT       0.417000       1.00800           0
     58488 TIP3     12014    TIP3     H2       HT       0.417000       1.00800           0
     58489 TIP3     12015    TIP3     OH2      OT      -0.834000       15.9994           0
     58490 TIP3     12015    TIP3     H1       HT       0.417000       1.00800           0
     58491 TIP3     12015    TIP3     H2       HT       0.417000       1.00800           0
     58492 TIP3     12016    TIP3     OH2      OT      -0.834000       15.9994           0
     58493 TIP3     12016    TIP3     H1       HT       0.417000       1.00800           0
     58494 TIP3     12016    TIP3     H2       HT       0.417000       1.00800           0
     58495 TIP3     12017    TIP3     OH2      OT      -0.834000       15.9994           0
     58496 TIP3     12017    TIP3     H1       HT       0.417000       1.00800           0
     58497 TIP3     12017    TIP3     H2       HT       0.417000       1.00800           0
     58498 TIP3     12018    TIP3     OH2      OT      -0.834000       15.9994           0
     58499 TIP3     12018    TIP3     H1       HT       0.417000       1.00800           0
     58500 TIP3     12018    TIP3     H2       HT       0.417000       1.00800           0
     58501 TIP3     12019    TIP3     OH2      OT      -0.834000       15.9994           0
     58502 TIP3     12019    TIP3     H1       HT       0.417000       1.00800           0
     58503 TIP3     12019    TIP3     H2       HT       0.417000       1.00800           0
     58504 TIP3     12020    TIP3     OH2      OT      -0.834000       15.9994           0
     58505 TIP3     12020    TIP3     H1       HT       0.417000       1.00800           0
     58506 TIP3     12020    TIP3     H2       HT       0.417000       1.00800           0
     58507 TIP3     12021    TIP3     OH2      OT      -0.834000       15.9994           0
     58508 TIP3     12021    TIP3     H1       HT       0.417000       1.00800           0
     58509 TIP3     12021    TIP3     H2       HT       0.417000       1.00800           0
     58510 TIP3     12022    TIP3     OH2      OT      -0.834000       15.9994           0
     58511 TIP3     12022    TIP3     H1       HT       0.417000       1.00800           0
     58512 TIP3     12022    TIP3     H2       HT       0.417000       1.00800           0
     58513 TIP3     12023    TIP3     OH2      OT      -0.834000       15.9994           0
     58514 TIP3     12023    TIP3     H1       HT       0.417000       1.00800           0
     58515 TIP3     12023    TIP3     H2       HT       0.417000       1.00800           0
     58516 TIP3     12024    TIP3     OH2      OT      -0.834000       15.9994           0
     58517 TIP3     12024    TIP3     H1       HT       0.417000       1.00800           0
     58518 TIP3     12024    TIP3     H2       HT       0.417000       1.00800           0
     58519 TIP3     12025    TIP3     OH2      OT      -0.834000       15.9994           0
     58520 TIP3     12025    TIP3     H1       HT       0.417000       1.00800           0
     58521 TIP3     12025    TIP3     H2       HT       0.417000       1.00800           0
     58522 TIP3     12026    TIP3     OH2      OT      -0.834000       15.9994           0
     58523 TIP3     12026    TIP3     H1       HT       0.417000       1.00800           0
     58524 TIP3     12026    TIP3     H2       HT       0.417000       1.00800           0
     58525 TIP3     12027    TIP3     OH2      OT      -0.834000       15.9994           0
     58526 TIP3     12027    TIP3     H1       HT       0.417000       1.00800           0
     58527 TIP3     12027    TIP3     H2       HT       0.417000       1.00800           0
     58528 TIP3     12028    TIP3     OH2      OT      -0.834000       15.9994           0
     58529 TIP3     12028    TIP3     H1       HT       0.417000       1.00800           0
     58530 TIP3     12028    TIP3     H2       HT       0.417000       1.00800           0
     58531 TIP3     12029    TIP3     OH2      OT      -0.834000       15.9994           0
     58532 TIP3     12029    TIP3     H1       HT       0.417000       1.00800           0
     58533 TIP3     12029    TIP3     H2       HT       0.417000       1.00800           0
     58534 TIP3     12030    TIP3     OH2      OT      -0.834000       15.9994           0
     58535 TIP3     12030    TIP3     H1       HT       0.417000       1.00800           0
     58536 TIP3     12030    TIP3     H2       HT       0.417000       1.00800           0
     58537 TIP3     12031    TIP3     OH2      OT      -0.834000       15.9994           0
     58538 TIP3     12031    TIP3     H1       HT       0.417000       1.00800           0
     58539 TIP3     12031    TIP3     H2       HT       0.417000       1.00800           0
     58540 TIP3     12032    TIP3     OH2      OT      -0.834000       15.9994           0
     58541 TIP3     12032    TIP3     H1       HT       0.417000       1.00800           0
     58542 TIP3     12032    TIP3     H2       HT       0.417000       1.00800           0
     58543 TIP3     12033    TIP3     OH2      OT      -0.834000       15.9994           0
     58544 TIP3     12033    TIP3     H1       HT       0.417000       1.00800           0
     58545 TIP3     12033    TIP3     H2       HT       0.417000       1.00800           0
     58546 TIP3     12034    TIP3     OH2      OT      -0.834000       15.9994           0
     58547 TIP3     12034    TIP3     H1       HT       0.417000       1.00800           0
     58548 TIP3     12034    TIP3     H2       HT       0.417000       1.00800           0
     58549 TIP3     12035    TIP3     OH2      OT      -0.834000       15.9994           0
     58550 TIP3     12035    TIP3     H1       HT       0.417000       1.00800           0
     58551 TIP3     12035    TIP3     H2       HT       0.417000       1.00800           0
     58552 TIP3     12036    TIP3     OH2      OT      -0.834000       15.9994           0
     58553 TIP3     12036    TIP3     H1       HT       0.417000       1.00800           0
     58554 TIP3     12036    TIP3     H2       HT       0.417000       1.00800           0
     58555 TIP3     12037    TIP3     OH2      OT      -0.834000       15.9994           0
     58556 TIP3     12037    TIP3     H1       HT       0.417000       1.00800           0
     58557 TIP3     12037    TIP3     H2       HT       0.417000       1.00800           0
     58558 TIP3     12038    TIP3     OH2      OT      -0.834000       15.9994           0
     58559 TIP3     12038    TIP3     H1       HT       0.417000       1.00800           0
     58560 TIP3     12038    TIP3     H2       HT       0.417000       1.00800           0
     58561 TIP3     12039    TIP3     OH2      OT      -0.834000       15.9994           0
     58562 TIP3     12039    TIP3     H1       HT       0.417000       1.00800           0
     58563 TIP3     12039    TIP3     H2       HT       0.417000       1.00800           0
     58564 TIP3     12040    TIP3     OH2      OT      -0.834000       15.9994           0
     58565 TIP3     12040    TIP3     H1       HT       0.417000       1.00800           0
     58566 TIP3     12040    TIP3     H2       HT       0.417000       1.00800           0
     58567 TIP3     12041    TIP3     OH2      OT      -0.834000       15.9994           0
     58568 TIP3     12041    TIP3     H1       HT       0.417000       1.00800           0
     58569 TIP3     12041    TIP3     H2       HT       0.417000       1.00800           0
     58570 TIP3     12042    TIP3     OH2      OT      -0.834000       15.9994           0
     58571 TIP3     12042    TIP3     H1       HT       0.417000       1.00800           0
     58572 TIP3     12042    TIP3     H2       HT       0.417000       1.00800           0
     58573 TIP3     12043    TIP3     OH2      OT      -0.834000       15.9994           0
     58574 TIP3     12043    TIP3     H1       HT       0.417000       1.00800           0
     58575 TIP3     12043    TIP3     H2       HT       0.417000       1.00800           0
     58576 TIP3     12044    TIP3     OH2      OT      -0.834000       15.9994           0
     58577 TIP3     12044    TIP3     H1       HT       0.417000       1.00800           0
     58578 TIP3     12044    TIP3     H2       HT       0.417000       1.00800           0
     58579 TIP3     12045    TIP3     OH2      OT      -0.834000       15.9994           0
     58580 TIP3     12045    TIP3     H1       HT       0.417000       1.00800           0
     58581 TIP3     12045    TIP3     H2       HT       0.417000       1.00800           0
     58582 TIP3     12046    TIP3     OH2      OT      -0.834000       15.9994           0
     58583 TIP3     12046    TIP3     H1       HT       0.417000       1.00800           0
     58584 TIP3     12046    TIP3     H2       HT       0.417000       1.00800           0
     58585 TIP3     12047    TIP3     OH2      OT      -0.834000       15.9994           0
     58586 TIP3     12047    TIP3     H1       HT       0.417000       1.00800           0
     58587 TIP3     12047    TIP3     H2       HT       0.417000       1.00800           0
     58588 TIP3     12048    TIP3     OH2      OT      -0.834000       15.9994           0
     58589 TIP3     12048    TIP3     H1       HT       0.417000       1.00800           0
     58590 TIP3     12048    TIP3     H2       HT       0.417000       1.00800           0
     58591 TIP3     12049    TIP3     OH2      OT      -0.834000       15.9994           0
     58592 TIP3     12049    TIP3     H1       HT       0.417000       1.00800           0
     58593 TIP3     12049    TIP3     H2       HT       0.417000       1.00800           0
     58594 TIP3     12050    TIP3     OH2      OT      -0.834000       15.9994           0
     58595 TIP3     12050    TIP3     H1       HT       0.417000       1.00800           0
     58596 TIP3     12050    TIP3     H2       HT       0.417000       1.00800           0
     58597 TIP3     12051    TIP3     OH2      OT      -0.834000       15.9994           0
     58598 TIP3     12051    TIP3     H1       HT       0.417000       1.00800           0
     58599 TIP3     12051    TIP3     H2       HT       0.417000       1.00800           0
     58600 TIP3     12052    TIP3     OH2      OT      -0.834000       15.9994           0
     58601 TIP3     12052    TIP3     H1       HT       0.417000       1.00800           0
     58602 TIP3     12052    TIP3     H2       HT       0.417000       1.00800           0
     58603 TIP3     12053    TIP3     OH2      OT      -0.834000       15.9994           0
     58604 TIP3     12053    TIP3     H1       HT       0.417000       1.00800           0
     58605 TIP3     12053    TIP3     H2       HT       0.417000       1.00800           0
     58606 TIP3     12054    TIP3     OH2      OT      -0.834000       15.9994           0
     58607 TIP3     12054    TIP3     H1       HT       0.417000       1.00800           0
     58608 TIP3     12054    TIP3     H2       HT       0.417000       1.00800           0
     58609 TIP3     12055    TIP3     OH2      OT      -0.834000       15.9994           0
     58610 TIP3     12055    TIP3     H1       HT       0.417000       1.00800           0
     58611 TIP3     12055    TIP3     H2       HT       0.417000       1.00800           0
     58612 TIP3     12056    TIP3     OH2      OT      -0.834000       15.9994           0
     58613 TIP3     12056    TIP3     H1       HT       0.417000       1.00800           0
     58614 TIP3     12056    TIP3     H2       HT       0.417000       1.00800           0
     58615 TIP3     12057    TIP3     OH2      OT      -0.834000       15.9994           0
     58616 TIP3     12057    TIP3     H1       HT       0.417000       1.00800           0
     58617 TIP3     12057    TIP3     H2       HT       0.417000       1.00800           0
     58618 TIP3     12058    TIP3     OH2      OT      -0.834000       15.9994           0
     58619 TIP3     12058    TIP3     H1       HT       0.417000       1.00800           0
     58620 TIP3     12058    TIP3     H2       HT       0.417000       1.00800           0
     58621 TIP3     12059    TIP3     OH2      OT      -0.834000       15.9994           0
     58622 TIP3     12059    TIP3     H1       HT       0.417000       1.00800           0
     58623 TIP3     12059    TIP3     H2       HT       0.417000       1.00800           0
     58624 TIP3     12060    TIP3     OH2      OT      -0.834000       15.9994           0
     58625 TIP3     12060    TIP3     H1       HT       0.417000       1.00800           0
     58626 TIP3     12060    TIP3     H2       HT       0.417000       1.00800           0
     58627 TIP3     12061    TIP3     OH2      OT      -0.834000       15.9994           0
     58628 TIP3     12061    TIP3     H1       HT       0.417000       1.00800           0
     58629 TIP3     12061    TIP3     H2       HT       0.417000       1.00800           0
     58630 TIP3     12062    TIP3     OH2      OT      -0.834000       15.9994           0
     58631 TIP3     12062    TIP3     H1       HT       0.417000       1.00800           0
     58632 TIP3     12062    TIP3     H2       HT       0.417000       1.00800           0
     58633 TIP3     12063    TIP3     OH2      OT      -0.834000       15.9994           0
     58634 TIP3     12063    TIP3     H1       HT       0.417000       1.00800           0
     58635 TIP3     12063    TIP3     H2       HT       0.417000       1.00800           0
     58636 TIP3     12064    TIP3     OH2      OT      -0.834000       15.9994           0
     58637 TIP3     12064    TIP3     H1       HT       0.417000       1.00800           0
     58638 TIP3     12064    TIP3     H2       HT       0.417000       1.00800           0
     58639 TIP3     12065    TIP3     OH2      OT      -0.834000       15.9994           0
     58640 TIP3     12065    TIP3     H1       HT       0.417000       1.00800           0
     58641 TIP3     12065    TIP3     H2       HT       0.417000       1.00800           0
     58642 TIP3     12066    TIP3     OH2      OT      -0.834000       15.9994           0
     58643 TIP3     12066    TIP3     H1       HT       0.417000       1.00800           0
     58644 TIP3     12066    TIP3     H2       HT       0.417000       1.00800           0
     58645 TIP3     12067    TIP3     OH2      OT      -0.834000       15.9994           0
     58646 TIP3     12067    TIP3     H1       HT       0.417000       1.00800           0
     58647 TIP3     12067    TIP3     H2       HT       0.417000       1.00800           0
     58648 TIP3     12068    TIP3     OH2      OT      -0.834000       15.9994           0
     58649 TIP3     12068    TIP3     H1       HT       0.417000       1.00800           0
     58650 TIP3     12068    TIP3     H2       HT       0.417000       1.00800           0
     58651 TIP3     12069    TIP3     OH2      OT      -0.834000       15.9994           0
     58652 TIP3     12069    TIP3     H1       HT       0.417000       1.00800           0
     58653 TIP3     12069    TIP3     H2       HT       0.417000       1.00800           0
     58654 TIP3     12070    TIP3     OH2      OT      -0.834000       15.9994           0
     58655 TIP3     12070    TIP3     H1       HT       0.417000       1.00800           0
     58656 TIP3     12070    TIP3     H2       HT       0.417000       1.00800           0
     58657 TIP3     12071    TIP3     OH2      OT      -0.834000       15.9994           0
     58658 TIP3     12071    TIP3     H1       HT       0.417000       1.00800           0
     58659 TIP3     12071    TIP3     H2       HT       0.417000       1.00800           0
     58660 TIP3     12072    TIP3     OH2      OT      -0.834000       15.9994           0
     58661 TIP3     12072    TIP3     H1       HT       0.417000       1.00800           0
     58662 TIP3     12072    TIP3     H2       HT       0.417000       1.00800           0
     58663 TIP3     12073    TIP3     OH2      OT      -0.834000       15.9994           0
     58664 TIP3     12073    TIP3     H1       HT       0.417000       1.00800           0
     58665 TIP3     12073    TIP3     H2       HT       0.417000       1.00800           0
     58666 TIP3     12074    TIP3     OH2      OT      -0.834000       15.9994           0
     58667 TIP3     12074    TIP3     H1       HT       0.417000       1.00800           0
     58668 TIP3     12074    TIP3     H2       HT       0.417000       1.00800           0
     58669 TIP3     12075    TIP3     OH2      OT      -0.834000       15.9994           0
     58670 TIP3     12075    TIP3     H1       HT       0.417000       1.00800           0
     58671 TIP3     12075    TIP3     H2       HT       0.417000       1.00800           0
     58672 TIP3     12076    TIP3     OH2      OT      -0.834000       15.9994           0
     58673 TIP3     12076    TIP3     H1       HT       0.417000       1.00800           0
     58674 TIP3     12076    TIP3     H2       HT       0.417000       1.00800           0
     58675 TIP3     12077    TIP3     OH2      OT      -0.834000       15.9994           0
     58676 TIP3     12077    TIP3     H1       HT       0.417000       1.00800           0
     58677 TIP3     12077    TIP3     H2       HT       0.417000       1.00800           0
     58678 TIP3     12078    TIP3     OH2      OT      -0.834000       15.9994           0
     58679 TIP3     12078    TIP3     H1       HT       0.417000       1.00800           0
     58680 TIP3     12078    TIP3     H2       HT       0.417000       1.00800           0
     58681 TIP3     12079    TIP3     OH2      OT      -0.834000       15.9994           0
     58682 TIP3     12079    TIP3     H1       HT       0.417000       1.00800           0
     58683 TIP3     12079    TIP3     H2       HT       0.417000       1.00800           0
     58684 TIP3     12080    TIP3     OH2      OT      -0.834000       15.9994           0
     58685 TIP3     12080    TIP3     H1       HT       0.417000       1.00800           0
     58686 TIP3     12080    TIP3     H2       HT       0.417000       1.00800           0
     58687 TIP3     12081    TIP3     OH2      OT      -0.834000       15.9994           0
     58688 TIP3     12081    TIP3     H1       HT       0.417000       1.00800           0
     58689 TIP3     12081    TIP3     H2       HT       0.417000       1.00800           0
     58690 TIP3     12082    TIP3     OH2      OT      -0.834000       15.9994           0
     58691 TIP3     12082    TIP3     H1       HT       0.417000       1.00800           0
     58692 TIP3     12082    TIP3     H2       HT       0.417000       1.00800           0
     58693 TIP3     12083    TIP3     OH2      OT      -0.834000       15.9994           0
     58694 TIP3     12083    TIP3     H1       HT       0.417000       1.00800           0
     58695 TIP3     12083    TIP3     H2       HT       0.417000       1.00800           0
     58696 TIP3     12084    TIP3     OH2      OT      -0.834000       15.9994           0
     58697 TIP3     12084    TIP3     H1       HT       0.417000       1.00800           0
     58698 TIP3     12084    TIP3     H2       HT       0.417000       1.00800           0
     58699 TIP3     12085    TIP3     OH2      OT      -0.834000       15.9994           0
     58700 TIP3     12085    TIP3     H1       HT       0.417000       1.00800           0
     58701 TIP3     12085    TIP3     H2       HT       0.417000       1.00800           0
     58702 TIP3     12086    TIP3     OH2      OT      -0.834000       15.9994           0
     58703 TIP3     12086    TIP3     H1       HT       0.417000       1.00800           0
     58704 TIP3     12086    TIP3     H2       HT       0.417000       1.00800           0
     58705 TIP3     12087    TIP3     OH2      OT      -0.834000       15.9994           0
     58706 TIP3     12087    TIP3     H1       HT       0.417000       1.00800           0
     58707 TIP3     12087    TIP3     H2       HT       0.417000       1.00800           0
     58708 TIP3     12088    TIP3     OH2      OT      -0.834000       15.9994           0
     58709 TIP3     12088    TIP3     H1       HT       0.417000       1.00800           0
     58710 TIP3     12088    TIP3     H2       HT       0.417000       1.00800           0
     58711 TIP3     12089    TIP3     OH2      OT      -0.834000       15.9994           0
     58712 TIP3     12089    TIP3     H1       HT       0.417000       1.00800           0
     58713 TIP3     12089    TIP3     H2       HT       0.417000       1.00800           0
     58714 TIP3     12090    TIP3     OH2      OT      -0.834000       15.9994           0
     58715 TIP3     12090    TIP3     H1       HT       0.417000       1.00800           0
     58716 TIP3     12090    TIP3     H2       HT       0.417000       1.00800           0
     58717 TIP3     12091    TIP3     OH2      OT      -0.834000       15.9994           0
     58718 TIP3     12091    TIP3     H1       HT       0.417000       1.00800           0
     58719 TIP3     12091    TIP3     H2       HT       0.417000       1.00800           0
     58720 TIP3     12092    TIP3     OH2      OT      -0.834000       15.9994           0
     58721 TIP3     12092    TIP3     H1       HT       0.417000       1.00800           0
     58722 TIP3     12092    TIP3     H2       HT       0.417000       1.00800           0
     58723 TIP3     12093    TIP3     OH2      OT      -0.834000       15.9994           0
     58724 TIP3     12093    TIP3     H1       HT       0.417000       1.00800           0
     58725 TIP3     12093    TIP3     H2       HT       0.417000       1.00800           0
     58726 TIP3     12094    TIP3     OH2      OT      -0.834000       15.9994           0
     58727 TIP3     12094    TIP3     H1       HT       0.417000       1.00800           0
     58728 TIP3     12094    TIP3     H2       HT       0.417000       1.00800           0
     58729 TIP3     12095    TIP3     OH2      OT      -0.834000       15.9994           0
     58730 TIP3     12095    TIP3     H1       HT       0.417000       1.00800           0
     58731 TIP3     12095    TIP3     H2       HT       0.417000       1.00800           0
     58732 TIP3     12096    TIP3     OH2      OT      -0.834000       15.9994           0
     58733 TIP3     12096    TIP3     H1       HT       0.417000       1.00800           0
     58734 TIP3     12096    TIP3     H2       HT       0.417000       1.00800           0
     58735 TIP3     12097    TIP3     OH2      OT      -0.834000       15.9994           0
     58736 TIP3     12097    TIP3     H1       HT       0.417000       1.00800           0
     58737 TIP3     12097    TIP3     H2       HT       0.417000       1.00800           0
     58738 TIP3     12098    TIP3     OH2      OT      -0.834000       15.9994           0
     58739 TIP3     12098    TIP3     H1       HT       0.417000       1.00800           0
     58740 TIP3     12098    TIP3     H2       HT       0.417000       1.00800           0
     58741 TIP3     12099    TIP3     OH2      OT      -0.834000       15.9994           0
     58742 TIP3     12099    TIP3     H1       HT       0.417000       1.00800           0
     58743 TIP3     12099    TIP3     H2       HT       0.417000       1.00800           0
     58744 TIP3     12100    TIP3     OH2      OT      -0.834000       15.9994           0
     58745 TIP3     12100    TIP3     H1       HT       0.417000       1.00800           0
     58746 TIP3     12100    TIP3     H2       HT       0.417000       1.00800           0
     58747 TIP3     12101    TIP3     OH2      OT      -0.834000       15.9994           0
     58748 TIP3     12101    TIP3     H1       HT       0.417000       1.00800           0
     58749 TIP3     12101    TIP3     H2       HT       0.417000       1.00800           0
     58750 TIP3     12102    TIP3     OH2      OT      -0.834000       15.9994           0
     58751 TIP3     12102    TIP3     H1       HT       0.417000       1.00800           0
     58752 TIP3     12102    TIP3     H2       HT       0.417000       1.00800           0
     58753 TIP3     12103    TIP3     OH2      OT      -0.834000       15.9994           0
     58754 TIP3     12103    TIP3     H1       HT       0.417000       1.00800           0
     58755 TIP3     12103    TIP3     H2       HT       0.417000       1.00800           0
     58756 TIP3     12104    TIP3     OH2      OT      -0.834000       15.9994           0
     58757 TIP3     12104    TIP3     H1       HT       0.417000       1.00800           0
     58758 TIP3     12104    TIP3     H2       HT       0.417000       1.00800           0
     58759 TIP3     12105    TIP3     OH2      OT      -0.834000       15.9994           0
     58760 TIP3     12105    TIP3     H1       HT       0.417000       1.00800           0
     58761 TIP3     12105    TIP3     H2       HT       0.417000       1.00800           0
     58762 TIP3     12106    TIP3     OH2      OT      -0.834000       15.9994           0
     58763 TIP3     12106    TIP3     H1       HT       0.417000       1.00800           0
     58764 TIP3     12106    TIP3     H2       HT       0.417000       1.00800           0
     58765 TIP3     12107    TIP3     OH2      OT      -0.834000       15.9994           0
     58766 TIP3     12107    TIP3     H1       HT       0.417000       1.00800           0
     58767 TIP3     12107    TIP3     H2       HT       0.417000       1.00800           0
     58768 TIP3     12108    TIP3     OH2      OT      -0.834000       15.9994           0
     58769 TIP3     12108    TIP3     H1       HT       0.417000       1.00800           0
     58770 TIP3     12108    TIP3     H2       HT       0.417000       1.00800           0
     58771 TIP3     12109    TIP3     OH2      OT      -0.834000       15.9994           0
     58772 TIP3     12109    TIP3     H1       HT       0.417000       1.00800           0
     58773 TIP3     12109    TIP3     H2       HT       0.417000       1.00800           0
     58774 TIP3     12110    TIP3     OH2      OT      -0.834000       15.9994           0
     58775 TIP3     12110    TIP3     H1       HT       0.417000       1.00800           0
     58776 TIP3     12110    TIP3     H2       HT       0.417000       1.00800           0
     58777 TIP3     12111    TIP3     OH2      OT      -0.834000       15.9994           0
     58778 TIP3     12111    TIP3     H1       HT       0.417000       1.00800           0
     58779 TIP3     12111    TIP3     H2       HT       0.417000       1.00800           0
     58780 TIP3     12112    TIP3     OH2      OT      -0.834000       15.9994           0
     58781 TIP3     12112    TIP3     H1       HT       0.417000       1.00800           0
     58782 TIP3     12112    TIP3     H2       HT       0.417000       1.00800           0
     58783 TIP3     12113    TIP3     OH2      OT      -0.834000       15.9994           0
     58784 TIP3     12113    TIP3     H1       HT       0.417000       1.00800           0
     58785 TIP3     12113    TIP3     H2       HT       0.417000       1.00800           0
     58786 TIP3     12114    TIP3     OH2      OT      -0.834000       15.9994           0
     58787 TIP3     12114    TIP3     H1       HT       0.417000       1.00800           0
     58788 TIP3     12114    TIP3     H2       HT       0.417000       1.00800           0
     58789 TIP3     12115    TIP3     OH2      OT      -0.834000       15.9994           0
     58790 TIP3     12115    TIP3     H1       HT       0.417000       1.00800           0
     58791 TIP3     12115    TIP3     H2       HT       0.417000       1.00800           0
     58792 TIP3     12116    TIP3     OH2      OT      -0.834000       15.9994           0
     58793 TIP3     12116    TIP3     H1       HT       0.417000       1.00800           0
     58794 TIP3     12116    TIP3     H2       HT       0.417000       1.00800           0
     58795 TIP3     12117    TIP3     OH2      OT      -0.834000       15.9994           0
     58796 TIP3     12117    TIP3     H1       HT       0.417000       1.00800           0
     58797 TIP3     12117    TIP3     H2       HT       0.417000       1.00800           0
     58798 TIP3     12118    TIP3     OH2      OT      -0.834000       15.9994           0
     58799 TIP3     12118    TIP3     H1       HT       0.417000       1.00800           0
     58800 TIP3     12118    TIP3     H2       HT       0.417000       1.00800           0
     58801 TIP3     12119    TIP3     OH2      OT      -0.834000       15.9994           0
     58802 TIP3     12119    TIP3     H1       HT       0.417000       1.00800           0
     58803 TIP3     12119    TIP3     H2       HT       0.417000       1.00800           0
     58804 TIP3     12120    TIP3     OH2      OT      -0.834000       15.9994           0
     58805 TIP3     12120    TIP3     H1       HT       0.417000       1.00800           0
     58806 TIP3     12120    TIP3     H2       HT       0.417000       1.00800           0
     58807 TIP3     12121    TIP3     OH2      OT      -0.834000       15.9994           0
     58808 TIP3     12121    TIP3     H1       HT       0.417000       1.00800           0
     58809 TIP3     12121    TIP3     H2       HT       0.417000       1.00800           0
     58810 TIP3     12122    TIP3     OH2      OT      -0.834000       15.9994           0
     58811 TIP3     12122    TIP3     H1       HT       0.417000       1.00800           0
     58812 TIP3     12122    TIP3     H2       HT       0.417000       1.00800           0
     58813 TIP3     12123    TIP3     OH2      OT      -0.834000       15.9994           0
     58814 TIP3     12123    TIP3     H1       HT       0.417000       1.00800           0
     58815 TIP3     12123    TIP3     H2       HT       0.417000       1.00800           0
     58816 TIP3     12124    TIP3     OH2      OT      -0.834000       15.9994           0
     58817 TIP3     12124    TIP3     H1       HT       0.417000       1.00800           0
     58818 TIP3     12124    TIP3     H2       HT       0.417000       1.00800           0
     58819 TIP3     12125    TIP3     OH2      OT      -0.834000       15.9994           0
     58820 TIP3     12125    TIP3     H1       HT       0.417000       1.00800           0
     58821 TIP3     12125    TIP3     H2       HT       0.417000       1.00800           0
     58822 TIP3     12126    TIP3     OH2      OT      -0.834000       15.9994           0
     58823 TIP3     12126    TIP3     H1       HT       0.417000       1.00800           0
     58824 TIP3     12126    TIP3     H2       HT       0.417000       1.00800           0
     58825 TIP3     12127    TIP3     OH2      OT      -0.834000       15.9994           0
     58826 TIP3     12127    TIP3     H1       HT       0.417000       1.00800           0
     58827 TIP3     12127    TIP3     H2       HT       0.417000       1.00800           0
     58828 TIP3     12128    TIP3     OH2      OT      -0.834000       15.9994           0
     58829 TIP3     12128    TIP3     H1       HT       0.417000       1.00800           0
     58830 TIP3     12128    TIP3     H2       HT       0.417000       1.00800           0
     58831 TIP3     12129    TIP3     OH2      OT      -0.834000       15.9994           0
     58832 TIP3     12129    TIP3     H1       HT       0.417000       1.00800           0
     58833 TIP3     12129    TIP3     H2       HT       0.417000       1.00800           0
     58834 TIP3     12130    TIP3     OH2      OT      -0.834000       15.9994           0
     58835 TIP3     12130    TIP3     H1       HT       0.417000       1.00800           0
     58836 TIP3     12130    TIP3     H2       HT       0.417000       1.00800           0
     58837 TIP3     12131    TIP3     OH2      OT      -0.834000       15.9994           0
     58838 TIP3     12131    TIP3     H1       HT       0.417000       1.00800           0
     58839 TIP3     12131    TIP3     H2       HT       0.417000       1.00800           0
     58840 TIP3     12132    TIP3     OH2      OT      -0.834000       15.9994           0
     58841 TIP3     12132    TIP3     H1       HT       0.417000       1.00800           0
     58842 TIP3     12132    TIP3     H2       HT       0.417000       1.00800           0
     58843 TIP3     12133    TIP3     OH2      OT      -0.834000       15.9994           0
     58844 TIP3     12133    TIP3     H1       HT       0.417000       1.00800           0
     58845 TIP3     12133    TIP3     H2       HT       0.417000       1.00800           0
     58846 TIP3     12134    TIP3     OH2      OT      -0.834000       15.9994           0
     58847 TIP3     12134    TIP3     H1       HT       0.417000       1.00800           0
     58848 TIP3     12134    TIP3     H2       HT       0.417000       1.00800           0
     58849 TIP3     12135    TIP3     OH2      OT      -0.834000       15.9994           0
     58850 TIP3     12135    TIP3     H1       HT       0.417000       1.00800           0
     58851 TIP3     12135    TIP3     H2       HT       0.417000       1.00800           0
     58852 TIP3     12136    TIP3     OH2      OT      -0.834000       15.9994           0
     58853 TIP3     12136    TIP3     H1       HT       0.417000       1.00800           0
     58854 TIP3     12136    TIP3     H2       HT       0.417000       1.00800           0
     58855 TIP3     12137    TIP3     OH2      OT      -0.834000       15.9994           0
     58856 TIP3     12137    TIP3     H1       HT       0.417000       1.00800           0
     58857 TIP3     12137    TIP3     H2       HT       0.417000       1.00800           0
     58858 TIP3     12138    TIP3     OH2      OT      -0.834000       15.9994           0
     58859 TIP3     12138    TIP3     H1       HT       0.417000       1.00800           0
     58860 TIP3     12138    TIP3     H2       HT       0.417000       1.00800           0
     58861 TIP3     12139    TIP3     OH2      OT      -0.834000       15.9994           0
     58862 TIP3     12139    TIP3     H1       HT       0.417000       1.00800           0
     58863 TIP3     12139    TIP3     H2       HT       0.417000       1.00800           0
     58864 TIP3     12140    TIP3     OH2      OT      -0.834000       15.9994           0
     58865 TIP3     12140    TIP3     H1       HT       0.417000       1.00800           0
     58866 TIP3     12140    TIP3     H2       HT       0.417000       1.00800           0
     58867 TIP3     12141    TIP3     OH2      OT      -0.834000       15.9994           0
     58868 TIP3     12141    TIP3     H1       HT       0.417000       1.00800           0
     58869 TIP3     12141    TIP3     H2       HT       0.417000       1.00800           0
     58870 TIP3     12142    TIP3     OH2      OT      -0.834000       15.9994           0
     58871 TIP3     12142    TIP3     H1       HT       0.417000       1.00800           0
     58872 TIP3     12142    TIP3     H2       HT       0.417000       1.00800           0
     58873 TIP3     12143    TIP3     OH2      OT      -0.834000       15.9994           0
     58874 TIP3     12143    TIP3     H1       HT       0.417000       1.00800           0
     58875 TIP3     12143    TIP3     H2       HT       0.417000       1.00800           0
     58876 TIP3     12144    TIP3     OH2      OT      -0.834000       15.9994           0
     58877 TIP3     12144    TIP3     H1       HT       0.417000       1.00800           0
     58878 TIP3     12144    TIP3     H2       HT       0.417000       1.00800           0
     58879 TIP3     12145    TIP3     OH2      OT      -0.834000       15.9994           0
     58880 TIP3     12145    TIP3     H1       HT       0.417000       1.00800           0
     58881 TIP3     12145    TIP3     H2       HT       0.417000       1.00800           0
     58882 TIP3     12146    TIP3     OH2      OT      -0.834000       15.9994           0
     58883 TIP3     12146    TIP3     H1       HT       0.417000       1.00800           0
     58884 TIP3     12146    TIP3     H2       HT       0.417000       1.00800           0
     58885 TIP3     12147    TIP3     OH2      OT      -0.834000       15.9994           0
     58886 TIP3     12147    TIP3     H1       HT       0.417000       1.00800           0
     58887 TIP3     12147    TIP3     H2       HT       0.417000       1.00800           0
     58888 TIP3     12148    TIP3     OH2      OT      -0.834000       15.9994           0
     58889 TIP3     12148    TIP3     H1       HT       0.417000       1.00800           0
     58890 TIP3     12148    TIP3     H2       HT       0.417000       1.00800           0
     58891 TIP3     12149    TIP3     OH2      OT      -0.834000       15.9994           0
     58892 TIP3     12149    TIP3     H1       HT       0.417000       1.00800           0
     58893 TIP3     12149    TIP3     H2       HT       0.417000       1.00800           0
     58894 TIP3     12150    TIP3     OH2      OT      -0.834000       15.9994           0
     58895 TIP3     12150    TIP3     H1       HT       0.417000       1.00800           0
     58896 TIP3     12150    TIP3     H2       HT       0.417000       1.00800           0
     58897 TIP3     12151    TIP3     OH2      OT      -0.834000       15.9994           0
     58898 TIP3     12151    TIP3     H1       HT       0.417000       1.00800           0
     58899 TIP3     12151    TIP3     H2       HT       0.417000       1.00800           0
     58900 TIP3     12152    TIP3     OH2      OT      -0.834000       15.9994           0
     58901 TIP3     12152    TIP3     H1       HT       0.417000       1.00800           0
     58902 TIP3     12152    TIP3     H2       HT       0.417000       1.00800           0
     58903 TIP3     12153    TIP3     OH2      OT      -0.834000       15.9994           0
     58904 TIP3     12153    TIP3     H1       HT       0.417000       1.00800           0
     58905 TIP3     12153    TIP3     H2       HT       0.417000       1.00800           0
     58906 TIP3     12154    TIP3     OH2      OT      -0.834000       15.9994           0
     58907 TIP3     12154    TIP3     H1       HT       0.417000       1.00800           0
     58908 TIP3     12154    TIP3     H2       HT       0.417000       1.00800           0
     58909 TIP3     12155    TIP3     OH2      OT      -0.834000       15.9994           0
     58910 TIP3     12155    TIP3     H1       HT       0.417000       1.00800           0
     58911 TIP3     12155    TIP3     H2       HT       0.417000       1.00800           0
     58912 TIP3     12156    TIP3     OH2      OT      -0.834000       15.9994           0
     58913 TIP3     12156    TIP3     H1       HT       0.417000       1.00800           0
     58914 TIP3     12156    TIP3     H2       HT       0.417000       1.00800           0
     58915 TIP3     12157    TIP3     OH2      OT      -0.834000       15.9994           0
     58916 TIP3     12157    TIP3     H1       HT       0.417000       1.00800           0
     58917 TIP3     12157    TIP3     H2       HT       0.417000       1.00800           0
     58918 TIP3     12158    TIP3     OH2      OT      -0.834000       15.9994           0
     58919 TIP3     12158    TIP3     H1       HT       0.417000       1.00800           0
     58920 TIP3     12158    TIP3     H2       HT       0.417000       1.00800           0
     58921 TIP3     12159    TIP3     OH2      OT      -0.834000       15.9994           0
     58922 TIP3     12159    TIP3     H1       HT       0.417000       1.00800           0
     58923 TIP3     12159    TIP3     H2       HT       0.417000       1.00800           0
     58924 TIP3     12160    TIP3     OH2      OT      -0.834000       15.9994           0
     58925 TIP3     12160    TIP3     H1       HT       0.417000       1.00800           0
     58926 TIP3     12160    TIP3     H2       HT       0.417000       1.00800           0
     58927 TIP3     12161    TIP3     OH2      OT      -0.834000       15.9994           0
     58928 TIP3     12161    TIP3     H1       HT       0.417000       1.00800           0
     58929 TIP3     12161    TIP3     H2       HT       0.417000       1.00800           0
     58930 TIP3     12162    TIP3     OH2      OT      -0.834000       15.9994           0
     58931 TIP3     12162    TIP3     H1       HT       0.417000       1.00800           0
     58932 TIP3     12162    TIP3     H2       HT       0.417000       1.00800           0
     58933 TIP3     12163    TIP3     OH2      OT      -0.834000       15.9994           0
     58934 TIP3     12163    TIP3     H1       HT       0.417000       1.00800           0
     58935 TIP3     12163    TIP3     H2       HT       0.417000       1.00800           0
     58936 TIP3     12164    TIP3     OH2      OT      -0.834000       15.9994           0
     58937 TIP3     12164    TIP3     H1       HT       0.417000       1.00800           0
     58938 TIP3     12164    TIP3     H2       HT       0.417000       1.00800           0
     58939 TIP3     12165    TIP3     OH2      OT      -0.834000       15.9994           0
     58940 TIP3     12165    TIP3     H1       HT       0.417000       1.00800           0
     58941 TIP3     12165    TIP3     H2       HT       0.417000       1.00800           0
     58942 TIP3     12166    TIP3     OH2      OT      -0.834000       15.9994           0
     58943 TIP3     12166    TIP3     H1       HT       0.417000       1.00800           0
     58944 TIP3     12166    TIP3     H2       HT       0.417000       1.00800           0
     58945 TIP3     12167    TIP3     OH2      OT      -0.834000       15.9994           0
     58946 TIP3     12167    TIP3     H1       HT       0.417000       1.00800           0
     58947 TIP3     12167    TIP3     H2       HT       0.417000       1.00800           0
     58948 TIP3     12168    TIP3     OH2      OT      -0.834000       15.9994           0
     58949 TIP3     12168    TIP3     H1       HT       0.417000       1.00800           0
     58950 TIP3     12168    TIP3     H2       HT       0.417000       1.00800           0
     58951 TIP3     12169    TIP3     OH2      OT      -0.834000       15.9994           0
     58952 TIP3     12169    TIP3     H1       HT       0.417000       1.00800           0
     58953 TIP3     12169    TIP3     H2       HT       0.417000       1.00800           0
     58954 TIP3     12170    TIP3     OH2      OT      -0.834000       15.9994           0
     58955 TIP3     12170    TIP3     H1       HT       0.417000       1.00800           0
     58956 TIP3     12170    TIP3     H2       HT       0.417000       1.00800           0
     58957 TIP3     12171    TIP3     OH2      OT      -0.834000       15.9994           0
     58958 TIP3     12171    TIP3     H1       HT       0.417000       1.00800           0
     58959 TIP3     12171    TIP3     H2       HT       0.417000       1.00800           0
     58960 TIP3     12172    TIP3     OH2      OT      -0.834000       15.9994           0
     58961 TIP3     12172    TIP3     H1       HT       0.417000       1.00800           0
     58962 TIP3     12172    TIP3     H2       HT       0.417000       1.00800           0
     58963 TIP3     12173    TIP3     OH2      OT      -0.834000       15.9994           0
     58964 TIP3     12173    TIP3     H1       HT       0.417000       1.00800           0
     58965 TIP3     12173    TIP3     H2       HT       0.417000       1.00800           0
     58966 TIP3     12174    TIP3     OH2      OT      -0.834000       15.9994           0
     58967 TIP3     12174    TIP3     H1       HT       0.417000       1.00800           0
     58968 TIP3     12174    TIP3     H2       HT       0.417000       1.00800           0
     58969 TIP3     12175    TIP3     OH2      OT      -0.834000       15.9994           0
     58970 TIP3     12175    TIP3     H1       HT       0.417000       1.00800           0
     58971 TIP3     12175    TIP3     H2       HT       0.417000       1.00800           0
     58972 TIP3     12176    TIP3     OH2      OT      -0.834000       15.9994           0
     58973 TIP3     12176    TIP3     H1       HT       0.417000       1.00800           0
     58974 TIP3     12176    TIP3     H2       HT       0.417000       1.00800           0
     58975 TIP3     12177    TIP3     OH2      OT      -0.834000       15.9994           0
     58976 TIP3     12177    TIP3     H1       HT       0.417000       1.00800           0
     58977 TIP3     12177    TIP3     H2       HT       0.417000       1.00800           0
     58978 TIP3     12178    TIP3     OH2      OT      -0.834000       15.9994           0
     58979 TIP3     12178    TIP3     H1       HT       0.417000       1.00800           0
     58980 TIP3     12178    TIP3     H2       HT       0.417000       1.00800           0
     58981 TIP3     12179    TIP3     OH2      OT      -0.834000       15.9994           0
     58982 TIP3     12179    TIP3     H1       HT       0.417000       1.00800           0
     58983 TIP3     12179    TIP3     H2       HT       0.417000       1.00800           0
     58984 TIP3     12180    TIP3     OH2      OT      -0.834000       15.9994           0
     58985 TIP3     12180    TIP3     H1       HT       0.417000       1.00800           0
     58986 TIP3     12180    TIP3     H2       HT       0.417000       1.00800           0
     58987 TIP3     12181    TIP3     OH2      OT      -0.834000       15.9994           0
     58988 TIP3     12181    TIP3     H1       HT       0.417000       1.00800           0
     58989 TIP3     12181    TIP3     H2       HT       0.417000       1.00800           0
     58990 TIP3     12182    TIP3     OH2      OT      -0.834000       15.9994           0
     58991 TIP3     12182    TIP3     H1       HT       0.417000       1.00800           0
     58992 TIP3     12182    TIP3     H2       HT       0.417000       1.00800           0
     58993 TIP3     12183    TIP3     OH2      OT      -0.834000       15.9994           0
     58994 TIP3     12183    TIP3     H1       HT       0.417000       1.00800           0
     58995 TIP3     12183    TIP3     H2       HT       0.417000       1.00800           0
     58996 TIP3     12184    TIP3     OH2      OT      -0.834000       15.9994           0
     58997 TIP3     12184    TIP3     H1       HT       0.417000       1.00800           0
     58998 TIP3     12184    TIP3     H2       HT       0.417000       1.00800           0
     58999 TIP3     12185    TIP3     OH2      OT      -0.834000       15.9994           0
     59000 TIP3     12185    TIP3     H1       HT       0.417000       1.00800           0
     59001 TIP3     12185    TIP3     H2       HT       0.417000       1.00800           0
     59002 TIP3     12186    TIP3     OH2      OT      -0.834000       15.9994           0
     59003 TIP3     12186    TIP3     H1       HT       0.417000       1.00800           0
     59004 TIP3     12186    TIP3     H2       HT       0.417000       1.00800           0
     59005 TIP3     12187    TIP3     OH2      OT      -0.834000       15.9994           0
     59006 TIP3     12187    TIP3     H1       HT       0.417000       1.00800           0
     59007 TIP3     12187    TIP3     H2       HT       0.417000       1.00800           0
     59008 TIP3     12188    TIP3     OH2      OT      -0.834000       15.9994           0
     59009 TIP3     12188    TIP3     H1       HT       0.417000       1.00800           0
     59010 TIP3     12188    TIP3     H2       HT       0.417000       1.00800           0
     59011 TIP3     12189    TIP3     OH2      OT      -0.834000       15.9994           0
     59012 TIP3     12189    TIP3     H1       HT       0.417000       1.00800           0
     59013 TIP3     12189    TIP3     H2       HT       0.417000       1.00800           0
     59014 TIP3     12190    TIP3     OH2      OT      -0.834000       15.9994           0
     59015 TIP3     12190    TIP3     H1       HT       0.417000       1.00800           0
     59016 TIP3     12190    TIP3     H2       HT       0.417000       1.00800           0
     59017 TIP3     12191    TIP3     OH2      OT      -0.834000       15.9994           0
     59018 TIP3     12191    TIP3     H1       HT       0.417000       1.00800           0
     59019 TIP3     12191    TIP3     H2       HT       0.417000       1.00800           0
     59020 TIP3     12192    TIP3     OH2      OT      -0.834000       15.9994           0
     59021 TIP3     12192    TIP3     H1       HT       0.417000       1.00800           0
     59022 TIP3     12192    TIP3     H2       HT       0.417000       1.00800           0
     59023 TIP3     12193    TIP3     OH2      OT      -0.834000       15.9994           0
     59024 TIP3     12193    TIP3     H1       HT       0.417000       1.00800           0
     59025 TIP3     12193    TIP3     H2       HT       0.417000       1.00800           0
     59026 TIP3     12194    TIP3     OH2      OT      -0.834000       15.9994           0
     59027 TIP3     12194    TIP3     H1       HT       0.417000       1.00800           0
     59028 TIP3     12194    TIP3     H2       HT       0.417000       1.00800           0
     59029 TIP3     12195    TIP3     OH2      OT      -0.834000       15.9994           0
     59030 TIP3     12195    TIP3     H1       HT       0.417000       1.00800           0
     59031 TIP3     12195    TIP3     H2       HT       0.417000       1.00800           0
     59032 TIP3     12196    TIP3     OH2      OT      -0.834000       15.9994           0
     59033 TIP3     12196    TIP3     H1       HT       0.417000       1.00800           0
     59034 TIP3     12196    TIP3     H2       HT       0.417000       1.00800           0
     59035 TIP3     12197    TIP3     OH2      OT      -0.834000       15.9994           0
     59036 TIP3     12197    TIP3     H1       HT       0.417000       1.00800           0
     59037 TIP3     12197    TIP3     H2       HT       0.417000       1.00800           0
     59038 TIP3     12198    TIP3     OH2      OT      -0.834000       15.9994           0
     59039 TIP3     12198    TIP3     H1       HT       0.417000       1.00800           0
     59040 TIP3     12198    TIP3     H2       HT       0.417000       1.00800           0
     59041 TIP3     12199    TIP3     OH2      OT      -0.834000       15.9994           0
     59042 TIP3     12199    TIP3     H1       HT       0.417000       1.00800           0
     59043 TIP3     12199    TIP3     H2       HT       0.417000       1.00800           0
     59044 TIP3     12200    TIP3     OH2      OT      -0.834000       15.9994           0
     59045 TIP3     12200    TIP3     H1       HT       0.417000       1.00800           0
     59046 TIP3     12200    TIP3     H2       HT       0.417000       1.00800           0
     59047 TIP3     12201    TIP3     OH2      OT      -0.834000       15.9994           0
     59048 TIP3     12201    TIP3     H1       HT       0.417000       1.00800           0
     59049 TIP3     12201    TIP3     H2       HT       0.417000       1.00800           0
     59050 TIP3     12202    TIP3     OH2      OT      -0.834000       15.9994           0
     59051 TIP3     12202    TIP3     H1       HT       0.417000       1.00800           0
     59052 TIP3     12202    TIP3     H2       HT       0.417000       1.00800           0
     59053 TIP3     12203    TIP3     OH2      OT      -0.834000       15.9994           0
     59054 TIP3     12203    TIP3     H1       HT       0.417000       1.00800           0
     59055 TIP3     12203    TIP3     H2       HT       0.417000       1.00800           0
     59056 TIP3     12204    TIP3     OH2      OT      -0.834000       15.9994           0
     59057 TIP3     12204    TIP3     H1       HT       0.417000       1.00800           0
     59058 TIP3     12204    TIP3     H2       HT       0.417000       1.00800           0
     59059 TIP3     12205    TIP3     OH2      OT      -0.834000       15.9994           0
     59060 TIP3     12205    TIP3     H1       HT       0.417000       1.00800           0
     59061 TIP3     12205    TIP3     H2       HT       0.417000       1.00800           0
     59062 TIP3     12206    TIP3     OH2      OT      -0.834000       15.9994           0
     59063 TIP3     12206    TIP3     H1       HT       0.417000       1.00800           0
     59064 TIP3     12206    TIP3     H2       HT       0.417000       1.00800           0
     59065 TIP3     12207    TIP3     OH2      OT      -0.834000       15.9994           0
     59066 TIP3     12207    TIP3     H1       HT       0.417000       1.00800           0
     59067 TIP3     12207    TIP3     H2       HT       0.417000       1.00800           0
     59068 TIP3     12208    TIP3     OH2      OT      -0.834000       15.9994           0
     59069 TIP3     12208    TIP3     H1       HT       0.417000       1.00800           0
     59070 TIP3     12208    TIP3     H2       HT       0.417000       1.00800           0
     59071 TIP3     12209    TIP3     OH2      OT      -0.834000       15.9994           0
     59072 TIP3     12209    TIP3     H1       HT       0.417000       1.00800           0
     59073 TIP3     12209    TIP3     H2       HT       0.417000       1.00800           0
     59074 TIP3     12210    TIP3     OH2      OT      -0.834000       15.9994           0
     59075 TIP3     12210    TIP3     H1       HT       0.417000       1.00800           0
     59076 TIP3     12210    TIP3     H2       HT       0.417000       1.00800           0
     59077 TIP3     12211    TIP3     OH2      OT      -0.834000       15.9994           0
     59078 TIP3     12211    TIP3     H1       HT       0.417000       1.00800           0
     59079 TIP3     12211    TIP3     H2       HT       0.417000       1.00800           0
     59080 TIP3     12212    TIP3     OH2      OT      -0.834000       15.9994           0
     59081 TIP3     12212    TIP3     H1       HT       0.417000       1.00800           0
     59082 TIP3     12212    TIP3     H2       HT       0.417000       1.00800           0
     59083 TIP3     12213    TIP3     OH2      OT      -0.834000       15.9994           0
     59084 TIP3     12213    TIP3     H1       HT       0.417000       1.00800           0
     59085 TIP3     12213    TIP3     H2       HT       0.417000       1.00800           0
     59086 TIP3     12214    TIP3     OH2      OT      -0.834000       15.9994           0
     59087 TIP3     12214    TIP3     H1       HT       0.417000       1.00800           0
     59088 TIP3     12214    TIP3     H2       HT       0.417000       1.00800           0
     59089 TIP3     12215    TIP3     OH2      OT      -0.834000       15.9994           0
     59090 TIP3     12215    TIP3     H1       HT       0.417000       1.00800           0
     59091 TIP3     12215    TIP3     H2       HT       0.417000       1.00800           0
     59092 TIP3     12216    TIP3     OH2      OT      -0.834000       15.9994           0
     59093 TIP3     12216    TIP3     H1       HT       0.417000       1.00800           0
     59094 TIP3     12216    TIP3     H2       HT       0.417000       1.00800           0
     59095 TIP3     12217    TIP3     OH2      OT      -0.834000       15.9994           0
     59096 TIP3     12217    TIP3     H1       HT       0.417000       1.00800           0
     59097 TIP3     12217    TIP3     H2       HT       0.417000       1.00800           0
     59098 TIP3     12218    TIP3     OH2      OT      -0.834000       15.9994           0
     59099 TIP3     12218    TIP3     H1       HT       0.417000       1.00800           0
     59100 TIP3     12218    TIP3     H2       HT       0.417000       1.00800           0
     59101 TIP3     12219    TIP3     OH2      OT      -0.834000       15.9994           0
     59102 TIP3     12219    TIP3     H1       HT       0.417000       1.00800           0
     59103 TIP3     12219    TIP3     H2       HT       0.417000       1.00800           0
     59104 TIP3     12220    TIP3     OH2      OT      -0.834000       15.9994           0
     59105 TIP3     12220    TIP3     H1       HT       0.417000       1.00800           0
     59106 TIP3     12220    TIP3     H2       HT       0.417000       1.00800           0
     59107 TIP3     12221    TIP3     OH2      OT      -0.834000       15.9994           0
     59108 TIP3     12221    TIP3     H1       HT       0.417000       1.00800           0
     59109 TIP3     12221    TIP3     H2       HT       0.417000       1.00800           0
     59110 TIP3     12222    TIP3     OH2      OT      -0.834000       15.9994           0
     59111 TIP3     12222    TIP3     H1       HT       0.417000       1.00800           0
     59112 TIP3     12222    TIP3     H2       HT       0.417000       1.00800           0
     59113 TIP3     12223    TIP3     OH2      OT      -0.834000       15.9994           0
     59114 TIP3     12223    TIP3     H1       HT       0.417000       1.00800           0
     59115 TIP3     12223    TIP3     H2       HT       0.417000       1.00800           0
     59116 TIP3     12224    TIP3     OH2      OT      -0.834000       15.9994           0
     59117 TIP3     12224    TIP3     H1       HT       0.417000       1.00800           0
     59118 TIP3     12224    TIP3     H2       HT       0.417000       1.00800           0
     59119 TIP3     12225    TIP3     OH2      OT      -0.834000       15.9994           0
     59120 TIP3     12225    TIP3     H1       HT       0.417000       1.00800           0
     59121 TIP3     12225    TIP3     H2       HT       0.417000       1.00800           0
     59122 TIP3     12226    TIP3     OH2      OT      -0.834000       15.9994           0
     59123 TIP3     12226    TIP3     H1       HT       0.417000       1.00800           0
     59124 TIP3     12226    TIP3     H2       HT       0.417000       1.00800           0
     59125 TIP3     12227    TIP3     OH2      OT      -0.834000       15.9994           0
     59126 TIP3     12227    TIP3     H1       HT       0.417000       1.00800           0
     59127 TIP3     12227    TIP3     H2       HT       0.417000       1.00800           0
     59128 TIP3     12228    TIP3     OH2      OT      -0.834000       15.9994           0
     59129 TIP3     12228    TIP3     H1       HT       0.417000       1.00800           0
     59130 TIP3     12228    TIP3     H2       HT       0.417000       1.00800           0
     59131 TIP3     12229    TIP3     OH2      OT      -0.834000       15.9994           0
     59132 TIP3     12229    TIP3     H1       HT       0.417000       1.00800           0
     59133 TIP3     12229    TIP3     H2       HT       0.417000       1.00800           0
     59134 TIP3     12230    TIP3     OH2      OT      -0.834000       15.9994           0
     59135 TIP3     12230    TIP3     H1       HT       0.417000       1.00800           0
     59136 TIP3     12230    TIP3     H2       HT       0.417000       1.00800           0
     59137 TIP3     12231    TIP3     OH2      OT      -0.834000       15.9994           0
     59138 TIP3     12231    TIP3     H1       HT       0.417000       1.00800           0
     59139 TIP3     12231    TIP3     H2       HT       0.417000       1.00800           0
     59140 TIP3     12232    TIP3     OH2      OT      -0.834000       15.9994           0
     59141 TIP3     12232    TIP3     H1       HT       0.417000       1.00800           0
     59142 TIP3     12232    TIP3     H2       HT       0.417000       1.00800           0
     59143 TIP3     12233    TIP3     OH2      OT      -0.834000       15.9994           0
     59144 TIP3     12233    TIP3     H1       HT       0.417000       1.00800           0
     59145 TIP3     12233    TIP3     H2       HT       0.417000       1.00800           0
     59146 TIP3     12234    TIP3     OH2      OT      -0.834000       15.9994           0
     59147 TIP3     12234    TIP3     H1       HT       0.417000       1.00800           0
     59148 TIP3     12234    TIP3     H2       HT       0.417000       1.00800           0
     59149 TIP3     12235    TIP3     OH2      OT      -0.834000       15.9994           0
     59150 TIP3     12235    TIP3     H1       HT       0.417000       1.00800           0
     59151 TIP3     12235    TIP3     H2       HT       0.417000       1.00800           0
     59152 TIP3     12236    TIP3     OH2      OT      -0.834000       15.9994           0
     59153 TIP3     12236    TIP3     H1       HT       0.417000       1.00800           0
     59154 TIP3     12236    TIP3     H2       HT       0.417000       1.00800           0
     59155 TIP3     12237    TIP3     OH2      OT      -0.834000       15.9994           0
     59156 TIP3     12237    TIP3     H1       HT       0.417000       1.00800           0
     59157 TIP3     12237    TIP3     H2       HT       0.417000       1.00800           0
     59158 TIP3     12238    TIP3     OH2      OT      -0.834000       15.9994           0
     59159 TIP3     12238    TIP3     H1       HT       0.417000       1.00800           0
     59160 TIP3     12238    TIP3     H2       HT       0.417000       1.00800           0
     59161 TIP3     12239    TIP3     OH2      OT      -0.834000       15.9994           0
     59162 TIP3     12239    TIP3     H1       HT       0.417000       1.00800           0
     59163 TIP3     12239    TIP3     H2       HT       0.417000       1.00800           0
     59164 TIP3     12240    TIP3     OH2      OT      -0.834000       15.9994           0
     59165 TIP3     12240    TIP3     H1       HT       0.417000       1.00800           0
     59166 TIP3     12240    TIP3     H2       HT       0.417000       1.00800           0
     59167 TIP3     12241    TIP3     OH2      OT      -0.834000       15.9994           0
     59168 TIP3     12241    TIP3     H1       HT       0.417000       1.00800           0
     59169 TIP3     12241    TIP3     H2       HT       0.417000       1.00800           0
     59170 TIP3     12242    TIP3     OH2      OT      -0.834000       15.9994           0
     59171 TIP3     12242    TIP3     H1       HT       0.417000       1.00800           0
     59172 TIP3     12242    TIP3     H2       HT       0.417000       1.00800           0
     59173 TIP3     12243    TIP3     OH2      OT      -0.834000       15.9994           0
     59174 TIP3     12243    TIP3     H1       HT       0.417000       1.00800           0
     59175 TIP3     12243    TIP3     H2       HT       0.417000       1.00800           0
     59176 TIP3     12244    TIP3     OH2      OT      -0.834000       15.9994           0
     59177 TIP3     12244    TIP3     H1       HT       0.417000       1.00800           0
     59178 TIP3     12244    TIP3     H2       HT       0.417000       1.00800           0
     59179 TIP3     12245    TIP3     OH2      OT      -0.834000       15.9994           0
     59180 TIP3     12245    TIP3     H1       HT       0.417000       1.00800           0
     59181 TIP3     12245    TIP3     H2       HT       0.417000       1.00800           0
     59182 TIP3     12246    TIP3     OH2      OT      -0.834000       15.9994           0
     59183 TIP3     12246    TIP3     H1       HT       0.417000       1.00800           0
     59184 TIP3     12246    TIP3     H2       HT       0.417000       1.00800           0
     59185 TIP3     12247    TIP3     OH2      OT      -0.834000       15.9994           0
     59186 TIP3     12247    TIP3     H1       HT       0.417000       1.00800           0
     59187 TIP3     12247    TIP3     H2       HT       0.417000       1.00800           0
     59188 TIP3     12248    TIP3     OH2      OT      -0.834000       15.9994           0
     59189 TIP3     12248    TIP3     H1       HT       0.417000       1.00800           0
     59190 TIP3     12248    TIP3     H2       HT       0.417000       1.00800           0
     59191 TIP3     12249    TIP3     OH2      OT      -0.834000       15.9994           0
     59192 TIP3     12249    TIP3     H1       HT       0.417000       1.00800           0
     59193 TIP3     12249    TIP3     H2       HT       0.417000       1.00800           0
     59194 TIP3     12250    TIP3     OH2      OT      -0.834000       15.9994           0
     59195 TIP3     12250    TIP3     H1       HT       0.417000       1.00800           0
     59196 TIP3     12250    TIP3     H2       HT       0.417000       1.00800           0
     59197 TIP3     12251    TIP3     OH2      OT      -0.834000       15.9994           0
     59198 TIP3     12251    TIP3     H1       HT       0.417000       1.00800           0
     59199 TIP3     12251    TIP3     H2       HT       0.417000       1.00800           0
     59200 TIP3     12252    TIP3     OH2      OT      -0.834000       15.9994           0
     59201 TIP3     12252    TIP3     H1       HT       0.417000       1.00800           0
     59202 TIP3     12252    TIP3     H2       HT       0.417000       1.00800           0
     59203 TIP3     12253    TIP3     OH2      OT      -0.834000       15.9994           0
     59204 TIP3     12253    TIP3     H1       HT       0.417000       1.00800           0
     59205 TIP3     12253    TIP3     H2       HT       0.417000       1.00800           0
     59206 TIP3     12254    TIP3     OH2      OT      -0.834000       15.9994           0
     59207 TIP3     12254    TIP3     H1       HT       0.417000       1.00800           0
     59208 TIP3     12254    TIP3     H2       HT       0.417000       1.00800           0
     59209 TIP3     12255    TIP3     OH2      OT      -0.834000       15.9994           0
     59210 TIP3     12255    TIP3     H1       HT       0.417000       1.00800           0
     59211 TIP3     12255    TIP3     H2       HT       0.417000       1.00800           0
     59212 TIP3     12256    TIP3     OH2      OT      -0.834000       15.9994           0
     59213 TIP3     12256    TIP3     H1       HT       0.417000       1.00800           0
     59214 TIP3     12256    TIP3     H2       HT       0.417000       1.00800           0
     59215 TIP3     12257    TIP3     OH2      OT      -0.834000       15.9994           0
     59216 TIP3     12257    TIP3     H1       HT       0.417000       1.00800           0
     59217 TIP3     12257    TIP3     H2       HT       0.417000       1.00800           0
     59218 TIP3     12258    TIP3     OH2      OT      -0.834000       15.9994           0
     59219 TIP3     12258    TIP3     H1       HT       0.417000       1.00800           0
     59220 TIP3     12258    TIP3     H2       HT       0.417000       1.00800           0
     59221 TIP3     12259    TIP3     OH2      OT      -0.834000       15.9994           0
     59222 TIP3     12259    TIP3     H1       HT       0.417000       1.00800           0
     59223 TIP3     12259    TIP3     H2       HT       0.417000       1.00800           0
     59224 TIP3     12260    TIP3     OH2      OT      -0.834000       15.9994           0
     59225 TIP3     12260    TIP3     H1       HT       0.417000       1.00800           0
     59226 TIP3     12260    TIP3     H2       HT       0.417000       1.00800           0
     59227 TIP3     12261    TIP3     OH2      OT      -0.834000       15.9994           0
     59228 TIP3     12261    TIP3     H1       HT       0.417000       1.00800           0
     59229 TIP3     12261    TIP3     H2       HT       0.417000       1.00800           0
     59230 TIP3     12262    TIP3     OH2      OT      -0.834000       15.9994           0
     59231 TIP3     12262    TIP3     H1       HT       0.417000       1.00800           0
     59232 TIP3     12262    TIP3     H2       HT       0.417000       1.00800           0
     59233 TIP3     12263    TIP3     OH2      OT      -0.834000       15.9994           0
     59234 TIP3     12263    TIP3     H1       HT       0.417000       1.00800           0
     59235 TIP3     12263    TIP3     H2       HT       0.417000       1.00800           0
     59236 TIP3     12264    TIP3     OH2      OT      -0.834000       15.9994           0
     59237 TIP3     12264    TIP3     H1       HT       0.417000       1.00800           0
     59238 TIP3     12264    TIP3     H2       HT       0.417000       1.00800           0
     59239 TIP3     12265    TIP3     OH2      OT      -0.834000       15.9994           0
     59240 TIP3     12265    TIP3     H1       HT       0.417000       1.00800           0
     59241 TIP3     12265    TIP3     H2       HT       0.417000       1.00800           0
     59242 TIP3     12266    TIP3     OH2      OT      -0.834000       15.9994           0
     59243 TIP3     12266    TIP3     H1       HT       0.417000       1.00800           0
     59244 TIP3     12266    TIP3     H2       HT       0.417000       1.00800           0
     59245 TIP3     12267    TIP3     OH2      OT      -0.834000       15.9994           0
     59246 TIP3     12267    TIP3     H1       HT       0.417000       1.00800           0
     59247 TIP3     12267    TIP3     H2       HT       0.417000       1.00800           0
     59248 TIP3     12268    TIP3     OH2      OT      -0.834000       15.9994           0
     59249 TIP3     12268    TIP3     H1       HT       0.417000       1.00800           0
     59250 TIP3     12268    TIP3     H2       HT       0.417000       1.00800           0
     59251 TIP3     12269    TIP3     OH2      OT      -0.834000       15.9994           0
     59252 TIP3     12269    TIP3     H1       HT       0.417000       1.00800           0
     59253 TIP3     12269    TIP3     H2       HT       0.417000       1.00800           0
     59254 TIP3     12270    TIP3     OH2      OT      -0.834000       15.9994           0
     59255 TIP3     12270    TIP3     H1       HT       0.417000       1.00800           0
     59256 TIP3     12270    TIP3     H2       HT       0.417000       1.00800           0
     59257 TIP3     12271    TIP3     OH2      OT      -0.834000       15.9994           0
     59258 TIP3     12271    TIP3     H1       HT       0.417000       1.00800           0
     59259 TIP3     12271    TIP3     H2       HT       0.417000       1.00800           0
     59260 TIP3     12272    TIP3     OH2      OT      -0.834000       15.9994           0
     59261 TIP3     12272    TIP3     H1       HT       0.417000       1.00800           0
     59262 TIP3     12272    TIP3     H2       HT       0.417000       1.00800           0
     59263 TIP3     12273    TIP3     OH2      OT      -0.834000       15.9994           0
     59264 TIP3     12273    TIP3     H1       HT       0.417000       1.00800           0
     59265 TIP3     12273    TIP3     H2       HT       0.417000       1.00800           0
     59266 TIP3     12274    TIP3     OH2      OT      -0.834000       15.9994           0
     59267 TIP3     12274    TIP3     H1       HT       0.417000       1.00800           0
     59268 TIP3     12274    TIP3     H2       HT       0.417000       1.00800           0
     59269 TIP3     12275    TIP3     OH2      OT      -0.834000       15.9994           0
     59270 TIP3     12275    TIP3     H1       HT       0.417000       1.00800           0
     59271 TIP3     12275    TIP3     H2       HT       0.417000       1.00800           0
     59272 TIP3     12276    TIP3     OH2      OT      -0.834000       15.9994           0
     59273 TIP3     12276    TIP3     H1       HT       0.417000       1.00800           0
     59274 TIP3     12276    TIP3     H2       HT       0.417000       1.00800           0
     59275 TIP3     12277    TIP3     OH2      OT      -0.834000       15.9994           0
     59276 TIP3     12277    TIP3     H1       HT       0.417000       1.00800           0
     59277 TIP3     12277    TIP3     H2       HT       0.417000       1.00800           0
     59278 TIP3     12278    TIP3     OH2      OT      -0.834000       15.9994           0
     59279 TIP3     12278    TIP3     H1       HT       0.417000       1.00800           0
     59280 TIP3     12278    TIP3     H2       HT       0.417000       1.00800           0
     59281 TIP3     12279    TIP3     OH2      OT      -0.834000       15.9994           0
     59282 TIP3     12279    TIP3     H1       HT       0.417000       1.00800           0
     59283 TIP3     12279    TIP3     H2       HT       0.417000       1.00800           0
     59284 TIP3     12280    TIP3     OH2      OT      -0.834000       15.9994           0
     59285 TIP3     12280    TIP3     H1       HT       0.417000       1.00800           0
     59286 TIP3     12280    TIP3     H2       HT       0.417000       1.00800           0
     59287 TIP3     12281    TIP3     OH2      OT      -0.834000       15.9994           0
     59288 TIP3     12281    TIP3     H1       HT       0.417000       1.00800           0
     59289 TIP3     12281    TIP3     H2       HT       0.417000       1.00800           0
     59290 TIP3     12282    TIP3     OH2      OT      -0.834000       15.9994           0
     59291 TIP3     12282    TIP3     H1       HT       0.417000       1.00800           0
     59292 TIP3     12282    TIP3     H2       HT       0.417000       1.00800           0
     59293 TIP3     12283    TIP3     OH2      OT      -0.834000       15.9994           0
     59294 TIP3     12283    TIP3     H1       HT       0.417000       1.00800           0
     59295 TIP3     12283    TIP3     H2       HT       0.417000       1.00800           0
     59296 TIP3     12284    TIP3     OH2      OT      -0.834000       15.9994           0
     59297 TIP3     12284    TIP3     H1       HT       0.417000       1.00800           0
     59298 TIP3     12284    TIP3     H2       HT       0.417000       1.00800           0
     59299 TIP3     12285    TIP3     OH2      OT      -0.834000       15.9994           0
     59300 TIP3     12285    TIP3     H1       HT       0.417000       1.00800           0
     59301 TIP3     12285    TIP3     H2       HT       0.417000       1.00800           0
     59302 TIP3     12286    TIP3     OH2      OT      -0.834000       15.9994           0
     59303 TIP3     12286    TIP3     H1       HT       0.417000       1.00800           0
     59304 TIP3     12286    TIP3     H2       HT       0.417000       1.00800           0
     59305 TIP3     12287    TIP3     OH2      OT      -0.834000       15.9994           0
     59306 TIP3     12287    TIP3     H1       HT       0.417000       1.00800           0
     59307 TIP3     12287    TIP3     H2       HT       0.417000       1.00800           0
     59308 TIP3     12288    TIP3     OH2      OT      -0.834000       15.9994           0
     59309 TIP3     12288    TIP3     H1       HT       0.417000       1.00800           0
     59310 TIP3     12288    TIP3     H2       HT       0.417000       1.00800           0
     59311 TIP3     12289    TIP3     OH2      OT      -0.834000       15.9994           0
     59312 TIP3     12289    TIP3     H1       HT       0.417000       1.00800           0
     59313 TIP3     12289    TIP3     H2       HT       0.417000       1.00800           0
     59314 TIP3     12290    TIP3     OH2      OT      -0.834000       15.9994           0
     59315 TIP3     12290    TIP3     H1       HT       0.417000       1.00800           0
     59316 TIP3     12290    TIP3     H2       HT       0.417000       1.00800           0
     59317 TIP3     12291    TIP3     OH2      OT      -0.834000       15.9994           0
     59318 TIP3     12291    TIP3     H1       HT       0.417000       1.00800           0
     59319 TIP3     12291    TIP3     H2       HT       0.417000       1.00800           0
     59320 TIP3     12292    TIP3     OH2      OT      -0.834000       15.9994           0
     59321 TIP3     12292    TIP3     H1       HT       0.417000       1.00800           0
     59322 TIP3     12292    TIP3     H2       HT       0.417000       1.00800           0
     59323 TIP3     12293    TIP3     OH2      OT      -0.834000       15.9994           0
     59324 TIP3     12293    TIP3     H1       HT       0.417000       1.00800           0
     59325 TIP3     12293    TIP3     H2       HT       0.417000       1.00800           0
     59326 TIP3     12294    TIP3     OH2      OT      -0.834000       15.9994           0
     59327 TIP3     12294    TIP3     H1       HT       0.417000       1.00800           0
     59328 TIP3     12294    TIP3     H2       HT       0.417000       1.00800           0
     59329 TIP3     12295    TIP3     OH2      OT      -0.834000       15.9994           0
     59330 TIP3     12295    TIP3     H1       HT       0.417000       1.00800           0
     59331 TIP3     12295    TIP3     H2       HT       0.417000       1.00800           0
     59332 TIP3     12296    TIP3     OH2      OT      -0.834000       15.9994           0
     59333 TIP3     12296    TIP3     H1       HT       0.417000       1.00800           0
     59334 TIP3     12296    TIP3     H2       HT       0.417000       1.00800           0
     59335 TIP3     12297    TIP3     OH2      OT      -0.834000       15.9994           0
     59336 TIP3     12297    TIP3     H1       HT       0.417000       1.00800           0
     59337 TIP3     12297    TIP3     H2       HT       0.417000       1.00800           0
     59338 TIP3     12298    TIP3     OH2      OT      -0.834000       15.9994           0
     59339 TIP3     12298    TIP3     H1       HT       0.417000       1.00800           0
     59340 TIP3     12298    TIP3     H2       HT       0.417000       1.00800           0
     59341 TIP3     12299    TIP3     OH2      OT      -0.834000       15.9994           0
     59342 TIP3     12299    TIP3     H1       HT       0.417000       1.00800           0
     59343 TIP3     12299    TIP3     H2       HT       0.417000       1.00800           0
     59344 TIP3     12300    TIP3     OH2      OT      -0.834000       15.9994           0
     59345 TIP3     12300    TIP3     H1       HT       0.417000       1.00800           0
     59346 TIP3     12300    TIP3     H2       HT       0.417000       1.00800           0
     59347 TIP3     12301    TIP3     OH2      OT      -0.834000       15.9994           0
     59348 TIP3     12301    TIP3     H1       HT       0.417000       1.00800           0
     59349 TIP3     12301    TIP3     H2       HT       0.417000       1.00800           0
     59350 TIP3     12302    TIP3     OH2      OT      -0.834000       15.9994           0
     59351 TIP3     12302    TIP3     H1       HT       0.417000       1.00800           0
     59352 TIP3     12302    TIP3     H2       HT       0.417000       1.00800           0
     59353 TIP3     12303    TIP3     OH2      OT      -0.834000       15.9994           0
     59354 TIP3     12303    TIP3     H1       HT       0.417000       1.00800           0
     59355 TIP3     12303    TIP3     H2       HT       0.417000       1.00800           0
     59356 TIP3     12304    TIP3     OH2      OT      -0.834000       15.9994           0
     59357 TIP3     12304    TIP3     H1       HT       0.417000       1.00800           0
     59358 TIP3     12304    TIP3     H2       HT       0.417000       1.00800           0
     59359 TIP3     12305    TIP3     OH2      OT      -0.834000       15.9994           0
     59360 TIP3     12305    TIP3     H1       HT       0.417000       1.00800           0
     59361 TIP3     12305    TIP3     H2       HT       0.417000       1.00800           0
     59362 TIP3     12306    TIP3     OH2      OT      -0.834000       15.9994           0
     59363 TIP3     12306    TIP3     H1       HT       0.417000       1.00800           0
     59364 TIP3     12306    TIP3     H2       HT       0.417000       1.00800           0
     59365 TIP3     12307    TIP3     OH2      OT      -0.834000       15.9994           0
     59366 TIP3     12307    TIP3     H1       HT       0.417000       1.00800           0
     59367 TIP3     12307    TIP3     H2       HT       0.417000       1.00800           0
     59368 TIP3     12308    TIP3     OH2      OT      -0.834000       15.9994           0
     59369 TIP3     12308    TIP3     H1       HT       0.417000       1.00800           0
     59370 TIP3     12308    TIP3     H2       HT       0.417000       1.00800           0
     59371 TIP3     12309    TIP3     OH2      OT      -0.834000       15.9994           0
     59372 TIP3     12309    TIP3     H1       HT       0.417000       1.00800           0
     59373 TIP3     12309    TIP3     H2       HT       0.417000       1.00800           0
     59374 TIP3     12310    TIP3     OH2      OT      -0.834000       15.9994           0
     59375 TIP3     12310    TIP3     H1       HT       0.417000       1.00800           0
     59376 TIP3     12310    TIP3     H2       HT       0.417000       1.00800           0
     59377 TIP3     12311    TIP3     OH2      OT      -0.834000       15.9994           0
     59378 TIP3     12311    TIP3     H1       HT       0.417000       1.00800           0
     59379 TIP3     12311    TIP3     H2       HT       0.417000       1.00800           0
     59380 TIP3     12312    TIP3     OH2      OT      -0.834000       15.9994           0
     59381 TIP3     12312    TIP3     H1       HT       0.417000       1.00800           0
     59382 TIP3     12312    TIP3     H2       HT       0.417000       1.00800           0
     59383 TIP3     12313    TIP3     OH2      OT      -0.834000       15.9994           0
     59384 TIP3     12313    TIP3     H1       HT       0.417000       1.00800           0
     59385 TIP3     12313    TIP3     H2       HT       0.417000       1.00800           0
     59386 TIP3     12314    TIP3     OH2      OT      -0.834000       15.9994           0
     59387 TIP3     12314    TIP3     H1       HT       0.417000       1.00800           0
     59388 TIP3     12314    TIP3     H2       HT       0.417000       1.00800           0
     59389 TIP3     12315    TIP3     OH2      OT      -0.834000       15.9994           0
     59390 TIP3     12315    TIP3     H1       HT       0.417000       1.00800           0
     59391 TIP3     12315    TIP3     H2       HT       0.417000       1.00800           0
     59392 TIP3     12316    TIP3     OH2      OT      -0.834000       15.9994           0
     59393 TIP3     12316    TIP3     H1       HT       0.417000       1.00800           0
     59394 TIP3     12316    TIP3     H2       HT       0.417000       1.00800           0
     59395 TIP3     12317    TIP3     OH2      OT      -0.834000       15.9994           0
     59396 TIP3     12317    TIP3     H1       HT       0.417000       1.00800           0
     59397 TIP3     12317    TIP3     H2       HT       0.417000       1.00800           0
     59398 TIP3     12318    TIP3     OH2      OT      -0.834000       15.9994           0
     59399 TIP3     12318    TIP3     H1       HT       0.417000       1.00800           0
     59400 TIP3     12318    TIP3     H2       HT       0.417000       1.00800           0
     59401 TIP3     12319    TIP3     OH2      OT      -0.834000       15.9994           0
     59402 TIP3     12319    TIP3     H1       HT       0.417000       1.00800           0
     59403 TIP3     12319    TIP3     H2       HT       0.417000       1.00800           0
     59404 TIP3     12320    TIP3     OH2      OT      -0.834000       15.9994           0
     59405 TIP3     12320    TIP3     H1       HT       0.417000       1.00800           0
     59406 TIP3     12320    TIP3     H2       HT       0.417000       1.00800           0
     59407 TIP3     12321    TIP3     OH2      OT      -0.834000       15.9994           0
     59408 TIP3     12321    TIP3     H1       HT       0.417000       1.00800           0
     59409 TIP3     12321    TIP3     H2       HT       0.417000       1.00800           0
     59410 TIP3     12322    TIP3     OH2      OT      -0.834000       15.9994           0
     59411 TIP3     12322    TIP3     H1       HT       0.417000       1.00800           0
     59412 TIP3     12322    TIP3     H2       HT       0.417000       1.00800           0
     59413 TIP3     12323    TIP3     OH2      OT      -0.834000       15.9994           0
     59414 TIP3     12323    TIP3     H1       HT       0.417000       1.00800           0
     59415 TIP3     12323    TIP3     H2       HT       0.417000       1.00800           0
     59416 TIP3     12324    TIP3     OH2      OT      -0.834000       15.9994           0
     59417 TIP3     12324    TIP3     H1       HT       0.417000       1.00800           0
     59418 TIP3     12324    TIP3     H2       HT       0.417000       1.00800           0
     59419 TIP3     12325    TIP3     OH2      OT      -0.834000       15.9994           0
     59420 TIP3     12325    TIP3     H1       HT       0.417000       1.00800           0
     59421 TIP3     12325    TIP3     H2       HT       0.417000       1.00800           0
     59422 TIP3     12326    TIP3     OH2      OT      -0.834000       15.9994           0
     59423 TIP3     12326    TIP3     H1       HT       0.417000       1.00800           0
     59424 TIP3     12326    TIP3     H2       HT       0.417000       1.00800           0
     59425 TIP3     12327    TIP3     OH2      OT      -0.834000       15.9994           0
     59426 TIP3     12327    TIP3     H1       HT       0.417000       1.00800           0
     59427 TIP3     12327    TIP3     H2       HT       0.417000       1.00800           0
     59428 TIP3     12328    TIP3     OH2      OT      -0.834000       15.9994           0
     59429 TIP3     12328    TIP3     H1       HT       0.417000       1.00800           0
     59430 TIP3     12328    TIP3     H2       HT       0.417000       1.00800           0
     59431 TIP3     12329    TIP3     OH2      OT      -0.834000       15.9994           0
     59432 TIP3     12329    TIP3     H1       HT       0.417000       1.00800           0
     59433 TIP3     12329    TIP3     H2       HT       0.417000       1.00800           0
     59434 TIP3     12330    TIP3     OH2      OT      -0.834000       15.9994           0
     59435 TIP3     12330    TIP3     H1       HT       0.417000       1.00800           0
     59436 TIP3     12330    TIP3     H2       HT       0.417000       1.00800           0
     59437 TIP3     12331    TIP3     OH2      OT      -0.834000       15.9994           0
     59438 TIP3     12331    TIP3     H1       HT       0.417000       1.00800           0
     59439 TIP3     12331    TIP3     H2       HT       0.417000       1.00800           0
     59440 TIP3     12332    TIP3     OH2      OT      -0.834000       15.9994           0
     59441 TIP3     12332    TIP3     H1       HT       0.417000       1.00800           0
     59442 TIP3     12332    TIP3     H2       HT       0.417000       1.00800           0
     59443 TIP3     12333    TIP3     OH2      OT      -0.834000       15.9994           0
     59444 TIP3     12333    TIP3     H1       HT       0.417000       1.00800           0
     59445 TIP3     12333    TIP3     H2       HT       0.417000       1.00800           0
     59446 TIP3     12334    TIP3     OH2      OT      -0.834000       15.9994           0
     59447 TIP3     12334    TIP3     H1       HT       0.417000       1.00800           0
     59448 TIP3     12334    TIP3     H2       HT       0.417000       1.00800           0
     59449 TIP3     12335    TIP3     OH2      OT      -0.834000       15.9994           0
     59450 TIP3     12335    TIP3     H1       HT       0.417000       1.00800           0
     59451 TIP3     12335    TIP3     H2       HT       0.417000       1.00800           0
     59452 TIP3     12336    TIP3     OH2      OT      -0.834000       15.9994           0
     59453 TIP3     12336    TIP3     H1       HT       0.417000       1.00800           0
     59454 TIP3     12336    TIP3     H2       HT       0.417000       1.00800           0
     59455 TIP3     12337    TIP3     OH2      OT      -0.834000       15.9994           0
     59456 TIP3     12337    TIP3     H1       HT       0.417000       1.00800           0
     59457 TIP3     12337    TIP3     H2       HT       0.417000       1.00800           0
     59458 TIP3     12338    TIP3     OH2      OT      -0.834000       15.9994           0
     59459 TIP3     12338    TIP3     H1       HT       0.417000       1.00800           0
     59460 TIP3     12338    TIP3     H2       HT       0.417000       1.00800           0
     59461 TIP3     12339    TIP3     OH2      OT      -0.834000       15.9994           0
     59462 TIP3     12339    TIP3     H1       HT       0.417000       1.00800           0
     59463 TIP3     12339    TIP3     H2       HT       0.417000       1.00800           0
     59464 TIP3     12340    TIP3     OH2      OT      -0.834000       15.9994           0
     59465 TIP3     12340    TIP3     H1       HT       0.417000       1.00800           0
     59466 TIP3     12340    TIP3     H2       HT       0.417000       1.00800           0
     59467 TIP3     12341    TIP3     OH2      OT      -0.834000       15.9994           0
     59468 TIP3     12341    TIP3     H1       HT       0.417000       1.00800           0
     59469 TIP3     12341    TIP3     H2       HT       0.417000       1.00800           0
     59470 TIP3     12342    TIP3     OH2      OT      -0.834000       15.9994           0
     59471 TIP3     12342    TIP3     H1       HT       0.417000       1.00800           0
     59472 TIP3     12342    TIP3     H2       HT       0.417000       1.00800           0
     59473 TIP3     12343    TIP3     OH2      OT      -0.834000       15.9994           0
     59474 TIP3     12343    TIP3     H1       HT       0.417000       1.00800           0
     59475 TIP3     12343    TIP3     H2       HT       0.417000       1.00800           0
     59476 TIP3     12344    TIP3     OH2      OT      -0.834000       15.9994           0
     59477 TIP3     12344    TIP3     H1       HT       0.417000       1.00800           0
     59478 TIP3     12344    TIP3     H2       HT       0.417000       1.00800           0
     59479 TIP3     12345    TIP3     OH2      OT      -0.834000       15.9994           0
     59480 TIP3     12345    TIP3     H1       HT       0.417000       1.00800           0
     59481 TIP3     12345    TIP3     H2       HT       0.417000       1.00800           0
     59482 TIP3     12346    TIP3     OH2      OT      -0.834000       15.9994           0
     59483 TIP3     12346    TIP3     H1       HT       0.417000       1.00800           0
     59484 TIP3     12346    TIP3     H2       HT       0.417000       1.00800           0
     59485 TIP3     12347    TIP3     OH2      OT      -0.834000       15.9994           0
     59486 TIP3     12347    TIP3     H1       HT       0.417000       1.00800           0
     59487 TIP3     12347    TIP3     H2       HT       0.417000       1.00800           0
     59488 TIP3     12348    TIP3     OH2      OT      -0.834000       15.9994           0
     59489 TIP3     12348    TIP3     H1       HT       0.417000       1.00800           0
     59490 TIP3     12348    TIP3     H2       HT       0.417000       1.00800           0
     59491 TIP3     12349    TIP3     OH2      OT      -0.834000       15.9994           0
     59492 TIP3     12349    TIP3     H1       HT       0.417000       1.00800           0
     59493 TIP3     12349    TIP3     H2       HT       0.417000       1.00800           0
     59494 TIP3     12350    TIP3     OH2      OT      -0.834000       15.9994           0
     59495 TIP3     12350    TIP3     H1       HT       0.417000       1.00800           0
     59496 TIP3     12350    TIP3     H2       HT       0.417000       1.00800           0
     59497 TIP3     12351    TIP3     OH2      OT      -0.834000       15.9994           0
     59498 TIP3     12351    TIP3     H1       HT       0.417000       1.00800           0
     59499 TIP3     12351    TIP3     H2       HT       0.417000       1.00800           0
     59500 TIP3     12352    TIP3     OH2      OT      -0.834000       15.9994           0
     59501 TIP3     12352    TIP3     H1       HT       0.417000       1.00800           0
     59502 TIP3     12352    TIP3     H2       HT       0.417000       1.00800           0
     59503 TIP3     12353    TIP3     OH2      OT      -0.834000       15.9994           0
     59504 TIP3     12353    TIP3     H1       HT       0.417000       1.00800           0
     59505 TIP3     12353    TIP3     H2       HT       0.417000       1.00800           0
     59506 TIP3     12354    TIP3     OH2      OT      -0.834000       15.9994           0
     59507 TIP3     12354    TIP3     H1       HT       0.417000       1.00800           0
     59508 TIP3     12354    TIP3     H2       HT       0.417000       1.00800           0
     59509 TIP3     12355    TIP3     OH2      OT      -0.834000       15.9994           0
     59510 TIP3     12355    TIP3     H1       HT       0.417000       1.00800           0
     59511 TIP3     12355    TIP3     H2       HT       0.417000       1.00800           0
     59512 TIP3     12356    TIP3     OH2      OT      -0.834000       15.9994           0
     59513 TIP3     12356    TIP3     H1       HT       0.417000       1.00800           0
     59514 TIP3     12356    TIP3     H2       HT       0.417000       1.00800           0
     59515 TIP3     12357    TIP3     OH2      OT      -0.834000       15.9994           0
     59516 TIP3     12357    TIP3     H1       HT       0.417000       1.00800           0
     59517 TIP3     12357    TIP3     H2       HT       0.417000       1.00800           0
     59518 TIP3     12358    TIP3     OH2      OT      -0.834000       15.9994           0
     59519 TIP3     12358    TIP3     H1       HT       0.417000       1.00800           0
     59520 TIP3     12358    TIP3     H2       HT       0.417000       1.00800           0
     59521 TIP3     12359    TIP3     OH2      OT      -0.834000       15.9994           0
     59522 TIP3     12359    TIP3     H1       HT       0.417000       1.00800           0
     59523 TIP3     12359    TIP3     H2       HT       0.417000       1.00800           0
     59524 TIP3     12360    TIP3     OH2      OT      -0.834000       15.9994           0
     59525 TIP3     12360    TIP3     H1       HT       0.417000       1.00800           0
     59526 TIP3     12360    TIP3     H2       HT       0.417000       1.00800           0
     59527 TIP3     12361    TIP3     OH2      OT      -0.834000       15.9994           0
     59528 TIP3     12361    TIP3     H1       HT       0.417000       1.00800           0
     59529 TIP3     12361    TIP3     H2       HT       0.417000       1.00800           0
     59530 TIP3     12362    TIP3     OH2      OT      -0.834000       15.9994           0
     59531 TIP3     12362    TIP3     H1       HT       0.417000       1.00800           0
     59532 TIP3     12362    TIP3     H2       HT       0.417000       1.00800           0
     59533 TIP3     12363    TIP3     OH2      OT      -0.834000       15.9994           0
     59534 TIP3     12363    TIP3     H1       HT       0.417000       1.00800           0
     59535 TIP3     12363    TIP3     H2       HT       0.417000       1.00800           0
     59536 TIP3     12364    TIP3     OH2      OT      -0.834000       15.9994           0
     59537 TIP3     12364    TIP3     H1       HT       0.417000       1.00800           0
     59538 TIP3     12364    TIP3     H2       HT       0.417000       1.00800           0
     59539 TIP3     12365    TIP3     OH2      OT      -0.834000       15.9994           0
     59540 TIP3     12365    TIP3     H1       HT       0.417000       1.00800           0
     59541 TIP3     12365    TIP3     H2       HT       0.417000       1.00800           0
     59542 TIP3     12366    TIP3     OH2      OT      -0.834000       15.9994           0
     59543 TIP3     12366    TIP3     H1       HT       0.417000       1.00800           0
     59544 TIP3     12366    TIP3     H2       HT       0.417000       1.00800           0
     59545 TIP3     12367    TIP3     OH2      OT      -0.834000       15.9994           0
     59546 TIP3     12367    TIP3     H1       HT       0.417000       1.00800           0
     59547 TIP3     12367    TIP3     H2       HT       0.417000       1.00800           0
     59548 TIP3     12368    TIP3     OH2      OT      -0.834000       15.9994           0
     59549 TIP3     12368    TIP3     H1       HT       0.417000       1.00800           0
     59550 TIP3     12368    TIP3     H2       HT       0.417000       1.00800           0
     59551 TIP3     12369    TIP3     OH2      OT      -0.834000       15.9994           0
     59552 TIP3     12369    TIP3     H1       HT       0.417000       1.00800           0
     59553 TIP3     12369    TIP3     H2       HT       0.417000       1.00800           0
     59554 TIP3     12370    TIP3     OH2      OT      -0.834000       15.9994           0
     59555 TIP3     12370    TIP3     H1       HT       0.417000       1.00800           0
     59556 TIP3     12370    TIP3     H2       HT       0.417000       1.00800           0
     59557 TIP3     12371    TIP3     OH2      OT      -0.834000       15.9994           0
     59558 TIP3     12371    TIP3     H1       HT       0.417000       1.00800           0
     59559 TIP3     12371    TIP3     H2       HT       0.417000       1.00800           0
     59560 TIP3     12372    TIP3     OH2      OT      -0.834000       15.9994           0
     59561 TIP3     12372    TIP3     H1       HT       0.417000       1.00800           0
     59562 TIP3     12372    TIP3     H2       HT       0.417000       1.00800           0
     59563 TIP3     12373    TIP3     OH2      OT      -0.834000       15.9994           0
     59564 TIP3     12373    TIP3     H1       HT       0.417000       1.00800           0
     59565 TIP3     12373    TIP3     H2       HT       0.417000       1.00800           0
     59566 TIP3     12374    TIP3     OH2      OT      -0.834000       15.9994           0
     59567 TIP3     12374    TIP3     H1       HT       0.417000       1.00800           0
     59568 TIP3     12374    TIP3     H2       HT       0.417000       1.00800           0
     59569 TIP3     12375    TIP3     OH2      OT      -0.834000       15.9994           0
     59570 TIP3     12375    TIP3     H1       HT       0.417000       1.00800           0
     59571 TIP3     12375    TIP3     H2       HT       0.417000       1.00800           0
     59572 TIP3     12376    TIP3     OH2      OT      -0.834000       15.9994           0
     59573 TIP3     12376    TIP3     H1       HT       0.417000       1.00800           0
     59574 TIP3     12376    TIP3     H2       HT       0.417000       1.00800           0
     59575 TIP3     12377    TIP3     OH2      OT      -0.834000       15.9994           0
     59576 TIP3     12377    TIP3     H1       HT       0.417000       1.00800           0
     59577 TIP3     12377    TIP3     H2       HT       0.417000       1.00800           0
     59578 TIP3     12378    TIP3     OH2      OT      -0.834000       15.9994           0
     59579 TIP3     12378    TIP3     H1       HT       0.417000       1.00800           0
     59580 TIP3     12378    TIP3     H2       HT       0.417000       1.00800           0
     59581 TIP3     12379    TIP3     OH2      OT      -0.834000       15.9994           0
     59582 TIP3     12379    TIP3     H1       HT       0.417000       1.00800           0
     59583 TIP3     12379    TIP3     H2       HT       0.417000       1.00800           0
     59584 TIP3     12380    TIP3     OH2      OT      -0.834000       15.9994           0
     59585 TIP3     12380    TIP3     H1       HT       0.417000       1.00800           0
     59586 TIP3     12380    TIP3     H2       HT       0.417000       1.00800           0
     59587 TIP3     12381    TIP3     OH2      OT      -0.834000       15.9994           0
     59588 TIP3     12381    TIP3     H1       HT       0.417000       1.00800           0
     59589 TIP3     12381    TIP3     H2       HT       0.417000       1.00800           0
     59590 TIP3     12382    TIP3     OH2      OT      -0.834000       15.9994           0
     59591 TIP3     12382    TIP3     H1       HT       0.417000       1.00800           0
     59592 TIP3     12382    TIP3     H2       HT       0.417000       1.00800           0
     59593 TIP3     12383    TIP3     OH2      OT      -0.834000       15.9994           0
     59594 TIP3     12383    TIP3     H1       HT       0.417000       1.00800           0
     59595 TIP3     12383    TIP3     H2       HT       0.417000       1.00800           0
     59596 TIP3     12384    TIP3     OH2      OT      -0.834000       15.9994           0
     59597 TIP3     12384    TIP3     H1       HT       0.417000       1.00800           0
     59598 TIP3     12384    TIP3     H2       HT       0.417000       1.00800           0
     59599 TIP3     12385    TIP3     OH2      OT      -0.834000       15.9994           0
     59600 TIP3     12385    TIP3     H1       HT       0.417000       1.00800           0
     59601 TIP3     12385    TIP3     H2       HT       0.417000       1.00800           0
     59602 TIP3     12386    TIP3     OH2      OT      -0.834000       15.9994           0
     59603 TIP3     12386    TIP3     H1       HT       0.417000       1.00800           0
     59604 TIP3     12386    TIP3     H2       HT       0.417000       1.00800           0
     59605 TIP3     12387    TIP3     OH2      OT      -0.834000       15.9994           0
     59606 TIP3     12387    TIP3     H1       HT       0.417000       1.00800           0
     59607 TIP3     12387    TIP3     H2       HT       0.417000       1.00800           0
     59608 TIP3     12388    TIP3     OH2      OT      -0.834000       15.9994           0
     59609 TIP3     12388    TIP3     H1       HT       0.417000       1.00800           0
     59610 TIP3     12388    TIP3     H2       HT       0.417000       1.00800           0
     59611 TIP3     12389    TIP3     OH2      OT      -0.834000       15.9994           0
     59612 TIP3     12389    TIP3     H1       HT       0.417000       1.00800           0
     59613 TIP3     12389    TIP3     H2       HT       0.417000       1.00800           0
     59614 TIP3     12390    TIP3     OH2      OT      -0.834000       15.9994           0
     59615 TIP3     12390    TIP3     H1       HT       0.417000       1.00800           0
     59616 TIP3     12390    TIP3     H2       HT       0.417000       1.00800           0
     59617 TIP3     12391    TIP3     OH2      OT      -0.834000       15.9994           0
     59618 TIP3     12391    TIP3     H1       HT       0.417000       1.00800           0
     59619 TIP3     12391    TIP3     H2       HT       0.417000       1.00800           0
     59620 TIP3     12392    TIP3     OH2      OT      -0.834000       15.9994           0
     59621 TIP3     12392    TIP3     H1       HT       0.417000       1.00800           0
     59622 TIP3     12392    TIP3     H2       HT       0.417000       1.00800           0
     59623 TIP3     12393    TIP3     OH2      OT      -0.834000       15.9994           0
     59624 TIP3     12393    TIP3     H1       HT       0.417000       1.00800           0
     59625 TIP3     12393    TIP3     H2       HT       0.417000       1.00800           0
     59626 TIP3     12394    TIP3     OH2      OT      -0.834000       15.9994           0
     59627 TIP3     12394    TIP3     H1       HT       0.417000       1.00800           0
     59628 TIP3     12394    TIP3     H2       HT       0.417000       1.00800           0
     59629 TIP3     12395    TIP3     OH2      OT      -0.834000       15.9994           0
     59630 TIP3     12395    TIP3     H1       HT       0.417000       1.00800           0
     59631 TIP3     12395    TIP3     H2       HT       0.417000       1.00800           0
     59632 TIP3     12396    TIP3     OH2      OT      -0.834000       15.9994           0
     59633 TIP3     12396    TIP3     H1       HT       0.417000       1.00800           0
     59634 TIP3     12396    TIP3     H2       HT       0.417000       1.00800           0
     59635 TIP3     12397    TIP3     OH2      OT      -0.834000       15.9994           0
     59636 TIP3     12397    TIP3     H1       HT       0.417000       1.00800           0
     59637 TIP3     12397    TIP3     H2       HT       0.417000       1.00800           0
     59638 TIP3     12398    TIP3     OH2      OT      -0.834000       15.9994           0
     59639 TIP3     12398    TIP3     H1       HT       0.417000       1.00800           0
     59640 TIP3     12398    TIP3     H2       HT       0.417000       1.00800           0
     59641 TIP3     12399    TIP3     OH2      OT      -0.834000       15.9994           0
     59642 TIP3     12399    TIP3     H1       HT       0.417000       1.00800           0
     59643 TIP3     12399    TIP3     H2       HT       0.417000       1.00800           0
     59644 TIP3     12400    TIP3     OH2      OT      -0.834000       15.9994           0
     59645 TIP3     12400    TIP3     H1       HT       0.417000       1.00800           0
     59646 TIP3     12400    TIP3     H2       HT       0.417000       1.00800           0
     59647 TIP3     12401    TIP3     OH2      OT      -0.834000       15.9994           0
     59648 TIP3     12401    TIP3     H1       HT       0.417000       1.00800           0
     59649 TIP3     12401    TIP3     H2       HT       0.417000       1.00800           0
     59650 TIP3     12402    TIP3     OH2      OT      -0.834000       15.9994           0
     59651 TIP3     12402    TIP3     H1       HT       0.417000       1.00800           0
     59652 TIP3     12402    TIP3     H2       HT       0.417000       1.00800           0
     59653 TIP3     12403    TIP3     OH2      OT      -0.834000       15.9994           0
     59654 TIP3     12403    TIP3     H1       HT       0.417000       1.00800           0
     59655 TIP3     12403    TIP3     H2       HT       0.417000       1.00800           0
     59656 TIP3     12404    TIP3     OH2      OT      -0.834000       15.9994           0
     59657 TIP3     12404    TIP3     H1       HT       0.417000       1.00800           0
     59658 TIP3     12404    TIP3     H2       HT       0.417000       1.00800           0
     59659 TIP3     12405    TIP3     OH2      OT      -0.834000       15.9994           0
     59660 TIP3     12405    TIP3     H1       HT       0.417000       1.00800           0
     59661 TIP3     12405    TIP3     H2       HT       0.417000       1.00800           0
     59662 TIP3     12406    TIP3     OH2      OT      -0.834000       15.9994           0
     59663 TIP3     12406    TIP3     H1       HT       0.417000       1.00800           0
     59664 TIP3     12406    TIP3     H2       HT       0.417000       1.00800           0
     59665 TIP3     12407    TIP3     OH2      OT      -0.834000       15.9994           0
     59666 TIP3     12407    TIP3     H1       HT       0.417000       1.00800           0
     59667 TIP3     12407    TIP3     H2       HT       0.417000       1.00800           0
     59668 TIP3     12408    TIP3     OH2      OT      -0.834000       15.9994           0
     59669 TIP3     12408    TIP3     H1       HT       0.417000       1.00800           0
     59670 TIP3     12408    TIP3     H2       HT       0.417000       1.00800           0
     59671 TIP3     12409    TIP3     OH2      OT      -0.834000       15.9994           0
     59672 TIP3     12409    TIP3     H1       HT       0.417000       1.00800           0
     59673 TIP3     12409    TIP3     H2       HT       0.417000       1.00800           0
     59674 TIP3     12410    TIP3     OH2      OT      -0.834000       15.9994           0
     59675 TIP3     12410    TIP3     H1       HT       0.417000       1.00800           0
     59676 TIP3     12410    TIP3     H2       HT       0.417000       1.00800           0
     59677 TIP3     12411    TIP3     OH2      OT      -0.834000       15.9994           0
     59678 TIP3     12411    TIP3     H1       HT       0.417000       1.00800           0
     59679 TIP3     12411    TIP3     H2       HT       0.417000       1.00800           0
     59680 TIP3     12412    TIP3     OH2      OT      -0.834000       15.9994           0
     59681 TIP3     12412    TIP3     H1       HT       0.417000       1.00800           0
     59682 TIP3     12412    TIP3     H2       HT       0.417000       1.00800           0
     59683 TIP3     12413    TIP3     OH2      OT      -0.834000       15.9994           0
     59684 TIP3     12413    TIP3     H1       HT       0.417000       1.00800           0
     59685 TIP3     12413    TIP3     H2       HT       0.417000       1.00800           0
     59686 TIP3     12414    TIP3     OH2      OT      -0.834000       15.9994           0
     59687 TIP3     12414    TIP3     H1       HT       0.417000       1.00800           0
     59688 TIP3     12414    TIP3     H2       HT       0.417000       1.00800           0
     59689 TIP3     12415    TIP3     OH2      OT      -0.834000       15.9994           0
     59690 TIP3     12415    TIP3     H1       HT       0.417000       1.00800           0
     59691 TIP3     12415    TIP3     H2       HT       0.417000       1.00800           0
     59692 TIP3     12416    TIP3     OH2      OT      -0.834000       15.9994           0
     59693 TIP3     12416    TIP3     H1       HT       0.417000       1.00800           0
     59694 TIP3     12416    TIP3     H2       HT       0.417000       1.00800           0
     59695 TIP3     12417    TIP3     OH2      OT      -0.834000       15.9994           0
     59696 TIP3     12417    TIP3     H1       HT       0.417000       1.00800           0
     59697 TIP3     12417    TIP3     H2       HT       0.417000       1.00800           0
     59698 TIP3     12418    TIP3     OH2      OT      -0.834000       15.9994           0
     59699 TIP3     12418    TIP3     H1       HT       0.417000       1.00800           0
     59700 TIP3     12418    TIP3     H2       HT       0.417000       1.00800           0
     59701 TIP3     12419    TIP3     OH2      OT      -0.834000       15.9994           0
     59702 TIP3     12419    TIP3     H1       HT       0.417000       1.00800           0
     59703 TIP3     12419    TIP3     H2       HT       0.417000       1.00800           0
     59704 TIP3     12420    TIP3     OH2      OT      -0.834000       15.9994           0
     59705 TIP3     12420    TIP3     H1       HT       0.417000       1.00800           0
     59706 TIP3     12420    TIP3     H2       HT       0.417000       1.00800           0
     59707 TIP3     12421    TIP3     OH2      OT      -0.834000       15.9994           0
     59708 TIP3     12421    TIP3     H1       HT       0.417000       1.00800           0
     59709 TIP3     12421    TIP3     H2       HT       0.417000       1.00800           0
     59710 TIP3     12422    TIP3     OH2      OT      -0.834000       15.9994           0
     59711 TIP3     12422    TIP3     H1       HT       0.417000       1.00800           0
     59712 TIP3     12422    TIP3     H2       HT       0.417000       1.00800           0
     59713 TIP3     12423    TIP3     OH2      OT      -0.834000       15.9994           0
     59714 TIP3     12423    TIP3     H1       HT       0.417000       1.00800           0
     59715 TIP3     12423    TIP3     H2       HT       0.417000       1.00800           0
     59716 TIP3     12424    TIP3     OH2      OT      -0.834000       15.9994           0
     59717 TIP3     12424    TIP3     H1       HT       0.417000       1.00800           0
     59718 TIP3     12424    TIP3     H2       HT       0.417000       1.00800           0
     59719 TIP3     12425    TIP3     OH2      OT      -0.834000       15.9994           0
     59720 TIP3     12425    TIP3     H1       HT       0.417000       1.00800           0
     59721 TIP3     12425    TIP3     H2       HT       0.417000       1.00800           0
     59722 TIP3     12426    TIP3     OH2      OT      -0.834000       15.9994           0
     59723 TIP3     12426    TIP3     H1       HT       0.417000       1.00800           0
     59724 TIP3     12426    TIP3     H2       HT       0.417000       1.00800           0
     59725 TIP3     12427    TIP3     OH2      OT      -0.834000       15.9994           0
     59726 TIP3     12427    TIP3     H1       HT       0.417000       1.00800           0
     59727 TIP3     12427    TIP3     H2       HT       0.417000       1.00800           0
     59728 TIP3     12428    TIP3     OH2      OT      -0.834000       15.9994           0
     59729 TIP3     12428    TIP3     H1       HT       0.417000       1.00800           0
     59730 TIP3     12428    TIP3     H2       HT       0.417000       1.00800           0
     59731 TIP3     12429    TIP3     OH2      OT      -0.834000       15.9994           0
     59732 TIP3     12429    TIP3     H1       HT       0.417000       1.00800           0
     59733 TIP3     12429    TIP3     H2       HT       0.417000       1.00800           0
     59734 TIP3     12430    TIP3     OH2      OT      -0.834000       15.9994           0
     59735 TIP3     12430    TIP3     H1       HT       0.417000       1.00800           0
     59736 TIP3     12430    TIP3     H2       HT       0.417000       1.00800           0
     59737 TIP3     12431    TIP3     OH2      OT      -0.834000       15.9994           0
     59738 TIP3     12431    TIP3     H1       HT       0.417000       1.00800           0
     59739 TIP3     12431    TIP3     H2       HT       0.417000       1.00800           0
     59740 TIP3     12432    TIP3     OH2      OT      -0.834000       15.9994           0
     59741 TIP3     12432    TIP3     H1       HT       0.417000       1.00800           0
     59742 TIP3     12432    TIP3     H2       HT       0.417000       1.00800           0
     59743 TIP3     12433    TIP3     OH2      OT      -0.834000       15.9994           0
     59744 TIP3     12433    TIP3     H1       HT       0.417000       1.00800           0
     59745 TIP3     12433    TIP3     H2       HT       0.417000       1.00800           0
     59746 TIP3     12434    TIP3     OH2      OT      -0.834000       15.9994           0
     59747 TIP3     12434    TIP3     H1       HT       0.417000       1.00800           0
     59748 TIP3     12434    TIP3     H2       HT       0.417000       1.00800           0
     59749 TIP3     12435    TIP3     OH2      OT      -0.834000       15.9994           0
     59750 TIP3     12435    TIP3     H1       HT       0.417000       1.00800           0
     59751 TIP3     12435    TIP3     H2       HT       0.417000       1.00800           0
     59752 TIP3     12436    TIP3     OH2      OT      -0.834000       15.9994           0
     59753 TIP3     12436    TIP3     H1       HT       0.417000       1.00800           0
     59754 TIP3     12436    TIP3     H2       HT       0.417000       1.00800           0
     59755 TIP3     12437    TIP3     OH2      OT      -0.834000       15.9994           0
     59756 TIP3     12437    TIP3     H1       HT       0.417000       1.00800           0
     59757 TIP3     12437    TIP3     H2       HT       0.417000       1.00800           0
     59758 TIP3     12438    TIP3     OH2      OT      -0.834000       15.9994           0
     59759 TIP3     12438    TIP3     H1       HT       0.417000       1.00800           0
     59760 TIP3     12438    TIP3     H2       HT       0.417000       1.00800           0
     59761 TIP3     12439    TIP3     OH2      OT      -0.834000       15.9994           0
     59762 TIP3     12439    TIP3     H1       HT       0.417000       1.00800           0
     59763 TIP3     12439    TIP3     H2       HT       0.417000       1.00800           0
     59764 TIP3     12440    TIP3     OH2      OT      -0.834000       15.9994           0
     59765 TIP3     12440    TIP3     H1       HT       0.417000       1.00800           0
     59766 TIP3     12440    TIP3     H2       HT       0.417000       1.00800           0
     59767 TIP3     12441    TIP3     OH2      OT      -0.834000       15.9994           0
     59768 TIP3     12441    TIP3     H1       HT       0.417000       1.00800           0
     59769 TIP3     12441    TIP3     H2       HT       0.417000       1.00800           0
     59770 TIP3     12442    TIP3     OH2      OT      -0.834000       15.9994           0
     59771 TIP3     12442    TIP3     H1       HT       0.417000       1.00800           0
     59772 TIP3     12442    TIP3     H2       HT       0.417000       1.00800           0
     59773 TIP3     12443    TIP3     OH2      OT      -0.834000       15.9994           0
     59774 TIP3     12443    TIP3     H1       HT       0.417000       1.00800           0
     59775 TIP3     12443    TIP3     H2       HT       0.417000       1.00800           0
     59776 TIP3     12444    TIP3     OH2      OT      -0.834000       15.9994           0
     59777 TIP3     12444    TIP3     H1       HT       0.417000       1.00800           0
     59778 TIP3     12444    TIP3     H2       HT       0.417000       1.00800           0
     59779 TIP3     12445    TIP3     OH2      OT      -0.834000       15.9994           0
     59780 TIP3     12445    TIP3     H1       HT       0.417000       1.00800           0
     59781 TIP3     12445    TIP3     H2       HT       0.417000       1.00800           0
     59782 TIP3     12446    TIP3     OH2      OT      -0.834000       15.9994           0
     59783 TIP3     12446    TIP3     H1       HT       0.417000       1.00800           0
     59784 TIP3     12446    TIP3     H2       HT       0.417000       1.00800           0
     59785 TIP3     12447    TIP3     OH2      OT      -0.834000       15.9994           0
     59786 TIP3     12447    TIP3     H1       HT       0.417000       1.00800           0
     59787 TIP3     12447    TIP3     H2       HT       0.417000       1.00800           0
     59788 TIP3     12448    TIP3     OH2      OT      -0.834000       15.9994           0
     59789 TIP3     12448    TIP3     H1       HT       0.417000       1.00800           0
     59790 TIP3     12448    TIP3     H2       HT       0.417000       1.00800           0
     59791 TIP3     12449    TIP3     OH2      OT      -0.834000       15.9994           0
     59792 TIP3     12449    TIP3     H1       HT       0.417000       1.00800           0
     59793 TIP3     12449    TIP3     H2       HT       0.417000       1.00800           0
     59794 TIP3     12450    TIP3     OH2      OT      -0.834000       15.9994           0
     59795 TIP3     12450    TIP3     H1       HT       0.417000       1.00800           0
     59796 TIP3     12450    TIP3     H2       HT       0.417000       1.00800           0
     59797 TIP3     12451    TIP3     OH2      OT      -0.834000       15.9994           0
     59798 TIP3     12451    TIP3     H1       HT       0.417000       1.00800           0
     59799 TIP3     12451    TIP3     H2       HT       0.417000       1.00800           0
     59800 TIP3     12452    TIP3     OH2      OT      -0.834000       15.9994           0
     59801 TIP3     12452    TIP3     H1       HT       0.417000       1.00800           0
     59802 TIP3     12452    TIP3     H2       HT       0.417000       1.00800           0
     59803 TIP3     12453    TIP3     OH2      OT      -0.834000       15.9994           0
     59804 TIP3     12453    TIP3     H1       HT       0.417000       1.00800           0
     59805 TIP3     12453    TIP3     H2       HT       0.417000       1.00800           0
     59806 TIP3     12454    TIP3     OH2      OT      -0.834000       15.9994           0
     59807 TIP3     12454    TIP3     H1       HT       0.417000       1.00800           0
     59808 TIP3     12454    TIP3     H2       HT       0.417000       1.00800           0
     59809 TIP3     12455    TIP3     OH2      OT      -0.834000       15.9994           0
     59810 TIP3     12455    TIP3     H1       HT       0.417000       1.00800           0
     59811 TIP3     12455    TIP3     H2       HT       0.417000       1.00800           0
     59812 TIP3     12456    TIP3     OH2      OT      -0.834000       15.9994           0
     59813 TIP3     12456    TIP3     H1       HT       0.417000       1.00800           0
     59814 TIP3     12456    TIP3     H2       HT       0.417000       1.00800           0
     59815 TIP3     12457    TIP3     OH2      OT      -0.834000       15.9994           0
     59816 TIP3     12457    TIP3     H1       HT       0.417000       1.00800           0
     59817 TIP3     12457    TIP3     H2       HT       0.417000       1.00800           0
     59818 TIP3     12458    TIP3     OH2      OT      -0.834000       15.9994           0
     59819 TIP3     12458    TIP3     H1       HT       0.417000       1.00800           0
     59820 TIP3     12458    TIP3     H2       HT       0.417000       1.00800           0
     59821 TIP3     12459    TIP3     OH2      OT      -0.834000       15.9994           0
     59822 TIP3     12459    TIP3     H1       HT       0.417000       1.00800           0
     59823 TIP3     12459    TIP3     H2       HT       0.417000       1.00800           0
     59824 TIP3     12460    TIP3     OH2      OT      -0.834000       15.9994           0
     59825 TIP3     12460    TIP3     H1       HT       0.417000       1.00800           0
     59826 TIP3     12460    TIP3     H2       HT       0.417000       1.00800           0
     59827 TIP3     12461    TIP3     OH2      OT      -0.834000       15.9994           0
     59828 TIP3     12461    TIP3     H1       HT       0.417000       1.00800           0
     59829 TIP3     12461    TIP3     H2       HT       0.417000       1.00800           0
     59830 TIP3     12462    TIP3     OH2      OT      -0.834000       15.9994           0
     59831 TIP3     12462    TIP3     H1       HT       0.417000       1.00800           0
     59832 TIP3     12462    TIP3     H2       HT       0.417000       1.00800           0
     59833 TIP3     12463    TIP3     OH2      OT      -0.834000       15.9994           0
     59834 TIP3     12463    TIP3     H1       HT       0.417000       1.00800           0
     59835 TIP3     12463    TIP3     H2       HT       0.417000       1.00800           0
     59836 TIP3     12464    TIP3     OH2      OT      -0.834000       15.9994           0
     59837 TIP3     12464    TIP3     H1       HT       0.417000       1.00800           0
     59838 TIP3     12464    TIP3     H2       HT       0.417000       1.00800           0
     59839 TIP3     12465    TIP3     OH2      OT      -0.834000       15.9994           0
     59840 TIP3     12465    TIP3     H1       HT       0.417000       1.00800           0
     59841 TIP3     12465    TIP3     H2       HT       0.417000       1.00800           0
     59842 TIP3     12466    TIP3     OH2      OT      -0.834000       15.9994           0
     59843 TIP3     12466    TIP3     H1       HT       0.417000       1.00800           0
     59844 TIP3     12466    TIP3     H2       HT       0.417000       1.00800           0
     59845 TIP3     12467    TIP3     OH2      OT      -0.834000       15.9994           0
     59846 TIP3     12467    TIP3     H1       HT       0.417000       1.00800           0
     59847 TIP3     12467    TIP3     H2       HT       0.417000       1.00800           0
     59848 TIP3     12468    TIP3     OH2      OT      -0.834000       15.9994           0
     59849 TIP3     12468    TIP3     H1       HT       0.417000       1.00800           0
     59850 TIP3     12468    TIP3     H2       HT       0.417000       1.00800           0
     59851 TIP3     12469    TIP3     OH2      OT      -0.834000       15.9994           0
     59852 TIP3     12469    TIP3     H1       HT       0.417000       1.00800           0
     59853 TIP3     12469    TIP3     H2       HT       0.417000       1.00800           0
     59854 TIP3     12470    TIP3     OH2      OT      -0.834000       15.9994           0
     59855 TIP3     12470    TIP3     H1       HT       0.417000       1.00800           0
     59856 TIP3     12470    TIP3     H2       HT       0.417000       1.00800           0
     59857 TIP3     12471    TIP3     OH2      OT      -0.834000       15.9994           0
     59858 TIP3     12471    TIP3     H1       HT       0.417000       1.00800           0
     59859 TIP3     12471    TIP3     H2       HT       0.417000       1.00800           0
     59860 TIP3     12472    TIP3     OH2      OT      -0.834000       15.9994           0
     59861 TIP3     12472    TIP3     H1       HT       0.417000       1.00800           0
     59862 TIP3     12472    TIP3     H2       HT       0.417000       1.00800           0
     59863 TIP3     12473    TIP3     OH2      OT      -0.834000       15.9994           0
     59864 TIP3     12473    TIP3     H1       HT       0.417000       1.00800           0
     59865 TIP3     12473    TIP3     H2       HT       0.417000       1.00800           0
     59866 TIP3     12474    TIP3     OH2      OT      -0.834000       15.9994           0
     59867 TIP3     12474    TIP3     H1       HT       0.417000       1.00800           0
     59868 TIP3     12474    TIP3     H2       HT       0.417000       1.00800           0
     59869 TIP3     12475    TIP3     OH2      OT      -0.834000       15.9994           0
     59870 TIP3     12475    TIP3     H1       HT       0.417000       1.00800           0
     59871 TIP3     12475    TIP3     H2       HT       0.417000       1.00800           0
     59872 TIP3     12476    TIP3     OH2      OT      -0.834000       15.9994           0
     59873 TIP3     12476    TIP3     H1       HT       0.417000       1.00800           0
     59874 TIP3     12476    TIP3     H2       HT       0.417000       1.00800           0
     59875 TIP3     12477    TIP3     OH2      OT      -0.834000       15.9994           0
     59876 TIP3     12477    TIP3     H1       HT       0.417000       1.00800           0
     59877 TIP3     12477    TIP3     H2       HT       0.417000       1.00800           0
     59878 TIP3     12478    TIP3     OH2      OT      -0.834000       15.9994           0
     59879 TIP3     12478    TIP3     H1       HT       0.417000       1.00800           0
     59880 TIP3     12478    TIP3     H2       HT       0.417000       1.00800           0
     59881 TIP3     12479    TIP3     OH2      OT      -0.834000       15.9994           0
     59882 TIP3     12479    TIP3     H1       HT       0.417000       1.00800           0
     59883 TIP3     12479    TIP3     H2       HT       0.417000       1.00800           0
     59884 TIP3     12480    TIP3     OH2      OT      -0.834000       15.9994           0
     59885 TIP3     12480    TIP3     H1       HT       0.417000       1.00800           0
     59886 TIP3     12480    TIP3     H2       HT       0.417000       1.00800           0
     59887 TIP3     12481    TIP3     OH2      OT      -0.834000       15.9994           0
     59888 TIP3     12481    TIP3     H1       HT       0.417000       1.00800           0
     59889 TIP3     12481    TIP3     H2       HT       0.417000       1.00800           0
     59890 TIP3     12482    TIP3     OH2      OT      -0.834000       15.9994           0
     59891 TIP3     12482    TIP3     H1       HT       0.417000       1.00800           0
     59892 TIP3     12482    TIP3     H2       HT       0.417000       1.00800           0
     59893 TIP3     12483    TIP3     OH2      OT      -0.834000       15.9994           0
     59894 TIP3     12483    TIP3     H1       HT       0.417000       1.00800           0
     59895 TIP3     12483    TIP3     H2       HT       0.417000       1.00800           0
     59896 TIP3     12484    TIP3     OH2      OT      -0.834000       15.9994           0
     59897 TIP3     12484    TIP3     H1       HT       0.417000       1.00800           0
     59898 TIP3     12484    TIP3     H2       HT       0.417000       1.00800           0
     59899 TIP3     12485    TIP3     OH2      OT      -0.834000       15.9994           0
     59900 TIP3     12485    TIP3     H1       HT       0.417000       1.00800           0
     59901 TIP3     12485    TIP3     H2       HT       0.417000       1.00800           0
     59902 TIP3     12486    TIP3     OH2      OT      -0.834000       15.9994           0
     59903 TIP3     12486    TIP3     H1       HT       0.417000       1.00800           0
     59904 TIP3     12486    TIP3     H2       HT       0.417000       1.00800           0
     59905 TIP3     12487    TIP3     OH2      OT      -0.834000       15.9994           0
     59906 TIP3     12487    TIP3     H1       HT       0.417000       1.00800           0
     59907 TIP3     12487    TIP3     H2       HT       0.417000       1.00800           0
     59908 TIP3     12488    TIP3     OH2      OT      -0.834000       15.9994           0
     59909 TIP3     12488    TIP3     H1       HT       0.417000       1.00800           0
     59910 TIP3     12488    TIP3     H2       HT       0.417000       1.00800           0
     59911 TIP3     12489    TIP3     OH2      OT      -0.834000       15.9994           0
     59912 TIP3     12489    TIP3     H1       HT       0.417000       1.00800           0
     59913 TIP3     12489    TIP3     H2       HT       0.417000       1.00800           0
     59914 TIP3     12490    TIP3     OH2      OT      -0.834000       15.9994           0
     59915 TIP3     12490    TIP3     H1       HT       0.417000       1.00800           0
     59916 TIP3     12490    TIP3     H2       HT       0.417000       1.00800           0
     59917 TIP3     12491    TIP3     OH2      OT      -0.834000       15.9994           0
     59918 TIP3     12491    TIP3     H1       HT       0.417000       1.00800           0
     59919 TIP3     12491    TIP3     H2       HT       0.417000       1.00800           0
     59920 TIP3     12492    TIP3     OH2      OT      -0.834000       15.9994           0
     59921 TIP3     12492    TIP3     H1       HT       0.417000       1.00800           0
     59922 TIP3     12492    TIP3     H2       HT       0.417000       1.00800           0
     59923 TIP3     12493    TIP3     OH2      OT      -0.834000       15.9994           0
     59924 TIP3     12493    TIP3     H1       HT       0.417000       1.00800           0
     59925 TIP3     12493    TIP3     H2       HT       0.417000       1.00800           0
     59926 TIP3     12494    TIP3     OH2      OT      -0.834000       15.9994           0
     59927 TIP3     12494    TIP3     H1       HT       0.417000       1.00800           0
     59928 TIP3     12494    TIP3     H2       HT       0.417000       1.00800           0
     59929 TIP3     12495    TIP3     OH2      OT      -0.834000       15.9994           0
     59930 TIP3     12495    TIP3     H1       HT       0.417000       1.00800           0
     59931 TIP3     12495    TIP3     H2       HT       0.417000       1.00800           0
     59932 TIP3     12496    TIP3     OH2      OT      -0.834000       15.9994           0
     59933 TIP3     12496    TIP3     H1       HT       0.417000       1.00800           0
     59934 TIP3     12496    TIP3     H2       HT       0.417000       1.00800           0
     59935 TIP3     12497    TIP3     OH2      OT      -0.834000       15.9994           0
     59936 TIP3     12497    TIP3     H1       HT       0.417000       1.00800           0
     59937 TIP3     12497    TIP3     H2       HT       0.417000       1.00800           0
     59938 TIP3     12498    TIP3     OH2      OT      -0.834000       15.9994           0
     59939 TIP3     12498    TIP3     H1       HT       0.417000       1.00800           0
     59940 TIP3     12498    TIP3     H2       HT       0.417000       1.00800           0
     59941 TIP3     12499    TIP3     OH2      OT      -0.834000       15.9994           0
     59942 TIP3     12499    TIP3     H1       HT       0.417000       1.00800           0
     59943 TIP3     12499    TIP3     H2       HT       0.417000       1.00800           0
     59944 TIP3     12500    TIP3     OH2      OT      -0.834000       15.9994           0
     59945 TIP3     12500    TIP3     H1       HT       0.417000       1.00800           0
     59946 TIP3     12500    TIP3     H2       HT       0.417000       1.00800           0
     59947 TIP3     12501    TIP3     OH2      OT      -0.834000       15.9994           0
     59948 TIP3     12501    TIP3     H1       HT       0.417000       1.00800           0
     59949 TIP3     12501    TIP3     H2       HT       0.417000       1.00800           0
     59950 TIP3     12502    TIP3     OH2      OT      -0.834000       15.9994           0
     59951 TIP3     12502    TIP3     H1       HT       0.417000       1.00800           0
     59952 TIP3     12502    TIP3     H2       HT       0.417000       1.00800           0
     59953 TIP3     12503    TIP3     OH2      OT      -0.834000       15.9994           0
     59954 TIP3     12503    TIP3     H1       HT       0.417000       1.00800           0
     59955 TIP3     12503    TIP3     H2       HT       0.417000       1.00800           0
     59956 TIP3     12504    TIP3     OH2      OT      -0.834000       15.9994           0
     59957 TIP3     12504    TIP3     H1       HT       0.417000       1.00800           0
     59958 TIP3     12504    TIP3     H2       HT       0.417000       1.00800           0
     59959 TIP3     12505    TIP3     OH2      OT      -0.834000       15.9994           0
     59960 TIP3     12505    TIP3     H1       HT       0.417000       1.00800           0
     59961 TIP3     12505    TIP3     H2       HT       0.417000       1.00800           0
     59962 TIP3     12506    TIP3     OH2      OT      -0.834000       15.9994           0
     59963 TIP3     12506    TIP3     H1       HT       0.417000       1.00800           0
     59964 TIP3     12506    TIP3     H2       HT       0.417000       1.00800           0
     59965 TIP3     12507    TIP3     OH2      OT      -0.834000       15.9994           0
     59966 TIP3     12507    TIP3     H1       HT       0.417000       1.00800           0
     59967 TIP3     12507    TIP3     H2       HT       0.417000       1.00800           0
     59968 TIP3     12508    TIP3     OH2      OT      -0.834000       15.9994           0
     59969 TIP3     12508    TIP3     H1       HT       0.417000       1.00800           0
     59970 TIP3     12508    TIP3     H2       HT       0.417000       1.00800           0
     59971 TIP3     12509    TIP3     OH2      OT      -0.834000       15.9994           0
     59972 TIP3     12509    TIP3     H1       HT       0.417000       1.00800           0
     59973 TIP3     12509    TIP3     H2       HT       0.417000       1.00800           0
     59974 TIP3     12510    TIP3     OH2      OT      -0.834000       15.9994           0
     59975 TIP3     12510    TIP3     H1       HT       0.417000       1.00800           0
     59976 TIP3     12510    TIP3     H2       HT       0.417000       1.00800           0
     59977 TIP3     12511    TIP3     OH2      OT      -0.834000       15.9994           0
     59978 TIP3     12511    TIP3     H1       HT       0.417000       1.00800           0
     59979 TIP3     12511    TIP3     H2       HT       0.417000       1.00800           0
     59980 TIP3     12512    TIP3     OH2      OT      -0.834000       15.9994           0
     59981 TIP3     12512    TIP3     H1       HT       0.417000       1.00800           0
     59982 TIP3     12512    TIP3     H2       HT       0.417000       1.00800           0
     59983 TIP3     12513    TIP3     OH2      OT      -0.834000       15.9994           0
     59984 TIP3     12513    TIP3     H1       HT       0.417000       1.00800           0
     59985 TIP3     12513    TIP3     H2       HT       0.417000       1.00800           0
     59986 TIP3     12514    TIP3     OH2      OT      -0.834000       15.9994           0
     59987 TIP3     12514    TIP3     H1       HT       0.417000       1.00800           0
     59988 TIP3     12514    TIP3     H2       HT       0.417000       1.00800           0
     59989 TIP3     12515    TIP3     OH2      OT      -0.834000       15.9994           0
     59990 TIP3     12515    TIP3     H1       HT       0.417000       1.00800           0
     59991 TIP3     12515    TIP3     H2       HT       0.417000       1.00800           0
     59992 TIP3     12516    TIP3     OH2      OT      -0.834000       15.9994           0
     59993 TIP3     12516    TIP3     H1       HT       0.417000       1.00800           0
     59994 TIP3     12516    TIP3     H2       HT       0.417000       1.00800           0
     59995 TIP3     12517    TIP3     OH2      OT      -0.834000       15.9994           0
     59996 TIP3     12517    TIP3     H1       HT       0.417000       1.00800           0
     59997 TIP3     12517    TIP3     H2       HT       0.417000       1.00800           0
     59998 TIP3     12518    TIP3     OH2      OT      -0.834000       15.9994           0
     59999 TIP3     12518    TIP3     H1       HT       0.417000       1.00800           0
     60000 TIP3     12518    TIP3     H2       HT       0.417000       1.00800           0
     60001 TIP3     12519    TIP3     OH2      OT      -0.834000       15.9994           0
     60002 TIP3     12519    TIP3     H1       HT       0.417000       1.00800           0
     60003 TIP3     12519    TIP3     H2       HT       0.417000       1.00800           0
     60004 TIP3     12520    TIP3     OH2      OT      -0.834000       15.9994           0
     60005 TIP3     12520    TIP3     H1       HT       0.417000       1.00800           0
     60006 TIP3     12520    TIP3     H2       HT       0.417000       1.00800           0
     60007 TIP3     12521    TIP3     OH2      OT      -0.834000       15.9994           0
     60008 TIP3     12521    TIP3     H1       HT       0.417000       1.00800           0
     60009 TIP3     12521    TIP3     H2       HT       0.417000       1.00800           0
     60010 TIP3     12522    TIP3     OH2      OT      -0.834000       15.9994           0
     60011 TIP3     12522    TIP3     H1       HT       0.417000       1.00800           0
     60012 TIP3     12522    TIP3     H2       HT       0.417000       1.00800           0
     60013 TIP3     12523    TIP3     OH2      OT      -0.834000       15.9994           0
     60014 TIP3     12523    TIP3     H1       HT       0.417000       1.00800           0
     60015 TIP3     12523    TIP3     H2       HT       0.417000       1.00800           0
     60016 TIP3     12524    TIP3     OH2      OT      -0.834000       15.9994           0
     60017 TIP3     12524    TIP3     H1       HT       0.417000       1.00800           0
     60018 TIP3     12524    TIP3     H2       HT       0.417000       1.00800           0
     60019 TIP3     12525    TIP3     OH2      OT      -0.834000       15.9994           0
     60020 TIP3     12525    TIP3     H1       HT       0.417000       1.00800           0
     60021 TIP3     12525    TIP3     H2       HT       0.417000       1.00800           0
     60022 TIP3     12526    TIP3     OH2      OT      -0.834000       15.9994           0
     60023 TIP3     12526    TIP3     H1       HT       0.417000       1.00800           0
     60024 TIP3     12526    TIP3     H2       HT       0.417000       1.00800           0
     60025 TIP3     12527    TIP3     OH2      OT      -0.834000       15.9994           0
     60026 TIP3     12527    TIP3     H1       HT       0.417000       1.00800           0
     60027 TIP3     12527    TIP3     H2       HT       0.417000       1.00800           0
     60028 TIP3     12528    TIP3     OH2      OT      -0.834000       15.9994           0
     60029 TIP3     12528    TIP3     H1       HT       0.417000       1.00800           0
     60030 TIP3     12528    TIP3     H2       HT       0.417000       1.00800           0
     60031 TIP3     12529    TIP3     OH2      OT      -0.834000       15.9994           0
     60032 TIP3     12529    TIP3     H1       HT       0.417000       1.00800           0
     60033 TIP3     12529    TIP3     H2       HT       0.417000       1.00800           0
     60034 TIP3     12530    TIP3     OH2      OT      -0.834000       15.9994           0
     60035 TIP3     12530    TIP3     H1       HT       0.417000       1.00800           0
     60036 TIP3     12530    TIP3     H2       HT       0.417000       1.00800           0
     60037 TIP3     12531    TIP3     OH2      OT      -0.834000       15.9994           0
     60038 TIP3     12531    TIP3     H1       HT       0.417000       1.00800           0
     60039 TIP3     12531    TIP3     H2       HT       0.417000       1.00800           0
     60040 TIP3     12532    TIP3     OH2      OT      -0.834000       15.9994           0
     60041 TIP3     12532    TIP3     H1       HT       0.417000       1.00800           0
     60042 TIP3     12532    TIP3     H2       HT       0.417000       1.00800           0
     60043 TIP3     12533    TIP3     OH2      OT      -0.834000       15.9994           0
     60044 TIP3     12533    TIP3     H1       HT       0.417000       1.00800           0
     60045 TIP3     12533    TIP3     H2       HT       0.417000       1.00800           0
     60046 TIP3     12534    TIP3     OH2      OT      -0.834000       15.9994           0
     60047 TIP3     12534    TIP3     H1       HT       0.417000       1.00800           0
     60048 TIP3     12534    TIP3     H2       HT       0.417000       1.00800           0
     60049 TIP3     12535    TIP3     OH2      OT      -0.834000       15.9994           0
     60050 TIP3     12535    TIP3     H1       HT       0.417000       1.00800           0
     60051 TIP3     12535    TIP3     H2       HT       0.417000       1.00800           0
     60052 TIP3     12536    TIP3     OH2      OT      -0.834000       15.9994           0
     60053 TIP3     12536    TIP3     H1       HT       0.417000       1.00800           0
     60054 TIP3     12536    TIP3     H2       HT       0.417000       1.00800           0
     60055 TIP3     12537    TIP3     OH2      OT      -0.834000       15.9994           0
     60056 TIP3     12537    TIP3     H1       HT       0.417000       1.00800           0
     60057 TIP3     12537    TIP3     H2       HT       0.417000       1.00800           0
     60058 TIP3     12538    TIP3     OH2      OT      -0.834000       15.9994           0
     60059 TIP3     12538    TIP3     H1       HT       0.417000       1.00800           0
     60060 TIP3     12538    TIP3     H2       HT       0.417000       1.00800           0
     60061 TIP3     12539    TIP3     OH2      OT      -0.834000       15.9994           0
     60062 TIP3     12539    TIP3     H1       HT       0.417000       1.00800           0
     60063 TIP3     12539    TIP3     H2       HT       0.417000       1.00800           0
     60064 TIP3     12540    TIP3     OH2      OT      -0.834000       15.9994           0
     60065 TIP3     12540    TIP3     H1       HT       0.417000       1.00800           0
     60066 TIP3     12540    TIP3     H2       HT       0.417000       1.00800           0
     60067 TIP3     12541    TIP3     OH2      OT      -0.834000       15.9994           0
     60068 TIP3     12541    TIP3     H1       HT       0.417000       1.00800           0
     60069 TIP3     12541    TIP3     H2       HT       0.417000       1.00800           0
     60070 TIP3     12542    TIP3     OH2      OT      -0.834000       15.9994           0
     60071 TIP3     12542    TIP3     H1       HT       0.417000       1.00800           0
     60072 TIP3     12542    TIP3     H2       HT       0.417000       1.00800           0
     60073 TIP3     12543    TIP3     OH2      OT      -0.834000       15.9994           0
     60074 TIP3     12543    TIP3     H1       HT       0.417000       1.00800           0
     60075 TIP3     12543    TIP3     H2       HT       0.417000       1.00800           0
     60076 TIP3     12544    TIP3     OH2      OT      -0.834000       15.9994           0
     60077 TIP3     12544    TIP3     H1       HT       0.417000       1.00800           0
     60078 TIP3     12544    TIP3     H2       HT       0.417000       1.00800           0
     60079 TIP3     12545    TIP3     OH2      OT      -0.834000       15.9994           0
     60080 TIP3     12545    TIP3     H1       HT       0.417000       1.00800           0
     60081 TIP3     12545    TIP3     H2       HT       0.417000       1.00800           0
     60082 TIP3     12546    TIP3     OH2      OT      -0.834000       15.9994           0
     60083 TIP3     12546    TIP3     H1       HT       0.417000       1.00800           0
     60084 TIP3     12546    TIP3     H2       HT       0.417000       1.00800           0
     60085 TIP3     12547    TIP3     OH2      OT      -0.834000       15.9994           0
     60086 TIP3     12547    TIP3     H1       HT       0.417000       1.00800           0
     60087 TIP3     12547    TIP3     H2       HT       0.417000       1.00800           0
     60088 TIP3     12548    TIP3     OH2      OT      -0.834000       15.9994           0
     60089 TIP3     12548    TIP3     H1       HT       0.417000       1.00800           0
     60090 TIP3     12548    TIP3     H2       HT       0.417000       1.00800           0
     60091 TIP3     12549    TIP3     OH2      OT      -0.834000       15.9994           0
     60092 TIP3     12549    TIP3     H1       HT       0.417000       1.00800           0
     60093 TIP3     12549    TIP3     H2       HT       0.417000       1.00800           0
     60094 TIP3     12550    TIP3     OH2      OT      -0.834000       15.9994           0
     60095 TIP3     12550    TIP3     H1       HT       0.417000       1.00800           0
     60096 TIP3     12550    TIP3     H2       HT       0.417000       1.00800           0
     60097 TIP3     12551    TIP3     OH2      OT      -0.834000       15.9994           0
     60098 TIP3     12551    TIP3     H1       HT       0.417000       1.00800           0
     60099 TIP3     12551    TIP3     H2       HT       0.417000       1.00800           0
     60100 TIP3     12552    TIP3     OH2      OT      -0.834000       15.9994           0
     60101 TIP3     12552    TIP3     H1       HT       0.417000       1.00800           0
     60102 TIP3     12552    TIP3     H2       HT       0.417000       1.00800           0
     60103 TIP3     12553    TIP3     OH2      OT      -0.834000       15.9994           0
     60104 TIP3     12553    TIP3     H1       HT       0.417000       1.00800           0
     60105 TIP3     12553    TIP3     H2       HT       0.417000       1.00800           0
     60106 TIP3     12554    TIP3     OH2      OT      -0.834000       15.9994           0
     60107 TIP3     12554    TIP3     H1       HT       0.417000       1.00800           0
     60108 TIP3     12554    TIP3     H2       HT       0.417000       1.00800           0
     60109 TIP3     12555    TIP3     OH2      OT      -0.834000       15.9994           0
     60110 TIP3     12555    TIP3     H1       HT       0.417000       1.00800           0
     60111 TIP3     12555    TIP3     H2       HT       0.417000       1.00800           0
     60112 TIP3     12556    TIP3     OH2      OT      -0.834000       15.9994           0
     60113 TIP3     12556    TIP3     H1       HT       0.417000       1.00800           0
     60114 TIP3     12556    TIP3     H2       HT       0.417000       1.00800           0
     60115 TIP3     12557    TIP3     OH2      OT      -0.834000       15.9994           0
     60116 TIP3     12557    TIP3     H1       HT       0.417000       1.00800           0
     60117 TIP3     12557    TIP3     H2       HT       0.417000       1.00800           0
     60118 TIP3     12558    TIP3     OH2      OT      -0.834000       15.9994           0
     60119 TIP3     12558    TIP3     H1       HT       0.417000       1.00800           0
     60120 TIP3     12558    TIP3     H2       HT       0.417000       1.00800           0
     60121 TIP3     12559    TIP3     OH2      OT      -0.834000       15.9994           0
     60122 TIP3     12559    TIP3     H1       HT       0.417000       1.00800           0
     60123 TIP3     12559    TIP3     H2       HT       0.417000       1.00800           0
     60124 TIP3     12560    TIP3     OH2      OT      -0.834000       15.9994           0
     60125 TIP3     12560    TIP3     H1       HT       0.417000       1.00800           0
     60126 TIP3     12560    TIP3     H2       HT       0.417000       1.00800           0
     60127 TIP3     12561    TIP3     OH2      OT      -0.834000       15.9994           0
     60128 TIP3     12561    TIP3     H1       HT       0.417000       1.00800           0
     60129 TIP3     12561    TIP3     H2       HT       0.417000       1.00800           0
     60130 TIP3     12562    TIP3     OH2      OT      -0.834000       15.9994           0
     60131 TIP3     12562    TIP3     H1       HT       0.417000       1.00800           0
     60132 TIP3     12562    TIP3     H2       HT       0.417000       1.00800           0
     60133 TIP3     12563    TIP3     OH2      OT      -0.834000       15.9994           0
     60134 TIP3     12563    TIP3     H1       HT       0.417000       1.00800           0
     60135 TIP3     12563    TIP3     H2       HT       0.417000       1.00800           0
     60136 TIP3     12564    TIP3     OH2      OT      -0.834000       15.9994           0
     60137 TIP3     12564    TIP3     H1       HT       0.417000       1.00800           0
     60138 TIP3     12564    TIP3     H2       HT       0.417000       1.00800           0
     60139 TIP3     12565    TIP3     OH2      OT      -0.834000       15.9994           0
     60140 TIP3     12565    TIP3     H1       HT       0.417000       1.00800           0
     60141 TIP3     12565    TIP3     H2       HT       0.417000       1.00800           0
     60142 TIP3     12566    TIP3     OH2      OT      -0.834000       15.9994           0
     60143 TIP3     12566    TIP3     H1       HT       0.417000       1.00800           0
     60144 TIP3     12566    TIP3     H2       HT       0.417000       1.00800           0
     60145 TIP3     12567    TIP3     OH2      OT      -0.834000       15.9994           0
     60146 TIP3     12567    TIP3     H1       HT       0.417000       1.00800           0
     60147 TIP3     12567    TIP3     H2       HT       0.417000       1.00800           0
     60148 TIP3     12568    TIP3     OH2      OT      -0.834000       15.9994           0
     60149 TIP3     12568    TIP3     H1       HT       0.417000       1.00800           0
     60150 TIP3     12568    TIP3     H2       HT       0.417000       1.00800           0
     60151 TIP3     12569    TIP3     OH2      OT      -0.834000       15.9994           0
     60152 TIP3     12569    TIP3     H1       HT       0.417000       1.00800           0
     60153 TIP3     12569    TIP3     H2       HT       0.417000       1.00800           0
     60154 TIP3     12570    TIP3     OH2      OT      -0.834000       15.9994           0
     60155 TIP3     12570    TIP3     H1       HT       0.417000       1.00800           0
     60156 TIP3     12570    TIP3     H2       HT       0.417000       1.00800           0
     60157 TIP3     12571    TIP3     OH2      OT      -0.834000       15.9994           0
     60158 TIP3     12571    TIP3     H1       HT       0.417000       1.00800           0
     60159 TIP3     12571    TIP3     H2       HT       0.417000       1.00800           0
     60160 TIP3     12572    TIP3     OH2      OT      -0.834000       15.9994           0
     60161 TIP3     12572    TIP3     H1       HT       0.417000       1.00800           0
     60162 TIP3     12572    TIP3     H2       HT       0.417000       1.00800           0
     60163 TIP3     12573    TIP3     OH2      OT      -0.834000       15.9994           0
     60164 TIP3     12573    TIP3     H1       HT       0.417000       1.00800           0
     60165 TIP3     12573    TIP3     H2       HT       0.417000       1.00800           0
     60166 TIP3     12574    TIP3     OH2      OT      -0.834000       15.9994           0
     60167 TIP3     12574    TIP3     H1       HT       0.417000       1.00800           0
     60168 TIP3     12574    TIP3     H2       HT       0.417000       1.00800           0
     60169 TIP3     12575    TIP3     OH2      OT      -0.834000       15.9994           0
     60170 TIP3     12575    TIP3     H1       HT       0.417000       1.00800           0
     60171 TIP3     12575    TIP3     H2       HT       0.417000       1.00800           0
     60172 TIP3     12576    TIP3     OH2      OT      -0.834000       15.9994           0
     60173 TIP3     12576    TIP3     H1       HT       0.417000       1.00800           0
     60174 TIP3     12576    TIP3     H2       HT       0.417000       1.00800           0
     60175 TIP3     12577    TIP3     OH2      OT      -0.834000       15.9994           0
     60176 TIP3     12577    TIP3     H1       HT       0.417000       1.00800           0
     60177 TIP3     12577    TIP3     H2       HT       0.417000       1.00800           0
     60178 TIP3     12578    TIP3     OH2      OT      -0.834000       15.9994           0
     60179 TIP3     12578    TIP3     H1       HT       0.417000       1.00800           0
     60180 TIP3     12578    TIP3     H2       HT       0.417000       1.00800           0
     60181 TIP3     12579    TIP3     OH2      OT      -0.834000       15.9994           0
     60182 TIP3     12579    TIP3     H1       HT       0.417000       1.00800           0
     60183 TIP3     12579    TIP3     H2       HT       0.417000       1.00800           0
     60184 TIP3     12580    TIP3     OH2      OT      -0.834000       15.9994           0
     60185 TIP3     12580    TIP3     H1       HT       0.417000       1.00800           0
     60186 TIP3     12580    TIP3     H2       HT       0.417000       1.00800           0
     60187 TIP3     12581    TIP3     OH2      OT      -0.834000       15.9994           0
     60188 TIP3     12581    TIP3     H1       HT       0.417000       1.00800           0
     60189 TIP3     12581    TIP3     H2       HT       0.417000       1.00800           0
     60190 TIP3     12582    TIP3     OH2      OT      -0.834000       15.9994           0
     60191 TIP3     12582    TIP3     H1       HT       0.417000       1.00800           0
     60192 TIP3     12582    TIP3     H2       HT       0.417000       1.00800           0
     60193 TIP3     12583    TIP3     OH2      OT      -0.834000       15.9994           0
     60194 TIP3     12583    TIP3     H1       HT       0.417000       1.00800           0
     60195 TIP3     12583    TIP3     H2       HT       0.417000       1.00800           0
     60196 TIP3     12584    TIP3     OH2      OT      -0.834000       15.9994           0
     60197 TIP3     12584    TIP3     H1       HT       0.417000       1.00800           0
     60198 TIP3     12584    TIP3     H2       HT       0.417000       1.00800           0
     60199 TIP3     12585    TIP3     OH2      OT      -0.834000       15.9994           0
     60200 TIP3     12585    TIP3     H1       HT       0.417000       1.00800           0
     60201 TIP3     12585    TIP3     H2       HT       0.417000       1.00800           0
     60202 TIP3     12586    TIP3     OH2      OT      -0.834000       15.9994           0
     60203 TIP3     12586    TIP3     H1       HT       0.417000       1.00800           0
     60204 TIP3     12586    TIP3     H2       HT       0.417000       1.00800           0
     60205 TIP3     12587    TIP3     OH2      OT      -0.834000       15.9994           0
     60206 TIP3     12587    TIP3     H1       HT       0.417000       1.00800           0
     60207 TIP3     12587    TIP3     H2       HT       0.417000       1.00800           0
     60208 TIP3     12588    TIP3     OH2      OT      -0.834000       15.9994           0
     60209 TIP3     12588    TIP3     H1       HT       0.417000       1.00800           0
     60210 TIP3     12588    TIP3     H2       HT       0.417000       1.00800           0
     60211 TIP3     12589    TIP3     OH2      OT      -0.834000       15.9994           0
     60212 TIP3     12589    TIP3     H1       HT       0.417000       1.00800           0
     60213 TIP3     12589    TIP3     H2       HT       0.417000       1.00800           0
     60214 TIP3     12590    TIP3     OH2      OT      -0.834000       15.9994           0
     60215 TIP3     12590    TIP3     H1       HT       0.417000       1.00800           0
     60216 TIP3     12590    TIP3     H2       HT       0.417000       1.00800           0
     60217 TIP3     12591    TIP3     OH2      OT      -0.834000       15.9994           0
     60218 TIP3     12591    TIP3     H1       HT       0.417000       1.00800           0
     60219 TIP3     12591    TIP3     H2       HT       0.417000       1.00800           0
     60220 TIP3     12592    TIP3     OH2      OT      -0.834000       15.9994           0
     60221 TIP3     12592    TIP3     H1       HT       0.417000       1.00800           0
     60222 TIP3     12592    TIP3     H2       HT       0.417000       1.00800           0
     60223 TIP3     12593    TIP3     OH2      OT      -0.834000       15.9994           0
     60224 TIP3     12593    TIP3     H1       HT       0.417000       1.00800           0
     60225 TIP3     12593    TIP3     H2       HT       0.417000       1.00800           0
     60226 TIP3     12594    TIP3     OH2      OT      -0.834000       15.9994           0
     60227 TIP3     12594    TIP3     H1       HT       0.417000       1.00800           0
     60228 TIP3     12594    TIP3     H2       HT       0.417000       1.00800           0
     60229 TIP3     12595    TIP3     OH2      OT      -0.834000       15.9994           0
     60230 TIP3     12595    TIP3     H1       HT       0.417000       1.00800           0
     60231 TIP3     12595    TIP3     H2       HT       0.417000       1.00800           0
     60232 TIP3     12596    TIP3     OH2      OT      -0.834000       15.9994           0
     60233 TIP3     12596    TIP3     H1       HT       0.417000       1.00800           0
     60234 TIP3     12596    TIP3     H2       HT       0.417000       1.00800           0
     60235 TIP3     12597    TIP3     OH2      OT      -0.834000       15.9994           0
     60236 TIP3     12597    TIP3     H1       HT       0.417000       1.00800           0
     60237 TIP3     12597    TIP3     H2       HT       0.417000       1.00800           0
     60238 TIP3     12598    TIP3     OH2      OT      -0.834000       15.9994           0
     60239 TIP3     12598    TIP3     H1       HT       0.417000       1.00800           0
     60240 TIP3     12598    TIP3     H2       HT       0.417000       1.00800           0
     60241 TIP3     12599    TIP3     OH2      OT      -0.834000       15.9994           0
     60242 TIP3     12599    TIP3     H1       HT       0.417000       1.00800           0
     60243 TIP3     12599    TIP3     H2       HT       0.417000       1.00800           0
     60244 TIP3     12600    TIP3     OH2      OT      -0.834000       15.9994           0
     60245 TIP3     12600    TIP3     H1       HT       0.417000       1.00800           0
     60246 TIP3     12600    TIP3     H2       HT       0.417000       1.00800           0
     60247 TIP3     12601    TIP3     OH2      OT      -0.834000       15.9994           0
     60248 TIP3     12601    TIP3     H1       HT       0.417000       1.00800           0
     60249 TIP3     12601    TIP3     H2       HT       0.417000       1.00800           0
     60250 TIP3     12602    TIP3     OH2      OT      -0.834000       15.9994           0
     60251 TIP3     12602    TIP3     H1       HT       0.417000       1.00800           0
     60252 TIP3     12602    TIP3     H2       HT       0.417000       1.00800           0
     60253 TIP3     12603    TIP3     OH2      OT      -0.834000       15.9994           0
     60254 TIP3     12603    TIP3     H1       HT       0.417000       1.00800           0
     60255 TIP3     12603    TIP3     H2       HT       0.417000       1.00800           0
     60256 TIP3     12604    TIP3     OH2      OT      -0.834000       15.9994           0
     60257 TIP3     12604    TIP3     H1       HT       0.417000       1.00800           0
     60258 TIP3     12604    TIP3     H2       HT       0.417000       1.00800           0
     60259 TIP3     12605    TIP3     OH2      OT      -0.834000       15.9994           0
     60260 TIP3     12605    TIP3     H1       HT       0.417000       1.00800           0
     60261 TIP3     12605    TIP3     H2       HT       0.417000       1.00800           0
     60262 TIP3     12606    TIP3     OH2      OT      -0.834000       15.9994           0
     60263 TIP3     12606    TIP3     H1       HT       0.417000       1.00800           0
     60264 TIP3     12606    TIP3     H2       HT       0.417000       1.00800           0
     60265 TIP3     12607    TIP3     OH2      OT      -0.834000       15.9994           0
     60266 TIP3     12607    TIP3     H1       HT       0.417000       1.00800           0
     60267 TIP3     12607    TIP3     H2       HT       0.417000       1.00800           0
     60268 TIP3     12608    TIP3     OH2      OT      -0.834000       15.9994           0
     60269 TIP3     12608    TIP3     H1       HT       0.417000       1.00800           0
     60270 TIP3     12608    TIP3     H2       HT       0.417000       1.00800           0
     60271 TIP3     12609    TIP3     OH2      OT      -0.834000       15.9994           0
     60272 TIP3     12609    TIP3     H1       HT       0.417000       1.00800           0
     60273 TIP3     12609    TIP3     H2       HT       0.417000       1.00800           0
     60274 TIP3     12610    TIP3     OH2      OT      -0.834000       15.9994           0
     60275 TIP3     12610    TIP3     H1       HT       0.417000       1.00800           0
     60276 TIP3     12610    TIP3     H2       HT       0.417000       1.00800           0
     60277 TIP3     12611    TIP3     OH2      OT      -0.834000       15.9994           0
     60278 TIP3     12611    TIP3     H1       HT       0.417000       1.00800           0
     60279 TIP3     12611    TIP3     H2       HT       0.417000       1.00800           0
     60280 TIP3     12612    TIP3     OH2      OT      -0.834000       15.9994           0
     60281 TIP3     12612    TIP3     H1       HT       0.417000       1.00800           0
     60282 TIP3     12612    TIP3     H2       HT       0.417000       1.00800           0
     60283 TIP3     12613    TIP3     OH2      OT      -0.834000       15.9994           0
     60284 TIP3     12613    TIP3     H1       HT       0.417000       1.00800           0
     60285 TIP3     12613    TIP3     H2       HT       0.417000       1.00800           0
     60286 TIP3     12614    TIP3     OH2      OT      -0.834000       15.9994           0
     60287 TIP3     12614    TIP3     H1       HT       0.417000       1.00800           0
     60288 TIP3     12614    TIP3     H2       HT       0.417000       1.00800           0
     60289 TIP3     12615    TIP3     OH2      OT      -0.834000       15.9994           0
     60290 TIP3     12615    TIP3     H1       HT       0.417000       1.00800           0
     60291 TIP3     12615    TIP3     H2       HT       0.417000       1.00800           0
     60292 TIP3     12616    TIP3     OH2      OT      -0.834000       15.9994           0
     60293 TIP3     12616    TIP3     H1       HT       0.417000       1.00800           0
     60294 TIP3     12616    TIP3     H2       HT       0.417000       1.00800           0
     60295 TIP3     12617    TIP3     OH2      OT      -0.834000       15.9994           0
     60296 TIP3     12617    TIP3     H1       HT       0.417000       1.00800           0
     60297 TIP3     12617    TIP3     H2       HT       0.417000       1.00800           0
     60298 TIP3     12618    TIP3     OH2      OT      -0.834000       15.9994           0
     60299 TIP3     12618    TIP3     H1       HT       0.417000       1.00800           0
     60300 TIP3     12618    TIP3     H2       HT       0.417000       1.00800           0
     60301 TIP3     12619    TIP3     OH2      OT      -0.834000       15.9994           0
     60302 TIP3     12619    TIP3     H1       HT       0.417000       1.00800           0
     60303 TIP3     12619    TIP3     H2       HT       0.417000       1.00800           0
     60304 TIP3     12620    TIP3     OH2      OT      -0.834000       15.9994           0
     60305 TIP3     12620    TIP3     H1       HT       0.417000       1.00800           0
     60306 TIP3     12620    TIP3     H2       HT       0.417000       1.00800           0
     60307 TIP3     12621    TIP3     OH2      OT      -0.834000       15.9994           0
     60308 TIP3     12621    TIP3     H1       HT       0.417000       1.00800           0
     60309 TIP3     12621    TIP3     H2       HT       0.417000       1.00800           0
     60310 TIP3     12622    TIP3     OH2      OT      -0.834000       15.9994           0
     60311 TIP3     12622    TIP3     H1       HT       0.417000       1.00800           0
     60312 TIP3     12622    TIP3     H2       HT       0.417000       1.00800           0
     60313 TIP3     12623    TIP3     OH2      OT      -0.834000       15.9994           0
     60314 TIP3     12623    TIP3     H1       HT       0.417000       1.00800           0
     60315 TIP3     12623    TIP3     H2       HT       0.417000       1.00800           0
     60316 TIP3     12624    TIP3     OH2      OT      -0.834000       15.9994           0
     60317 TIP3     12624    TIP3     H1       HT       0.417000       1.00800           0
     60318 TIP3     12624    TIP3     H2       HT       0.417000       1.00800           0
     60319 TIP3     12625    TIP3     OH2      OT      -0.834000       15.9994           0
     60320 TIP3     12625    TIP3     H1       HT       0.417000       1.00800           0
     60321 TIP3     12625    TIP3     H2       HT       0.417000       1.00800           0
     60322 TIP3     12626    TIP3     OH2      OT      -0.834000       15.9994           0
     60323 TIP3     12626    TIP3     H1       HT       0.417000       1.00800           0
     60324 TIP3     12626    TIP3     H2       HT       0.417000       1.00800           0
     60325 TIP3     12627    TIP3     OH2      OT      -0.834000       15.9994           0
     60326 TIP3     12627    TIP3     H1       HT       0.417000       1.00800           0
     60327 TIP3     12627    TIP3     H2       HT       0.417000       1.00800           0
     60328 TIP3     12628    TIP3     OH2      OT      -0.834000       15.9994           0
     60329 TIP3     12628    TIP3     H1       HT       0.417000       1.00800           0
     60330 TIP3     12628    TIP3     H2       HT       0.417000       1.00800           0
     60331 TIP3     12629    TIP3     OH2      OT      -0.834000       15.9994           0
     60332 TIP3     12629    TIP3     H1       HT       0.417000       1.00800           0
     60333 TIP3     12629    TIP3     H2       HT       0.417000       1.00800           0
     60334 TIP3     12630    TIP3     OH2      OT      -0.834000       15.9994           0
     60335 TIP3     12630    TIP3     H1       HT       0.417000       1.00800           0
     60336 TIP3     12630    TIP3     H2       HT       0.417000       1.00800           0
     60337 TIP3     12631    TIP3     OH2      OT      -0.834000       15.9994           0
     60338 TIP3     12631    TIP3     H1       HT       0.417000       1.00800           0
     60339 TIP3     12631    TIP3     H2       HT       0.417000       1.00800           0
     60340 TIP3     12632    TIP3     OH2      OT      -0.834000       15.9994           0
     60341 TIP3     12632    TIP3     H1       HT       0.417000       1.00800           0
     60342 TIP3     12632    TIP3     H2       HT       0.417000       1.00800           0
     60343 TIP3     12633    TIP3     OH2      OT      -0.834000       15.9994           0
     60344 TIP3     12633    TIP3     H1       HT       0.417000       1.00800           0
     60345 TIP3     12633    TIP3     H2       HT       0.417000       1.00800           0
     60346 TIP3     12634    TIP3     OH2      OT      -0.834000       15.9994           0
     60347 TIP3     12634    TIP3     H1       HT       0.417000       1.00800           0
     60348 TIP3     12634    TIP3     H2       HT       0.417000       1.00800           0
     60349 TIP3     12635    TIP3     OH2      OT      -0.834000       15.9994           0
     60350 TIP3     12635    TIP3     H1       HT       0.417000       1.00800           0
     60351 TIP3     12635    TIP3     H2       HT       0.417000       1.00800           0
     60352 TIP3     12636    TIP3     OH2      OT      -0.834000       15.9994           0
     60353 TIP3     12636    TIP3     H1       HT       0.417000       1.00800           0
     60354 TIP3     12636    TIP3     H2       HT       0.417000       1.00800           0
     60355 TIP3     12637    TIP3     OH2      OT      -0.834000       15.9994           0
     60356 TIP3     12637    TIP3     H1       HT       0.417000       1.00800           0
     60357 TIP3     12637    TIP3     H2       HT       0.417000       1.00800           0
     60358 TIP3     12638    TIP3     OH2      OT      -0.834000       15.9994           0
     60359 TIP3     12638    TIP3     H1       HT       0.417000       1.00800           0
     60360 TIP3     12638    TIP3     H2       HT       0.417000       1.00800           0
     60361 TIP3     12639    TIP3     OH2      OT      -0.834000       15.9994           0
     60362 TIP3     12639    TIP3     H1       HT       0.417000       1.00800           0
     60363 TIP3     12639    TIP3     H2       HT       0.417000       1.00800           0
     60364 TIP3     12640    TIP3     OH2      OT      -0.834000       15.9994           0
     60365 TIP3     12640    TIP3     H1       HT       0.417000       1.00800           0
     60366 TIP3     12640    TIP3     H2       HT       0.417000       1.00800           0
     60367 TIP3     12641    TIP3     OH2      OT      -0.834000       15.9994           0
     60368 TIP3     12641    TIP3     H1       HT       0.417000       1.00800           0
     60369 TIP3     12641    TIP3     H2       HT       0.417000       1.00800           0
     60370 TIP3     12642    TIP3     OH2      OT      -0.834000       15.9994           0
     60371 TIP3     12642    TIP3     H1       HT       0.417000       1.00800           0
     60372 TIP3     12642    TIP3     H2       HT       0.417000       1.00800           0
     60373 TIP3     12643    TIP3     OH2      OT      -0.834000       15.9994           0
     60374 TIP3     12643    TIP3     H1       HT       0.417000       1.00800           0
     60375 TIP3     12643    TIP3     H2       HT       0.417000       1.00800           0
     60376 TIP3     12644    TIP3     OH2      OT      -0.834000       15.9994           0
     60377 TIP3     12644    TIP3     H1       HT       0.417000       1.00800           0
     60378 TIP3     12644    TIP3     H2       HT       0.417000       1.00800           0
     60379 TIP3     12645    TIP3     OH2      OT      -0.834000       15.9994           0
     60380 TIP3     12645    TIP3     H1       HT       0.417000       1.00800           0
     60381 TIP3     12645    TIP3     H2       HT       0.417000       1.00800           0
     60382 TIP3     12646    TIP3     OH2      OT      -0.834000       15.9994           0
     60383 TIP3     12646    TIP3     H1       HT       0.417000       1.00800           0
     60384 TIP3     12646    TIP3     H2       HT       0.417000       1.00800           0
     60385 TIP3     12647    TIP3     OH2      OT      -0.834000       15.9994           0
     60386 TIP3     12647    TIP3     H1       HT       0.417000       1.00800           0
     60387 TIP3     12647    TIP3     H2       HT       0.417000       1.00800           0
     60388 TIP3     12648    TIP3     OH2      OT      -0.834000       15.9994           0
     60389 TIP3     12648    TIP3     H1       HT       0.417000       1.00800           0
     60390 TIP3     12648    TIP3     H2       HT       0.417000       1.00800           0
     60391 TIP3     12649    TIP3     OH2      OT      -0.834000       15.9994           0
     60392 TIP3     12649    TIP3     H1       HT       0.417000       1.00800           0
     60393 TIP3     12649    TIP3     H2       HT       0.417000       1.00800           0
     60394 TIP3     12650    TIP3     OH2      OT      -0.834000       15.9994           0
     60395 TIP3     12650    TIP3     H1       HT       0.417000       1.00800           0
     60396 TIP3     12650    TIP3     H2       HT       0.417000       1.00800           0
     60397 TIP3     12651    TIP3     OH2      OT      -0.834000       15.9994           0
     60398 TIP3     12651    TIP3     H1       HT       0.417000       1.00800           0
     60399 TIP3     12651    TIP3     H2       HT       0.417000       1.00800           0
     60400 TIP3     12652    TIP3     OH2      OT      -0.834000       15.9994           0
     60401 TIP3     12652    TIP3     H1       HT       0.417000       1.00800           0
     60402 TIP3     12652    TIP3     H2       HT       0.417000       1.00800           0
     60403 TIP3     12653    TIP3     OH2      OT      -0.834000       15.9994           0
     60404 TIP3     12653    TIP3     H1       HT       0.417000       1.00800           0
     60405 TIP3     12653    TIP3     H2       HT       0.417000       1.00800           0
     60406 TIP3     12654    TIP3     OH2      OT      -0.834000       15.9994           0
     60407 TIP3     12654    TIP3     H1       HT       0.417000       1.00800           0
     60408 TIP3     12654    TIP3     H2       HT       0.417000       1.00800           0
     60409 TIP3     12655    TIP3     OH2      OT      -0.834000       15.9994           0
     60410 TIP3     12655    TIP3     H1       HT       0.417000       1.00800           0
     60411 TIP3     12655    TIP3     H2       HT       0.417000       1.00800           0
     60412 TIP3     12656    TIP3     OH2      OT      -0.834000       15.9994           0
     60413 TIP3     12656    TIP3     H1       HT       0.417000       1.00800           0
     60414 TIP3     12656    TIP3     H2       HT       0.417000       1.00800           0
     60415 TIP3     12657    TIP3     OH2      OT      -0.834000       15.9994           0
     60416 TIP3     12657    TIP3     H1       HT       0.417000       1.00800           0
     60417 TIP3     12657    TIP3     H2       HT       0.417000       1.00800           0
     60418 TIP3     12658    TIP3     OH2      OT      -0.834000       15.9994           0
     60419 TIP3     12658    TIP3     H1       HT       0.417000       1.00800           0
     60420 TIP3     12658    TIP3     H2       HT       0.417000       1.00800           0
     60421 TIP3     12659    TIP3     OH2      OT      -0.834000       15.9994           0
     60422 TIP3     12659    TIP3     H1       HT       0.417000       1.00800           0
     60423 TIP3     12659    TIP3     H2       HT       0.417000       1.00800           0
     60424 TIP3     12660    TIP3     OH2      OT      -0.834000       15.9994           0
     60425 TIP3     12660    TIP3     H1       HT       0.417000       1.00800           0
     60426 TIP3     12660    TIP3     H2       HT       0.417000       1.00800           0
     60427 TIP3     12661    TIP3     OH2      OT      -0.834000       15.9994           0
     60428 TIP3     12661    TIP3     H1       HT       0.417000       1.00800           0
     60429 TIP3     12661    TIP3     H2       HT       0.417000       1.00800           0
     60430 TIP3     12662    TIP3     OH2      OT      -0.834000       15.9994           0
     60431 TIP3     12662    TIP3     H1       HT       0.417000       1.00800           0
     60432 TIP3     12662    TIP3     H2       HT       0.417000       1.00800           0
     60433 TIP3     12663    TIP3     OH2      OT      -0.834000       15.9994           0
     60434 TIP3     12663    TIP3     H1       HT       0.417000       1.00800           0
     60435 TIP3     12663    TIP3     H2       HT       0.417000       1.00800           0
     60436 TIP3     12664    TIP3     OH2      OT      -0.834000       15.9994           0
     60437 TIP3     12664    TIP3     H1       HT       0.417000       1.00800           0
     60438 TIP3     12664    TIP3     H2       HT       0.417000       1.00800           0
     60439 TIP3     12665    TIP3     OH2      OT      -0.834000       15.9994           0
     60440 TIP3     12665    TIP3     H1       HT       0.417000       1.00800           0
     60441 TIP3     12665    TIP3     H2       HT       0.417000       1.00800           0
     60442 TIP3     12666    TIP3     OH2      OT      -0.834000       15.9994           0
     60443 TIP3     12666    TIP3     H1       HT       0.417000       1.00800           0
     60444 TIP3     12666    TIP3     H2       HT       0.417000       1.00800           0
     60445 TIP3     12667    TIP3     OH2      OT      -0.834000       15.9994           0
     60446 TIP3     12667    TIP3     H1       HT       0.417000       1.00800           0
     60447 TIP3     12667    TIP3     H2       HT       0.417000       1.00800           0
     60448 TIP3     12668    TIP3     OH2      OT      -0.834000       15.9994           0
     60449 TIP3     12668    TIP3     H1       HT       0.417000       1.00800           0
     60450 TIP3     12668    TIP3     H2       HT       0.417000       1.00800           0
     60451 TIP3     12669    TIP3     OH2      OT      -0.834000       15.9994           0
     60452 TIP3     12669    TIP3     H1       HT       0.417000       1.00800           0
     60453 TIP3     12669    TIP3     H2       HT       0.417000       1.00800           0
     60454 TIP3     12670    TIP3     OH2      OT      -0.834000       15.9994           0
     60455 TIP3     12670    TIP3     H1       HT       0.417000       1.00800           0
     60456 TIP3     12670    TIP3     H2       HT       0.417000       1.00800           0
     60457 TIP3     12671    TIP3     OH2      OT      -0.834000       15.9994           0
     60458 TIP3     12671    TIP3     H1       HT       0.417000       1.00800           0
     60459 TIP3     12671    TIP3     H2       HT       0.417000       1.00800           0
     60460 TIP3     12672    TIP3     OH2      OT      -0.834000       15.9994           0
     60461 TIP3     12672    TIP3     H1       HT       0.417000       1.00800           0
     60462 TIP3     12672    TIP3     H2       HT       0.417000       1.00800           0
     60463 TIP3     12673    TIP3     OH2      OT      -0.834000       15.9994           0
     60464 TIP3     12673    TIP3     H1       HT       0.417000       1.00800           0
     60465 TIP3     12673    TIP3     H2       HT       0.417000       1.00800           0
     60466 TIP3     12674    TIP3     OH2      OT      -0.834000       15.9994           0
     60467 TIP3     12674    TIP3     H1       HT       0.417000       1.00800           0
     60468 TIP3     12674    TIP3     H2       HT       0.417000       1.00800           0
     60469 TIP3     12675    TIP3     OH2      OT      -0.834000       15.9994           0
     60470 TIP3     12675    TIP3     H1       HT       0.417000       1.00800           0
     60471 TIP3     12675    TIP3     H2       HT       0.417000       1.00800           0
     60472 TIP3     12676    TIP3     OH2      OT      -0.834000       15.9994           0
     60473 TIP3     12676    TIP3     H1       HT       0.417000       1.00800           0
     60474 TIP3     12676    TIP3     H2       HT       0.417000       1.00800           0
     60475 TIP3     12677    TIP3     OH2      OT      -0.834000       15.9994           0
     60476 TIP3     12677    TIP3     H1       HT       0.417000       1.00800           0
     60477 TIP3     12677    TIP3     H2       HT       0.417000       1.00800           0
     60478 TIP3     12678    TIP3     OH2      OT      -0.834000       15.9994           0
     60479 TIP3     12678    TIP3     H1       HT       0.417000       1.00800           0
     60480 TIP3     12678    TIP3     H2       HT       0.417000       1.00800           0
     60481 TIP3     12679    TIP3     OH2      OT      -0.834000       15.9994           0
     60482 TIP3     12679    TIP3     H1       HT       0.417000       1.00800           0
     60483 TIP3     12679    TIP3     H2       HT       0.417000       1.00800           0
     60484 TIP3     12680    TIP3     OH2      OT      -0.834000       15.9994           0
     60485 TIP3     12680    TIP3     H1       HT       0.417000       1.00800           0
     60486 TIP3     12680    TIP3     H2       HT       0.417000       1.00800           0
     60487 TIP3     12681    TIP3     OH2      OT      -0.834000       15.9994           0
     60488 TIP3     12681    TIP3     H1       HT       0.417000       1.00800           0
     60489 TIP3     12681    TIP3     H2       HT       0.417000       1.00800           0
     60490 TIP3     12682    TIP3     OH2      OT      -0.834000       15.9994           0
     60491 TIP3     12682    TIP3     H1       HT       0.417000       1.00800           0
     60492 TIP3     12682    TIP3     H2       HT       0.417000       1.00800           0
     60493 TIP3     12683    TIP3     OH2      OT      -0.834000       15.9994           0
     60494 TIP3     12683    TIP3     H1       HT       0.417000       1.00800           0
     60495 TIP3     12683    TIP3     H2       HT       0.417000       1.00800           0
     60496 TIP3     12684    TIP3     OH2      OT      -0.834000       15.9994           0
     60497 TIP3     12684    TIP3     H1       HT       0.417000       1.00800           0
     60498 TIP3     12684    TIP3     H2       HT       0.417000       1.00800           0
     60499 TIP3     12685    TIP3     OH2      OT      -0.834000       15.9994           0
     60500 TIP3     12685    TIP3     H1       HT       0.417000       1.00800           0
     60501 TIP3     12685    TIP3     H2       HT       0.417000       1.00800           0
     60502 TIP3     12686    TIP3     OH2      OT      -0.834000       15.9994           0
     60503 TIP3     12686    TIP3     H1       HT       0.417000       1.00800           0
     60504 TIP3     12686    TIP3     H2       HT       0.417000       1.00800           0
     60505 TIP3     12687    TIP3     OH2      OT      -0.834000       15.9994           0
     60506 TIP3     12687    TIP3     H1       HT       0.417000       1.00800           0
     60507 TIP3     12687    TIP3     H2       HT       0.417000       1.00800           0
     60508 TIP3     12688    TIP3     OH2      OT      -0.834000       15.9994           0
     60509 TIP3     12688    TIP3     H1       HT       0.417000       1.00800           0
     60510 TIP3     12688    TIP3     H2       HT       0.417000       1.00800           0
     60511 TIP3     12689    TIP3     OH2      OT      -0.834000       15.9994           0
     60512 TIP3     12689    TIP3     H1       HT       0.417000       1.00800           0
     60513 TIP3     12689    TIP3     H2       HT       0.417000       1.00800           0
     60514 TIP3     12690    TIP3     OH2      OT      -0.834000       15.9994           0
     60515 TIP3     12690    TIP3     H1       HT       0.417000       1.00800           0
     60516 TIP3     12690    TIP3     H2       HT       0.417000       1.00800           0
     60517 TIP3     12691    TIP3     OH2      OT      -0.834000       15.9994           0
     60518 TIP3     12691    TIP3     H1       HT       0.417000       1.00800           0
     60519 TIP3     12691    TIP3     H2       HT       0.417000       1.00800           0
     60520 TIP3     12692    TIP3     OH2      OT      -0.834000       15.9994           0
     60521 TIP3     12692    TIP3     H1       HT       0.417000       1.00800           0
     60522 TIP3     12692    TIP3     H2       HT       0.417000       1.00800           0
     60523 TIP3     12693    TIP3     OH2      OT      -0.834000       15.9994           0
     60524 TIP3     12693    TIP3     H1       HT       0.417000       1.00800           0
     60525 TIP3     12693    TIP3     H2       HT       0.417000       1.00800           0
     60526 TIP3     12694    TIP3     OH2      OT      -0.834000       15.9994           0
     60527 TIP3     12694    TIP3     H1       HT       0.417000       1.00800           0
     60528 TIP3     12694    TIP3     H2       HT       0.417000       1.00800           0
     60529 TIP3     12695    TIP3     OH2      OT      -0.834000       15.9994           0
     60530 TIP3     12695    TIP3     H1       HT       0.417000       1.00800           0
     60531 TIP3     12695    TIP3     H2       HT       0.417000       1.00800           0
     60532 TIP3     12696    TIP3     OH2      OT      -0.834000       15.9994           0
     60533 TIP3     12696    TIP3     H1       HT       0.417000       1.00800           0
     60534 TIP3     12696    TIP3     H2       HT       0.417000       1.00800           0
     60535 TIP3     12697    TIP3     OH2      OT      -0.834000       15.9994           0
     60536 TIP3     12697    TIP3     H1       HT       0.417000       1.00800           0
     60537 TIP3     12697    TIP3     H2       HT       0.417000       1.00800           0
     60538 TIP3     12698    TIP3     OH2      OT      -0.834000       15.9994           0
     60539 TIP3     12698    TIP3     H1       HT       0.417000       1.00800           0
     60540 TIP3     12698    TIP3     H2       HT       0.417000       1.00800           0
     60541 TIP3     12699    TIP3     OH2      OT      -0.834000       15.9994           0
     60542 TIP3     12699    TIP3     H1       HT       0.417000       1.00800           0
     60543 TIP3     12699    TIP3     H2       HT       0.417000       1.00800           0
     60544 TIP3     12700    TIP3     OH2      OT      -0.834000       15.9994           0
     60545 TIP3     12700    TIP3     H1       HT       0.417000       1.00800           0
     60546 TIP3     12700    TIP3     H2       HT       0.417000       1.00800           0
     60547 TIP3     12701    TIP3     OH2      OT      -0.834000       15.9994           0
     60548 TIP3     12701    TIP3     H1       HT       0.417000       1.00800           0
     60549 TIP3     12701    TIP3     H2       HT       0.417000       1.00800           0
     60550 TIP3     12702    TIP3     OH2      OT      -0.834000       15.9994           0
     60551 TIP3     12702    TIP3     H1       HT       0.417000       1.00800           0
     60552 TIP3     12702    TIP3     H2       HT       0.417000       1.00800           0
     60553 TIP3     12703    TIP3     OH2      OT      -0.834000       15.9994           0
     60554 TIP3     12703    TIP3     H1       HT       0.417000       1.00800           0
     60555 TIP3     12703    TIP3     H2       HT       0.417000       1.00800           0
     60556 TIP3     12704    TIP3     OH2      OT      -0.834000       15.9994           0
     60557 TIP3     12704    TIP3     H1       HT       0.417000       1.00800           0
     60558 TIP3     12704    TIP3     H2       HT       0.417000       1.00800           0
     60559 TIP3     12705    TIP3     OH2      OT      -0.834000       15.9994           0
     60560 TIP3     12705    TIP3     H1       HT       0.417000       1.00800           0
     60561 TIP3     12705    TIP3     H2       HT       0.417000       1.00800           0
     60562 TIP3     12706    TIP3     OH2      OT      -0.834000       15.9994           0
     60563 TIP3     12706    TIP3     H1       HT       0.417000       1.00800           0
     60564 TIP3     12706    TIP3     H2       HT       0.417000       1.00800           0
     60565 TIP3     12707    TIP3     OH2      OT      -0.834000       15.9994           0
     60566 TIP3     12707    TIP3     H1       HT       0.417000       1.00800           0
     60567 TIP3     12707    TIP3     H2       HT       0.417000       1.00800           0
     60568 TIP3     12708    TIP3     OH2      OT      -0.834000       15.9994           0
     60569 TIP3     12708    TIP3     H1       HT       0.417000       1.00800           0
     60570 TIP3     12708    TIP3     H2       HT       0.417000       1.00800           0
     60571 TIP3     12709    TIP3     OH2      OT      -0.834000       15.9994           0
     60572 TIP3     12709    TIP3     H1       HT       0.417000       1.00800           0
     60573 TIP3     12709    TIP3     H2       HT       0.417000       1.00800           0
     60574 TIP3     12710    TIP3     OH2      OT      -0.834000       15.9994           0
     60575 TIP3     12710    TIP3     H1       HT       0.417000       1.00800           0
     60576 TIP3     12710    TIP3     H2       HT       0.417000       1.00800           0
     60577 TIP3     12711    TIP3     OH2      OT      -0.834000       15.9994           0
     60578 TIP3     12711    TIP3     H1       HT       0.417000       1.00800           0
     60579 TIP3     12711    TIP3     H2       HT       0.417000       1.00800           0
     60580 TIP3     12712    TIP3     OH2      OT      -0.834000       15.9994           0
     60581 TIP3     12712    TIP3     H1       HT       0.417000       1.00800           0
     60582 TIP3     12712    TIP3     H2       HT       0.417000       1.00800           0
     60583 TIP3     12713    TIP3     OH2      OT      -0.834000       15.9994           0
     60584 TIP3     12713    TIP3     H1       HT       0.417000       1.00800           0
     60585 TIP3     12713    TIP3     H2       HT       0.417000       1.00800           0
     60586 TIP3     12714    TIP3     OH2      OT      -0.834000       15.9994           0
     60587 TIP3     12714    TIP3     H1       HT       0.417000       1.00800           0
     60588 TIP3     12714    TIP3     H2       HT       0.417000       1.00800           0
     60589 TIP3     12715    TIP3     OH2      OT      -0.834000       15.9994           0
     60590 TIP3     12715    TIP3     H1       HT       0.417000       1.00800           0
     60591 TIP3     12715    TIP3     H2       HT       0.417000       1.00800           0
     60592 TIP3     12716    TIP3     OH2      OT      -0.834000       15.9994           0
     60593 TIP3     12716    TIP3     H1       HT       0.417000       1.00800           0
     60594 TIP3     12716    TIP3     H2       HT       0.417000       1.00800           0
     60595 TIP3     12717    TIP3     OH2      OT      -0.834000       15.9994           0
     60596 TIP3     12717    TIP3     H1       HT       0.417000       1.00800           0
     60597 TIP3     12717    TIP3     H2       HT       0.417000       1.00800           0
     60598 TIP3     12718    TIP3     OH2      OT      -0.834000       15.9994           0
     60599 TIP3     12718    TIP3     H1       HT       0.417000       1.00800           0
     60600 TIP3     12718    TIP3     H2       HT       0.417000       1.00800           0
     60601 TIP3     12719    TIP3     OH2      OT      -0.834000       15.9994           0
     60602 TIP3     12719    TIP3     H1       HT       0.417000       1.00800           0
     60603 TIP3     12719    TIP3     H2       HT       0.417000       1.00800           0
     60604 TIP3     12720    TIP3     OH2      OT      -0.834000       15.9994           0
     60605 TIP3     12720    TIP3     H1       HT       0.417000       1.00800           0
     60606 TIP3     12720    TIP3     H2       HT       0.417000       1.00800           0
     60607 TIP3     12721    TIP3     OH2      OT      -0.834000       15.9994           0
     60608 TIP3     12721    TIP3     H1       HT       0.417000       1.00800           0
     60609 TIP3     12721    TIP3     H2       HT       0.417000       1.00800           0
     60610 TIP3     12722    TIP3     OH2      OT      -0.834000       15.9994           0
     60611 TIP3     12722    TIP3     H1       HT       0.417000       1.00800           0
     60612 TIP3     12722    TIP3     H2       HT       0.417000       1.00800           0
     60613 TIP3     12723    TIP3     OH2      OT      -0.834000       15.9994           0
     60614 TIP3     12723    TIP3     H1       HT       0.417000       1.00800           0
     60615 TIP3     12723    TIP3     H2       HT       0.417000       1.00800           0
     60616 TIP3     12724    TIP3     OH2      OT      -0.834000       15.9994           0
     60617 TIP3     12724    TIP3     H1       HT       0.417000       1.00800           0
     60618 TIP3     12724    TIP3     H2       HT       0.417000       1.00800           0
     60619 TIP3     12725    TIP3     OH2      OT      -0.834000       15.9994           0
     60620 TIP3     12725    TIP3     H1       HT       0.417000       1.00800           0
     60621 TIP3     12725    TIP3     H2       HT       0.417000       1.00800           0
     60622 TIP3     12726    TIP3     OH2      OT      -0.834000       15.9994           0
     60623 TIP3     12726    TIP3     H1       HT       0.417000       1.00800           0
     60624 TIP3     12726    TIP3     H2       HT       0.417000       1.00800           0
     60625 TIP3     12727    TIP3     OH2      OT      -0.834000       15.9994           0
     60626 TIP3     12727    TIP3     H1       HT       0.417000       1.00800           0
     60627 TIP3     12727    TIP3     H2       HT       0.417000       1.00800           0
     60628 TIP3     12728    TIP3     OH2      OT      -0.834000       15.9994           0
     60629 TIP3     12728    TIP3     H1       HT       0.417000       1.00800           0
     60630 TIP3     12728    TIP3     H2       HT       0.417000       1.00800           0
     60631 TIP3     12729    TIP3     OH2      OT      -0.834000       15.9994           0
     60632 TIP3     12729    TIP3     H1       HT       0.417000       1.00800           0
     60633 TIP3     12729    TIP3     H2       HT       0.417000       1.00800           0
     60634 TIP3     12730    TIP3     OH2      OT      -0.834000       15.9994           0
     60635 TIP3     12730    TIP3     H1       HT       0.417000       1.00800           0
     60636 TIP3     12730    TIP3     H2       HT       0.417000       1.00800           0
     60637 TIP3     12731    TIP3     OH2      OT      -0.834000       15.9994           0
     60638 TIP3     12731    TIP3     H1       HT       0.417000       1.00800           0
     60639 TIP3     12731    TIP3     H2       HT       0.417000       1.00800           0
     60640 TIP3     12732    TIP3     OH2      OT      -0.834000       15.9994           0
     60641 TIP3     12732    TIP3     H1       HT       0.417000       1.00800           0
     60642 TIP3     12732    TIP3     H2       HT       0.417000       1.00800           0
     60643 TIP3     12733    TIP3     OH2      OT      -0.834000       15.9994           0
     60644 TIP3     12733    TIP3     H1       HT       0.417000       1.00800           0
     60645 TIP3     12733    TIP3     H2       HT       0.417000       1.00800           0
     60646 TIP3     12734    TIP3     OH2      OT      -0.834000       15.9994           0
     60647 TIP3     12734    TIP3     H1       HT       0.417000       1.00800           0
     60648 TIP3     12734    TIP3     H2       HT       0.417000       1.00800           0
     60649 TIP3     12735    TIP3     OH2      OT      -0.834000       15.9994           0
     60650 TIP3     12735    TIP3     H1       HT       0.417000       1.00800           0
     60651 TIP3     12735    TIP3     H2       HT       0.417000       1.00800           0
     60652 TIP3     12736    TIP3     OH2      OT      -0.834000       15.9994           0
     60653 TIP3     12736    TIP3     H1       HT       0.417000       1.00800           0
     60654 TIP3     12736    TIP3     H2       HT       0.417000       1.00800           0
     60655 TIP3     12737    TIP3     OH2      OT      -0.834000       15.9994           0
     60656 TIP3     12737    TIP3     H1       HT       0.417000       1.00800           0
     60657 TIP3     12737    TIP3     H2       HT       0.417000       1.00800           0
     60658 TIP3     12738    TIP3     OH2      OT      -0.834000       15.9994           0
     60659 TIP3     12738    TIP3     H1       HT       0.417000       1.00800           0
     60660 TIP3     12738    TIP3     H2       HT       0.417000       1.00800           0
     60661 TIP3     12739    TIP3     OH2      OT      -0.834000       15.9994           0
     60662 TIP3     12739    TIP3     H1       HT       0.417000       1.00800           0
     60663 TIP3     12739    TIP3     H2       HT       0.417000       1.00800           0
     60664 TIP3     12740    TIP3     OH2      OT      -0.834000       15.9994           0
     60665 TIP3     12740    TIP3     H1       HT       0.417000       1.00800           0
     60666 TIP3     12740    TIP3     H2       HT       0.417000       1.00800           0
     60667 TIP3     12741    TIP3     OH2      OT      -0.834000       15.9994           0
     60668 TIP3     12741    TIP3     H1       HT       0.417000       1.00800           0
     60669 TIP3     12741    TIP3     H2       HT       0.417000       1.00800           0
     60670 TIP3     12742    TIP3     OH2      OT      -0.834000       15.9994           0
     60671 TIP3     12742    TIP3     H1       HT       0.417000       1.00800           0
     60672 TIP3     12742    TIP3     H2       HT       0.417000       1.00800           0
     60673 TIP3     12743    TIP3     OH2      OT      -0.834000       15.9994           0
     60674 TIP3     12743    TIP3     H1       HT       0.417000       1.00800           0
     60675 TIP3     12743    TIP3     H2       HT       0.417000       1.00800           0
     60676 TIP3     12744    TIP3     OH2      OT      -0.834000       15.9994           0
     60677 TIP3     12744    TIP3     H1       HT       0.417000       1.00800           0
     60678 TIP3     12744    TIP3     H2       HT       0.417000       1.00800           0
     60679 TIP3     12745    TIP3     OH2      OT      -0.834000       15.9994           0
     60680 TIP3     12745    TIP3     H1       HT       0.417000       1.00800           0
     60681 TIP3     12745    TIP3     H2       HT       0.417000       1.00800           0
     60682 TIP3     12746    TIP3     OH2      OT      -0.834000       15.9994           0
     60683 TIP3     12746    TIP3     H1       HT       0.417000       1.00800           0
     60684 TIP3     12746    TIP3     H2       HT       0.417000       1.00800           0
     60685 TIP3     12747    TIP3     OH2      OT      -0.834000       15.9994           0
     60686 TIP3     12747    TIP3     H1       HT       0.417000       1.00800           0
     60687 TIP3     12747    TIP3     H2       HT       0.417000       1.00800           0
     60688 TIP3     12748    TIP3     OH2      OT      -0.834000       15.9994           0
     60689 TIP3     12748    TIP3     H1       HT       0.417000       1.00800           0
     60690 TIP3     12748    TIP3     H2       HT       0.417000       1.00800           0
     60691 TIP3     12749    TIP3     OH2      OT      -0.834000       15.9994           0
     60692 TIP3     12749    TIP3     H1       HT       0.417000       1.00800           0
     60693 TIP3     12749    TIP3     H2       HT       0.417000       1.00800           0
     60694 TIP3     12750    TIP3     OH2      OT      -0.834000       15.9994           0
     60695 TIP3     12750    TIP3     H1       HT       0.417000       1.00800           0
     60696 TIP3     12750    TIP3     H2       HT       0.417000       1.00800           0
     60697 TIP3     12751    TIP3     OH2      OT      -0.834000       15.9994           0
     60698 TIP3     12751    TIP3     H1       HT       0.417000       1.00800           0
     60699 TIP3     12751    TIP3     H2       HT       0.417000       1.00800           0
     60700 TIP3     12752    TIP3     OH2      OT      -0.834000       15.9994           0
     60701 TIP3     12752    TIP3     H1       HT       0.417000       1.00800           0
     60702 TIP3     12752    TIP3     H2       HT       0.417000       1.00800           0
     60703 TIP3     12753    TIP3     OH2      OT      -0.834000       15.9994           0
     60704 TIP3     12753    TIP3     H1       HT       0.417000       1.00800           0
     60705 TIP3     12753    TIP3     H2       HT       0.417000       1.00800           0
     60706 TIP3     12754    TIP3     OH2      OT      -0.834000       15.9994           0
     60707 TIP3     12754    TIP3     H1       HT       0.417000       1.00800           0
     60708 TIP3     12754    TIP3     H2       HT       0.417000       1.00800           0
     60709 TIP3     12755    TIP3     OH2      OT      -0.834000       15.9994           0
     60710 TIP3     12755    TIP3     H1       HT       0.417000       1.00800           0
     60711 TIP3     12755    TIP3     H2       HT       0.417000       1.00800           0
     60712 TIP3     12756    TIP3     OH2      OT      -0.834000       15.9994           0
     60713 TIP3     12756    TIP3     H1       HT       0.417000       1.00800           0
     60714 TIP3     12756    TIP3     H2       HT       0.417000       1.00800           0
     60715 TIP3     12757    TIP3     OH2      OT      -0.834000       15.9994           0
     60716 TIP3     12757    TIP3     H1       HT       0.417000       1.00800           0
     60717 TIP3     12757    TIP3     H2       HT       0.417000       1.00800           0
     60718 TIP3     12758    TIP3     OH2      OT      -0.834000       15.9994           0
     60719 TIP3     12758    TIP3     H1       HT       0.417000       1.00800           0
     60720 TIP3     12758    TIP3     H2       HT       0.417000       1.00800           0
     60721 TIP3     12759    TIP3     OH2      OT      -0.834000       15.9994           0
     60722 TIP3     12759    TIP3     H1       HT       0.417000       1.00800           0
     60723 TIP3     12759    TIP3     H2       HT       0.417000       1.00800           0
     60724 TIP3     12760    TIP3     OH2      OT      -0.834000       15.9994           0
     60725 TIP3     12760    TIP3     H1       HT       0.417000       1.00800           0
     60726 TIP3     12760    TIP3     H2       HT       0.417000       1.00800           0
     60727 TIP3     12761    TIP3     OH2      OT      -0.834000       15.9994           0
     60728 TIP3     12761    TIP3     H1       HT       0.417000       1.00800           0
     60729 TIP3     12761    TIP3     H2       HT       0.417000       1.00800           0
     60730 TIP3     12762    TIP3     OH2      OT      -0.834000       15.9994           0
     60731 TIP3     12762    TIP3     H1       HT       0.417000       1.00800           0
     60732 TIP3     12762    TIP3     H2       HT       0.417000       1.00800           0
     60733 TIP3     12763    TIP3     OH2      OT      -0.834000       15.9994           0
     60734 TIP3     12763    TIP3     H1       HT       0.417000       1.00800           0
     60735 TIP3     12763    TIP3     H2       HT       0.417000       1.00800           0
     60736 TIP3     12764    TIP3     OH2      OT      -0.834000       15.9994           0
     60737 TIP3     12764    TIP3     H1       HT       0.417000       1.00800           0
     60738 TIP3     12764    TIP3     H2       HT       0.417000       1.00800           0
     60739 TIP3     12765    TIP3     OH2      OT      -0.834000       15.9994           0
     60740 TIP3     12765    TIP3     H1       HT       0.417000       1.00800           0
     60741 TIP3     12765    TIP3     H2       HT       0.417000       1.00800           0
     60742 TIP3     12766    TIP3     OH2      OT      -0.834000       15.9994           0
     60743 TIP3     12766    TIP3     H1       HT       0.417000       1.00800           0
     60744 TIP3     12766    TIP3     H2       HT       0.417000       1.00800           0
     60745 TIP3     12767    TIP3     OH2      OT      -0.834000       15.9994           0
     60746 TIP3     12767    TIP3     H1       HT       0.417000       1.00800           0
     60747 TIP3     12767    TIP3     H2       HT       0.417000       1.00800           0
     60748 TIP3     12768    TIP3     OH2      OT      -0.834000       15.9994           0
     60749 TIP3     12768    TIP3     H1       HT       0.417000       1.00800           0
     60750 TIP3     12768    TIP3     H2       HT       0.417000       1.00800           0
     60751 TIP3     12769    TIP3     OH2      OT      -0.834000       15.9994           0
     60752 TIP3     12769    TIP3     H1       HT       0.417000       1.00800           0
     60753 TIP3     12769    TIP3     H2       HT       0.417000       1.00800           0
     60754 TIP3     12770    TIP3     OH2      OT      -0.834000       15.9994           0
     60755 TIP3     12770    TIP3     H1       HT       0.417000       1.00800           0
     60756 TIP3     12770    TIP3     H2       HT       0.417000       1.00800           0
     60757 TIP3     12771    TIP3     OH2      OT      -0.834000       15.9994           0
     60758 TIP3     12771    TIP3     H1       HT       0.417000       1.00800           0
     60759 TIP3     12771    TIP3     H2       HT       0.417000       1.00800           0
     60760 TIP3     12772    TIP3     OH2      OT      -0.834000       15.9994           0
     60761 TIP3     12772    TIP3     H1       HT       0.417000       1.00800           0
     60762 TIP3     12772    TIP3     H2       HT       0.417000       1.00800           0
     60763 TIP3     12773    TIP3     OH2      OT      -0.834000       15.9994           0
     60764 TIP3     12773    TIP3     H1       HT       0.417000       1.00800           0
     60765 TIP3     12773    TIP3     H2       HT       0.417000       1.00800           0
     60766 TIP3     12774    TIP3     OH2      OT      -0.834000       15.9994           0
     60767 TIP3     12774    TIP3     H1       HT       0.417000       1.00800           0
     60768 TIP3     12774    TIP3     H2       HT       0.417000       1.00800           0
     60769 TIP3     12775    TIP3     OH2      OT      -0.834000       15.9994           0
     60770 TIP3     12775    TIP3     H1       HT       0.417000       1.00800           0
     60771 TIP3     12775    TIP3     H2       HT       0.417000       1.00800           0
     60772 TIP3     12776    TIP3     OH2      OT      -0.834000       15.9994           0
     60773 TIP3     12776    TIP3     H1       HT       0.417000       1.00800           0
     60774 TIP3     12776    TIP3     H2       HT       0.417000       1.00800           0
     60775 TIP3     12777    TIP3     OH2      OT      -0.834000       15.9994           0
     60776 TIP3     12777    TIP3     H1       HT       0.417000       1.00800           0
     60777 TIP3     12777    TIP3     H2       HT       0.417000       1.00800           0
     60778 TIP3     12778    TIP3     OH2      OT      -0.834000       15.9994           0
     60779 TIP3     12778    TIP3     H1       HT       0.417000       1.00800           0
     60780 TIP3     12778    TIP3     H2       HT       0.417000       1.00800           0
     60781 TIP3     12779    TIP3     OH2      OT      -0.834000       15.9994           0
     60782 TIP3     12779    TIP3     H1       HT       0.417000       1.00800           0
     60783 TIP3     12779    TIP3     H2       HT       0.417000       1.00800           0
     60784 TIP3     12780    TIP3     OH2      OT      -0.834000       15.9994           0
     60785 TIP3     12780    TIP3     H1       HT       0.417000       1.00800           0
     60786 TIP3     12780    TIP3     H2       HT       0.417000       1.00800           0
     60787 TIP3     12781    TIP3     OH2      OT      -0.834000       15.9994           0
     60788 TIP3     12781    TIP3     H1       HT       0.417000       1.00800           0
     60789 TIP3     12781    TIP3     H2       HT       0.417000       1.00800           0
     60790 TIP3     12782    TIP3     OH2      OT      -0.834000       15.9994           0
     60791 TIP3     12782    TIP3     H1       HT       0.417000       1.00800           0
     60792 TIP3     12782    TIP3     H2       HT       0.417000       1.00800           0
     60793 TIP3     12783    TIP3     OH2      OT      -0.834000       15.9994           0
     60794 TIP3     12783    TIP3     H1       HT       0.417000       1.00800           0
     60795 TIP3     12783    TIP3     H2       HT       0.417000       1.00800           0
     60796 TIP3     12784    TIP3     OH2      OT      -0.834000       15.9994           0
     60797 TIP3     12784    TIP3     H1       HT       0.417000       1.00800           0
     60798 TIP3     12784    TIP3     H2       HT       0.417000       1.00800           0
     60799 TIP3     12785    TIP3     OH2      OT      -0.834000       15.9994           0
     60800 TIP3     12785    TIP3     H1       HT       0.417000       1.00800           0
     60801 TIP3     12785    TIP3     H2       HT       0.417000       1.00800           0
     60802 TIP3     12786    TIP3     OH2      OT      -0.834000       15.9994           0
     60803 TIP3     12786    TIP3     H1       HT       0.417000       1.00800           0
     60804 TIP3     12786    TIP3     H2       HT       0.417000       1.00800           0
     60805 TIP3     12787    TIP3     OH2      OT      -0.834000       15.9994           0
     60806 TIP3     12787    TIP3     H1       HT       0.417000       1.00800           0
     60807 TIP3     12787    TIP3     H2       HT       0.417000       1.00800           0
     60808 TIP3     12788    TIP3     OH2      OT      -0.834000       15.9994           0
     60809 TIP3     12788    TIP3     H1       HT       0.417000       1.00800           0
     60810 TIP3     12788    TIP3     H2       HT       0.417000       1.00800           0
     60811 TIP3     12789    TIP3     OH2      OT      -0.834000       15.9994           0
     60812 TIP3     12789    TIP3     H1       HT       0.417000       1.00800           0
     60813 TIP3     12789    TIP3     H2       HT       0.417000       1.00800           0
     60814 TIP3     12790    TIP3     OH2      OT      -0.834000       15.9994           0
     60815 TIP3     12790    TIP3     H1       HT       0.417000       1.00800           0
     60816 TIP3     12790    TIP3     H2       HT       0.417000       1.00800           0
     60817 TIP3     12791    TIP3     OH2      OT      -0.834000       15.9994           0
     60818 TIP3     12791    TIP3     H1       HT       0.417000       1.00800           0
     60819 TIP3     12791    TIP3     H2       HT       0.417000       1.00800           0
     60820 TIP3     12792    TIP3     OH2      OT      -0.834000       15.9994           0
     60821 TIP3     12792    TIP3     H1       HT       0.417000       1.00800           0
     60822 TIP3     12792    TIP3     H2       HT       0.417000       1.00800           0
     60823 TIP3     12793    TIP3     OH2      OT      -0.834000       15.9994           0
     60824 TIP3     12793    TIP3     H1       HT       0.417000       1.00800           0
     60825 TIP3     12793    TIP3     H2       HT       0.417000       1.00800           0
     60826 TIP3     12794    TIP3     OH2      OT      -0.834000       15.9994           0
     60827 TIP3     12794    TIP3     H1       HT       0.417000       1.00800           0
     60828 TIP3     12794    TIP3     H2       HT       0.417000       1.00800           0
     60829 TIP3     12795    TIP3     OH2      OT      -0.834000       15.9994           0
     60830 TIP3     12795    TIP3     H1       HT       0.417000       1.00800           0
     60831 TIP3     12795    TIP3     H2       HT       0.417000       1.00800           0
     60832 TIP3     12796    TIP3     OH2      OT      -0.834000       15.9994           0
     60833 TIP3     12796    TIP3     H1       HT       0.417000       1.00800           0
     60834 TIP3     12796    TIP3     H2       HT       0.417000       1.00800           0
     60835 TIP3     12797    TIP3     OH2      OT      -0.834000       15.9994           0
     60836 TIP3     12797    TIP3     H1       HT       0.417000       1.00800           0
     60837 TIP3     12797    TIP3     H2       HT       0.417000       1.00800           0
     60838 TIP3     12798    TIP3     OH2      OT      -0.834000       15.9994           0
     60839 TIP3     12798    TIP3     H1       HT       0.417000       1.00800           0
     60840 TIP3     12798    TIP3     H2       HT       0.417000       1.00800           0
     60841 TIP3     12799    TIP3     OH2      OT      -0.834000       15.9994           0
     60842 TIP3     12799    TIP3     H1       HT       0.417000       1.00800           0
     60843 TIP3     12799    TIP3     H2       HT       0.417000       1.00800           0
     60844 TIP3     12800    TIP3     OH2      OT      -0.834000       15.9994           0
     60845 TIP3     12800    TIP3     H1       HT       0.417000       1.00800           0
     60846 TIP3     12800    TIP3     H2       HT       0.417000       1.00800           0
     60847 TIP3     12801    TIP3     OH2      OT      -0.834000       15.9994           0
     60848 TIP3     12801    TIP3     H1       HT       0.417000       1.00800           0
     60849 TIP3     12801    TIP3     H2       HT       0.417000       1.00800           0
     60850 TIP3     12802    TIP3     OH2      OT      -0.834000       15.9994           0
     60851 TIP3     12802    TIP3     H1       HT       0.417000       1.00800           0
     60852 TIP3     12802    TIP3     H2       HT       0.417000       1.00800           0
     60853 TIP3     12803    TIP3     OH2      OT      -0.834000       15.9994           0
     60854 TIP3     12803    TIP3     H1       HT       0.417000       1.00800           0
     60855 TIP3     12803    TIP3     H2       HT       0.417000       1.00800           0
     60856 TIP3     12804    TIP3     OH2      OT      -0.834000       15.9994           0
     60857 TIP3     12804    TIP3     H1       HT       0.417000       1.00800           0
     60858 TIP3     12804    TIP3     H2       HT       0.417000       1.00800           0
     60859 TIP3     12805    TIP3     OH2      OT      -0.834000       15.9994           0
     60860 TIP3     12805    TIP3     H1       HT       0.417000       1.00800           0
     60861 TIP3     12805    TIP3     H2       HT       0.417000       1.00800           0
     60862 TIP3     12806    TIP3     OH2      OT      -0.834000       15.9994           0
     60863 TIP3     12806    TIP3     H1       HT       0.417000       1.00800           0
     60864 TIP3     12806    TIP3     H2       HT       0.417000       1.00800           0
     60865 TIP3     12807    TIP3     OH2      OT      -0.834000       15.9994           0
     60866 TIP3     12807    TIP3     H1       HT       0.417000       1.00800           0
     60867 TIP3     12807    TIP3     H2       HT       0.417000       1.00800           0
     60868 TIP3     12808    TIP3     OH2      OT      -0.834000       15.9994           0
     60869 TIP3     12808    TIP3     H1       HT       0.417000       1.00800           0
     60870 TIP3     12808    TIP3     H2       HT       0.417000       1.00800           0
     60871 TIP3     12809    TIP3     OH2      OT      -0.834000       15.9994           0
     60872 TIP3     12809    TIP3     H1       HT       0.417000       1.00800           0
     60873 TIP3     12809    TIP3     H2       HT       0.417000       1.00800           0
     60874 TIP3     12810    TIP3     OH2      OT      -0.834000       15.9994           0
     60875 TIP3     12810    TIP3     H1       HT       0.417000       1.00800           0
     60876 TIP3     12810    TIP3     H2       HT       0.417000       1.00800           0
     60877 TIP3     12811    TIP3     OH2      OT      -0.834000       15.9994           0
     60878 TIP3     12811    TIP3     H1       HT       0.417000       1.00800           0
     60879 TIP3     12811    TIP3     H2       HT       0.417000       1.00800           0
     60880 TIP3     12812    TIP3     OH2      OT      -0.834000       15.9994           0
     60881 TIP3     12812    TIP3     H1       HT       0.417000       1.00800           0
     60882 TIP3     12812    TIP3     H2       HT       0.417000       1.00800           0
     60883 TIP3     12813    TIP3     OH2      OT      -0.834000       15.9994           0
     60884 TIP3     12813    TIP3     H1       HT       0.417000       1.00800           0
     60885 TIP3     12813    TIP3     H2       HT       0.417000       1.00800           0
     60886 TIP3     12814    TIP3     OH2      OT      -0.834000       15.9994           0
     60887 TIP3     12814    TIP3     H1       HT       0.417000       1.00800           0
     60888 TIP3     12814    TIP3     H2       HT       0.417000       1.00800           0
     60889 TIP3     12815    TIP3     OH2      OT      -0.834000       15.9994           0
     60890 TIP3     12815    TIP3     H1       HT       0.417000       1.00800           0
     60891 TIP3     12815    TIP3     H2       HT       0.417000       1.00800           0
     60892 TIP3     12816    TIP3     OH2      OT      -0.834000       15.9994           0
     60893 TIP3     12816    TIP3     H1       HT       0.417000       1.00800           0
     60894 TIP3     12816    TIP3     H2       HT       0.417000       1.00800           0
     60895 TIP3     12817    TIP3     OH2      OT      -0.834000       15.9994           0
     60896 TIP3     12817    TIP3     H1       HT       0.417000       1.00800           0
     60897 TIP3     12817    TIP3     H2       HT       0.417000       1.00800           0
     60898 TIP3     12818    TIP3     OH2      OT      -0.834000       15.9994           0
     60899 TIP3     12818    TIP3     H1       HT       0.417000       1.00800           0
     60900 TIP3     12818    TIP3     H2       HT       0.417000       1.00800           0
     60901 TIP3     12819    TIP3     OH2      OT      -0.834000       15.9994           0
     60902 TIP3     12819    TIP3     H1       HT       0.417000       1.00800           0
     60903 TIP3     12819    TIP3     H2       HT       0.417000       1.00800           0
     60904 TIP3     12820    TIP3     OH2      OT      -0.834000       15.9994           0
     60905 TIP3     12820    TIP3     H1       HT       0.417000       1.00800           0
     60906 TIP3     12820    TIP3     H2       HT       0.417000       1.00800           0
     60907 TIP3     12821    TIP3     OH2      OT      -0.834000       15.9994           0
     60908 TIP3     12821    TIP3     H1       HT       0.417000       1.00800           0
     60909 TIP3     12821    TIP3     H2       HT       0.417000       1.00800           0
     60910 TIP3     12822    TIP3     OH2      OT      -0.834000       15.9994           0
     60911 TIP3     12822    TIP3     H1       HT       0.417000       1.00800           0
     60912 TIP3     12822    TIP3     H2       HT       0.417000       1.00800           0
     60913 TIP3     12823    TIP3     OH2      OT      -0.834000       15.9994           0
     60914 TIP3     12823    TIP3     H1       HT       0.417000       1.00800           0
     60915 TIP3     12823    TIP3     H2       HT       0.417000       1.00800           0
     60916 TIP3     12824    TIP3     OH2      OT      -0.834000       15.9994           0
     60917 TIP3     12824    TIP3     H1       HT       0.417000       1.00800           0
     60918 TIP3     12824    TIP3     H2       HT       0.417000       1.00800           0
     60919 TIP3     12825    TIP3     OH2      OT      -0.834000       15.9994           0
     60920 TIP3     12825    TIP3     H1       HT       0.417000       1.00800           0
     60921 TIP3     12825    TIP3     H2       HT       0.417000       1.00800           0
     60922 TIP3     12826    TIP3     OH2      OT      -0.834000       15.9994           0
     60923 TIP3     12826    TIP3     H1       HT       0.417000       1.00800           0
     60924 TIP3     12826    TIP3     H2       HT       0.417000       1.00800           0
     60925 TIP3     12827    TIP3     OH2      OT      -0.834000       15.9994           0
     60926 TIP3     12827    TIP3     H1       HT       0.417000       1.00800           0
     60927 TIP3     12827    TIP3     H2       HT       0.417000       1.00800           0
     60928 TIP3     12828    TIP3     OH2      OT      -0.834000       15.9994           0
     60929 TIP3     12828    TIP3     H1       HT       0.417000       1.00800           0
     60930 TIP3     12828    TIP3     H2       HT       0.417000       1.00800           0
     60931 TIP3     12829    TIP3     OH2      OT      -0.834000       15.9994           0
     60932 TIP3     12829    TIP3     H1       HT       0.417000       1.00800           0
     60933 TIP3     12829    TIP3     H2       HT       0.417000       1.00800           0
     60934 TIP3     12830    TIP3     OH2      OT      -0.834000       15.9994           0
     60935 TIP3     12830    TIP3     H1       HT       0.417000       1.00800           0
     60936 TIP3     12830    TIP3     H2       HT       0.417000       1.00800           0
     60937 TIP3     12831    TIP3     OH2      OT      -0.834000       15.9994           0
     60938 TIP3     12831    TIP3     H1       HT       0.417000       1.00800           0
     60939 TIP3     12831    TIP3     H2       HT       0.417000       1.00800           0
     60940 TIP3     12832    TIP3     OH2      OT      -0.834000       15.9994           0
     60941 TIP3     12832    TIP3     H1       HT       0.417000       1.00800           0
     60942 TIP3     12832    TIP3     H2       HT       0.417000       1.00800           0
     60943 TIP3     12833    TIP3     OH2      OT      -0.834000       15.9994           0
     60944 TIP3     12833    TIP3     H1       HT       0.417000       1.00800           0
     60945 TIP3     12833    TIP3     H2       HT       0.417000       1.00800           0
     60946 TIP3     12834    TIP3     OH2      OT      -0.834000       15.9994           0
     60947 TIP3     12834    TIP3     H1       HT       0.417000       1.00800           0
     60948 TIP3     12834    TIP3     H2       HT       0.417000       1.00800           0
     60949 TIP3     12835    TIP3     OH2      OT      -0.834000       15.9994           0
     60950 TIP3     12835    TIP3     H1       HT       0.417000       1.00800           0
     60951 TIP3     12835    TIP3     H2       HT       0.417000       1.00800           0
     60952 TIP3     12836    TIP3     OH2      OT      -0.834000       15.9994           0
     60953 TIP3     12836    TIP3     H1       HT       0.417000       1.00800           0
     60954 TIP3     12836    TIP3     H2       HT       0.417000       1.00800           0
     60955 TIP3     12837    TIP3     OH2      OT      -0.834000       15.9994           0
     60956 TIP3     12837    TIP3     H1       HT       0.417000       1.00800           0
     60957 TIP3     12837    TIP3     H2       HT       0.417000       1.00800           0
     60958 TIP3     12838    TIP3     OH2      OT      -0.834000       15.9994           0
     60959 TIP3     12838    TIP3     H1       HT       0.417000       1.00800           0
     60960 TIP3     12838    TIP3     H2       HT       0.417000       1.00800           0
     60961 TIP3     12839    TIP3     OH2      OT      -0.834000       15.9994           0
     60962 TIP3     12839    TIP3     H1       HT       0.417000       1.00800           0
     60963 TIP3     12839    TIP3     H2       HT       0.417000       1.00800           0
     60964 TIP3     12840    TIP3     OH2      OT      -0.834000       15.9994           0
     60965 TIP3     12840    TIP3     H1       HT       0.417000       1.00800           0
     60966 TIP3     12840    TIP3     H2       HT       0.417000       1.00800           0
     60967 TIP3     12841    TIP3     OH2      OT      -0.834000       15.9994           0
     60968 TIP3     12841    TIP3     H1       HT       0.417000       1.00800           0
     60969 TIP3     12841    TIP3     H2       HT       0.417000       1.00800           0
     60970 TIP3     12842    TIP3     OH2      OT      -0.834000       15.9994           0
     60971 TIP3     12842    TIP3     H1       HT       0.417000       1.00800           0
     60972 TIP3     12842    TIP3     H2       HT       0.417000       1.00800           0
     60973 TIP3     12843    TIP3     OH2      OT      -0.834000       15.9994           0
     60974 TIP3     12843    TIP3     H1       HT       0.417000       1.00800           0
     60975 TIP3     12843    TIP3     H2       HT       0.417000       1.00800           0
     60976 TIP3     12844    TIP3     OH2      OT      -0.834000       15.9994           0
     60977 TIP3     12844    TIP3     H1       HT       0.417000       1.00800           0
     60978 TIP3     12844    TIP3     H2       HT       0.417000       1.00800           0
     60979 TIP3     12845    TIP3     OH2      OT      -0.834000       15.9994           0
     60980 TIP3     12845    TIP3     H1       HT       0.417000       1.00800           0
     60981 TIP3     12845    TIP3     H2       HT       0.417000       1.00800           0
     60982 TIP3     12846    TIP3     OH2      OT      -0.834000       15.9994           0
     60983 TIP3     12846    TIP3     H1       HT       0.417000       1.00800           0
     60984 TIP3     12846    TIP3     H2       HT       0.417000       1.00800           0
     60985 TIP3     12847    TIP3     OH2      OT      -0.834000       15.9994           0
     60986 TIP3     12847    TIP3     H1       HT       0.417000       1.00800           0
     60987 TIP3     12847    TIP3     H2       HT       0.417000       1.00800           0
     60988 TIP3     12848    TIP3     OH2      OT      -0.834000       15.9994           0
     60989 TIP3     12848    TIP3     H1       HT       0.417000       1.00800           0
     60990 TIP3     12848    TIP3     H2       HT       0.417000       1.00800           0
     60991 TIP3     12849    TIP3     OH2      OT      -0.834000       15.9994           0
     60992 TIP3     12849    TIP3     H1       HT       0.417000       1.00800           0
     60993 TIP3     12849    TIP3     H2       HT       0.417000       1.00800           0
     60994 TIP3     12850    TIP3     OH2      OT      -0.834000       15.9994           0
     60995 TIP3     12850    TIP3     H1       HT       0.417000       1.00800           0
     60996 TIP3     12850    TIP3     H2       HT       0.417000       1.00800           0
     60997 TIP3     12851    TIP3     OH2      OT      -0.834000       15.9994           0
     60998 TIP3     12851    TIP3     H1       HT       0.417000       1.00800           0
     60999 TIP3     12851    TIP3     H2       HT       0.417000       1.00800           0
     61000 TIP3     12852    TIP3     OH2      OT      -0.834000       15.9994           0
     61001 TIP3     12852    TIP3     H1       HT       0.417000       1.00800           0
     61002 TIP3     12852    TIP3     H2       HT       0.417000       1.00800           0
     61003 TIP3     12853    TIP3     OH2      OT      -0.834000       15.9994           0
     61004 TIP3     12853    TIP3     H1       HT       0.417000       1.00800           0
     61005 TIP3     12853    TIP3     H2       HT       0.417000       1.00800           0
     61006 TIP3     12854    TIP3     OH2      OT      -0.834000       15.9994           0
     61007 TIP3     12854    TIP3     H1       HT       0.417000       1.00800           0
     61008 TIP3     12854    TIP3     H2       HT       0.417000       1.00800           0
     61009 TIP3     12855    TIP3     OH2      OT      -0.834000       15.9994           0
     61010 TIP3     12855    TIP3     H1       HT       0.417000       1.00800           0
     61011 TIP3     12855    TIP3     H2       HT       0.417000       1.00800           0
     61012 TIP3     12856    TIP3     OH2      OT      -0.834000       15.9994           0
     61013 TIP3     12856    TIP3     H1       HT       0.417000       1.00800           0
     61014 TIP3     12856    TIP3     H2       HT       0.417000       1.00800           0
     61015 TIP3     12857    TIP3     OH2      OT      -0.834000       15.9994           0
     61016 TIP3     12857    TIP3     H1       HT       0.417000       1.00800           0
     61017 TIP3     12857    TIP3     H2       HT       0.417000       1.00800           0
     61018 TIP3     12858    TIP3     OH2      OT      -0.834000       15.9994           0
     61019 TIP3     12858    TIP3     H1       HT       0.417000       1.00800           0
     61020 TIP3     12858    TIP3     H2       HT       0.417000       1.00800           0
     61021 TIP3     12859    TIP3     OH2      OT      -0.834000       15.9994           0
     61022 TIP3     12859    TIP3     H1       HT       0.417000       1.00800           0
     61023 TIP3     12859    TIP3     H2       HT       0.417000       1.00800           0
     61024 TIP3     12860    TIP3     OH2      OT      -0.834000       15.9994           0
     61025 TIP3     12860    TIP3     H1       HT       0.417000       1.00800           0
     61026 TIP3     12860    TIP3     H2       HT       0.417000       1.00800           0
     61027 TIP3     12861    TIP3     OH2      OT      -0.834000       15.9994           0
     61028 TIP3     12861    TIP3     H1       HT       0.417000       1.00800           0
     61029 TIP3     12861    TIP3     H2       HT       0.417000       1.00800           0
     61030 TIP3     12862    TIP3     OH2      OT      -0.834000       15.9994           0
     61031 TIP3     12862    TIP3     H1       HT       0.417000       1.00800           0
     61032 TIP3     12862    TIP3     H2       HT       0.417000       1.00800           0
     61033 TIP3     12863    TIP3     OH2      OT      -0.834000       15.9994           0
     61034 TIP3     12863    TIP3     H1       HT       0.417000       1.00800           0
     61035 TIP3     12863    TIP3     H2       HT       0.417000       1.00800           0
     61036 TIP3     12864    TIP3     OH2      OT      -0.834000       15.9994           0
     61037 TIP3     12864    TIP3     H1       HT       0.417000       1.00800           0
     61038 TIP3     12864    TIP3     H2       HT       0.417000       1.00800           0
     61039 TIP3     12865    TIP3     OH2      OT      -0.834000       15.9994           0
     61040 TIP3     12865    TIP3     H1       HT       0.417000       1.00800           0
     61041 TIP3     12865    TIP3     H2       HT       0.417000       1.00800           0
     61042 TIP3     12866    TIP3     OH2      OT      -0.834000       15.9994           0
     61043 TIP3     12866    TIP3     H1       HT       0.417000       1.00800           0
     61044 TIP3     12866    TIP3     H2       HT       0.417000       1.00800           0
     61045 TIP3     12867    TIP3     OH2      OT      -0.834000       15.9994           0
     61046 TIP3     12867    TIP3     H1       HT       0.417000       1.00800           0
     61047 TIP3     12867    TIP3     H2       HT       0.417000       1.00800           0
     61048 TIP3     12868    TIP3     OH2      OT      -0.834000       15.9994           0
     61049 TIP3     12868    TIP3     H1       HT       0.417000       1.00800           0
     61050 TIP3     12868    TIP3     H2       HT       0.417000       1.00800           0
     61051 TIP3     12869    TIP3     OH2      OT      -0.834000       15.9994           0
     61052 TIP3     12869    TIP3     H1       HT       0.417000       1.00800           0
     61053 TIP3     12869    TIP3     H2       HT       0.417000       1.00800           0
     61054 TIP3     12870    TIP3     OH2      OT      -0.834000       15.9994           0
     61055 TIP3     12870    TIP3     H1       HT       0.417000       1.00800           0
     61056 TIP3     12870    TIP3     H2       HT       0.417000       1.00800           0
     61057 TIP3     12871    TIP3     OH2      OT      -0.834000       15.9994           0
     61058 TIP3     12871    TIP3     H1       HT       0.417000       1.00800           0
     61059 TIP3     12871    TIP3     H2       HT       0.417000       1.00800           0
     61060 TIP3     12872    TIP3     OH2      OT      -0.834000       15.9994           0
     61061 TIP3     12872    TIP3     H1       HT       0.417000       1.00800           0
     61062 TIP3     12872    TIP3     H2       HT       0.417000       1.00800           0
     61063 TIP3     12873    TIP3     OH2      OT      -0.834000       15.9994           0
     61064 TIP3     12873    TIP3     H1       HT       0.417000       1.00800           0
     61065 TIP3     12873    TIP3     H2       HT       0.417000       1.00800           0
     61066 TIP3     12874    TIP3     OH2      OT      -0.834000       15.9994           0
     61067 TIP3     12874    TIP3     H1       HT       0.417000       1.00800           0
     61068 TIP3     12874    TIP3     H2       HT       0.417000       1.00800           0
     61069 TIP3     12875    TIP3     OH2      OT      -0.834000       15.9994           0
     61070 TIP3     12875    TIP3     H1       HT       0.417000       1.00800           0
     61071 TIP3     12875    TIP3     H2       HT       0.417000       1.00800           0
     61072 TIP3     12876    TIP3     OH2      OT      -0.834000       15.9994           0
     61073 TIP3     12876    TIP3     H1       HT       0.417000       1.00800           0
     61074 TIP3     12876    TIP3     H2       HT       0.417000       1.00800           0
     61075 TIP3     12877    TIP3     OH2      OT      -0.834000       15.9994           0
     61076 TIP3     12877    TIP3     H1       HT       0.417000       1.00800           0
     61077 TIP3     12877    TIP3     H2       HT       0.417000       1.00800           0
     61078 TIP3     12878    TIP3     OH2      OT      -0.834000       15.9994           0
     61079 TIP3     12878    TIP3     H1       HT       0.417000       1.00800           0
     61080 TIP3     12878    TIP3     H2       HT       0.417000       1.00800           0
     61081 TIP3     12879    TIP3     OH2      OT      -0.834000       15.9994           0
     61082 TIP3     12879    TIP3     H1       HT       0.417000       1.00800           0
     61083 TIP3     12879    TIP3     H2       HT       0.417000       1.00800           0
     61084 TIP3     12880    TIP3     OH2      OT      -0.834000       15.9994           0
     61085 TIP3     12880    TIP3     H1       HT       0.417000       1.00800           0
     61086 TIP3     12880    TIP3     H2       HT       0.417000       1.00800           0
     61087 TIP3     12881    TIP3     OH2      OT      -0.834000       15.9994           0
     61088 TIP3     12881    TIP3     H1       HT       0.417000       1.00800           0
     61089 TIP3     12881    TIP3     H2       HT       0.417000       1.00800           0
     61090 TIP3     12882    TIP3     OH2      OT      -0.834000       15.9994           0
     61091 TIP3     12882    TIP3     H1       HT       0.417000       1.00800           0
     61092 TIP3     12882    TIP3     H2       HT       0.417000       1.00800           0
     61093 TIP3     12883    TIP3     OH2      OT      -0.834000       15.9994           0
     61094 TIP3     12883    TIP3     H1       HT       0.417000       1.00800           0
     61095 TIP3     12883    TIP3     H2       HT       0.417000       1.00800           0
     61096 TIP3     12884    TIP3     OH2      OT      -0.834000       15.9994           0
     61097 TIP3     12884    TIP3     H1       HT       0.417000       1.00800           0
     61098 TIP3     12884    TIP3     H2       HT       0.417000       1.00800           0
     61099 TIP3     12885    TIP3     OH2      OT      -0.834000       15.9994           0
     61100 TIP3     12885    TIP3     H1       HT       0.417000       1.00800           0
     61101 TIP3     12885    TIP3     H2       HT       0.417000       1.00800           0
     61102 TIP3     12886    TIP3     OH2      OT      -0.834000       15.9994           0
     61103 TIP3     12886    TIP3     H1       HT       0.417000       1.00800           0
     61104 TIP3     12886    TIP3     H2       HT       0.417000       1.00800           0
     61105 TIP3     12887    TIP3     OH2      OT      -0.834000       15.9994           0
     61106 TIP3     12887    TIP3     H1       HT       0.417000       1.00800           0
     61107 TIP3     12887    TIP3     H2       HT       0.417000       1.00800           0
     61108 TIP3     12888    TIP3     OH2      OT      -0.834000       15.9994           0
     61109 TIP3     12888    TIP3     H1       HT       0.417000       1.00800           0
     61110 TIP3     12888    TIP3     H2       HT       0.417000       1.00800           0
     61111 TIP3     12889    TIP3     OH2      OT      -0.834000       15.9994           0
     61112 TIP3     12889    TIP3     H1       HT       0.417000       1.00800           0
     61113 TIP3     12889    TIP3     H2       HT       0.417000       1.00800           0
     61114 TIP3     12890    TIP3     OH2      OT      -0.834000       15.9994           0
     61115 TIP3     12890    TIP3     H1       HT       0.417000       1.00800           0
     61116 TIP3     12890    TIP3     H2       HT       0.417000       1.00800           0
     61117 TIP3     12891    TIP3     OH2      OT      -0.834000       15.9994           0
     61118 TIP3     12891    TIP3     H1       HT       0.417000       1.00800           0
     61119 TIP3     12891    TIP3     H2       HT       0.417000       1.00800           0
     61120 TIP3     12892    TIP3     OH2      OT      -0.834000       15.9994           0
     61121 TIP3     12892    TIP3     H1       HT       0.417000       1.00800           0
     61122 TIP3     12892    TIP3     H2       HT       0.417000       1.00800           0
     61123 TIP3     12893    TIP3     OH2      OT      -0.834000       15.9994           0
     61124 TIP3     12893    TIP3     H1       HT       0.417000       1.00800           0
     61125 TIP3     12893    TIP3     H2       HT       0.417000       1.00800           0
     61126 TIP3     12894    TIP3     OH2      OT      -0.834000       15.9994           0
     61127 TIP3     12894    TIP3     H1       HT       0.417000       1.00800           0
     61128 TIP3     12894    TIP3     H2       HT       0.417000       1.00800           0
     61129 TIP3     12895    TIP3     OH2      OT      -0.834000       15.9994           0
     61130 TIP3     12895    TIP3     H1       HT       0.417000       1.00800           0
     61131 TIP3     12895    TIP3     H2       HT       0.417000       1.00800           0
     61132 TIP3     12896    TIP3     OH2      OT      -0.834000       15.9994           0
     61133 TIP3     12896    TIP3     H1       HT       0.417000       1.00800           0
     61134 TIP3     12896    TIP3     H2       HT       0.417000       1.00800           0
     61135 TIP3     12897    TIP3     OH2      OT      -0.834000       15.9994           0
     61136 TIP3     12897    TIP3     H1       HT       0.417000       1.00800           0
     61137 TIP3     12897    TIP3     H2       HT       0.417000       1.00800           0
     61138 TIP3     12898    TIP3     OH2      OT      -0.834000       15.9994           0
     61139 TIP3     12898    TIP3     H1       HT       0.417000       1.00800           0
     61140 TIP3     12898    TIP3     H2       HT       0.417000       1.00800           0
     61141 TIP3     12899    TIP3     OH2      OT      -0.834000       15.9994           0
     61142 TIP3     12899    TIP3     H1       HT       0.417000       1.00800           0
     61143 TIP3     12899    TIP3     H2       HT       0.417000       1.00800           0
     61144 TIP3     12900    TIP3     OH2      OT      -0.834000       15.9994           0
     61145 TIP3     12900    TIP3     H1       HT       0.417000       1.00800           0
     61146 TIP3     12900    TIP3     H2       HT       0.417000       1.00800           0
     61147 TIP3     12901    TIP3     OH2      OT      -0.834000       15.9994           0
     61148 TIP3     12901    TIP3     H1       HT       0.417000       1.00800           0
     61149 TIP3     12901    TIP3     H2       HT       0.417000       1.00800           0
     61150 TIP3     12902    TIP3     OH2      OT      -0.834000       15.9994           0
     61151 TIP3     12902    TIP3     H1       HT       0.417000       1.00800           0
     61152 TIP3     12902    TIP3     H2       HT       0.417000       1.00800           0
     61153 TIP3     12903    TIP3     OH2      OT      -0.834000       15.9994           0
     61154 TIP3     12903    TIP3     H1       HT       0.417000       1.00800           0
     61155 TIP3     12903    TIP3     H2       HT       0.417000       1.00800           0
     61156 TIP3     12904    TIP3     OH2      OT      -0.834000       15.9994           0
     61157 TIP3     12904    TIP3     H1       HT       0.417000       1.00800           0
     61158 TIP3     12904    TIP3     H2       HT       0.417000       1.00800           0
     61159 TIP3     12905    TIP3     OH2      OT      -0.834000       15.9994           0
     61160 TIP3     12905    TIP3     H1       HT       0.417000       1.00800           0
     61161 TIP3     12905    TIP3     H2       HT       0.417000       1.00800           0
     61162 TIP3     12906    TIP3     OH2      OT      -0.834000       15.9994           0
     61163 TIP3     12906    TIP3     H1       HT       0.417000       1.00800           0
     61164 TIP3     12906    TIP3     H2       HT       0.417000       1.00800           0
     61165 TIP3     12907    TIP3     OH2      OT      -0.834000       15.9994           0
     61166 TIP3     12907    TIP3     H1       HT       0.417000       1.00800           0
     61167 TIP3     12907    TIP3     H2       HT       0.417000       1.00800           0
     61168 TIP3     12908    TIP3     OH2      OT      -0.834000       15.9994           0
     61169 TIP3     12908    TIP3     H1       HT       0.417000       1.00800           0
     61170 TIP3     12908    TIP3     H2       HT       0.417000       1.00800           0
     61171 TIP3     12909    TIP3     OH2      OT      -0.834000       15.9994           0
     61172 TIP3     12909    TIP3     H1       HT       0.417000       1.00800           0
     61173 TIP3     12909    TIP3     H2       HT       0.417000       1.00800           0
     61174 TIP3     12910    TIP3     OH2      OT      -0.834000       15.9994           0
     61175 TIP3     12910    TIP3     H1       HT       0.417000       1.00800           0
     61176 TIP3     12910    TIP3     H2       HT       0.417000       1.00800           0
     61177 TIP3     12911    TIP3     OH2      OT      -0.834000       15.9994           0
     61178 TIP3     12911    TIP3     H1       HT       0.417000       1.00800           0
     61179 TIP3     12911    TIP3     H2       HT       0.417000       1.00800           0
     61180 TIP3     12912    TIP3     OH2      OT      -0.834000       15.9994           0
     61181 TIP3     12912    TIP3     H1       HT       0.417000       1.00800           0
     61182 TIP3     12912    TIP3     H2       HT       0.417000       1.00800           0
     61183 TIP3     12913    TIP3     OH2      OT      -0.834000       15.9994           0
     61184 TIP3     12913    TIP3     H1       HT       0.417000       1.00800           0
     61185 TIP3     12913    TIP3     H2       HT       0.417000       1.00800           0
     61186 TIP3     12914    TIP3     OH2      OT      -0.834000       15.9994           0
     61187 TIP3     12914    TIP3     H1       HT       0.417000       1.00800           0
     61188 TIP3     12914    TIP3     H2       HT       0.417000       1.00800           0
     61189 TIP3     12915    TIP3     OH2      OT      -0.834000       15.9994           0
     61190 TIP3     12915    TIP3     H1       HT       0.417000       1.00800           0
     61191 TIP3     12915    TIP3     H2       HT       0.417000       1.00800           0
     61192 TIP3     12916    TIP3     OH2      OT      -0.834000       15.9994           0
     61193 TIP3     12916    TIP3     H1       HT       0.417000       1.00800           0
     61194 TIP3     12916    TIP3     H2       HT       0.417000       1.00800           0
     61195 TIP3     12917    TIP3     OH2      OT      -0.834000       15.9994           0
     61196 TIP3     12917    TIP3     H1       HT       0.417000       1.00800           0
     61197 TIP3     12917    TIP3     H2       HT       0.417000       1.00800           0
     61198 TIP3     12918    TIP3     OH2      OT      -0.834000       15.9994           0
     61199 TIP3     12918    TIP3     H1       HT       0.417000       1.00800           0
     61200 TIP3     12918    TIP3     H2       HT       0.417000       1.00800           0
     61201 TIP3     12919    TIP3     OH2      OT      -0.834000       15.9994           0
     61202 TIP3     12919    TIP3     H1       HT       0.417000       1.00800           0
     61203 TIP3     12919    TIP3     H2       HT       0.417000       1.00800           0
     61204 TIP3     12920    TIP3     OH2      OT      -0.834000       15.9994           0
     61205 TIP3     12920    TIP3     H1       HT       0.417000       1.00800           0
     61206 TIP3     12920    TIP3     H2       HT       0.417000       1.00800           0
     61207 TIP3     12921    TIP3     OH2      OT      -0.834000       15.9994           0
     61208 TIP3     12921    TIP3     H1       HT       0.417000       1.00800           0
     61209 TIP3     12921    TIP3     H2       HT       0.417000       1.00800           0
     61210 TIP3     12922    TIP3     OH2      OT      -0.834000       15.9994           0
     61211 TIP3     12922    TIP3     H1       HT       0.417000       1.00800           0
     61212 TIP3     12922    TIP3     H2       HT       0.417000       1.00800           0
     61213 TIP3     12923    TIP3     OH2      OT      -0.834000       15.9994           0
     61214 TIP3     12923    TIP3     H1       HT       0.417000       1.00800           0
     61215 TIP3     12923    TIP3     H2       HT       0.417000       1.00800           0
     61216 TIP3     12924    TIP3     OH2      OT      -0.834000       15.9994           0
     61217 TIP3     12924    TIP3     H1       HT       0.417000       1.00800           0
     61218 TIP3     12924    TIP3     H2       HT       0.417000       1.00800           0
     61219 TIP3     12925    TIP3     OH2      OT      -0.834000       15.9994           0
     61220 TIP3     12925    TIP3     H1       HT       0.417000       1.00800           0
     61221 TIP3     12925    TIP3     H2       HT       0.417000       1.00800           0
     61222 TIP3     12926    TIP3     OH2      OT      -0.834000       15.9994           0
     61223 TIP3     12926    TIP3     H1       HT       0.417000       1.00800           0
     61224 TIP3     12926    TIP3     H2       HT       0.417000       1.00800           0
     61225 TIP3     12927    TIP3     OH2      OT      -0.834000       15.9994           0
     61226 TIP3     12927    TIP3     H1       HT       0.417000       1.00800           0
     61227 TIP3     12927    TIP3     H2       HT       0.417000       1.00800           0
     61228 TIP3     12928    TIP3     OH2      OT      -0.834000       15.9994           0
     61229 TIP3     12928    TIP3     H1       HT       0.417000       1.00800           0
     61230 TIP3     12928    TIP3     H2       HT       0.417000       1.00800           0
     61231 TIP3     12929    TIP3     OH2      OT      -0.834000       15.9994           0
     61232 TIP3     12929    TIP3     H1       HT       0.417000       1.00800           0
     61233 TIP3     12929    TIP3     H2       HT       0.417000       1.00800           0
     61234 TIP3     12930    TIP3     OH2      OT      -0.834000       15.9994           0
     61235 TIP3     12930    TIP3     H1       HT       0.417000       1.00800           0
     61236 TIP3     12930    TIP3     H2       HT       0.417000       1.00800           0
     61237 TIP3     12931    TIP3     OH2      OT      -0.834000       15.9994           0
     61238 TIP3     12931    TIP3     H1       HT       0.417000       1.00800           0
     61239 TIP3     12931    TIP3     H2       HT       0.417000       1.00800           0
     61240 TIP3     12932    TIP3     OH2      OT      -0.834000       15.9994           0
     61241 TIP3     12932    TIP3     H1       HT       0.417000       1.00800           0
     61242 TIP3     12932    TIP3     H2       HT       0.417000       1.00800           0
     61243 TIP3     12933    TIP3     OH2      OT      -0.834000       15.9994           0
     61244 TIP3     12933    TIP3     H1       HT       0.417000       1.00800           0
     61245 TIP3     12933    TIP3     H2       HT       0.417000       1.00800           0
     61246 TIP3     12934    TIP3     OH2      OT      -0.834000       15.9994           0
     61247 TIP3     12934    TIP3     H1       HT       0.417000       1.00800           0
     61248 TIP3     12934    TIP3     H2       HT       0.417000       1.00800           0
     61249 TIP3     12935    TIP3     OH2      OT      -0.834000       15.9994           0
     61250 TIP3     12935    TIP3     H1       HT       0.417000       1.00800           0
     61251 TIP3     12935    TIP3     H2       HT       0.417000       1.00800           0
     61252 TIP3     12936    TIP3     OH2      OT      -0.834000       15.9994           0
     61253 TIP3     12936    TIP3     H1       HT       0.417000       1.00800           0
     61254 TIP3     12936    TIP3     H2       HT       0.417000       1.00800           0
     61255 TIP3     12937    TIP3     OH2      OT      -0.834000       15.9994           0
     61256 TIP3     12937    TIP3     H1       HT       0.417000       1.00800           0
     61257 TIP3     12937    TIP3     H2       HT       0.417000       1.00800           0
     61258 TIP3     12938    TIP3     OH2      OT      -0.834000       15.9994           0
     61259 TIP3     12938    TIP3     H1       HT       0.417000       1.00800           0
     61260 TIP3     12938    TIP3     H2       HT       0.417000       1.00800           0
     61261 TIP3     12939    TIP3     OH2      OT      -0.834000       15.9994           0
     61262 TIP3     12939    TIP3     H1       HT       0.417000       1.00800           0
     61263 TIP3     12939    TIP3     H2       HT       0.417000       1.00800           0
     61264 TIP3     12940    TIP3     OH2      OT      -0.834000       15.9994           0
     61265 TIP3     12940    TIP3     H1       HT       0.417000       1.00800           0
     61266 TIP3     12940    TIP3     H2       HT       0.417000       1.00800           0
     61267 TIP3     12941    TIP3     OH2      OT      -0.834000       15.9994           0
     61268 TIP3     12941    TIP3     H1       HT       0.417000       1.00800           0
     61269 TIP3     12941    TIP3     H2       HT       0.417000       1.00800           0
     61270 TIP3     12942    TIP3     OH2      OT      -0.834000       15.9994           0
     61271 TIP3     12942    TIP3     H1       HT       0.417000       1.00800           0
     61272 TIP3     12942    TIP3     H2       HT       0.417000       1.00800           0
     61273 TIP3     12943    TIP3     OH2      OT      -0.834000       15.9994           0
     61274 TIP3     12943    TIP3     H1       HT       0.417000       1.00800           0
     61275 TIP3     12943    TIP3     H2       HT       0.417000       1.00800           0
     61276 TIP3     12944    TIP3     OH2      OT      -0.834000       15.9994           0
     61277 TIP3     12944    TIP3     H1       HT       0.417000       1.00800           0
     61278 TIP3     12944    TIP3     H2       HT       0.417000       1.00800           0
     61279 TIP3     12945    TIP3     OH2      OT      -0.834000       15.9994           0
     61280 TIP3     12945    TIP3     H1       HT       0.417000       1.00800           0
     61281 TIP3     12945    TIP3     H2       HT       0.417000       1.00800           0
     61282 TIP3     12946    TIP3     OH2      OT      -0.834000       15.9994           0
     61283 TIP3     12946    TIP3     H1       HT       0.417000       1.00800           0
     61284 TIP3     12946    TIP3     H2       HT       0.417000       1.00800           0
     61285 TIP3     12947    TIP3     OH2      OT      -0.834000       15.9994           0
     61286 TIP3     12947    TIP3     H1       HT       0.417000       1.00800           0
     61287 TIP3     12947    TIP3     H2       HT       0.417000       1.00800           0
     61288 TIP3     12948    TIP3     OH2      OT      -0.834000       15.9994           0
     61289 TIP3     12948    TIP3     H1       HT       0.417000       1.00800           0
     61290 TIP3     12948    TIP3     H2       HT       0.417000       1.00800           0
     61291 TIP3     12949    TIP3     OH2      OT      -0.834000       15.9994           0
     61292 TIP3     12949    TIP3     H1       HT       0.417000       1.00800           0
     61293 TIP3     12949    TIP3     H2       HT       0.417000       1.00800           0
     61294 TIP3     12950    TIP3     OH2      OT      -0.834000       15.9994           0
     61295 TIP3     12950    TIP3     H1       HT       0.417000       1.00800           0
     61296 TIP3     12950    TIP3     H2       HT       0.417000       1.00800           0
     61297 TIP3     12951    TIP3     OH2      OT      -0.834000       15.9994           0
     61298 TIP3     12951    TIP3     H1       HT       0.417000       1.00800           0
     61299 TIP3     12951    TIP3     H2       HT       0.417000       1.00800           0
     61300 TIP3     12952    TIP3     OH2      OT      -0.834000       15.9994           0
     61301 TIP3     12952    TIP3     H1       HT       0.417000       1.00800           0
     61302 TIP3     12952    TIP3     H2       HT       0.417000       1.00800           0
     61303 TIP3     12953    TIP3     OH2      OT      -0.834000       15.9994           0
     61304 TIP3     12953    TIP3     H1       HT       0.417000       1.00800           0
     61305 TIP3     12953    TIP3     H2       HT       0.417000       1.00800           0
     61306 TIP3     12954    TIP3     OH2      OT      -0.834000       15.9994           0
     61307 TIP3     12954    TIP3     H1       HT       0.417000       1.00800           0
     61308 TIP3     12954    TIP3     H2       HT       0.417000       1.00800           0
     61309 TIP3     12955    TIP3     OH2      OT      -0.834000       15.9994           0
     61310 TIP3     12955    TIP3     H1       HT       0.417000       1.00800           0
     61311 TIP3     12955    TIP3     H2       HT       0.417000       1.00800           0
     61312 TIP3     12956    TIP3     OH2      OT      -0.834000       15.9994           0
     61313 TIP3     12956    TIP3     H1       HT       0.417000       1.00800           0
     61314 TIP3     12956    TIP3     H2       HT       0.417000       1.00800           0
     61315 TIP3     12957    TIP3     OH2      OT      -0.834000       15.9994           0
     61316 TIP3     12957    TIP3     H1       HT       0.417000       1.00800           0
     61317 TIP3     12957    TIP3     H2       HT       0.417000       1.00800           0
     61318 TIP3     12958    TIP3     OH2      OT      -0.834000       15.9994           0
     61319 TIP3     12958    TIP3     H1       HT       0.417000       1.00800           0
     61320 TIP3     12958    TIP3     H2       HT       0.417000       1.00800           0
     61321 TIP3     12959    TIP3     OH2      OT      -0.834000       15.9994           0
     61322 TIP3     12959    TIP3     H1       HT       0.417000       1.00800           0
     61323 TIP3     12959    TIP3     H2       HT       0.417000       1.00800           0
     61324 TIP3     12960    TIP3     OH2      OT      -0.834000       15.9994           0
     61325 TIP3     12960    TIP3     H1       HT       0.417000       1.00800           0
     61326 TIP3     12960    TIP3     H2       HT       0.417000       1.00800           0
     61327 TIP3     12961    TIP3     OH2      OT      -0.834000       15.9994           0
     61328 TIP3     12961    TIP3     H1       HT       0.417000       1.00800           0
     61329 TIP3     12961    TIP3     H2       HT       0.417000       1.00800           0
     61330 TIP3     12962    TIP3     OH2      OT      -0.834000       15.9994           0
     61331 TIP3     12962    TIP3     H1       HT       0.417000       1.00800           0
     61332 TIP3     12962    TIP3     H2       HT       0.417000       1.00800           0
     61333 TIP3     12963    TIP3     OH2      OT      -0.834000       15.9994           0
     61334 TIP3     12963    TIP3     H1       HT       0.417000       1.00800           0
     61335 TIP3     12963    TIP3     H2       HT       0.417000       1.00800           0
     61336 TIP3     12964    TIP3     OH2      OT      -0.834000       15.9994           0
     61337 TIP3     12964    TIP3     H1       HT       0.417000       1.00800           0
     61338 TIP3     12964    TIP3     H2       HT       0.417000       1.00800           0
     61339 TIP3     12965    TIP3     OH2      OT      -0.834000       15.9994           0
     61340 TIP3     12965    TIP3     H1       HT       0.417000       1.00800           0
     61341 TIP3     12965    TIP3     H2       HT       0.417000       1.00800           0
     61342 TIP3     12966    TIP3     OH2      OT      -0.834000       15.9994           0
     61343 TIP3     12966    TIP3     H1       HT       0.417000       1.00800           0
     61344 TIP3     12966    TIP3     H2       HT       0.417000       1.00800           0
     61345 TIP3     12967    TIP3     OH2      OT      -0.834000       15.9994           0
     61346 TIP3     12967    TIP3     H1       HT       0.417000       1.00800           0
     61347 TIP3     12967    TIP3     H2       HT       0.417000       1.00800           0
     61348 TIP3     12968    TIP3     OH2      OT      -0.834000       15.9994           0
     61349 TIP3     12968    TIP3     H1       HT       0.417000       1.00800           0
     61350 TIP3     12968    TIP3     H2       HT       0.417000       1.00800           0
     61351 TIP3     12969    TIP3     OH2      OT      -0.834000       15.9994           0
     61352 TIP3     12969    TIP3     H1       HT       0.417000       1.00800           0
     61353 TIP3     12969    TIP3     H2       HT       0.417000       1.00800           0
     61354 TIP3     12970    TIP3     OH2      OT      -0.834000       15.9994           0
     61355 TIP3     12970    TIP3     H1       HT       0.417000       1.00800           0
     61356 TIP3     12970    TIP3     H2       HT       0.417000       1.00800           0
     61357 TIP3     12971    TIP3     OH2      OT      -0.834000       15.9994           0
     61358 TIP3     12971    TIP3     H1       HT       0.417000       1.00800           0
     61359 TIP3     12971    TIP3     H2       HT       0.417000       1.00800           0
     61360 TIP3     12972    TIP3     OH2      OT      -0.834000       15.9994           0
     61361 TIP3     12972    TIP3     H1       HT       0.417000       1.00800           0
     61362 TIP3     12972    TIP3     H2       HT       0.417000       1.00800           0
     61363 TIP3     12973    TIP3     OH2      OT      -0.834000       15.9994           0
     61364 TIP3     12973    TIP3     H1       HT       0.417000       1.00800           0
     61365 TIP3     12973    TIP3     H2       HT       0.417000       1.00800           0
     61366 TIP3     12974    TIP3     OH2      OT      -0.834000       15.9994           0
     61367 TIP3     12974    TIP3     H1       HT       0.417000       1.00800           0
     61368 TIP3     12974    TIP3     H2       HT       0.417000       1.00800           0
     61369 TIP3     12975    TIP3     OH2      OT      -0.834000       15.9994           0
     61370 TIP3     12975    TIP3     H1       HT       0.417000       1.00800           0
     61371 TIP3     12975    TIP3     H2       HT       0.417000       1.00800           0
     61372 TIP3     12976    TIP3     OH2      OT      -0.834000       15.9994           0
     61373 TIP3     12976    TIP3     H1       HT       0.417000       1.00800           0
     61374 TIP3     12976    TIP3     H2       HT       0.417000       1.00800           0
     61375 TIP3     12977    TIP3     OH2      OT      -0.834000       15.9994           0
     61376 TIP3     12977    TIP3     H1       HT       0.417000       1.00800           0
     61377 TIP3     12977    TIP3     H2       HT       0.417000       1.00800           0
     61378 TIP3     12978    TIP3     OH2      OT      -0.834000       15.9994           0
     61379 TIP3     12978    TIP3     H1       HT       0.417000       1.00800           0
     61380 TIP3     12978    TIP3     H2       HT       0.417000       1.00800           0
     61381 TIP3     12979    TIP3     OH2      OT      -0.834000       15.9994           0
     61382 TIP3     12979    TIP3     H1       HT       0.417000       1.00800           0
     61383 TIP3     12979    TIP3     H2       HT       0.417000       1.00800           0
     61384 TIP3     12980    TIP3     OH2      OT      -0.834000       15.9994           0
     61385 TIP3     12980    TIP3     H1       HT       0.417000       1.00800           0
     61386 TIP3     12980    TIP3     H2       HT       0.417000       1.00800           0
     61387 TIP3     12981    TIP3     OH2      OT      -0.834000       15.9994           0
     61388 TIP3     12981    TIP3     H1       HT       0.417000       1.00800           0
     61389 TIP3     12981    TIP3     H2       HT       0.417000       1.00800           0
     61390 TIP3     12982    TIP3     OH2      OT      -0.834000       15.9994           0
     61391 TIP3     12982    TIP3     H1       HT       0.417000       1.00800           0
     61392 TIP3     12982    TIP3     H2       HT       0.417000       1.00800           0
     61393 TIP3     12983    TIP3     OH2      OT      -0.834000       15.9994           0
     61394 TIP3     12983    TIP3     H1       HT       0.417000       1.00800           0
     61395 TIP3     12983    TIP3     H2       HT       0.417000       1.00800           0
     61396 TIP3     12984    TIP3     OH2      OT      -0.834000       15.9994           0
     61397 TIP3     12984    TIP3     H1       HT       0.417000       1.00800           0
     61398 TIP3     12984    TIP3     H2       HT       0.417000       1.00800           0
     61399 TIP3     12985    TIP3     OH2      OT      -0.834000       15.9994           0
     61400 TIP3     12985    TIP3     H1       HT       0.417000       1.00800           0
     61401 TIP3     12985    TIP3     H2       HT       0.417000       1.00800           0
     61402 TIP3     12986    TIP3     OH2      OT      -0.834000       15.9994           0
     61403 TIP3     12986    TIP3     H1       HT       0.417000       1.00800           0
     61404 TIP3     12986    TIP3     H2       HT       0.417000       1.00800           0
     61405 TIP3     12987    TIP3     OH2      OT      -0.834000       15.9994           0
     61406 TIP3     12987    TIP3     H1       HT       0.417000       1.00800           0
     61407 TIP3     12987    TIP3     H2       HT       0.417000       1.00800           0
     61408 TIP3     12988    TIP3     OH2      OT      -0.834000       15.9994           0
     61409 TIP3     12988    TIP3     H1       HT       0.417000       1.00800           0
     61410 TIP3     12988    TIP3     H2       HT       0.417000       1.00800           0
     61411 TIP3     12989    TIP3     OH2      OT      -0.834000       15.9994           0
     61412 TIP3     12989    TIP3     H1       HT       0.417000       1.00800           0
     61413 TIP3     12989    TIP3     H2       HT       0.417000       1.00800           0
     61414 TIP3     12990    TIP3     OH2      OT      -0.834000       15.9994           0
     61415 TIP3     12990    TIP3     H1       HT       0.417000       1.00800           0
     61416 TIP3     12990    TIP3     H2       HT       0.417000       1.00800           0
     61417 TIP3     12991    TIP3     OH2      OT      -0.834000       15.9994           0
     61418 TIP3     12991    TIP3     H1       HT       0.417000       1.00800           0
     61419 TIP3     12991    TIP3     H2       HT       0.417000       1.00800           0
     61420 TIP3     12992    TIP3     OH2      OT      -0.834000       15.9994           0
     61421 TIP3     12992    TIP3     H1       HT       0.417000       1.00800           0
     61422 TIP3     12992    TIP3     H2       HT       0.417000       1.00800           0
     61423 TIP3     12993    TIP3     OH2      OT      -0.834000       15.9994           0
     61424 TIP3     12993    TIP3     H1       HT       0.417000       1.00800           0
     61425 TIP3     12993    TIP3     H2       HT       0.417000       1.00800           0
     61426 TIP3     12994    TIP3     OH2      OT      -0.834000       15.9994           0
     61427 TIP3     12994    TIP3     H1       HT       0.417000       1.00800           0
     61428 TIP3     12994    TIP3     H2       HT       0.417000       1.00800           0
     61429 TIP3     12995    TIP3     OH2      OT      -0.834000       15.9994           0
     61430 TIP3     12995    TIP3     H1       HT       0.417000       1.00800           0
     61431 TIP3     12995    TIP3     H2       HT       0.417000       1.00800           0
     61432 TIP3     12996    TIP3     OH2      OT      -0.834000       15.9994           0
     61433 TIP3     12996    TIP3     H1       HT       0.417000       1.00800           0
     61434 TIP3     12996    TIP3     H2       HT       0.417000       1.00800           0
     61435 TIP3     12997    TIP3     OH2      OT      -0.834000       15.9994           0
     61436 TIP3     12997    TIP3     H1       HT       0.417000       1.00800           0
     61437 TIP3     12997    TIP3     H2       HT       0.417000       1.00800           0
     61438 TIP3     12998    TIP3     OH2      OT      -0.834000       15.9994           0
     61439 TIP3     12998    TIP3     H1       HT       0.417000       1.00800           0
     61440 TIP3     12998    TIP3     H2       HT       0.417000       1.00800           0
     61441 TIP3     12999    TIP3     OH2      OT      -0.834000       15.9994           0
     61442 TIP3     12999    TIP3     H1       HT       0.417000       1.00800           0
     61443 TIP3     12999    TIP3     H2       HT       0.417000       1.00800           0
     61444 TIP3     13000    TIP3     OH2      OT      -0.834000       15.9994           0
     61445 TIP3     13000    TIP3     H1       HT       0.417000       1.00800           0
     61446 TIP3     13000    TIP3     H2       HT       0.417000       1.00800           0
     61447 TIP3     13001    TIP3     OH2      OT      -0.834000       15.9994           0
     61448 TIP3     13001    TIP3     H1       HT       0.417000       1.00800           0
     61449 TIP3     13001    TIP3     H2       HT       0.417000       1.00800           0
     61450 TIP3     13002    TIP3     OH2      OT      -0.834000       15.9994           0
     61451 TIP3     13002    TIP3     H1       HT       0.417000       1.00800           0
     61452 TIP3     13002    TIP3     H2       HT       0.417000       1.00800           0
     61453 TIP3     13003    TIP3     OH2      OT      -0.834000       15.9994           0
     61454 TIP3     13003    TIP3     H1       HT       0.417000       1.00800           0
     61455 TIP3     13003    TIP3     H2       HT       0.417000       1.00800           0
     61456 TIP3     13004    TIP3     OH2      OT      -0.834000       15.9994           0
     61457 TIP3     13004    TIP3     H1       HT       0.417000       1.00800           0
     61458 TIP3     13004    TIP3     H2       HT       0.417000       1.00800           0
     61459 TIP3     13005    TIP3     OH2      OT      -0.834000       15.9994           0
     61460 TIP3     13005    TIP3     H1       HT       0.417000       1.00800           0
     61461 TIP3     13005    TIP3     H2       HT       0.417000       1.00800           0
     61462 TIP3     13006    TIP3     OH2      OT      -0.834000       15.9994           0
     61463 TIP3     13006    TIP3     H1       HT       0.417000       1.00800           0
     61464 TIP3     13006    TIP3     H2       HT       0.417000       1.00800           0
     61465 TIP3     13007    TIP3     OH2      OT      -0.834000       15.9994           0
     61466 TIP3     13007    TIP3     H1       HT       0.417000       1.00800           0
     61467 TIP3     13007    TIP3     H2       HT       0.417000       1.00800           0
     61468 TIP3     13008    TIP3     OH2      OT      -0.834000       15.9994           0
     61469 TIP3     13008    TIP3     H1       HT       0.417000       1.00800           0
     61470 TIP3     13008    TIP3     H2       HT       0.417000       1.00800           0
     61471 TIP3     13009    TIP3     OH2      OT      -0.834000       15.9994           0
     61472 TIP3     13009    TIP3     H1       HT       0.417000       1.00800           0
     61473 TIP3     13009    TIP3     H2       HT       0.417000       1.00800           0
     61474 TIP3     13010    TIP3     OH2      OT      -0.834000       15.9994           0
     61475 TIP3     13010    TIP3     H1       HT       0.417000       1.00800           0
     61476 TIP3     13010    TIP3     H2       HT       0.417000       1.00800           0
     61477 TIP3     13011    TIP3     OH2      OT      -0.834000       15.9994           0
     61478 TIP3     13011    TIP3     H1       HT       0.417000       1.00800           0
     61479 TIP3     13011    TIP3     H2       HT       0.417000       1.00800           0
     61480 TIP3     13012    TIP3     OH2      OT      -0.834000       15.9994           0
     61481 TIP3     13012    TIP3     H1       HT       0.417000       1.00800           0
     61482 TIP3     13012    TIP3     H2       HT       0.417000       1.00800           0
     61483 TIP3     13013    TIP3     OH2      OT      -0.834000       15.9994           0
     61484 TIP3     13013    TIP3     H1       HT       0.417000       1.00800           0
     61485 TIP3     13013    TIP3     H2       HT       0.417000       1.00800           0
     61486 TIP3     13014    TIP3     OH2      OT      -0.834000       15.9994           0
     61487 TIP3     13014    TIP3     H1       HT       0.417000       1.00800           0
     61488 TIP3     13014    TIP3     H2       HT       0.417000       1.00800           0
     61489 TIP3     13015    TIP3     OH2      OT      -0.834000       15.9994           0
     61490 TIP3     13015    TIP3     H1       HT       0.417000       1.00800           0
     61491 TIP3     13015    TIP3     H2       HT       0.417000       1.00800           0
     61492 TIP3     13016    TIP3     OH2      OT      -0.834000       15.9994           0
     61493 TIP3     13016    TIP3     H1       HT       0.417000       1.00800           0
     61494 TIP3     13016    TIP3     H2       HT       0.417000       1.00800           0
     61495 TIP3     13017    TIP3     OH2      OT      -0.834000       15.9994           0
     61496 TIP3     13017    TIP3     H1       HT       0.417000       1.00800           0
     61497 TIP3     13017    TIP3     H2       HT       0.417000       1.00800           0
     61498 TIP3     13018    TIP3     OH2      OT      -0.834000       15.9994           0
     61499 TIP3     13018    TIP3     H1       HT       0.417000       1.00800           0
     61500 TIP3     13018    TIP3     H2       HT       0.417000       1.00800           0
     61501 TIP3     13019    TIP3     OH2      OT      -0.834000       15.9994           0
     61502 TIP3     13019    TIP3     H1       HT       0.417000       1.00800           0
     61503 TIP3     13019    TIP3     H2       HT       0.417000       1.00800           0
     61504 TIP3     13020    TIP3     OH2      OT      -0.834000       15.9994           0
     61505 TIP3     13020    TIP3     H1       HT       0.417000       1.00800           0
     61506 TIP3     13020    TIP3     H2       HT       0.417000       1.00800           0
     61507 TIP3     13021    TIP3     OH2      OT      -0.834000       15.9994           0
     61508 TIP3     13021    TIP3     H1       HT       0.417000       1.00800           0
     61509 TIP3     13021    TIP3     H2       HT       0.417000       1.00800           0
     61510 TIP3     13022    TIP3     OH2      OT      -0.834000       15.9994           0
     61511 TIP3     13022    TIP3     H1       HT       0.417000       1.00800           0
     61512 TIP3     13022    TIP3     H2       HT       0.417000       1.00800           0
     61513 TIP3     13023    TIP3     OH2      OT      -0.834000       15.9994           0
     61514 TIP3     13023    TIP3     H1       HT       0.417000       1.00800           0
     61515 TIP3     13023    TIP3     H2       HT       0.417000       1.00800           0
     61516 TIP3     13024    TIP3     OH2      OT      -0.834000       15.9994           0
     61517 TIP3     13024    TIP3     H1       HT       0.417000       1.00800           0
     61518 TIP3     13024    TIP3     H2       HT       0.417000       1.00800           0
     61519 TIP3     13025    TIP3     OH2      OT      -0.834000       15.9994           0
     61520 TIP3     13025    TIP3     H1       HT       0.417000       1.00800           0
     61521 TIP3     13025    TIP3     H2       HT       0.417000       1.00800           0
     61522 TIP3     13026    TIP3     OH2      OT      -0.834000       15.9994           0
     61523 TIP3     13026    TIP3     H1       HT       0.417000       1.00800           0
     61524 TIP3     13026    TIP3     H2       HT       0.417000       1.00800           0
     61525 TIP3     13027    TIP3     OH2      OT      -0.834000       15.9994           0
     61526 TIP3     13027    TIP3     H1       HT       0.417000       1.00800           0
     61527 TIP3     13027    TIP3     H2       HT       0.417000       1.00800           0
     61528 TIP3     13028    TIP3     OH2      OT      -0.834000       15.9994           0
     61529 TIP3     13028    TIP3     H1       HT       0.417000       1.00800           0
     61530 TIP3     13028    TIP3     H2       HT       0.417000       1.00800           0
     61531 TIP3     13029    TIP3     OH2      OT      -0.834000       15.9994           0
     61532 TIP3     13029    TIP3     H1       HT       0.417000       1.00800           0
     61533 TIP3     13029    TIP3     H2       HT       0.417000       1.00800           0
     61534 TIP3     13030    TIP3     OH2      OT      -0.834000       15.9994           0
     61535 TIP3     13030    TIP3     H1       HT       0.417000       1.00800           0
     61536 TIP3     13030    TIP3     H2       HT       0.417000       1.00800           0
     61537 TIP3     13031    TIP3     OH2      OT      -0.834000       15.9994           0
     61538 TIP3     13031    TIP3     H1       HT       0.417000       1.00800           0
     61539 TIP3     13031    TIP3     H2       HT       0.417000       1.00800           0
     61540 TIP3     13032    TIP3     OH2      OT      -0.834000       15.9994           0
     61541 TIP3     13032    TIP3     H1       HT       0.417000       1.00800           0
     61542 TIP3     13032    TIP3     H2       HT       0.417000       1.00800           0
     61543 TIP3     13033    TIP3     OH2      OT      -0.834000       15.9994           0
     61544 TIP3     13033    TIP3     H1       HT       0.417000       1.00800           0
     61545 TIP3     13033    TIP3     H2       HT       0.417000       1.00800           0
     61546 TIP3     13034    TIP3     OH2      OT      -0.834000       15.9994           0
     61547 TIP3     13034    TIP3     H1       HT       0.417000       1.00800           0
     61548 TIP3     13034    TIP3     H2       HT       0.417000       1.00800           0
     61549 TIP3     13035    TIP3     OH2      OT      -0.834000       15.9994           0
     61550 TIP3     13035    TIP3     H1       HT       0.417000       1.00800           0
     61551 TIP3     13035    TIP3     H2       HT       0.417000       1.00800           0
     61552 TIP3     13036    TIP3     OH2      OT      -0.834000       15.9994           0
     61553 TIP3     13036    TIP3     H1       HT       0.417000       1.00800           0
     61554 TIP3     13036    TIP3     H2       HT       0.417000       1.00800           0
     61555 TIP3     13037    TIP3     OH2      OT      -0.834000       15.9994           0
     61556 TIP3     13037    TIP3     H1       HT       0.417000       1.00800           0
     61557 TIP3     13037    TIP3     H2       HT       0.417000       1.00800           0
     61558 TIP3     13038    TIP3     OH2      OT      -0.834000       15.9994           0
     61559 TIP3     13038    TIP3     H1       HT       0.417000       1.00800           0
     61560 TIP3     13038    TIP3     H2       HT       0.417000       1.00800           0
     61561 TIP3     13039    TIP3     OH2      OT      -0.834000       15.9994           0
     61562 TIP3     13039    TIP3     H1       HT       0.417000       1.00800           0
     61563 TIP3     13039    TIP3     H2       HT       0.417000       1.00800           0
     61564 TIP3     13040    TIP3     OH2      OT      -0.834000       15.9994           0
     61565 TIP3     13040    TIP3     H1       HT       0.417000       1.00800           0
     61566 TIP3     13040    TIP3     H2       HT       0.417000       1.00800           0
     61567 TIP3     13041    TIP3     OH2      OT      -0.834000       15.9994           0
     61568 TIP3     13041    TIP3     H1       HT       0.417000       1.00800           0
     61569 TIP3     13041    TIP3     H2       HT       0.417000       1.00800           0
     61570 TIP3     13042    TIP3     OH2      OT      -0.834000       15.9994           0
     61571 TIP3     13042    TIP3     H1       HT       0.417000       1.00800           0
     61572 TIP3     13042    TIP3     H2       HT       0.417000       1.00800           0
     61573 TIP3     13043    TIP3     OH2      OT      -0.834000       15.9994           0
     61574 TIP3     13043    TIP3     H1       HT       0.417000       1.00800           0
     61575 TIP3     13043    TIP3     H2       HT       0.417000       1.00800           0
     61576 TIP3     13044    TIP3     OH2      OT      -0.834000       15.9994           0
     61577 TIP3     13044    TIP3     H1       HT       0.417000       1.00800           0
     61578 TIP3     13044    TIP3     H2       HT       0.417000       1.00800           0
     61579 TIP3     13045    TIP3     OH2      OT      -0.834000       15.9994           0
     61580 TIP3     13045    TIP3     H1       HT       0.417000       1.00800           0
     61581 TIP3     13045    TIP3     H2       HT       0.417000       1.00800           0
     61582 TIP3     13046    TIP3     OH2      OT      -0.834000       15.9994           0
     61583 TIP3     13046    TIP3     H1       HT       0.417000       1.00800           0
     61584 TIP3     13046    TIP3     H2       HT       0.417000       1.00800           0
     61585 TIP3     13047    TIP3     OH2      OT      -0.834000       15.9994           0
     61586 TIP3     13047    TIP3     H1       HT       0.417000       1.00800           0
     61587 TIP3     13047    TIP3     H2       HT       0.417000       1.00800           0
     61588 TIP3     13048    TIP3     OH2      OT      -0.834000       15.9994           0
     61589 TIP3     13048    TIP3     H1       HT       0.417000       1.00800           0
     61590 TIP3     13048    TIP3     H2       HT       0.417000       1.00800           0
     61591 TIP3     13049    TIP3     OH2      OT      -0.834000       15.9994           0
     61592 TIP3     13049    TIP3     H1       HT       0.417000       1.00800           0
     61593 TIP3     13049    TIP3     H2       HT       0.417000       1.00800           0
     61594 TIP3     13050    TIP3     OH2      OT      -0.834000       15.9994           0
     61595 TIP3     13050    TIP3     H1       HT       0.417000       1.00800           0
     61596 TIP3     13050    TIP3     H2       HT       0.417000       1.00800           0
     61597 TIP3     13051    TIP3     OH2      OT      -0.834000       15.9994           0
     61598 TIP3     13051    TIP3     H1       HT       0.417000       1.00800           0
     61599 TIP3     13051    TIP3     H2       HT       0.417000       1.00800           0
     61600 TIP3     13052    TIP3     OH2      OT      -0.834000       15.9994           0
     61601 TIP3     13052    TIP3     H1       HT       0.417000       1.00800           0
     61602 TIP3     13052    TIP3     H2       HT       0.417000       1.00800           0
     61603 TIP3     13053    TIP3     OH2      OT      -0.834000       15.9994           0
     61604 TIP3     13053    TIP3     H1       HT       0.417000       1.00800           0
     61605 TIP3     13053    TIP3     H2       HT       0.417000       1.00800           0
     61606 TIP3     13054    TIP3     OH2      OT      -0.834000       15.9994           0
     61607 TIP3     13054    TIP3     H1       HT       0.417000       1.00800           0
     61608 TIP3     13054    TIP3     H2       HT       0.417000       1.00800           0
     61609 TIP3     13055    TIP3     OH2      OT      -0.834000       15.9994           0
     61610 TIP3     13055    TIP3     H1       HT       0.417000       1.00800           0
     61611 TIP3     13055    TIP3     H2       HT       0.417000       1.00800           0
     61612 TIP3     13056    TIP3     OH2      OT      -0.834000       15.9994           0
     61613 TIP3     13056    TIP3     H1       HT       0.417000       1.00800           0
     61614 TIP3     13056    TIP3     H2       HT       0.417000       1.00800           0
     61615 TIP3     13057    TIP3     OH2      OT      -0.834000       15.9994           0
     61616 TIP3     13057    TIP3     H1       HT       0.417000       1.00800           0
     61617 TIP3     13057    TIP3     H2       HT       0.417000       1.00800           0
     61618 TIP3     13058    TIP3     OH2      OT      -0.834000       15.9994           0
     61619 TIP3     13058    TIP3     H1       HT       0.417000       1.00800           0
     61620 TIP3     13058    TIP3     H2       HT       0.417000       1.00800           0
     61621 TIP3     13059    TIP3     OH2      OT      -0.834000       15.9994           0
     61622 TIP3     13059    TIP3     H1       HT       0.417000       1.00800           0
     61623 TIP3     13059    TIP3     H2       HT       0.417000       1.00800           0
     61624 TIP3     13060    TIP3     OH2      OT      -0.834000       15.9994           0
     61625 TIP3     13060    TIP3     H1       HT       0.417000       1.00800           0
     61626 TIP3     13060    TIP3     H2       HT       0.417000       1.00800           0
     61627 TIP3     13061    TIP3     OH2      OT      -0.834000       15.9994           0
     61628 TIP3     13061    TIP3     H1       HT       0.417000       1.00800           0
     61629 TIP3     13061    TIP3     H2       HT       0.417000       1.00800           0
     61630 TIP3     13062    TIP3     OH2      OT      -0.834000       15.9994           0
     61631 TIP3     13062    TIP3     H1       HT       0.417000       1.00800           0
     61632 TIP3     13062    TIP3     H2       HT       0.417000       1.00800           0
     61633 TIP3     13063    TIP3     OH2      OT      -0.834000       15.9994           0
     61634 TIP3     13063    TIP3     H1       HT       0.417000       1.00800           0
     61635 TIP3     13063    TIP3     H2       HT       0.417000       1.00800           0
     61636 TIP3     13064    TIP3     OH2      OT      -0.834000       15.9994           0
     61637 TIP3     13064    TIP3     H1       HT       0.417000       1.00800           0
     61638 TIP3     13064    TIP3     H2       HT       0.417000       1.00800           0
     61639 TIP3     13065    TIP3     OH2      OT      -0.834000       15.9994           0
     61640 TIP3     13065    TIP3     H1       HT       0.417000       1.00800           0
     61641 TIP3     13065    TIP3     H2       HT       0.417000       1.00800           0
     61642 TIP3     13066    TIP3     OH2      OT      -0.834000       15.9994           0
     61643 TIP3     13066    TIP3     H1       HT       0.417000       1.00800           0
     61644 TIP3     13066    TIP3     H2       HT       0.417000       1.00800           0
     61645 TIP3     13067    TIP3     OH2      OT      -0.834000       15.9994           0
     61646 TIP3     13067    TIP3     H1       HT       0.417000       1.00800           0
     61647 TIP3     13067    TIP3     H2       HT       0.417000       1.00800           0
     61648 TIP3     13068    TIP3     OH2      OT      -0.834000       15.9994           0
     61649 TIP3     13068    TIP3     H1       HT       0.417000       1.00800           0
     61650 TIP3     13068    TIP3     H2       HT       0.417000       1.00800           0
     61651 TIP3     13069    TIP3     OH2      OT      -0.834000       15.9994           0
     61652 TIP3     13069    TIP3     H1       HT       0.417000       1.00800           0
     61653 TIP3     13069    TIP3     H2       HT       0.417000       1.00800           0
     61654 TIP3     13070    TIP3     OH2      OT      -0.834000       15.9994           0
     61655 TIP3     13070    TIP3     H1       HT       0.417000       1.00800           0
     61656 TIP3     13070    TIP3     H2       HT       0.417000       1.00800           0
     61657 TIP3     13071    TIP3     OH2      OT      -0.834000       15.9994           0
     61658 TIP3     13071    TIP3     H1       HT       0.417000       1.00800           0
     61659 TIP3     13071    TIP3     H2       HT       0.417000       1.00800           0
     61660 TIP3     13072    TIP3     OH2      OT      -0.834000       15.9994           0
     61661 TIP3     13072    TIP3     H1       HT       0.417000       1.00800           0
     61662 TIP3     13072    TIP3     H2       HT       0.417000       1.00800           0
     61663 TIP3     13073    TIP3     OH2      OT      -0.834000       15.9994           0
     61664 TIP3     13073    TIP3     H1       HT       0.417000       1.00800           0
     61665 TIP3     13073    TIP3     H2       HT       0.417000       1.00800           0
     61666 TIP3     13074    TIP3     OH2      OT      -0.834000       15.9994           0
     61667 TIP3     13074    TIP3     H1       HT       0.417000       1.00800           0
     61668 TIP3     13074    TIP3     H2       HT       0.417000       1.00800           0
     61669 TIP3     13075    TIP3     OH2      OT      -0.834000       15.9994           0
     61670 TIP3     13075    TIP3     H1       HT       0.417000       1.00800           0
     61671 TIP3     13075    TIP3     H2       HT       0.417000       1.00800           0
     61672 TIP3     13076    TIP3     OH2      OT      -0.834000       15.9994           0
     61673 TIP3     13076    TIP3     H1       HT       0.417000       1.00800           0
     61674 TIP3     13076    TIP3     H2       HT       0.417000       1.00800           0
     61675 TIP3     13077    TIP3     OH2      OT      -0.834000       15.9994           0
     61676 TIP3     13077    TIP3     H1       HT       0.417000       1.00800           0
     61677 TIP3     13077    TIP3     H2       HT       0.417000       1.00800           0
     61678 TIP3     13078    TIP3     OH2      OT      -0.834000       15.9994           0
     61679 TIP3     13078    TIP3     H1       HT       0.417000       1.00800           0
     61680 TIP3     13078    TIP3     H2       HT       0.417000       1.00800           0
     61681 TIP3     13079    TIP3     OH2      OT      -0.834000       15.9994           0
     61682 TIP3     13079    TIP3     H1       HT       0.417000       1.00800           0
     61683 TIP3     13079    TIP3     H2       HT       0.417000       1.00800           0
     61684 TIP3     13080    TIP3     OH2      OT      -0.834000       15.9994           0
     61685 TIP3     13080    TIP3     H1       HT       0.417000       1.00800           0
     61686 TIP3     13080    TIP3     H2       HT       0.417000       1.00800           0
     61687 TIP3     13081    TIP3     OH2      OT      -0.834000       15.9994           0
     61688 TIP3     13081    TIP3     H1       HT       0.417000       1.00800           0
     61689 TIP3     13081    TIP3     H2       HT       0.417000       1.00800           0
     61690 TIP3     13082    TIP3     OH2      OT      -0.834000       15.9994           0
     61691 TIP3     13082    TIP3     H1       HT       0.417000       1.00800           0
     61692 TIP3     13082    TIP3     H2       HT       0.417000       1.00800           0
     61693 TIP3     13083    TIP3     OH2      OT      -0.834000       15.9994           0
     61694 TIP3     13083    TIP3     H1       HT       0.417000       1.00800           0
     61695 TIP3     13083    TIP3     H2       HT       0.417000       1.00800           0
     61696 TIP3     13084    TIP3     OH2      OT      -0.834000       15.9994           0
     61697 TIP3     13084    TIP3     H1       HT       0.417000       1.00800           0
     61698 TIP3     13084    TIP3     H2       HT       0.417000       1.00800           0
     61699 TIP3     13085    TIP3     OH2      OT      -0.834000       15.9994           0
     61700 TIP3     13085    TIP3     H1       HT       0.417000       1.00800           0
     61701 TIP3     13085    TIP3     H2       HT       0.417000       1.00800           0
     61702 TIP3     13086    TIP3     OH2      OT      -0.834000       15.9994           0
     61703 TIP3     13086    TIP3     H1       HT       0.417000       1.00800           0
     61704 TIP3     13086    TIP3     H2       HT       0.417000       1.00800           0
     61705 TIP3     13087    TIP3     OH2      OT      -0.834000       15.9994           0
     61706 TIP3     13087    TIP3     H1       HT       0.417000       1.00800           0
     61707 TIP3     13087    TIP3     H2       HT       0.417000       1.00800           0
     61708 TIP3     13088    TIP3     OH2      OT      -0.834000       15.9994           0
     61709 TIP3     13088    TIP3     H1       HT       0.417000       1.00800           0
     61710 TIP3     13088    TIP3     H2       HT       0.417000       1.00800           0
     61711 TIP3     13089    TIP3     OH2      OT      -0.834000       15.9994           0
     61712 TIP3     13089    TIP3     H1       HT       0.417000       1.00800           0
     61713 TIP3     13089    TIP3     H2       HT       0.417000       1.00800           0
     61714 TIP3     13090    TIP3     OH2      OT      -0.834000       15.9994           0
     61715 TIP3     13090    TIP3     H1       HT       0.417000       1.00800           0
     61716 TIP3     13090    TIP3     H2       HT       0.417000       1.00800           0
     61717 TIP3     13091    TIP3     OH2      OT      -0.834000       15.9994           0
     61718 TIP3     13091    TIP3     H1       HT       0.417000       1.00800           0
     61719 TIP3     13091    TIP3     H2       HT       0.417000       1.00800           0
     61720 TIP3     13092    TIP3     OH2      OT      -0.834000       15.9994           0
     61721 TIP3     13092    TIP3     H1       HT       0.417000       1.00800           0
     61722 TIP3     13092    TIP3     H2       HT       0.417000       1.00800           0
     61723 TIP3     13093    TIP3     OH2      OT      -0.834000       15.9994           0
     61724 TIP3     13093    TIP3     H1       HT       0.417000       1.00800           0
     61725 TIP3     13093    TIP3     H2       HT       0.417000       1.00800           0
     61726 TIP3     13094    TIP3     OH2      OT      -0.834000       15.9994           0
     61727 TIP3     13094    TIP3     H1       HT       0.417000       1.00800           0
     61728 TIP3     13094    TIP3     H2       HT       0.417000       1.00800           0
     61729 TIP3     13095    TIP3     OH2      OT      -0.834000       15.9994           0
     61730 TIP3     13095    TIP3     H1       HT       0.417000       1.00800           0
     61731 TIP3     13095    TIP3     H2       HT       0.417000       1.00800           0
     61732 TIP3     13096    TIP3     OH2      OT      -0.834000       15.9994           0
     61733 TIP3     13096    TIP3     H1       HT       0.417000       1.00800           0
     61734 TIP3     13096    TIP3     H2       HT       0.417000       1.00800           0
     61735 TIP3     13097    TIP3     OH2      OT      -0.834000       15.9994           0
     61736 TIP3     13097    TIP3     H1       HT       0.417000       1.00800           0
     61737 TIP3     13097    TIP3     H2       HT       0.417000       1.00800           0
     61738 TIP3     13098    TIP3     OH2      OT      -0.834000       15.9994           0
     61739 TIP3     13098    TIP3     H1       HT       0.417000       1.00800           0
     61740 TIP3     13098    TIP3     H2       HT       0.417000       1.00800           0
     61741 TIP3     13099    TIP3     OH2      OT      -0.834000       15.9994           0
     61742 TIP3     13099    TIP3     H1       HT       0.417000       1.00800           0
     61743 TIP3     13099    TIP3     H2       HT       0.417000       1.00800           0
     61744 TIP3     13100    TIP3     OH2      OT      -0.834000       15.9994           0
     61745 TIP3     13100    TIP3     H1       HT       0.417000       1.00800           0
     61746 TIP3     13100    TIP3     H2       HT       0.417000       1.00800           0
     61747 TIP3     13101    TIP3     OH2      OT      -0.834000       15.9994           0
     61748 TIP3     13101    TIP3     H1       HT       0.417000       1.00800           0
     61749 TIP3     13101    TIP3     H2       HT       0.417000       1.00800           0
     61750 TIP3     13102    TIP3     OH2      OT      -0.834000       15.9994           0
     61751 TIP3     13102    TIP3     H1       HT       0.417000       1.00800           0
     61752 TIP3     13102    TIP3     H2       HT       0.417000       1.00800           0
     61753 TIP3     13103    TIP3     OH2      OT      -0.834000       15.9994           0
     61754 TIP3     13103    TIP3     H1       HT       0.417000       1.00800           0
     61755 TIP3     13103    TIP3     H2       HT       0.417000       1.00800           0
     61756 TIP3     13104    TIP3     OH2      OT      -0.834000       15.9994           0
     61757 TIP3     13104    TIP3     H1       HT       0.417000       1.00800           0
     61758 TIP3     13104    TIP3     H2       HT       0.417000       1.00800           0
     61759 TIP3     13105    TIP3     OH2      OT      -0.834000       15.9994           0
     61760 TIP3     13105    TIP3     H1       HT       0.417000       1.00800           0
     61761 TIP3     13105    TIP3     H2       HT       0.417000       1.00800           0
     61762 TIP3     13106    TIP3     OH2      OT      -0.834000       15.9994           0
     61763 TIP3     13106    TIP3     H1       HT       0.417000       1.00800           0
     61764 TIP3     13106    TIP3     H2       HT       0.417000       1.00800           0
     61765 TIP3     13107    TIP3     OH2      OT      -0.834000       15.9994           0
     61766 TIP3     13107    TIP3     H1       HT       0.417000       1.00800           0
     61767 TIP3     13107    TIP3     H2       HT       0.417000       1.00800           0
     61768 TIP3     13108    TIP3     OH2      OT      -0.834000       15.9994           0
     61769 TIP3     13108    TIP3     H1       HT       0.417000       1.00800           0
     61770 TIP3     13108    TIP3     H2       HT       0.417000       1.00800           0
     61771 TIP3     13109    TIP3     OH2      OT      -0.834000       15.9994           0
     61772 TIP3     13109    TIP3     H1       HT       0.417000       1.00800           0
     61773 TIP3     13109    TIP3     H2       HT       0.417000       1.00800           0
     61774 TIP3     13110    TIP3     OH2      OT      -0.834000       15.9994           0
     61775 TIP3     13110    TIP3     H1       HT       0.417000       1.00800           0
     61776 TIP3     13110    TIP3     H2       HT       0.417000       1.00800           0
     61777 TIP3     13111    TIP3     OH2      OT      -0.834000       15.9994           0
     61778 TIP3     13111    TIP3     H1       HT       0.417000       1.00800           0
     61779 TIP3     13111    TIP3     H2       HT       0.417000       1.00800           0
     61780 TIP3     13112    TIP3     OH2      OT      -0.834000       15.9994           0
     61781 TIP3     13112    TIP3     H1       HT       0.417000       1.00800           0
     61782 TIP3     13112    TIP3     H2       HT       0.417000       1.00800           0
     61783 TIP3     13113    TIP3     OH2      OT      -0.834000       15.9994           0
     61784 TIP3     13113    TIP3     H1       HT       0.417000       1.00800           0
     61785 TIP3     13113    TIP3     H2       HT       0.417000       1.00800           0
     61786 TIP3     13114    TIP3     OH2      OT      -0.834000       15.9994           0
     61787 TIP3     13114    TIP3     H1       HT       0.417000       1.00800           0
     61788 TIP3     13114    TIP3     H2       HT       0.417000       1.00800           0
     61789 TIP3     13115    TIP3     OH2      OT      -0.834000       15.9994           0
     61790 TIP3     13115    TIP3     H1       HT       0.417000       1.00800           0
     61791 TIP3     13115    TIP3     H2       HT       0.417000       1.00800           0
     61792 TIP3     13116    TIP3     OH2      OT      -0.834000       15.9994           0
     61793 TIP3     13116    TIP3     H1       HT       0.417000       1.00800           0
     61794 TIP3     13116    TIP3     H2       HT       0.417000       1.00800           0
     61795 TIP3     13117    TIP3     OH2      OT      -0.834000       15.9994           0
     61796 TIP3     13117    TIP3     H1       HT       0.417000       1.00800           0
     61797 TIP3     13117    TIP3     H2       HT       0.417000       1.00800           0
     61798 TIP3     13118    TIP3     OH2      OT      -0.834000       15.9994           0
     61799 TIP3     13118    TIP3     H1       HT       0.417000       1.00800           0
     61800 TIP3     13118    TIP3     H2       HT       0.417000       1.00800           0
     61801 TIP3     13119    TIP3     OH2      OT      -0.834000       15.9994           0
     61802 TIP3     13119    TIP3     H1       HT       0.417000       1.00800           0
     61803 TIP3     13119    TIP3     H2       HT       0.417000       1.00800           0
     61804 TIP3     13120    TIP3     OH2      OT      -0.834000       15.9994           0
     61805 TIP3     13120    TIP3     H1       HT       0.417000       1.00800           0
     61806 TIP3     13120    TIP3     H2       HT       0.417000       1.00800           0
     61807 TIP3     13121    TIP3     OH2      OT      -0.834000       15.9994           0
     61808 TIP3     13121    TIP3     H1       HT       0.417000       1.00800           0
     61809 TIP3     13121    TIP3     H2       HT       0.417000       1.00800           0
     61810 TIP3     13122    TIP3     OH2      OT      -0.834000       15.9994           0
     61811 TIP3     13122    TIP3     H1       HT       0.417000       1.00800           0
     61812 TIP3     13122    TIP3     H2       HT       0.417000       1.00800           0
     61813 TIP3     13123    TIP3     OH2      OT      -0.834000       15.9994           0
     61814 TIP3     13123    TIP3     H1       HT       0.417000       1.00800           0
     61815 TIP3     13123    TIP3     H2       HT       0.417000       1.00800           0
     61816 TIP3     13124    TIP3     OH2      OT      -0.834000       15.9994           0
     61817 TIP3     13124    TIP3     H1       HT       0.417000       1.00800           0
     61818 TIP3     13124    TIP3     H2       HT       0.417000       1.00800           0
     61819 TIP3     13125    TIP3     OH2      OT      -0.834000       15.9994           0
     61820 TIP3     13125    TIP3     H1       HT       0.417000       1.00800           0
     61821 TIP3     13125    TIP3     H2       HT       0.417000       1.00800           0
     61822 TIP3     13126    TIP3     OH2      OT      -0.834000       15.9994           0
     61823 TIP3     13126    TIP3     H1       HT       0.417000       1.00800           0
     61824 TIP3     13126    TIP3     H2       HT       0.417000       1.00800           0
     61825 TIP3     13127    TIP3     OH2      OT      -0.834000       15.9994           0
     61826 TIP3     13127    TIP3     H1       HT       0.417000       1.00800           0
     61827 TIP3     13127    TIP3     H2       HT       0.417000       1.00800           0
     61828 TIP3     13128    TIP3     OH2      OT      -0.834000       15.9994           0
     61829 TIP3     13128    TIP3     H1       HT       0.417000       1.00800           0
     61830 TIP3     13128    TIP3     H2       HT       0.417000       1.00800           0
     61831 TIP3     13129    TIP3     OH2      OT      -0.834000       15.9994           0
     61832 TIP3     13129    TIP3     H1       HT       0.417000       1.00800           0
     61833 TIP3     13129    TIP3     H2       HT       0.417000       1.00800           0
     61834 TIP3     13130    TIP3     OH2      OT      -0.834000       15.9994           0
     61835 TIP3     13130    TIP3     H1       HT       0.417000       1.00800           0
     61836 TIP3     13130    TIP3     H2       HT       0.417000       1.00800           0
     61837 TIP3     13131    TIP3     OH2      OT      -0.834000       15.9994           0
     61838 TIP3     13131    TIP3     H1       HT       0.417000       1.00800           0
     61839 TIP3     13131    TIP3     H2       HT       0.417000       1.00800           0
     61840 TIP3     13132    TIP3     OH2      OT      -0.834000       15.9994           0
     61841 TIP3     13132    TIP3     H1       HT       0.417000       1.00800           0
     61842 TIP3     13132    TIP3     H2       HT       0.417000       1.00800           0
     61843 TIP3     13133    TIP3     OH2      OT      -0.834000       15.9994           0
     61844 TIP3     13133    TIP3     H1       HT       0.417000       1.00800           0
     61845 TIP3     13133    TIP3     H2       HT       0.417000       1.00800           0
     61846 TIP3     13134    TIP3     OH2      OT      -0.834000       15.9994           0
     61847 TIP3     13134    TIP3     H1       HT       0.417000       1.00800           0
     61848 TIP3     13134    TIP3     H2       HT       0.417000       1.00800           0
     61849 TIP3     13135    TIP3     OH2      OT      -0.834000       15.9994           0
     61850 TIP3     13135    TIP3     H1       HT       0.417000       1.00800           0
     61851 TIP3     13135    TIP3     H2       HT       0.417000       1.00800           0
     61852 TIP3     13136    TIP3     OH2      OT      -0.834000       15.9994           0
     61853 TIP3     13136    TIP3     H1       HT       0.417000       1.00800           0
     61854 TIP3     13136    TIP3     H2       HT       0.417000       1.00800           0
     61855 TIP3     13137    TIP3     OH2      OT      -0.834000       15.9994           0
     61856 TIP3     13137    TIP3     H1       HT       0.417000       1.00800           0
     61857 TIP3     13137    TIP3     H2       HT       0.417000       1.00800           0
     61858 TIP3     13138    TIP3     OH2      OT      -0.834000       15.9994           0
     61859 TIP3     13138    TIP3     H1       HT       0.417000       1.00800           0
     61860 TIP3     13138    TIP3     H2       HT       0.417000       1.00800           0
     61861 TIP3     13139    TIP3     OH2      OT      -0.834000       15.9994           0
     61862 TIP3     13139    TIP3     H1       HT       0.417000       1.00800           0
     61863 TIP3     13139    TIP3     H2       HT       0.417000       1.00800           0
     61864 TIP3     13140    TIP3     OH2      OT      -0.834000       15.9994           0
     61865 TIP3     13140    TIP3     H1       HT       0.417000       1.00800           0
     61866 TIP3     13140    TIP3     H2       HT       0.417000       1.00800           0
     61867 TIP3     13141    TIP3     OH2      OT      -0.834000       15.9994           0
     61868 TIP3     13141    TIP3     H1       HT       0.417000       1.00800           0
     61869 TIP3     13141    TIP3     H2       HT       0.417000       1.00800           0
     61870 TIP3     13142    TIP3     OH2      OT      -0.834000       15.9994           0
     61871 TIP3     13142    TIP3     H1       HT       0.417000       1.00800           0
     61872 TIP3     13142    TIP3     H2       HT       0.417000       1.00800           0
     61873 TIP3     13143    TIP3     OH2      OT      -0.834000       15.9994           0
     61874 TIP3     13143    TIP3     H1       HT       0.417000       1.00800           0
     61875 TIP3     13143    TIP3     H2       HT       0.417000       1.00800           0
     61876 TIP3     13144    TIP3     OH2      OT      -0.834000       15.9994           0
     61877 TIP3     13144    TIP3     H1       HT       0.417000       1.00800           0
     61878 TIP3     13144    TIP3     H2       HT       0.417000       1.00800           0
     61879 TIP3     13145    TIP3     OH2      OT      -0.834000       15.9994           0
     61880 TIP3     13145    TIP3     H1       HT       0.417000       1.00800           0
     61881 TIP3     13145    TIP3     H2       HT       0.417000       1.00800           0
     61882 TIP3     13146    TIP3     OH2      OT      -0.834000       15.9994           0
     61883 TIP3     13146    TIP3     H1       HT       0.417000       1.00800           0
     61884 TIP3     13146    TIP3     H2       HT       0.417000       1.00800           0
     61885 TIP3     13147    TIP3     OH2      OT      -0.834000       15.9994           0
     61886 TIP3     13147    TIP3     H1       HT       0.417000       1.00800           0
     61887 TIP3     13147    TIP3     H2       HT       0.417000       1.00800           0
     61888 TIP3     13148    TIP3     OH2      OT      -0.834000       15.9994           0
     61889 TIP3     13148    TIP3     H1       HT       0.417000       1.00800           0
     61890 TIP3     13148    TIP3     H2       HT       0.417000       1.00800           0
     61891 TIP3     13149    TIP3     OH2      OT      -0.834000       15.9994           0
     61892 TIP3     13149    TIP3     H1       HT       0.417000       1.00800           0
     61893 TIP3     13149    TIP3     H2       HT       0.417000       1.00800           0
     61894 TIP3     13150    TIP3     OH2      OT      -0.834000       15.9994           0
     61895 TIP3     13150    TIP3     H1       HT       0.417000       1.00800           0
     61896 TIP3     13150    TIP3     H2       HT       0.417000       1.00800           0
     61897 TIP3     13151    TIP3     OH2      OT      -0.834000       15.9994           0
     61898 TIP3     13151    TIP3     H1       HT       0.417000       1.00800           0
     61899 TIP3     13151    TIP3     H2       HT       0.417000       1.00800           0
     61900 TIP3     13152    TIP3     OH2      OT      -0.834000       15.9994           0
     61901 TIP3     13152    TIP3     H1       HT       0.417000       1.00800           0
     61902 TIP3     13152    TIP3     H2       HT       0.417000       1.00800           0
     61903 TIP3     13153    TIP3     OH2      OT      -0.834000       15.9994           0
     61904 TIP3     13153    TIP3     H1       HT       0.417000       1.00800           0
     61905 TIP3     13153    TIP3     H2       HT       0.417000       1.00800           0
     61906 TIP3     13154    TIP3     OH2      OT      -0.834000       15.9994           0
     61907 TIP3     13154    TIP3     H1       HT       0.417000       1.00800           0
     61908 TIP3     13154    TIP3     H2       HT       0.417000       1.00800           0
     61909 TIP3     13155    TIP3     OH2      OT      -0.834000       15.9994           0
     61910 TIP3     13155    TIP3     H1       HT       0.417000       1.00800           0
     61911 TIP3     13155    TIP3     H2       HT       0.417000       1.00800           0
     61912 TIP3     13156    TIP3     OH2      OT      -0.834000       15.9994           0
     61913 TIP3     13156    TIP3     H1       HT       0.417000       1.00800           0
     61914 TIP3     13156    TIP3     H2       HT       0.417000       1.00800           0
     61915 TIP3     13157    TIP3     OH2      OT      -0.834000       15.9994           0
     61916 TIP3     13157    TIP3     H1       HT       0.417000       1.00800           0
     61917 TIP3     13157    TIP3     H2       HT       0.417000       1.00800           0
     61918 TIP3     13158    TIP3     OH2      OT      -0.834000       15.9994           0
     61919 TIP3     13158    TIP3     H1       HT       0.417000       1.00800           0
     61920 TIP3     13158    TIP3     H2       HT       0.417000       1.00800           0
     61921 TIP3     13159    TIP3     OH2      OT      -0.834000       15.9994           0
     61922 TIP3     13159    TIP3     H1       HT       0.417000       1.00800           0
     61923 TIP3     13159    TIP3     H2       HT       0.417000       1.00800           0
     61924 TIP3     13160    TIP3     OH2      OT      -0.834000       15.9994           0
     61925 TIP3     13160    TIP3     H1       HT       0.417000       1.00800           0
     61926 TIP3     13160    TIP3     H2       HT       0.417000       1.00800           0
     61927 TIP3     13161    TIP3     OH2      OT      -0.834000       15.9994           0
     61928 TIP3     13161    TIP3     H1       HT       0.417000       1.00800           0
     61929 TIP3     13161    TIP3     H2       HT       0.417000       1.00800           0
     61930 TIP3     13162    TIP3     OH2      OT      -0.834000       15.9994           0
     61931 TIP3     13162    TIP3     H1       HT       0.417000       1.00800           0
     61932 TIP3     13162    TIP3     H2       HT       0.417000       1.00800           0
     61933 TIP3     13163    TIP3     OH2      OT      -0.834000       15.9994           0
     61934 TIP3     13163    TIP3     H1       HT       0.417000       1.00800           0
     61935 TIP3     13163    TIP3     H2       HT       0.417000       1.00800           0
     61936 TIP3     13164    TIP3     OH2      OT      -0.834000       15.9994           0
     61937 TIP3     13164    TIP3     H1       HT       0.417000       1.00800           0
     61938 TIP3     13164    TIP3     H2       HT       0.417000       1.00800           0
     61939 TIP3     13165    TIP3     OH2      OT      -0.834000       15.9994           0
     61940 TIP3     13165    TIP3     H1       HT       0.417000       1.00800           0
     61941 TIP3     13165    TIP3     H2       HT       0.417000       1.00800           0
     61942 TIP3     13166    TIP3     OH2      OT      -0.834000       15.9994           0
     61943 TIP3     13166    TIP3     H1       HT       0.417000       1.00800           0
     61944 TIP3     13166    TIP3     H2       HT       0.417000       1.00800           0
     61945 TIP3     13167    TIP3     OH2      OT      -0.834000       15.9994           0
     61946 TIP3     13167    TIP3     H1       HT       0.417000       1.00800           0
     61947 TIP3     13167    TIP3     H2       HT       0.417000       1.00800           0
     61948 TIP3     13168    TIP3     OH2      OT      -0.834000       15.9994           0
     61949 TIP3     13168    TIP3     H1       HT       0.417000       1.00800           0
     61950 TIP3     13168    TIP3     H2       HT       0.417000       1.00800           0
     61951 TIP3     13169    TIP3     OH2      OT      -0.834000       15.9994           0
     61952 TIP3     13169    TIP3     H1       HT       0.417000       1.00800           0
     61953 TIP3     13169    TIP3     H2       HT       0.417000       1.00800           0
     61954 TIP3     13170    TIP3     OH2      OT      -0.834000       15.9994           0
     61955 TIP3     13170    TIP3     H1       HT       0.417000       1.00800           0
     61956 TIP3     13170    TIP3     H2       HT       0.417000       1.00800           0
     61957 TIP3     13171    TIP3     OH2      OT      -0.834000       15.9994           0
     61958 TIP3     13171    TIP3     H1       HT       0.417000       1.00800           0
     61959 TIP3     13171    TIP3     H2       HT       0.417000       1.00800           0
     61960 TIP3     13172    TIP3     OH2      OT      -0.834000       15.9994           0
     61961 TIP3     13172    TIP3     H1       HT       0.417000       1.00800           0
     61962 TIP3     13172    TIP3     H2       HT       0.417000       1.00800           0
     61963 TIP3     13173    TIP3     OH2      OT      -0.834000       15.9994           0
     61964 TIP3     13173    TIP3     H1       HT       0.417000       1.00800           0
     61965 TIP3     13173    TIP3     H2       HT       0.417000       1.00800           0
     61966 TIP3     13174    TIP3     OH2      OT      -0.834000       15.9994           0
     61967 TIP3     13174    TIP3     H1       HT       0.417000       1.00800           0
     61968 TIP3     13174    TIP3     H2       HT       0.417000       1.00800           0
     61969 TIP3     13175    TIP3     OH2      OT      -0.834000       15.9994           0
     61970 TIP3     13175    TIP3     H1       HT       0.417000       1.00800           0
     61971 TIP3     13175    TIP3     H2       HT       0.417000       1.00800           0
     61972 TIP3     13176    TIP3     OH2      OT      -0.834000       15.9994           0
     61973 TIP3     13176    TIP3     H1       HT       0.417000       1.00800           0
     61974 TIP3     13176    TIP3     H2       HT       0.417000       1.00800           0
     61975 TIP3     13177    TIP3     OH2      OT      -0.834000       15.9994           0
     61976 TIP3     13177    TIP3     H1       HT       0.417000       1.00800           0
     61977 TIP3     13177    TIP3     H2       HT       0.417000       1.00800           0
     61978 TIP3     13178    TIP3     OH2      OT      -0.834000       15.9994           0
     61979 TIP3     13178    TIP3     H1       HT       0.417000       1.00800           0
     61980 TIP3     13178    TIP3     H2       HT       0.417000       1.00800           0
     61981 TIP3     13179    TIP3     OH2      OT      -0.834000       15.9994           0
     61982 TIP3     13179    TIP3     H1       HT       0.417000       1.00800           0
     61983 TIP3     13179    TIP3     H2       HT       0.417000       1.00800           0
     61984 TIP3     13180    TIP3     OH2      OT      -0.834000       15.9994           0
     61985 TIP3     13180    TIP3     H1       HT       0.417000       1.00800           0
     61986 TIP3     13180    TIP3     H2       HT       0.417000       1.00800           0
     61987 TIP3     13181    TIP3     OH2      OT      -0.834000       15.9994           0
     61988 TIP3     13181    TIP3     H1       HT       0.417000       1.00800           0
     61989 TIP3     13181    TIP3     H2       HT       0.417000       1.00800           0
     61990 TIP3     13182    TIP3     OH2      OT      -0.834000       15.9994           0
     61991 TIP3     13182    TIP3     H1       HT       0.417000       1.00800           0
     61992 TIP3     13182    TIP3     H2       HT       0.417000       1.00800           0
     61993 TIP3     13183    TIP3     OH2      OT      -0.834000       15.9994           0
     61994 TIP3     13183    TIP3     H1       HT       0.417000       1.00800           0
     61995 TIP3     13183    TIP3     H2       HT       0.417000       1.00800           0
     61996 TIP3     13184    TIP3     OH2      OT      -0.834000       15.9994           0
     61997 TIP3     13184    TIP3     H1       HT       0.417000       1.00800           0
     61998 TIP3     13184    TIP3     H2       HT       0.417000       1.00800           0
     61999 TIP3     13185    TIP3     OH2      OT      -0.834000       15.9994           0
     62000 TIP3     13185    TIP3     H1       HT       0.417000       1.00800           0
     62001 TIP3     13185    TIP3     H2       HT       0.417000       1.00800           0
     62002 TIP3     13186    TIP3     OH2      OT      -0.834000       15.9994           0
     62003 TIP3     13186    TIP3     H1       HT       0.417000       1.00800           0
     62004 TIP3     13186    TIP3     H2       HT       0.417000       1.00800           0
     62005 TIP3     13187    TIP3     OH2      OT      -0.834000       15.9994           0
     62006 TIP3     13187    TIP3     H1       HT       0.417000       1.00800           0
     62007 TIP3     13187    TIP3     H2       HT       0.417000       1.00800           0
     62008 TIP3     13188    TIP3     OH2      OT      -0.834000       15.9994           0
     62009 TIP3     13188    TIP3     H1       HT       0.417000       1.00800           0
     62010 TIP3     13188    TIP3     H2       HT       0.417000       1.00800           0
     62011 TIP3     13189    TIP3     OH2      OT      -0.834000       15.9994           0
     62012 TIP3     13189    TIP3     H1       HT       0.417000       1.00800           0
     62013 TIP3     13189    TIP3     H2       HT       0.417000       1.00800           0
     62014 TIP3     13190    TIP3     OH2      OT      -0.834000       15.9994           0
     62015 TIP3     13190    TIP3     H1       HT       0.417000       1.00800           0
     62016 TIP3     13190    TIP3     H2       HT       0.417000       1.00800           0
     62017 TIP3     13191    TIP3     OH2      OT      -0.834000       15.9994           0
     62018 TIP3     13191    TIP3     H1       HT       0.417000       1.00800           0
     62019 TIP3     13191    TIP3     H2       HT       0.417000       1.00800           0
     62020 TIP3     13192    TIP3     OH2      OT      -0.834000       15.9994           0
     62021 TIP3     13192    TIP3     H1       HT       0.417000       1.00800           0
     62022 TIP3     13192    TIP3     H2       HT       0.417000       1.00800           0
     62023 TIP3     13193    TIP3     OH2      OT      -0.834000       15.9994           0
     62024 TIP3     13193    TIP3     H1       HT       0.417000       1.00800           0
     62025 TIP3     13193    TIP3     H2       HT       0.417000       1.00800           0
     62026 TIP3     13194    TIP3     OH2      OT      -0.834000       15.9994           0
     62027 TIP3     13194    TIP3     H1       HT       0.417000       1.00800           0
     62028 TIP3     13194    TIP3     H2       HT       0.417000       1.00800           0
     62029 TIP3     13195    TIP3     OH2      OT      -0.834000       15.9994           0
     62030 TIP3     13195    TIP3     H1       HT       0.417000       1.00800           0
     62031 TIP3     13195    TIP3     H2       HT       0.417000       1.00800           0
     62032 TIP3     13196    TIP3     OH2      OT      -0.834000       15.9994           0
     62033 TIP3     13196    TIP3     H1       HT       0.417000       1.00800           0
     62034 TIP3     13196    TIP3     H2       HT       0.417000       1.00800           0
     62035 TIP3     13197    TIP3     OH2      OT      -0.834000       15.9994           0
     62036 TIP3     13197    TIP3     H1       HT       0.417000       1.00800           0
     62037 TIP3     13197    TIP3     H2       HT       0.417000       1.00800           0
     62038 TIP3     13198    TIP3     OH2      OT      -0.834000       15.9994           0
     62039 TIP3     13198    TIP3     H1       HT       0.417000       1.00800           0
     62040 TIP3     13198    TIP3     H2       HT       0.417000       1.00800           0
     62041 TIP3     13199    TIP3     OH2      OT      -0.834000       15.9994           0
     62042 TIP3     13199    TIP3     H1       HT       0.417000       1.00800           0
     62043 TIP3     13199    TIP3     H2       HT       0.417000       1.00800           0
     62044 TIP3     13200    TIP3     OH2      OT      -0.834000       15.9994           0
     62045 TIP3     13200    TIP3     H1       HT       0.417000       1.00800           0
     62046 TIP3     13200    TIP3     H2       HT       0.417000       1.00800           0
     62047 TIP3     13201    TIP3     OH2      OT      -0.834000       15.9994           0
     62048 TIP3     13201    TIP3     H1       HT       0.417000       1.00800           0
     62049 TIP3     13201    TIP3     H2       HT       0.417000       1.00800           0
     62050 TIP3     13202    TIP3     OH2      OT      -0.834000       15.9994           0
     62051 TIP3     13202    TIP3     H1       HT       0.417000       1.00800           0
     62052 TIP3     13202    TIP3     H2       HT       0.417000       1.00800           0
     62053 TIP3     13203    TIP3     OH2      OT      -0.834000       15.9994           0
     62054 TIP3     13203    TIP3     H1       HT       0.417000       1.00800           0
     62055 TIP3     13203    TIP3     H2       HT       0.417000       1.00800           0
     62056 TIP3     13204    TIP3     OH2      OT      -0.834000       15.9994           0
     62057 TIP3     13204    TIP3     H1       HT       0.417000       1.00800           0
     62058 TIP3     13204    TIP3     H2       HT       0.417000       1.00800           0
     62059 TIP3     13205    TIP3     OH2      OT      -0.834000       15.9994           0
     62060 TIP3     13205    TIP3     H1       HT       0.417000       1.00800           0
     62061 TIP3     13205    TIP3     H2       HT       0.417000       1.00800           0
     62062 TIP3     13206    TIP3     OH2      OT      -0.834000       15.9994           0
     62063 TIP3     13206    TIP3     H1       HT       0.417000       1.00800           0
     62064 TIP3     13206    TIP3     H2       HT       0.417000       1.00800           0
     62065 TIP3     13207    TIP3     OH2      OT      -0.834000       15.9994           0
     62066 TIP3     13207    TIP3     H1       HT       0.417000       1.00800           0
     62067 TIP3     13207    TIP3     H2       HT       0.417000       1.00800           0
     62068 TIP3     13208    TIP3     OH2      OT      -0.834000       15.9994           0
     62069 TIP3     13208    TIP3     H1       HT       0.417000       1.00800           0
     62070 TIP3     13208    TIP3     H2       HT       0.417000       1.00800           0
     62071 TIP3     13209    TIP3     OH2      OT      -0.834000       15.9994           0
     62072 TIP3     13209    TIP3     H1       HT       0.417000       1.00800           0
     62073 TIP3     13209    TIP3     H2       HT       0.417000       1.00800           0
     62074 TIP3     13210    TIP3     OH2      OT      -0.834000       15.9994           0
     62075 TIP3     13210    TIP3     H1       HT       0.417000       1.00800           0
     62076 TIP3     13210    TIP3     H2       HT       0.417000       1.00800           0
     62077 TIP3     13211    TIP3     OH2      OT      -0.834000       15.9994           0
     62078 TIP3     13211    TIP3     H1       HT       0.417000       1.00800           0
     62079 TIP3     13211    TIP3     H2       HT       0.417000       1.00800           0
     62080 TIP3     13212    TIP3     OH2      OT      -0.834000       15.9994           0
     62081 TIP3     13212    TIP3     H1       HT       0.417000       1.00800           0
     62082 TIP3     13212    TIP3     H2       HT       0.417000       1.00800           0
     62083 TIP3     13213    TIP3     OH2      OT      -0.834000       15.9994           0
     62084 TIP3     13213    TIP3     H1       HT       0.417000       1.00800           0
     62085 TIP3     13213    TIP3     H2       HT       0.417000       1.00800           0
     62086 TIP3     13214    TIP3     OH2      OT      -0.834000       15.9994           0
     62087 TIP3     13214    TIP3     H1       HT       0.417000       1.00800           0
     62088 TIP3     13214    TIP3     H2       HT       0.417000       1.00800           0
     62089 TIP3     13215    TIP3     OH2      OT      -0.834000       15.9994           0
     62090 TIP3     13215    TIP3     H1       HT       0.417000       1.00800           0
     62091 TIP3     13215    TIP3     H2       HT       0.417000       1.00800           0
     62092 TIP3     13216    TIP3     OH2      OT      -0.834000       15.9994           0
     62093 TIP3     13216    TIP3     H1       HT       0.417000       1.00800           0
     62094 TIP3     13216    TIP3     H2       HT       0.417000       1.00800           0
     62095 TIP3     13217    TIP3     OH2      OT      -0.834000       15.9994           0
     62096 TIP3     13217    TIP3     H1       HT       0.417000       1.00800           0
     62097 TIP3     13217    TIP3     H2       HT       0.417000       1.00800           0
     62098 TIP3     13218    TIP3     OH2      OT      -0.834000       15.9994           0
     62099 TIP3     13218    TIP3     H1       HT       0.417000       1.00800           0
     62100 TIP3     13218    TIP3     H2       HT       0.417000       1.00800           0
     62101 TIP3     13219    TIP3     OH2      OT      -0.834000       15.9994           0
     62102 TIP3     13219    TIP3     H1       HT       0.417000       1.00800           0
     62103 TIP3     13219    TIP3     H2       HT       0.417000       1.00800           0
     62104 TIP3     13220    TIP3     OH2      OT      -0.834000       15.9994           0
     62105 TIP3     13220    TIP3     H1       HT       0.417000       1.00800           0
     62106 TIP3     13220    TIP3     H2       HT       0.417000       1.00800           0
     62107 TIP3     13221    TIP3     OH2      OT      -0.834000       15.9994           0
     62108 TIP3     13221    TIP3     H1       HT       0.417000       1.00800           0
     62109 TIP3     13221    TIP3     H2       HT       0.417000       1.00800           0
     62110 TIP3     13222    TIP3     OH2      OT      -0.834000       15.9994           0
     62111 TIP3     13222    TIP3     H1       HT       0.417000       1.00800           0
     62112 TIP3     13222    TIP3     H2       HT       0.417000       1.00800           0
     62113 TIP3     13223    TIP3     OH2      OT      -0.834000       15.9994           0
     62114 TIP3     13223    TIP3     H1       HT       0.417000       1.00800           0
     62115 TIP3     13223    TIP3     H2       HT       0.417000       1.00800           0
     62116 TIP3     13224    TIP3     OH2      OT      -0.834000       15.9994           0
     62117 TIP3     13224    TIP3     H1       HT       0.417000       1.00800           0
     62118 TIP3     13224    TIP3     H2       HT       0.417000       1.00800           0
     62119 TIP3     13225    TIP3     OH2      OT      -0.834000       15.9994           0
     62120 TIP3     13225    TIP3     H1       HT       0.417000       1.00800           0
     62121 TIP3     13225    TIP3     H2       HT       0.417000       1.00800           0
     62122 TIP3     13226    TIP3     OH2      OT      -0.834000       15.9994           0
     62123 TIP3     13226    TIP3     H1       HT       0.417000       1.00800           0
     62124 TIP3     13226    TIP3     H2       HT       0.417000       1.00800           0
     62125 TIP3     13227    TIP3     OH2      OT      -0.834000       15.9994           0
     62126 TIP3     13227    TIP3     H1       HT       0.417000       1.00800           0
     62127 TIP3     13227    TIP3     H2       HT       0.417000       1.00800           0
     62128 TIP3     13228    TIP3     OH2      OT      -0.834000       15.9994           0
     62129 TIP3     13228    TIP3     H1       HT       0.417000       1.00800           0
     62130 TIP3     13228    TIP3     H2       HT       0.417000       1.00800           0
     62131 TIP3     13229    TIP3     OH2      OT      -0.834000       15.9994           0
     62132 TIP3     13229    TIP3     H1       HT       0.417000       1.00800           0
     62133 TIP3     13229    TIP3     H2       HT       0.417000       1.00800           0
     62134 TIP3     13230    TIP3     OH2      OT      -0.834000       15.9994           0
     62135 TIP3     13230    TIP3     H1       HT       0.417000       1.00800           0
     62136 TIP3     13230    TIP3     H2       HT       0.417000       1.00800           0
     62137 TIP3     13231    TIP3     OH2      OT      -0.834000       15.9994           0
     62138 TIP3     13231    TIP3     H1       HT       0.417000       1.00800           0
     62139 TIP3     13231    TIP3     H2       HT       0.417000       1.00800           0
     62140 TIP3     13232    TIP3     OH2      OT      -0.834000       15.9994           0
     62141 TIP3     13232    TIP3     H1       HT       0.417000       1.00800           0
     62142 TIP3     13232    TIP3     H2       HT       0.417000       1.00800           0
     62143 TIP3     13233    TIP3     OH2      OT      -0.834000       15.9994           0
     62144 TIP3     13233    TIP3     H1       HT       0.417000       1.00800           0
     62145 TIP3     13233    TIP3     H2       HT       0.417000       1.00800           0
     62146 TIP3     13234    TIP3     OH2      OT      -0.834000       15.9994           0
     62147 TIP3     13234    TIP3     H1       HT       0.417000       1.00800           0
     62148 TIP3     13234    TIP3     H2       HT       0.417000       1.00800           0
     62149 TIP3     13235    TIP3     OH2      OT      -0.834000       15.9994           0
     62150 TIP3     13235    TIP3     H1       HT       0.417000       1.00800           0
     62151 TIP3     13235    TIP3     H2       HT       0.417000       1.00800           0
     62152 TIP3     13236    TIP3     OH2      OT      -0.834000       15.9994           0
     62153 TIP3     13236    TIP3     H1       HT       0.417000       1.00800           0
     62154 TIP3     13236    TIP3     H2       HT       0.417000       1.00800           0
     62155 TIP3     13237    TIP3     OH2      OT      -0.834000       15.9994           0
     62156 TIP3     13237    TIP3     H1       HT       0.417000       1.00800           0
     62157 TIP3     13237    TIP3     H2       HT       0.417000       1.00800           0
     62158 TIP3     13238    TIP3     OH2      OT      -0.834000       15.9994           0
     62159 TIP3     13238    TIP3     H1       HT       0.417000       1.00800           0
     62160 TIP3     13238    TIP3     H2       HT       0.417000       1.00800           0
     62161 TIP3     13239    TIP3     OH2      OT      -0.834000       15.9994           0
     62162 TIP3     13239    TIP3     H1       HT       0.417000       1.00800           0
     62163 TIP3     13239    TIP3     H2       HT       0.417000       1.00800           0
     62164 TIP3     13240    TIP3     OH2      OT      -0.834000       15.9994           0
     62165 TIP3     13240    TIP3     H1       HT       0.417000       1.00800           0
     62166 TIP3     13240    TIP3     H2       HT       0.417000       1.00800           0
     62167 TIP3     13241    TIP3     OH2      OT      -0.834000       15.9994           0
     62168 TIP3     13241    TIP3     H1       HT       0.417000       1.00800           0
     62169 TIP3     13241    TIP3     H2       HT       0.417000       1.00800           0
     62170 TIP3     13242    TIP3     OH2      OT      -0.834000       15.9994           0
     62171 TIP3     13242    TIP3     H1       HT       0.417000       1.00800           0
     62172 TIP3     13242    TIP3     H2       HT       0.417000       1.00800           0
     62173 TIP3     13243    TIP3     OH2      OT      -0.834000       15.9994           0
     62174 TIP3     13243    TIP3     H1       HT       0.417000       1.00800           0
     62175 TIP3     13243    TIP3     H2       HT       0.417000       1.00800           0
     62176 TIP3     13244    TIP3     OH2      OT      -0.834000       15.9994           0
     62177 TIP3     13244    TIP3     H1       HT       0.417000       1.00800           0
     62178 TIP3     13244    TIP3     H2       HT       0.417000       1.00800           0
     62179 TIP3     13245    TIP3     OH2      OT      -0.834000       15.9994           0
     62180 TIP3     13245    TIP3     H1       HT       0.417000       1.00800           0
     62181 TIP3     13245    TIP3     H2       HT       0.417000       1.00800           0
     62182 TIP3     13246    TIP3     OH2      OT      -0.834000       15.9994           0
     62183 TIP3     13246    TIP3     H1       HT       0.417000       1.00800           0
     62184 TIP3     13246    TIP3     H2       HT       0.417000       1.00800           0
     62185 TIP3     13247    TIP3     OH2      OT      -0.834000       15.9994           0
     62186 TIP3     13247    TIP3     H1       HT       0.417000       1.00800           0
     62187 TIP3     13247    TIP3     H2       HT       0.417000       1.00800           0
     62188 TIP3     13248    TIP3     OH2      OT      -0.834000       15.9994           0
     62189 TIP3     13248    TIP3     H1       HT       0.417000       1.00800           0
     62190 TIP3     13248    TIP3     H2       HT       0.417000       1.00800           0
     62191 TIP3     13249    TIP3     OH2      OT      -0.834000       15.9994           0
     62192 TIP3     13249    TIP3     H1       HT       0.417000       1.00800           0
     62193 TIP3     13249    TIP3     H2       HT       0.417000       1.00800           0
     62194 TIP3     13250    TIP3     OH2      OT      -0.834000       15.9994           0
     62195 TIP3     13250    TIP3     H1       HT       0.417000       1.00800           0
     62196 TIP3     13250    TIP3     H2       HT       0.417000       1.00800           0
     62197 TIP3     13251    TIP3     OH2      OT      -0.834000       15.9994           0
     62198 TIP3     13251    TIP3     H1       HT       0.417000       1.00800           0
     62199 TIP3     13251    TIP3     H2       HT       0.417000       1.00800           0
     62200 TIP3     13252    TIP3     OH2      OT      -0.834000       15.9994           0
     62201 TIP3     13252    TIP3     H1       HT       0.417000       1.00800           0
     62202 TIP3     13252    TIP3     H2       HT       0.417000       1.00800           0
     62203 TIP3     13253    TIP3     OH2      OT      -0.834000       15.9994           0
     62204 TIP3     13253    TIP3     H1       HT       0.417000       1.00800           0
     62205 TIP3     13253    TIP3     H2       HT       0.417000       1.00800           0
     62206 TIP3     13254    TIP3     OH2      OT      -0.834000       15.9994           0
     62207 TIP3     13254    TIP3     H1       HT       0.417000       1.00800           0
     62208 TIP3     13254    TIP3     H2       HT       0.417000       1.00800           0
     62209 TIP3     13255    TIP3     OH2      OT      -0.834000       15.9994           0
     62210 TIP3     13255    TIP3     H1       HT       0.417000       1.00800           0
     62211 TIP3     13255    TIP3     H2       HT       0.417000       1.00800           0
     62212 TIP3     13256    TIP3     OH2      OT      -0.834000       15.9994           0
     62213 TIP3     13256    TIP3     H1       HT       0.417000       1.00800           0
     62214 TIP3     13256    TIP3     H2       HT       0.417000       1.00800           0
     62215 TIP3     13257    TIP3     OH2      OT      -0.834000       15.9994           0
     62216 TIP3     13257    TIP3     H1       HT       0.417000       1.00800           0
     62217 TIP3     13257    TIP3     H2       HT       0.417000       1.00800           0
     62218 TIP3     13258    TIP3     OH2      OT      -0.834000       15.9994           0
     62219 TIP3     13258    TIP3     H1       HT       0.417000       1.00800           0
     62220 TIP3     13258    TIP3     H2       HT       0.417000       1.00800           0
     62221 TIP3     13259    TIP3     OH2      OT      -0.834000       15.9994           0
     62222 TIP3     13259    TIP3     H1       HT       0.417000       1.00800           0
     62223 TIP3     13259    TIP3     H2       HT       0.417000       1.00800           0
     62224 TIP3     13260    TIP3     OH2      OT      -0.834000       15.9994           0
     62225 TIP3     13260    TIP3     H1       HT       0.417000       1.00800           0
     62226 TIP3     13260    TIP3     H2       HT       0.417000       1.00800           0
     62227 TIP3     13261    TIP3     OH2      OT      -0.834000       15.9994           0
     62228 TIP3     13261    TIP3     H1       HT       0.417000       1.00800           0
     62229 TIP3     13261    TIP3     H2       HT       0.417000       1.00800           0
     62230 TIP3     13262    TIP3     OH2      OT      -0.834000       15.9994           0
     62231 TIP3     13262    TIP3     H1       HT       0.417000       1.00800           0
     62232 TIP3     13262    TIP3     H2       HT       0.417000       1.00800           0
     62233 TIP3     13263    TIP3     OH2      OT      -0.834000       15.9994           0
     62234 TIP3     13263    TIP3     H1       HT       0.417000       1.00800           0
     62235 TIP3     13263    TIP3     H2       HT       0.417000       1.00800           0
     62236 TIP3     13264    TIP3     OH2      OT      -0.834000       15.9994           0
     62237 TIP3     13264    TIP3     H1       HT       0.417000       1.00800           0
     62238 TIP3     13264    TIP3     H2       HT       0.417000       1.00800           0
     62239 TIP3     13265    TIP3     OH2      OT      -0.834000       15.9994           0
     62240 TIP3     13265    TIP3     H1       HT       0.417000       1.00800           0
     62241 TIP3     13265    TIP3     H2       HT       0.417000       1.00800           0
     62242 TIP3     13266    TIP3     OH2      OT      -0.834000       15.9994           0
     62243 TIP3     13266    TIP3     H1       HT       0.417000       1.00800           0
     62244 TIP3     13266    TIP3     H2       HT       0.417000       1.00800           0
     62245 TIP3     13267    TIP3     OH2      OT      -0.834000       15.9994           0
     62246 TIP3     13267    TIP3     H1       HT       0.417000       1.00800           0
     62247 TIP3     13267    TIP3     H2       HT       0.417000       1.00800           0
     62248 TIP3     13268    TIP3     OH2      OT      -0.834000       15.9994           0
     62249 TIP3     13268    TIP3     H1       HT       0.417000       1.00800           0
     62250 TIP3     13268    TIP3     H2       HT       0.417000       1.00800           0
     62251 TIP3     13269    TIP3     OH2      OT      -0.834000       15.9994           0
     62252 TIP3     13269    TIP3     H1       HT       0.417000       1.00800           0
     62253 TIP3     13269    TIP3     H2       HT       0.417000       1.00800           0
     62254 TIP3     13270    TIP3     OH2      OT      -0.834000       15.9994           0
     62255 TIP3     13270    TIP3     H1       HT       0.417000       1.00800           0
     62256 TIP3     13270    TIP3     H2       HT       0.417000       1.00800           0
     62257 TIP3     13271    TIP3     OH2      OT      -0.834000       15.9994           0
     62258 TIP3     13271    TIP3     H1       HT       0.417000       1.00800           0
     62259 TIP3     13271    TIP3     H2       HT       0.417000       1.00800           0
     62260 TIP3     13272    TIP3     OH2      OT      -0.834000       15.9994           0
     62261 TIP3     13272    TIP3     H1       HT       0.417000       1.00800           0
     62262 TIP3     13272    TIP3     H2       HT       0.417000       1.00800           0
     62263 TIP3     13273    TIP3     OH2      OT      -0.834000       15.9994           0
     62264 TIP3     13273    TIP3     H1       HT       0.417000       1.00800           0
     62265 TIP3     13273    TIP3     H2       HT       0.417000       1.00800           0
     62266 TIP3     13274    TIP3     OH2      OT      -0.834000       15.9994           0
     62267 TIP3     13274    TIP3     H1       HT       0.417000       1.00800           0
     62268 TIP3     13274    TIP3     H2       HT       0.417000       1.00800           0
     62269 TIP3     13275    TIP3     OH2      OT      -0.834000       15.9994           0
     62270 TIP3     13275    TIP3     H1       HT       0.417000       1.00800           0
     62271 TIP3     13275    TIP3     H2       HT       0.417000       1.00800           0
     62272 TIP3     13276    TIP3     OH2      OT      -0.834000       15.9994           0
     62273 TIP3     13276    TIP3     H1       HT       0.417000       1.00800           0
     62274 TIP3     13276    TIP3     H2       HT       0.417000       1.00800           0
     62275 TIP3     13277    TIP3     OH2      OT      -0.834000       15.9994           0
     62276 TIP3     13277    TIP3     H1       HT       0.417000       1.00800           0
     62277 TIP3     13277    TIP3     H2       HT       0.417000       1.00800           0
     62278 TIP3     13278    TIP3     OH2      OT      -0.834000       15.9994           0
     62279 TIP3     13278    TIP3     H1       HT       0.417000       1.00800           0
     62280 TIP3     13278    TIP3     H2       HT       0.417000       1.00800           0
     62281 TIP3     13279    TIP3     OH2      OT      -0.834000       15.9994           0
     62282 TIP3     13279    TIP3     H1       HT       0.417000       1.00800           0
     62283 TIP3     13279    TIP3     H2       HT       0.417000       1.00800           0
     62284 TIP3     13280    TIP3     OH2      OT      -0.834000       15.9994           0
     62285 TIP3     13280    TIP3     H1       HT       0.417000       1.00800           0
     62286 TIP3     13280    TIP3     H2       HT       0.417000       1.00800           0
     62287 TIP3     13281    TIP3     OH2      OT      -0.834000       15.9994           0
     62288 TIP3     13281    TIP3     H1       HT       0.417000       1.00800           0
     62289 TIP3     13281    TIP3     H2       HT       0.417000       1.00800           0
     62290 TIP3     13282    TIP3     OH2      OT      -0.834000       15.9994           0
     62291 TIP3     13282    TIP3     H1       HT       0.417000       1.00800           0
     62292 TIP3     13282    TIP3     H2       HT       0.417000       1.00800           0
     62293 TIP3     13283    TIP3     OH2      OT      -0.834000       15.9994           0
     62294 TIP3     13283    TIP3     H1       HT       0.417000       1.00800           0
     62295 TIP3     13283    TIP3     H2       HT       0.417000       1.00800           0
     62296 TIP3     13284    TIP3     OH2      OT      -0.834000       15.9994           0
     62297 TIP3     13284    TIP3     H1       HT       0.417000       1.00800           0
     62298 TIP3     13284    TIP3     H2       HT       0.417000       1.00800           0
     62299 TIP3     13285    TIP3     OH2      OT      -0.834000       15.9994           0
     62300 TIP3     13285    TIP3     H1       HT       0.417000       1.00800           0
     62301 TIP3     13285    TIP3     H2       HT       0.417000       1.00800           0
     62302 TIP3     13286    TIP3     OH2      OT      -0.834000       15.9994           0
     62303 TIP3     13286    TIP3     H1       HT       0.417000       1.00800           0
     62304 TIP3     13286    TIP3     H2       HT       0.417000       1.00800           0
     62305 TIP3     13287    TIP3     OH2      OT      -0.834000       15.9994           0
     62306 TIP3     13287    TIP3     H1       HT       0.417000       1.00800           0
     62307 TIP3     13287    TIP3     H2       HT       0.417000       1.00800           0
     62308 TIP3     13288    TIP3     OH2      OT      -0.834000       15.9994           0
     62309 TIP3     13288    TIP3     H1       HT       0.417000       1.00800           0
     62310 TIP3     13288    TIP3     H2       HT       0.417000       1.00800           0
     62311 TIP3     13289    TIP3     OH2      OT      -0.834000       15.9994           0
     62312 TIP3     13289    TIP3     H1       HT       0.417000       1.00800           0
     62313 TIP3     13289    TIP3     H2       HT       0.417000       1.00800           0
     62314 TIP3     13290    TIP3     OH2      OT      -0.834000       15.9994           0
     62315 TIP3     13290    TIP3     H1       HT       0.417000       1.00800           0
     62316 TIP3     13290    TIP3     H2       HT       0.417000       1.00800           0
     62317 TIP3     13291    TIP3     OH2      OT      -0.834000       15.9994           0
     62318 TIP3     13291    TIP3     H1       HT       0.417000       1.00800           0
     62319 TIP3     13291    TIP3     H2       HT       0.417000       1.00800           0
     62320 TIP3     13292    TIP3     OH2      OT      -0.834000       15.9994           0
     62321 TIP3     13292    TIP3     H1       HT       0.417000       1.00800           0
     62322 TIP3     13292    TIP3     H2       HT       0.417000       1.00800           0
     62323 TIP3     13293    TIP3     OH2      OT      -0.834000       15.9994           0
     62324 TIP3     13293    TIP3     H1       HT       0.417000       1.00800           0
     62325 TIP3     13293    TIP3     H2       HT       0.417000       1.00800           0
     62326 TIP3     13294    TIP3     OH2      OT      -0.834000       15.9994           0
     62327 TIP3     13294    TIP3     H1       HT       0.417000       1.00800           0
     62328 TIP3     13294    TIP3     H2       HT       0.417000       1.00800           0
     62329 TIP3     13295    TIP3     OH2      OT      -0.834000       15.9994           0
     62330 TIP3     13295    TIP3     H1       HT       0.417000       1.00800           0
     62331 TIP3     13295    TIP3     H2       HT       0.417000       1.00800           0
     62332 TIP3     13296    TIP3     OH2      OT      -0.834000       15.9994           0
     62333 TIP3     13296    TIP3     H1       HT       0.417000       1.00800           0
     62334 TIP3     13296    TIP3     H2       HT       0.417000       1.00800           0
     62335 TIP3     13297    TIP3     OH2      OT      -0.834000       15.9994           0
     62336 TIP3     13297    TIP3     H1       HT       0.417000       1.00800           0
     62337 TIP3     13297    TIP3     H2       HT       0.417000       1.00800           0
     62338 TIP3     13298    TIP3     OH2      OT      -0.834000       15.9994           0
     62339 TIP3     13298    TIP3     H1       HT       0.417000       1.00800           0
     62340 TIP3     13298    TIP3     H2       HT       0.417000       1.00800           0
     62341 TIP3     13299    TIP3     OH2      OT      -0.834000       15.9994           0
     62342 TIP3     13299    TIP3     H1       HT       0.417000       1.00800           0
     62343 TIP3     13299    TIP3     H2       HT       0.417000       1.00800           0
     62344 TIP3     13300    TIP3     OH2      OT      -0.834000       15.9994           0
     62345 TIP3     13300    TIP3     H1       HT       0.417000       1.00800           0
     62346 TIP3     13300    TIP3     H2       HT       0.417000       1.00800           0
     62347 TIP3     13301    TIP3     OH2      OT      -0.834000       15.9994           0
     62348 TIP3     13301    TIP3     H1       HT       0.417000       1.00800           0
     62349 TIP3     13301    TIP3     H2       HT       0.417000       1.00800           0
     62350 TIP3     13302    TIP3     OH2      OT      -0.834000       15.9994           0
     62351 TIP3     13302    TIP3     H1       HT       0.417000       1.00800           0
     62352 TIP3     13302    TIP3     H2       HT       0.417000       1.00800           0
     62353 TIP3     13303    TIP3     OH2      OT      -0.834000       15.9994           0
     62354 TIP3     13303    TIP3     H1       HT       0.417000       1.00800           0
     62355 TIP3     13303    TIP3     H2       HT       0.417000       1.00800           0
     62356 TIP3     13304    TIP3     OH2      OT      -0.834000       15.9994           0
     62357 TIP3     13304    TIP3     H1       HT       0.417000       1.00800           0
     62358 TIP3     13304    TIP3     H2       HT       0.417000       1.00800           0
     62359 TIP3     13305    TIP3     OH2      OT      -0.834000       15.9994           0
     62360 TIP3     13305    TIP3     H1       HT       0.417000       1.00800           0
     62361 TIP3     13305    TIP3     H2       HT       0.417000       1.00800           0
     62362 TIP3     13306    TIP3     OH2      OT      -0.834000       15.9994           0
     62363 TIP3     13306    TIP3     H1       HT       0.417000       1.00800           0
     62364 TIP3     13306    TIP3     H2       HT       0.417000       1.00800           0
     62365 TIP3     13307    TIP3     OH2      OT      -0.834000       15.9994           0
     62366 TIP3     13307    TIP3     H1       HT       0.417000       1.00800           0
     62367 TIP3     13307    TIP3     H2       HT       0.417000       1.00800           0
     62368 TIP3     13308    TIP3     OH2      OT      -0.834000       15.9994           0
     62369 TIP3     13308    TIP3     H1       HT       0.417000       1.00800           0
     62370 TIP3     13308    TIP3     H2       HT       0.417000       1.00800           0
     62371 TIP3     13309    TIP3     OH2      OT      -0.834000       15.9994           0
     62372 TIP3     13309    TIP3     H1       HT       0.417000       1.00800           0
     62373 TIP3     13309    TIP3     H2       HT       0.417000       1.00800           0
     62374 TIP3     13310    TIP3     OH2      OT      -0.834000       15.9994           0
     62375 TIP3     13310    TIP3     H1       HT       0.417000       1.00800           0
     62376 TIP3     13310    TIP3     H2       HT       0.417000       1.00800           0
     62377 TIP3     13311    TIP3     OH2      OT      -0.834000       15.9994           0
     62378 TIP3     13311    TIP3     H1       HT       0.417000       1.00800           0
     62379 TIP3     13311    TIP3     H2       HT       0.417000       1.00800           0
     62380 TIP3     13312    TIP3     OH2      OT      -0.834000       15.9994           0
     62381 TIP3     13312    TIP3     H1       HT       0.417000       1.00800           0
     62382 TIP3     13312    TIP3     H2       HT       0.417000       1.00800           0
     62383 TIP3     13313    TIP3     OH2      OT      -0.834000       15.9994           0
     62384 TIP3     13313    TIP3     H1       HT       0.417000       1.00800           0
     62385 TIP3     13313    TIP3     H2       HT       0.417000       1.00800           0
     62386 TIP3     13314    TIP3     OH2      OT      -0.834000       15.9994           0
     62387 TIP3     13314    TIP3     H1       HT       0.417000       1.00800           0
     62388 TIP3     13314    TIP3     H2       HT       0.417000       1.00800           0
     62389 TIP3     13315    TIP3     OH2      OT      -0.834000       15.9994           0
     62390 TIP3     13315    TIP3     H1       HT       0.417000       1.00800           0
     62391 TIP3     13315    TIP3     H2       HT       0.417000       1.00800           0
     62392 TIP3     13316    TIP3     OH2      OT      -0.834000       15.9994           0
     62393 TIP3     13316    TIP3     H1       HT       0.417000       1.00800           0
     62394 TIP3     13316    TIP3     H2       HT       0.417000       1.00800           0
     62395 TIP3     13317    TIP3     OH2      OT      -0.834000       15.9994           0
     62396 TIP3     13317    TIP3     H1       HT       0.417000       1.00800           0
     62397 TIP3     13317    TIP3     H2       HT       0.417000       1.00800           0
     62398 TIP3     13318    TIP3     OH2      OT      -0.834000       15.9994           0
     62399 TIP3     13318    TIP3     H1       HT       0.417000       1.00800           0
     62400 TIP3     13318    TIP3     H2       HT       0.417000       1.00800           0
     62401 TIP3     13319    TIP3     OH2      OT      -0.834000       15.9994           0
     62402 TIP3     13319    TIP3     H1       HT       0.417000       1.00800           0
     62403 TIP3     13319    TIP3     H2       HT       0.417000       1.00800           0
     62404 TIP3     13320    TIP3     OH2      OT      -0.834000       15.9994           0
     62405 TIP3     13320    TIP3     H1       HT       0.417000       1.00800           0
     62406 TIP3     13320    TIP3     H2       HT       0.417000       1.00800           0
     62407 TIP3     13321    TIP3     OH2      OT      -0.834000       15.9994           0
     62408 TIP3     13321    TIP3     H1       HT       0.417000       1.00800           0
     62409 TIP3     13321    TIP3     H2       HT       0.417000       1.00800           0
     62410 TIP3     13322    TIP3     OH2      OT      -0.834000       15.9994           0
     62411 TIP3     13322    TIP3     H1       HT       0.417000       1.00800           0
     62412 TIP3     13322    TIP3     H2       HT       0.417000       1.00800           0
     62413 TIP3     13323    TIP3     OH2      OT      -0.834000       15.9994           0
     62414 TIP3     13323    TIP3     H1       HT       0.417000       1.00800           0
     62415 TIP3     13323    TIP3     H2       HT       0.417000       1.00800           0
     62416 TIP3     13324    TIP3     OH2      OT      -0.834000       15.9994           0
     62417 TIP3     13324    TIP3     H1       HT       0.417000       1.00800           0
     62418 TIP3     13324    TIP3     H2       HT       0.417000       1.00800           0
     62419 TIP3     13325    TIP3     OH2      OT      -0.834000       15.9994           0
     62420 TIP3     13325    TIP3     H1       HT       0.417000       1.00800           0
     62421 TIP3     13325    TIP3     H2       HT       0.417000       1.00800           0
     62422 TIP3     13326    TIP3     OH2      OT      -0.834000       15.9994           0
     62423 TIP3     13326    TIP3     H1       HT       0.417000       1.00800           0
     62424 TIP3     13326    TIP3     H2       HT       0.417000       1.00800           0
     62425 TIP3     13327    TIP3     OH2      OT      -0.834000       15.9994           0
     62426 TIP3     13327    TIP3     H1       HT       0.417000       1.00800           0
     62427 TIP3     13327    TIP3     H2       HT       0.417000       1.00800           0
     62428 TIP3     13328    TIP3     OH2      OT      -0.834000       15.9994           0
     62429 TIP3     13328    TIP3     H1       HT       0.417000       1.00800           0
     62430 TIP3     13328    TIP3     H2       HT       0.417000       1.00800           0
     62431 TIP3     13329    TIP3     OH2      OT      -0.834000       15.9994           0
     62432 TIP3     13329    TIP3     H1       HT       0.417000       1.00800           0
     62433 TIP3     13329    TIP3     H2       HT       0.417000       1.00800           0
     62434 TIP3     13330    TIP3     OH2      OT      -0.834000       15.9994           0
     62435 TIP3     13330    TIP3     H1       HT       0.417000       1.00800           0
     62436 TIP3     13330    TIP3     H2       HT       0.417000       1.00800           0
     62437 TIP3     13331    TIP3     OH2      OT      -0.834000       15.9994           0
     62438 TIP3     13331    TIP3     H1       HT       0.417000       1.00800           0
     62439 TIP3     13331    TIP3     H2       HT       0.417000       1.00800           0
     62440 TIP3     13332    TIP3     OH2      OT      -0.834000       15.9994           0
     62441 TIP3     13332    TIP3     H1       HT       0.417000       1.00800           0
     62442 TIP3     13332    TIP3     H2       HT       0.417000       1.00800           0
     62443 TIP3     13333    TIP3     OH2      OT      -0.834000       15.9994           0
     62444 TIP3     13333    TIP3     H1       HT       0.417000       1.00800           0
     62445 TIP3     13333    TIP3     H2       HT       0.417000       1.00800           0
     62446 TIP3     13334    TIP3     OH2      OT      -0.834000       15.9994           0
     62447 TIP3     13334    TIP3     H1       HT       0.417000       1.00800           0
     62448 TIP3     13334    TIP3     H2       HT       0.417000       1.00800           0
     62449 TIP3     13335    TIP3     OH2      OT      -0.834000       15.9994           0
     62450 TIP3     13335    TIP3     H1       HT       0.417000       1.00800           0
     62451 TIP3     13335    TIP3     H2       HT       0.417000       1.00800           0
     62452 TIP3     13336    TIP3     OH2      OT      -0.834000       15.9994           0
     62453 TIP3     13336    TIP3     H1       HT       0.417000       1.00800           0
     62454 TIP3     13336    TIP3     H2       HT       0.417000       1.00800           0
     62455 TIP3     13337    TIP3     OH2      OT      -0.834000       15.9994           0
     62456 TIP3     13337    TIP3     H1       HT       0.417000       1.00800           0
     62457 TIP3     13337    TIP3     H2       HT       0.417000       1.00800           0
     62458 TIP3     13338    TIP3     OH2      OT      -0.834000       15.9994           0
     62459 TIP3     13338    TIP3     H1       HT       0.417000       1.00800           0
     62460 TIP3     13338    TIP3     H2       HT       0.417000       1.00800           0
     62461 TIP3     13339    TIP3     OH2      OT      -0.834000       15.9994           0
     62462 TIP3     13339    TIP3     H1       HT       0.417000       1.00800           0
     62463 TIP3     13339    TIP3     H2       HT       0.417000       1.00800           0
     62464 TIP3     13340    TIP3     OH2      OT      -0.834000       15.9994           0
     62465 TIP3     13340    TIP3     H1       HT       0.417000       1.00800           0
     62466 TIP3     13340    TIP3     H2       HT       0.417000       1.00800           0
     62467 TIP3     13341    TIP3     OH2      OT      -0.834000       15.9994           0
     62468 TIP3     13341    TIP3     H1       HT       0.417000       1.00800           0
     62469 TIP3     13341    TIP3     H2       HT       0.417000       1.00800           0
     62470 TIP3     13342    TIP3     OH2      OT      -0.834000       15.9994           0
     62471 TIP3     13342    TIP3     H1       HT       0.417000       1.00800           0
     62472 TIP3     13342    TIP3     H2       HT       0.417000       1.00800           0
     62473 TIP3     13343    TIP3     OH2      OT      -0.834000       15.9994           0
     62474 TIP3     13343    TIP3     H1       HT       0.417000       1.00800           0
     62475 TIP3     13343    TIP3     H2       HT       0.417000       1.00800           0
     62476 TIP3     13344    TIP3     OH2      OT      -0.834000       15.9994           0
     62477 TIP3     13344    TIP3     H1       HT       0.417000       1.00800           0
     62478 TIP3     13344    TIP3     H2       HT       0.417000       1.00800           0
     62479 TIP3     13345    TIP3     OH2      OT      -0.834000       15.9994           0
     62480 TIP3     13345    TIP3     H1       HT       0.417000       1.00800           0
     62481 TIP3     13345    TIP3     H2       HT       0.417000       1.00800           0
     62482 TIP3     13346    TIP3     OH2      OT      -0.834000       15.9994           0
     62483 TIP3     13346    TIP3     H1       HT       0.417000       1.00800           0
     62484 TIP3     13346    TIP3     H2       HT       0.417000       1.00800           0
     62485 TIP3     13347    TIP3     OH2      OT      -0.834000       15.9994           0
     62486 TIP3     13347    TIP3     H1       HT       0.417000       1.00800           0
     62487 TIP3     13347    TIP3     H2       HT       0.417000       1.00800           0
     62488 TIP3     13348    TIP3     OH2      OT      -0.834000       15.9994           0
     62489 TIP3     13348    TIP3     H1       HT       0.417000       1.00800           0
     62490 TIP3     13348    TIP3     H2       HT       0.417000       1.00800           0
     62491 TIP3     13349    TIP3     OH2      OT      -0.834000       15.9994           0
     62492 TIP3     13349    TIP3     H1       HT       0.417000       1.00800           0
     62493 TIP3     13349    TIP3     H2       HT       0.417000       1.00800           0
     62494 TIP3     13350    TIP3     OH2      OT      -0.834000       15.9994           0
     62495 TIP3     13350    TIP3     H1       HT       0.417000       1.00800           0
     62496 TIP3     13350    TIP3     H2       HT       0.417000       1.00800           0
     62497 TIP3     13351    TIP3     OH2      OT      -0.834000       15.9994           0
     62498 TIP3     13351    TIP3     H1       HT       0.417000       1.00800           0
     62499 TIP3     13351    TIP3     H2       HT       0.417000       1.00800           0
     62500 TIP3     13352    TIP3     OH2      OT      -0.834000       15.9994           0
     62501 TIP3     13352    TIP3     H1       HT       0.417000       1.00800           0
     62502 TIP3     13352    TIP3     H2       HT       0.417000       1.00800           0
     62503 TIP3     13353    TIP3     OH2      OT      -0.834000       15.9994           0
     62504 TIP3     13353    TIP3     H1       HT       0.417000       1.00800           0
     62505 TIP3     13353    TIP3     H2       HT       0.417000       1.00800           0
     62506 TIP3     13354    TIP3     OH2      OT      -0.834000       15.9994           0
     62507 TIP3     13354    TIP3     H1       HT       0.417000       1.00800           0
     62508 TIP3     13354    TIP3     H2       HT       0.417000       1.00800           0
     62509 TIP3     13355    TIP3     OH2      OT      -0.834000       15.9994           0
     62510 TIP3     13355    TIP3     H1       HT       0.417000       1.00800           0
     62511 TIP3     13355    TIP3     H2       HT       0.417000       1.00800           0
     62512 TIP3     13356    TIP3     OH2      OT      -0.834000       15.9994           0
     62513 TIP3     13356    TIP3     H1       HT       0.417000       1.00800           0
     62514 TIP3     13356    TIP3     H2       HT       0.417000       1.00800           0
     62515 TIP3     13357    TIP3     OH2      OT      -0.834000       15.9994           0
     62516 TIP3     13357    TIP3     H1       HT       0.417000       1.00800           0
     62517 TIP3     13357    TIP3     H2       HT       0.417000       1.00800           0
     62518 TIP3     13358    TIP3     OH2      OT      -0.834000       15.9994           0
     62519 TIP3     13358    TIP3     H1       HT       0.417000       1.00800           0
     62520 TIP3     13358    TIP3     H2       HT       0.417000       1.00800           0
     62521 TIP3     13359    TIP3     OH2      OT      -0.834000       15.9994           0
     62522 TIP3     13359    TIP3     H1       HT       0.417000       1.00800           0
     62523 TIP3     13359    TIP3     H2       HT       0.417000       1.00800           0
     62524 TIP3     13360    TIP3     OH2      OT      -0.834000       15.9994           0
     62525 TIP3     13360    TIP3     H1       HT       0.417000       1.00800           0
     62526 TIP3     13360    TIP3     H2       HT       0.417000       1.00800           0
     62527 TIP3     13361    TIP3     OH2      OT      -0.834000       15.9994           0
     62528 TIP3     13361    TIP3     H1       HT       0.417000       1.00800           0
     62529 TIP3     13361    TIP3     H2       HT       0.417000       1.00800           0
     62530 TIP3     13362    TIP3     OH2      OT      -0.834000       15.9994           0
     62531 TIP3     13362    TIP3     H1       HT       0.417000       1.00800           0
     62532 TIP3     13362    TIP3     H2       HT       0.417000       1.00800           0
     62533 TIP3     13363    TIP3     OH2      OT      -0.834000       15.9994           0
     62534 TIP3     13363    TIP3     H1       HT       0.417000       1.00800           0
     62535 TIP3     13363    TIP3     H2       HT       0.417000       1.00800           0
     62536 TIP3     13364    TIP3     OH2      OT      -0.834000       15.9994           0
     62537 TIP3     13364    TIP3     H1       HT       0.417000       1.00800           0
     62538 TIP3     13364    TIP3     H2       HT       0.417000       1.00800           0
     62539 TIP3     13365    TIP3     OH2      OT      -0.834000       15.9994           0
     62540 TIP3     13365    TIP3     H1       HT       0.417000       1.00800           0
     62541 TIP3     13365    TIP3     H2       HT       0.417000       1.00800           0
     62542 TIP3     13366    TIP3     OH2      OT      -0.834000       15.9994           0
     62543 TIP3     13366    TIP3     H1       HT       0.417000       1.00800           0
     62544 TIP3     13366    TIP3     H2       HT       0.417000       1.00800           0
     62545 TIP3     13367    TIP3     OH2      OT      -0.834000       15.9994           0
     62546 TIP3     13367    TIP3     H1       HT       0.417000       1.00800           0
     62547 TIP3     13367    TIP3     H2       HT       0.417000       1.00800           0
     62548 TIP3     13368    TIP3     OH2      OT      -0.834000       15.9994           0
     62549 TIP3     13368    TIP3     H1       HT       0.417000       1.00800           0
     62550 TIP3     13368    TIP3     H2       HT       0.417000       1.00800           0
     62551 TIP3     13369    TIP3     OH2      OT      -0.834000       15.9994           0
     62552 TIP3     13369    TIP3     H1       HT       0.417000       1.00800           0
     62553 TIP3     13369    TIP3     H2       HT       0.417000       1.00800           0
     62554 TIP3     13370    TIP3     OH2      OT      -0.834000       15.9994           0
     62555 TIP3     13370    TIP3     H1       HT       0.417000       1.00800           0
     62556 TIP3     13370    TIP3     H2       HT       0.417000       1.00800           0
     62557 TIP3     13371    TIP3     OH2      OT      -0.834000       15.9994           0
     62558 TIP3     13371    TIP3     H1       HT       0.417000       1.00800           0
     62559 TIP3     13371    TIP3     H2       HT       0.417000       1.00800           0
     62560 TIP3     13372    TIP3     OH2      OT      -0.834000       15.9994           0
     62561 TIP3     13372    TIP3     H1       HT       0.417000       1.00800           0
     62562 TIP3     13372    TIP3     H2       HT       0.417000       1.00800           0
     62563 TIP3     13373    TIP3     OH2      OT      -0.834000       15.9994           0
     62564 TIP3     13373    TIP3     H1       HT       0.417000       1.00800           0
     62565 TIP3     13373    TIP3     H2       HT       0.417000       1.00800           0
     62566 TIP3     13374    TIP3     OH2      OT      -0.834000       15.9994           0
     62567 TIP3     13374    TIP3     H1       HT       0.417000       1.00800           0
     62568 TIP3     13374    TIP3     H2       HT       0.417000       1.00800           0
     62569 TIP3     13375    TIP3     OH2      OT      -0.834000       15.9994           0
     62570 TIP3     13375    TIP3     H1       HT       0.417000       1.00800           0
     62571 TIP3     13375    TIP3     H2       HT       0.417000       1.00800           0
     62572 TIP3     13376    TIP3     OH2      OT      -0.834000       15.9994           0
     62573 TIP3     13376    TIP3     H1       HT       0.417000       1.00800           0
     62574 TIP3     13376    TIP3     H2       HT       0.417000       1.00800           0
     62575 TIP3     13377    TIP3     OH2      OT      -0.834000       15.9994           0
     62576 TIP3     13377    TIP3     H1       HT       0.417000       1.00800           0
     62577 TIP3     13377    TIP3     H2       HT       0.417000       1.00800           0
     62578 TIP3     13378    TIP3     OH2      OT      -0.834000       15.9994           0
     62579 TIP3     13378    TIP3     H1       HT       0.417000       1.00800           0
     62580 TIP3     13378    TIP3     H2       HT       0.417000       1.00800           0
     62581 TIP3     13379    TIP3     OH2      OT      -0.834000       15.9994           0
     62582 TIP3     13379    TIP3     H1       HT       0.417000       1.00800           0
     62583 TIP3     13379    TIP3     H2       HT       0.417000       1.00800           0
     62584 TIP3     13380    TIP3     OH2      OT      -0.834000       15.9994           0
     62585 TIP3     13380    TIP3     H1       HT       0.417000       1.00800           0
     62586 TIP3     13380    TIP3     H2       HT       0.417000       1.00800           0
     62587 TIP3     13381    TIP3     OH2      OT      -0.834000       15.9994           0
     62588 TIP3     13381    TIP3     H1       HT       0.417000       1.00800           0
     62589 TIP3     13381    TIP3     H2       HT       0.417000       1.00800           0
     62590 TIP3     13382    TIP3     OH2      OT      -0.834000       15.9994           0
     62591 TIP3     13382    TIP3     H1       HT       0.417000       1.00800           0
     62592 TIP3     13382    TIP3     H2       HT       0.417000       1.00800           0
     62593 TIP3     13383    TIP3     OH2      OT      -0.834000       15.9994           0
     62594 TIP3     13383    TIP3     H1       HT       0.417000       1.00800           0
     62595 TIP3     13383    TIP3     H2       HT       0.417000       1.00800           0
     62596 TIP3     13384    TIP3     OH2      OT      -0.834000       15.9994           0
     62597 TIP3     13384    TIP3     H1       HT       0.417000       1.00800           0
     62598 TIP3     13384    TIP3     H2       HT       0.417000       1.00800           0
     62599 TIP3     13385    TIP3     OH2      OT      -0.834000       15.9994           0
     62600 TIP3     13385    TIP3     H1       HT       0.417000       1.00800           0
     62601 TIP3     13385    TIP3     H2       HT       0.417000       1.00800           0
     62602 TIP3     13386    TIP3     OH2      OT      -0.834000       15.9994           0
     62603 TIP3     13386    TIP3     H1       HT       0.417000       1.00800           0
     62604 TIP3     13386    TIP3     H2       HT       0.417000       1.00800           0
     62605 TIP3     13387    TIP3     OH2      OT      -0.834000       15.9994           0
     62606 TIP3     13387    TIP3     H1       HT       0.417000       1.00800           0
     62607 TIP3     13387    TIP3     H2       HT       0.417000       1.00800           0
     62608 TIP3     13388    TIP3     OH2      OT      -0.834000       15.9994           0
     62609 TIP3     13388    TIP3     H1       HT       0.417000       1.00800           0
     62610 TIP3     13388    TIP3     H2       HT       0.417000       1.00800           0
     62611 TIP3     13389    TIP3     OH2      OT      -0.834000       15.9994           0
     62612 TIP3     13389    TIP3     H1       HT       0.417000       1.00800           0
     62613 TIP3     13389    TIP3     H2       HT       0.417000       1.00800           0
     62614 TIP3     13390    TIP3     OH2      OT      -0.834000       15.9994           0
     62615 TIP3     13390    TIP3     H1       HT       0.417000       1.00800           0
     62616 TIP3     13390    TIP3     H2       HT       0.417000       1.00800           0
     62617 TIP3     13391    TIP3     OH2      OT      -0.834000       15.9994           0
     62618 TIP3     13391    TIP3     H1       HT       0.417000       1.00800           0
     62619 TIP3     13391    TIP3     H2       HT       0.417000       1.00800           0
     62620 TIP3     13392    TIP3     OH2      OT      -0.834000       15.9994           0
     62621 TIP3     13392    TIP3     H1       HT       0.417000       1.00800           0
     62622 TIP3     13392    TIP3     H2       HT       0.417000       1.00800           0
     62623 TIP3     13393    TIP3     OH2      OT      -0.834000       15.9994           0
     62624 TIP3     13393    TIP3     H1       HT       0.417000       1.00800           0
     62625 TIP3     13393    TIP3     H2       HT       0.417000       1.00800           0
     62626 TIP3     13394    TIP3     OH2      OT      -0.834000       15.9994           0
     62627 TIP3     13394    TIP3     H1       HT       0.417000       1.00800           0
     62628 TIP3     13394    TIP3     H2       HT       0.417000       1.00800           0
     62629 TIP3     13395    TIP3     OH2      OT      -0.834000       15.9994           0
     62630 TIP3     13395    TIP3     H1       HT       0.417000       1.00800           0
     62631 TIP3     13395    TIP3     H2       HT       0.417000       1.00800           0
     62632 TIP3     13396    TIP3     OH2      OT      -0.834000       15.9994           0
     62633 TIP3     13396    TIP3     H1       HT       0.417000       1.00800           0
     62634 TIP3     13396    TIP3     H2       HT       0.417000       1.00800           0
     62635 TIP3     13397    TIP3     OH2      OT      -0.834000       15.9994           0
     62636 TIP3     13397    TIP3     H1       HT       0.417000       1.00800           0
     62637 TIP3     13397    TIP3     H2       HT       0.417000       1.00800           0
     62638 TIP3     13398    TIP3     OH2      OT      -0.834000       15.9994           0
     62639 TIP3     13398    TIP3     H1       HT       0.417000       1.00800           0
     62640 TIP3     13398    TIP3     H2       HT       0.417000       1.00800           0
     62641 TIP3     13399    TIP3     OH2      OT      -0.834000       15.9994           0
     62642 TIP3     13399    TIP3     H1       HT       0.417000       1.00800           0
     62643 TIP3     13399    TIP3     H2       HT       0.417000       1.00800           0
     62644 TIP3     13400    TIP3     OH2      OT      -0.834000       15.9994           0
     62645 TIP3     13400    TIP3     H1       HT       0.417000       1.00800           0
     62646 TIP3     13400    TIP3     H2       HT       0.417000       1.00800           0
     62647 TIP3     13401    TIP3     OH2      OT      -0.834000       15.9994           0
     62648 TIP3     13401    TIP3     H1       HT       0.417000       1.00800           0
     62649 TIP3     13401    TIP3     H2       HT       0.417000       1.00800           0
     62650 TIP3     13402    TIP3     OH2      OT      -0.834000       15.9994           0
     62651 TIP3     13402    TIP3     H1       HT       0.417000       1.00800           0
     62652 TIP3     13402    TIP3     H2       HT       0.417000       1.00800           0
     62653 TIP3     13403    TIP3     OH2      OT      -0.834000       15.9994           0
     62654 TIP3     13403    TIP3     H1       HT       0.417000       1.00800           0
     62655 TIP3     13403    TIP3     H2       HT       0.417000       1.00800           0
     62656 TIP3     13404    TIP3     OH2      OT      -0.834000       15.9994           0
     62657 TIP3     13404    TIP3     H1       HT       0.417000       1.00800           0
     62658 TIP3     13404    TIP3     H2       HT       0.417000       1.00800           0
     62659 TIP3     13405    TIP3     OH2      OT      -0.834000       15.9994           0
     62660 TIP3     13405    TIP3     H1       HT       0.417000       1.00800           0
     62661 TIP3     13405    TIP3     H2       HT       0.417000       1.00800           0
     62662 TIP3     13406    TIP3     OH2      OT      -0.834000       15.9994           0
     62663 TIP3     13406    TIP3     H1       HT       0.417000       1.00800           0
     62664 TIP3     13406    TIP3     H2       HT       0.417000       1.00800           0
     62665 TIP3     13407    TIP3     OH2      OT      -0.834000       15.9994           0
     62666 TIP3     13407    TIP3     H1       HT       0.417000       1.00800           0
     62667 TIP3     13407    TIP3     H2       HT       0.417000       1.00800           0
     62668 TIP3     13408    TIP3     OH2      OT      -0.834000       15.9994           0
     62669 TIP3     13408    TIP3     H1       HT       0.417000       1.00800           0
     62670 TIP3     13408    TIP3     H2       HT       0.417000       1.00800           0
     62671 TIP3     13409    TIP3     OH2      OT      -0.834000       15.9994           0
     62672 TIP3     13409    TIP3     H1       HT       0.417000       1.00800           0
     62673 TIP3     13409    TIP3     H2       HT       0.417000       1.00800           0
     62674 TIP3     13410    TIP3     OH2      OT      -0.834000       15.9994           0
     62675 TIP3     13410    TIP3     H1       HT       0.417000       1.00800           0
     62676 TIP3     13410    TIP3     H2       HT       0.417000       1.00800           0
     62677 TIP3     13411    TIP3     OH2      OT      -0.834000       15.9994           0
     62678 TIP3     13411    TIP3     H1       HT       0.417000       1.00800           0
     62679 TIP3     13411    TIP3     H2       HT       0.417000       1.00800           0
     62680 TIP3     13412    TIP3     OH2      OT      -0.834000       15.9994           0
     62681 TIP3     13412    TIP3     H1       HT       0.417000       1.00800           0
     62682 TIP3     13412    TIP3     H2       HT       0.417000       1.00800           0
     62683 TIP3     13413    TIP3     OH2      OT      -0.834000       15.9994           0
     62684 TIP3     13413    TIP3     H1       HT       0.417000       1.00800           0
     62685 TIP3     13413    TIP3     H2       HT       0.417000       1.00800           0
     62686 TIP3     13414    TIP3     OH2      OT      -0.834000       15.9994           0
     62687 TIP3     13414    TIP3     H1       HT       0.417000       1.00800           0
     62688 TIP3     13414    TIP3     H2       HT       0.417000       1.00800           0
     62689 TIP3     13415    TIP3     OH2      OT      -0.834000       15.9994           0
     62690 TIP3     13415    TIP3     H1       HT       0.417000       1.00800           0
     62691 TIP3     13415    TIP3     H2       HT       0.417000       1.00800           0
     62692 TIP3     13416    TIP3     OH2      OT      -0.834000       15.9994           0
     62693 TIP3     13416    TIP3     H1       HT       0.417000       1.00800           0
     62694 TIP3     13416    TIP3     H2       HT       0.417000       1.00800           0
     62695 TIP3     13417    TIP3     OH2      OT      -0.834000       15.9994           0
     62696 TIP3     13417    TIP3     H1       HT       0.417000       1.00800           0
     62697 TIP3     13417    TIP3     H2       HT       0.417000       1.00800           0
     62698 TIP3     13418    TIP3     OH2      OT      -0.834000       15.9994           0
     62699 TIP3     13418    TIP3     H1       HT       0.417000       1.00800           0
     62700 TIP3     13418    TIP3     H2       HT       0.417000       1.00800           0
     62701 TIP3     13419    TIP3     OH2      OT      -0.834000       15.9994           0
     62702 TIP3     13419    TIP3     H1       HT       0.417000       1.00800           0
     62703 TIP3     13419    TIP3     H2       HT       0.417000       1.00800           0
     62704 TIP3     13420    TIP3     OH2      OT      -0.834000       15.9994           0
     62705 TIP3     13420    TIP3     H1       HT       0.417000       1.00800           0
     62706 TIP3     13420    TIP3     H2       HT       0.417000       1.00800           0
     62707 TIP3     13421    TIP3     OH2      OT      -0.834000       15.9994           0
     62708 TIP3     13421    TIP3     H1       HT       0.417000       1.00800           0
     62709 TIP3     13421    TIP3     H2       HT       0.417000       1.00800           0
     62710 TIP3     13422    TIP3     OH2      OT      -0.834000       15.9994           0
     62711 TIP3     13422    TIP3     H1       HT       0.417000       1.00800           0
     62712 TIP3     13422    TIP3     H2       HT       0.417000       1.00800           0
     62713 TIP3     13423    TIP3     OH2      OT      -0.834000       15.9994           0
     62714 TIP3     13423    TIP3     H1       HT       0.417000       1.00800           0
     62715 TIP3     13423    TIP3     H2       HT       0.417000       1.00800           0
     62716 TIP3     13424    TIP3     OH2      OT      -0.834000       15.9994           0
     62717 TIP3     13424    TIP3     H1       HT       0.417000       1.00800           0
     62718 TIP3     13424    TIP3     H2       HT       0.417000       1.00800           0
     62719 TIP3     13425    TIP3     OH2      OT      -0.834000       15.9994           0
     62720 TIP3     13425    TIP3     H1       HT       0.417000       1.00800           0
     62721 TIP3     13425    TIP3     H2       HT       0.417000       1.00800           0
     62722 TIP3     13426    TIP3     OH2      OT      -0.834000       15.9994           0
     62723 TIP3     13426    TIP3     H1       HT       0.417000       1.00800           0
     62724 TIP3     13426    TIP3     H2       HT       0.417000       1.00800           0
     62725 TIP3     13427    TIP3     OH2      OT      -0.834000       15.9994           0
     62726 TIP3     13427    TIP3     H1       HT       0.417000       1.00800           0
     62727 TIP3     13427    TIP3     H2       HT       0.417000       1.00800           0
     62728 TIP3     13428    TIP3     OH2      OT      -0.834000       15.9994           0
     62729 TIP3     13428    TIP3     H1       HT       0.417000       1.00800           0
     62730 TIP3     13428    TIP3     H2       HT       0.417000       1.00800           0
     62731 TIP3     13429    TIP3     OH2      OT      -0.834000       15.9994           0
     62732 TIP3     13429    TIP3     H1       HT       0.417000       1.00800           0
     62733 TIP3     13429    TIP3     H2       HT       0.417000       1.00800           0
     62734 TIP3     13430    TIP3     OH2      OT      -0.834000       15.9994           0
     62735 TIP3     13430    TIP3     H1       HT       0.417000       1.00800           0
     62736 TIP3     13430    TIP3     H2       HT       0.417000       1.00800           0
     62737 TIP3     13431    TIP3     OH2      OT      -0.834000       15.9994           0
     62738 TIP3     13431    TIP3     H1       HT       0.417000       1.00800           0
     62739 TIP3     13431    TIP3     H2       HT       0.417000       1.00800           0
     62740 TIP3     13432    TIP3     OH2      OT      -0.834000       15.9994           0
     62741 TIP3     13432    TIP3     H1       HT       0.417000       1.00800           0
     62742 TIP3     13432    TIP3     H2       HT       0.417000       1.00800           0
     62743 TIP3     13433    TIP3     OH2      OT      -0.834000       15.9994           0
     62744 TIP3     13433    TIP3     H1       HT       0.417000       1.00800           0
     62745 TIP3     13433    TIP3     H2       HT       0.417000       1.00800           0
     62746 TIP3     13434    TIP3     OH2      OT      -0.834000       15.9994           0
     62747 TIP3     13434    TIP3     H1       HT       0.417000       1.00800           0
     62748 TIP3     13434    TIP3     H2       HT       0.417000       1.00800           0
     62749 TIP3     13435    TIP3     OH2      OT      -0.834000       15.9994           0
     62750 TIP3     13435    TIP3     H1       HT       0.417000       1.00800           0
     62751 TIP3     13435    TIP3     H2       HT       0.417000       1.00800           0
     62752 TIP3     13436    TIP3     OH2      OT      -0.834000       15.9994           0
     62753 TIP3     13436    TIP3     H1       HT       0.417000       1.00800           0
     62754 TIP3     13436    TIP3     H2       HT       0.417000       1.00800           0
     62755 TIP3     13437    TIP3     OH2      OT      -0.834000       15.9994           0
     62756 TIP3     13437    TIP3     H1       HT       0.417000       1.00800           0
     62757 TIP3     13437    TIP3     H2       HT       0.417000       1.00800           0
     62758 TIP3     13438    TIP3     OH2      OT      -0.834000       15.9994           0
     62759 TIP3     13438    TIP3     H1       HT       0.417000       1.00800           0
     62760 TIP3     13438    TIP3     H2       HT       0.417000       1.00800           0
     62761 TIP3     13439    TIP3     OH2      OT      -0.834000       15.9994           0
     62762 TIP3     13439    TIP3     H1       HT       0.417000       1.00800           0
     62763 TIP3     13439    TIP3     H2       HT       0.417000       1.00800           0
     62764 TIP3     13440    TIP3     OH2      OT      -0.834000       15.9994           0
     62765 TIP3     13440    TIP3     H1       HT       0.417000       1.00800           0
     62766 TIP3     13440    TIP3     H2       HT       0.417000       1.00800           0
     62767 TIP3     13441    TIP3     OH2      OT      -0.834000       15.9994           0
     62768 TIP3     13441    TIP3     H1       HT       0.417000       1.00800           0
     62769 TIP3     13441    TIP3     H2       HT       0.417000       1.00800           0
     62770 TIP3     13442    TIP3     OH2      OT      -0.834000       15.9994           0
     62771 TIP3     13442    TIP3     H1       HT       0.417000       1.00800           0
     62772 TIP3     13442    TIP3     H2       HT       0.417000       1.00800           0
     62773 TIP3     13443    TIP3     OH2      OT      -0.834000       15.9994           0
     62774 TIP3     13443    TIP3     H1       HT       0.417000       1.00800           0
     62775 TIP3     13443    TIP3     H2       HT       0.417000       1.00800           0
     62776 TIP3     13444    TIP3     OH2      OT      -0.834000       15.9994           0
     62777 TIP3     13444    TIP3     H1       HT       0.417000       1.00800           0
     62778 TIP3     13444    TIP3     H2       HT       0.417000       1.00800           0
     62779 TIP3     13445    TIP3     OH2      OT      -0.834000       15.9994           0
     62780 TIP3     13445    TIP3     H1       HT       0.417000       1.00800           0
     62781 TIP3     13445    TIP3     H2       HT       0.417000       1.00800           0
     62782 TIP3     13446    TIP3     OH2      OT      -0.834000       15.9994           0
     62783 TIP3     13446    TIP3     H1       HT       0.417000       1.00800           0
     62784 TIP3     13446    TIP3     H2       HT       0.417000       1.00800           0
     62785 TIP3     13447    TIP3     OH2      OT      -0.834000       15.9994           0
     62786 TIP3     13447    TIP3     H1       HT       0.417000       1.00800           0
     62787 TIP3     13447    TIP3     H2       HT       0.417000       1.00800           0
     62788 TIP3     13448    TIP3     OH2      OT      -0.834000       15.9994           0
     62789 TIP3     13448    TIP3     H1       HT       0.417000       1.00800           0
     62790 TIP3     13448    TIP3     H2       HT       0.417000       1.00800           0
     62791 TIP3     13449    TIP3     OH2      OT      -0.834000       15.9994           0
     62792 TIP3     13449    TIP3     H1       HT       0.417000       1.00800           0
     62793 TIP3     13449    TIP3     H2       HT       0.417000       1.00800           0
     62794 TIP3     13450    TIP3     OH2      OT      -0.834000       15.9994           0
     62795 TIP3     13450    TIP3     H1       HT       0.417000       1.00800           0
     62796 TIP3     13450    TIP3     H2       HT       0.417000       1.00800           0
     62797 TIP3     13451    TIP3     OH2      OT      -0.834000       15.9994           0
     62798 TIP3     13451    TIP3     H1       HT       0.417000       1.00800           0
     62799 TIP3     13451    TIP3     H2       HT       0.417000       1.00800           0
     62800 TIP3     13452    TIP3     OH2      OT      -0.834000       15.9994           0
     62801 TIP3     13452    TIP3     H1       HT       0.417000       1.00800           0
     62802 TIP3     13452    TIP3     H2       HT       0.417000       1.00800           0
     62803 TIP3     13453    TIP3     OH2      OT      -0.834000       15.9994           0
     62804 TIP3     13453    TIP3     H1       HT       0.417000       1.00800           0
     62805 TIP3     13453    TIP3     H2       HT       0.417000       1.00800           0
     62806 TIP3     13454    TIP3     OH2      OT      -0.834000       15.9994           0
     62807 TIP3     13454    TIP3     H1       HT       0.417000       1.00800           0
     62808 TIP3     13454    TIP3     H2       HT       0.417000       1.00800           0
     62809 TIP3     13455    TIP3     OH2      OT      -0.834000       15.9994           0
     62810 TIP3     13455    TIP3     H1       HT       0.417000       1.00800           0
     62811 TIP3     13455    TIP3     H2       HT       0.417000       1.00800           0
     62812 TIP3     13456    TIP3     OH2      OT      -0.834000       15.9994           0
     62813 TIP3     13456    TIP3     H1       HT       0.417000       1.00800           0
     62814 TIP3     13456    TIP3     H2       HT       0.417000       1.00800           0
     62815 TIP3     13457    TIP3     OH2      OT      -0.834000       15.9994           0
     62816 TIP3     13457    TIP3     H1       HT       0.417000       1.00800           0
     62817 TIP3     13457    TIP3     H2       HT       0.417000       1.00800           0
     62818 TIP3     13458    TIP3     OH2      OT      -0.834000       15.9994           0
     62819 TIP3     13458    TIP3     H1       HT       0.417000       1.00800           0
     62820 TIP3     13458    TIP3     H2       HT       0.417000       1.00800           0
     62821 TIP3     13459    TIP3     OH2      OT      -0.834000       15.9994           0
     62822 TIP3     13459    TIP3     H1       HT       0.417000       1.00800           0
     62823 TIP3     13459    TIP3     H2       HT       0.417000       1.00800           0
     62824 TIP3     13460    TIP3     OH2      OT      -0.834000       15.9994           0
     62825 TIP3     13460    TIP3     H1       HT       0.417000       1.00800           0
     62826 TIP3     13460    TIP3     H2       HT       0.417000       1.00800           0
     62827 TIP3     13461    TIP3     OH2      OT      -0.834000       15.9994           0
     62828 TIP3     13461    TIP3     H1       HT       0.417000       1.00800           0
     62829 TIP3     13461    TIP3     H2       HT       0.417000       1.00800           0
     62830 TIP3     13462    TIP3     OH2      OT      -0.834000       15.9994           0
     62831 TIP3     13462    TIP3     H1       HT       0.417000       1.00800           0
     62832 TIP3     13462    TIP3     H2       HT       0.417000       1.00800           0
     62833 TIP3     13463    TIP3     OH2      OT      -0.834000       15.9994           0
     62834 TIP3     13463    TIP3     H1       HT       0.417000       1.00800           0
     62835 TIP3     13463    TIP3     H2       HT       0.417000       1.00800           0
     62836 TIP3     13464    TIP3     OH2      OT      -0.834000       15.9994           0
     62837 TIP3     13464    TIP3     H1       HT       0.417000       1.00800           0
     62838 TIP3     13464    TIP3     H2       HT       0.417000       1.00800           0
     62839 TIP3     13465    TIP3     OH2      OT      -0.834000       15.9994           0
     62840 TIP3     13465    TIP3     H1       HT       0.417000       1.00800           0
     62841 TIP3     13465    TIP3     H2       HT       0.417000       1.00800           0
     62842 TIP3     13466    TIP3     OH2      OT      -0.834000       15.9994           0
     62843 TIP3     13466    TIP3     H1       HT       0.417000       1.00800           0
     62844 TIP3     13466    TIP3     H2       HT       0.417000       1.00800           0
     62845 TIP3     13467    TIP3     OH2      OT      -0.834000       15.9994           0
     62846 TIP3     13467    TIP3     H1       HT       0.417000       1.00800           0
     62847 TIP3     13467    TIP3     H2       HT       0.417000       1.00800           0
     62848 TIP3     13468    TIP3     OH2      OT      -0.834000       15.9994           0
     62849 TIP3     13468    TIP3     H1       HT       0.417000       1.00800           0
     62850 TIP3     13468    TIP3     H2       HT       0.417000       1.00800           0
     62851 TIP3     13469    TIP3     OH2      OT      -0.834000       15.9994           0
     62852 TIP3     13469    TIP3     H1       HT       0.417000       1.00800           0
     62853 TIP3     13469    TIP3     H2       HT       0.417000       1.00800           0
     62854 TIP3     13470    TIP3     OH2      OT      -0.834000       15.9994           0
     62855 TIP3     13470    TIP3     H1       HT       0.417000       1.00800           0
     62856 TIP3     13470    TIP3     H2       HT       0.417000       1.00800           0
     62857 TIP3     13471    TIP3     OH2      OT      -0.834000       15.9994           0
     62858 TIP3     13471    TIP3     H1       HT       0.417000       1.00800           0
     62859 TIP3     13471    TIP3     H2       HT       0.417000       1.00800           0
     62860 TIP3     13472    TIP3     OH2      OT      -0.834000       15.9994           0
     62861 TIP3     13472    TIP3     H1       HT       0.417000       1.00800           0
     62862 TIP3     13472    TIP3     H2       HT       0.417000       1.00800           0
     62863 TIP3     13473    TIP3     OH2      OT      -0.834000       15.9994           0
     62864 TIP3     13473    TIP3     H1       HT       0.417000       1.00800           0
     62865 TIP3     13473    TIP3     H2       HT       0.417000       1.00800           0
     62866 TIP3     13474    TIP3     OH2      OT      -0.834000       15.9994           0
     62867 TIP3     13474    TIP3     H1       HT       0.417000       1.00800           0
     62868 TIP3     13474    TIP3     H2       HT       0.417000       1.00800           0
     62869 TIP3     13475    TIP3     OH2      OT      -0.834000       15.9994           0
     62870 TIP3     13475    TIP3     H1       HT       0.417000       1.00800           0
     62871 TIP3     13475    TIP3     H2       HT       0.417000       1.00800           0
     62872 TIP3     13476    TIP3     OH2      OT      -0.834000       15.9994           0
     62873 TIP3     13476    TIP3     H1       HT       0.417000       1.00800           0
     62874 TIP3     13476    TIP3     H2       HT       0.417000       1.00800           0
     62875 TIP3     13477    TIP3     OH2      OT      -0.834000       15.9994           0
     62876 TIP3     13477    TIP3     H1       HT       0.417000       1.00800           0
     62877 TIP3     13477    TIP3     H2       HT       0.417000       1.00800           0
     62878 TIP3     13478    TIP3     OH2      OT      -0.834000       15.9994           0
     62879 TIP3     13478    TIP3     H1       HT       0.417000       1.00800           0
     62880 TIP3     13478    TIP3     H2       HT       0.417000       1.00800           0
     62881 TIP3     13479    TIP3     OH2      OT      -0.834000       15.9994           0
     62882 TIP3     13479    TIP3     H1       HT       0.417000       1.00800           0
     62883 TIP3     13479    TIP3     H2       HT       0.417000       1.00800           0
     62884 TIP3     13480    TIP3     OH2      OT      -0.834000       15.9994           0
     62885 TIP3     13480    TIP3     H1       HT       0.417000       1.00800           0
     62886 TIP3     13480    TIP3     H2       HT       0.417000       1.00800           0
     62887 TIP3     13481    TIP3     OH2      OT      -0.834000       15.9994           0
     62888 TIP3     13481    TIP3     H1       HT       0.417000       1.00800           0
     62889 TIP3     13481    TIP3     H2       HT       0.417000       1.00800           0
     62890 TIP3     13482    TIP3     OH2      OT      -0.834000       15.9994           0
     62891 TIP3     13482    TIP3     H1       HT       0.417000       1.00800           0
     62892 TIP3     13482    TIP3     H2       HT       0.417000       1.00800           0
     62893 TIP3     13483    TIP3     OH2      OT      -0.834000       15.9994           0
     62894 TIP3     13483    TIP3     H1       HT       0.417000       1.00800           0
     62895 TIP3     13483    TIP3     H2       HT       0.417000       1.00800           0
     62896 TIP3     13484    TIP3     OH2      OT      -0.834000       15.9994           0
     62897 TIP3     13484    TIP3     H1       HT       0.417000       1.00800           0
     62898 TIP3     13484    TIP3     H2       HT       0.417000       1.00800           0
     62899 TIP3     13485    TIP3     OH2      OT      -0.834000       15.9994           0
     62900 TIP3     13485    TIP3     H1       HT       0.417000       1.00800           0
     62901 TIP3     13485    TIP3     H2       HT       0.417000       1.00800           0
     62902 TIP3     13486    TIP3     OH2      OT      -0.834000       15.9994           0
     62903 TIP3     13486    TIP3     H1       HT       0.417000       1.00800           0
     62904 TIP3     13486    TIP3     H2       HT       0.417000       1.00800           0
     62905 TIP3     13487    TIP3     OH2      OT      -0.834000       15.9994           0
     62906 TIP3     13487    TIP3     H1       HT       0.417000       1.00800           0
     62907 TIP3     13487    TIP3     H2       HT       0.417000       1.00800           0
     62908 TIP3     13488    TIP3     OH2      OT      -0.834000       15.9994           0
     62909 TIP3     13488    TIP3     H1       HT       0.417000       1.00800           0
     62910 TIP3     13488    TIP3     H2       HT       0.417000       1.00800           0
     62911 TIP3     13489    TIP3     OH2      OT      -0.834000       15.9994           0
     62912 TIP3     13489    TIP3     H1       HT       0.417000       1.00800           0
     62913 TIP3     13489    TIP3     H2       HT       0.417000       1.00800           0
     62914 TIP3     13490    TIP3     OH2      OT      -0.834000       15.9994           0
     62915 TIP3     13490    TIP3     H1       HT       0.417000       1.00800           0
     62916 TIP3     13490    TIP3     H2       HT       0.417000       1.00800           0
     62917 TIP3     13491    TIP3     OH2      OT      -0.834000       15.9994           0
     62918 TIP3     13491    TIP3     H1       HT       0.417000       1.00800           0
     62919 TIP3     13491    TIP3     H2       HT       0.417000       1.00800           0
     62920 TIP3     13492    TIP3     OH2      OT      -0.834000       15.9994           0
     62921 TIP3     13492    TIP3     H1       HT       0.417000       1.00800           0
     62922 TIP3     13492    TIP3     H2       HT       0.417000       1.00800           0
     62923 TIP3     13493    TIP3     OH2      OT      -0.834000       15.9994           0
     62924 TIP3     13493    TIP3     H1       HT       0.417000       1.00800           0
     62925 TIP3     13493    TIP3     H2       HT       0.417000       1.00800           0
     62926 TIP3     13494    TIP3     OH2      OT      -0.834000       15.9994           0
     62927 TIP3     13494    TIP3     H1       HT       0.417000       1.00800           0
     62928 TIP3     13494    TIP3     H2       HT       0.417000       1.00800           0
     62929 TIP3     13495    TIP3     OH2      OT      -0.834000       15.9994           0
     62930 TIP3     13495    TIP3     H1       HT       0.417000       1.00800           0
     62931 TIP3     13495    TIP3     H2       HT       0.417000       1.00800           0
     62932 TIP3     13496    TIP3     OH2      OT      -0.834000       15.9994           0
     62933 TIP3     13496    TIP3     H1       HT       0.417000       1.00800           0
     62934 TIP3     13496    TIP3     H2       HT       0.417000       1.00800           0
     62935 TIP3     13497    TIP3     OH2      OT      -0.834000       15.9994           0
     62936 TIP3     13497    TIP3     H1       HT       0.417000       1.00800           0
     62937 TIP3     13497    TIP3     H2       HT       0.417000       1.00800           0
     62938 TIP3     13498    TIP3     OH2      OT      -0.834000       15.9994           0
     62939 TIP3     13498    TIP3     H1       HT       0.417000       1.00800           0
     62940 TIP3     13498    TIP3     H2       HT       0.417000       1.00800           0
     62941 TIP3     13499    TIP3     OH2      OT      -0.834000       15.9994           0
     62942 TIP3     13499    TIP3     H1       HT       0.417000       1.00800           0
     62943 TIP3     13499    TIP3     H2       HT       0.417000       1.00800           0
     62944 TIP3     13500    TIP3     OH2      OT      -0.834000       15.9994           0
     62945 TIP3     13500    TIP3     H1       HT       0.417000       1.00800           0
     62946 TIP3     13500    TIP3     H2       HT       0.417000       1.00800           0
     62947 TIP3     13501    TIP3     OH2      OT      -0.834000       15.9994           0
     62948 TIP3     13501    TIP3     H1       HT       0.417000       1.00800           0
     62949 TIP3     13501    TIP3     H2       HT       0.417000       1.00800           0
     62950 TIP3     13502    TIP3     OH2      OT      -0.834000       15.9994           0
     62951 TIP3     13502    TIP3     H1       HT       0.417000       1.00800           0
     62952 TIP3     13502    TIP3     H2       HT       0.417000       1.00800           0
     62953 TIP3     13503    TIP3     OH2      OT      -0.834000       15.9994           0
     62954 TIP3     13503    TIP3     H1       HT       0.417000       1.00800           0
     62955 TIP3     13503    TIP3     H2       HT       0.417000       1.00800           0
     62956 TIP3     13504    TIP3     OH2      OT      -0.834000       15.9994           0
     62957 TIP3     13504    TIP3     H1       HT       0.417000       1.00800           0
     62958 TIP3     13504    TIP3     H2       HT       0.417000       1.00800           0
     62959 TIP3     13505    TIP3     OH2      OT      -0.834000       15.9994           0
     62960 TIP3     13505    TIP3     H1       HT       0.417000       1.00800           0
     62961 TIP3     13505    TIP3     H2       HT       0.417000       1.00800           0
     62962 TIP3     13506    TIP3     OH2      OT      -0.834000       15.9994           0
     62963 TIP3     13506    TIP3     H1       HT       0.417000       1.00800           0
     62964 TIP3     13506    TIP3     H2       HT       0.417000       1.00800           0
     62965 TIP3     13507    TIP3     OH2      OT      -0.834000       15.9994           0
     62966 TIP3     13507    TIP3     H1       HT       0.417000       1.00800           0
     62967 TIP3     13507    TIP3     H2       HT       0.417000       1.00800           0
     62968 TIP3     13508    TIP3     OH2      OT      -0.834000       15.9994           0
     62969 TIP3     13508    TIP3     H1       HT       0.417000       1.00800           0
     62970 TIP3     13508    TIP3     H2       HT       0.417000       1.00800           0
     62971 TIP3     13509    TIP3     OH2      OT      -0.834000       15.9994           0
     62972 TIP3     13509    TIP3     H1       HT       0.417000       1.00800           0
     62973 TIP3     13509    TIP3     H2       HT       0.417000       1.00800           0
     62974 TIP3     13510    TIP3     OH2      OT      -0.834000       15.9994           0
     62975 TIP3     13510    TIP3     H1       HT       0.417000       1.00800           0
     62976 TIP3     13510    TIP3     H2       HT       0.417000       1.00800           0
     62977 TIP3     13511    TIP3     OH2      OT      -0.834000       15.9994           0
     62978 TIP3     13511    TIP3     H1       HT       0.417000       1.00800           0
     62979 TIP3     13511    TIP3     H2       HT       0.417000       1.00800           0
     62980 TIP3     13512    TIP3     OH2      OT      -0.834000       15.9994           0
     62981 TIP3     13512    TIP3     H1       HT       0.417000       1.00800           0
     62982 TIP3     13512    TIP3     H2       HT       0.417000       1.00800           0
     62983 TIP3     13513    TIP3     OH2      OT      -0.834000       15.9994           0
     62984 TIP3     13513    TIP3     H1       HT       0.417000       1.00800           0
     62985 TIP3     13513    TIP3     H2       HT       0.417000       1.00800           0
     62986 TIP3     13514    TIP3     OH2      OT      -0.834000       15.9994           0
     62987 TIP3     13514    TIP3     H1       HT       0.417000       1.00800           0
     62988 TIP3     13514    TIP3     H2       HT       0.417000       1.00800           0
     62989 TIP3     13515    TIP3     OH2      OT      -0.834000       15.9994           0
     62990 TIP3     13515    TIP3     H1       HT       0.417000       1.00800           0
     62991 TIP3     13515    TIP3     H2       HT       0.417000       1.00800           0
     62992 TIP3     13516    TIP3     OH2      OT      -0.834000       15.9994           0
     62993 TIP3     13516    TIP3     H1       HT       0.417000       1.00800           0
     62994 TIP3     13516    TIP3     H2       HT       0.417000       1.00800           0
     62995 TIP3     13517    TIP3     OH2      OT      -0.834000       15.9994           0
     62996 TIP3     13517    TIP3     H1       HT       0.417000       1.00800           0
     62997 TIP3     13517    TIP3     H2       HT       0.417000       1.00800           0
     62998 TIP3     13518    TIP3     OH2      OT      -0.834000       15.9994           0
     62999 TIP3     13518    TIP3     H1       HT       0.417000       1.00800           0
     63000 TIP3     13518    TIP3     H2       HT       0.417000       1.00800           0
     63001 TIP3     13519    TIP3     OH2      OT      -0.834000       15.9994           0
     63002 TIP3     13519    TIP3     H1       HT       0.417000       1.00800           0
     63003 TIP3     13519    TIP3     H2       HT       0.417000       1.00800           0
     63004 TIP3     13520    TIP3     OH2      OT      -0.834000       15.9994           0
     63005 TIP3     13520    TIP3     H1       HT       0.417000       1.00800           0
     63006 TIP3     13520    TIP3     H2       HT       0.417000       1.00800           0
     63007 TIP3     13521    TIP3     OH2      OT      -0.834000       15.9994           0
     63008 TIP3     13521    TIP3     H1       HT       0.417000       1.00800           0
     63009 TIP3     13521    TIP3     H2       HT       0.417000       1.00800           0
     63010 TIP3     13522    TIP3     OH2      OT      -0.834000       15.9994           0
     63011 TIP3     13522    TIP3     H1       HT       0.417000       1.00800           0
     63012 TIP3     13522    TIP3     H2       HT       0.417000       1.00800           0
     63013 TIP3     13523    TIP3     OH2      OT      -0.834000       15.9994           0
     63014 TIP3     13523    TIP3     H1       HT       0.417000       1.00800           0
     63015 TIP3     13523    TIP3     H2       HT       0.417000       1.00800           0
     63016 TIP3     13524    TIP3     OH2      OT      -0.834000       15.9994           0
     63017 TIP3     13524    TIP3     H1       HT       0.417000       1.00800           0
     63018 TIP3     13524    TIP3     H2       HT       0.417000       1.00800           0
     63019 TIP3     13525    TIP3     OH2      OT      -0.834000       15.9994           0
     63020 TIP3     13525    TIP3     H1       HT       0.417000       1.00800           0
     63021 TIP3     13525    TIP3     H2       HT       0.417000       1.00800           0
     63022 TIP3     13526    TIP3     OH2      OT      -0.834000       15.9994           0
     63023 TIP3     13526    TIP3     H1       HT       0.417000       1.00800           0
     63024 TIP3     13526    TIP3     H2       HT       0.417000       1.00800           0
     63025 TIP3     13527    TIP3     OH2      OT      -0.834000       15.9994           0
     63026 TIP3     13527    TIP3     H1       HT       0.417000       1.00800           0
     63027 TIP3     13527    TIP3     H2       HT       0.417000       1.00800           0
     63028 TIP3     13528    TIP3     OH2      OT      -0.834000       15.9994           0
     63029 TIP3     13528    TIP3     H1       HT       0.417000       1.00800           0
     63030 TIP3     13528    TIP3     H2       HT       0.417000       1.00800           0
     63031 TIP3     13529    TIP3     OH2      OT      -0.834000       15.9994           0
     63032 TIP3     13529    TIP3     H1       HT       0.417000       1.00800           0
     63033 TIP3     13529    TIP3     H2       HT       0.417000       1.00800           0
     63034 TIP3     13530    TIP3     OH2      OT      -0.834000       15.9994           0
     63035 TIP3     13530    TIP3     H1       HT       0.417000       1.00800           0
     63036 TIP3     13530    TIP3     H2       HT       0.417000       1.00800           0
     63037 TIP3     13531    TIP3     OH2      OT      -0.834000       15.9994           0
     63038 TIP3     13531    TIP3     H1       HT       0.417000       1.00800           0
     63039 TIP3     13531    TIP3     H2       HT       0.417000       1.00800           0
     63040 TIP3     13532    TIP3     OH2      OT      -0.834000       15.9994           0
     63041 TIP3     13532    TIP3     H1       HT       0.417000       1.00800           0
     63042 TIP3     13532    TIP3     H2       HT       0.417000       1.00800           0
     63043 TIP3     13533    TIP3     OH2      OT      -0.834000       15.9994           0
     63044 TIP3     13533    TIP3     H1       HT       0.417000       1.00800           0
     63045 TIP3     13533    TIP3     H2       HT       0.417000       1.00800           0
     63046 TIP3     13534    TIP3     OH2      OT      -0.834000       15.9994           0
     63047 TIP3     13534    TIP3     H1       HT       0.417000       1.00800           0
     63048 TIP3     13534    TIP3     H2       HT       0.417000       1.00800           0
     63049 TIP3     13535    TIP3     OH2      OT      -0.834000       15.9994           0
     63050 TIP3     13535    TIP3     H1       HT       0.417000       1.00800           0
     63051 TIP3     13535    TIP3     H2       HT       0.417000       1.00800           0
     63052 TIP3     13536    TIP3     OH2      OT      -0.834000       15.9994           0
     63053 TIP3     13536    TIP3     H1       HT       0.417000       1.00800           0
     63054 TIP3     13536    TIP3     H2       HT       0.417000       1.00800           0
     63055 TIP3     13537    TIP3     OH2      OT      -0.834000       15.9994           0
     63056 TIP3     13537    TIP3     H1       HT       0.417000       1.00800           0
     63057 TIP3     13537    TIP3     H2       HT       0.417000       1.00800           0
     63058 TIP3     13538    TIP3     OH2      OT      -0.834000       15.9994           0
     63059 TIP3     13538    TIP3     H1       HT       0.417000       1.00800           0
     63060 TIP3     13538    TIP3     H2       HT       0.417000       1.00800           0
     63061 TIP3     13539    TIP3     OH2      OT      -0.834000       15.9994           0
     63062 TIP3     13539    TIP3     H1       HT       0.417000       1.00800           0
     63063 TIP3     13539    TIP3     H2       HT       0.417000       1.00800           0
     63064 TIP3     13540    TIP3     OH2      OT      -0.834000       15.9994           0
     63065 TIP3     13540    TIP3     H1       HT       0.417000       1.00800           0
     63066 TIP3     13540    TIP3     H2       HT       0.417000       1.00800           0
     63067 TIP3     13541    TIP3     OH2      OT      -0.834000       15.9994           0
     63068 TIP3     13541    TIP3     H1       HT       0.417000       1.00800           0
     63069 TIP3     13541    TIP3     H2       HT       0.417000       1.00800           0
     63070 TIP3     13542    TIP3     OH2      OT      -0.834000       15.9994           0
     63071 TIP3     13542    TIP3     H1       HT       0.417000       1.00800           0
     63072 TIP3     13542    TIP3     H2       HT       0.417000       1.00800           0
     63073 TIP3     13543    TIP3     OH2      OT      -0.834000       15.9994           0
     63074 TIP3     13543    TIP3     H1       HT       0.417000       1.00800           0
     63075 TIP3     13543    TIP3     H2       HT       0.417000       1.00800           0
     63076 TIP3     13544    TIP3     OH2      OT      -0.834000       15.9994           0
     63077 TIP3     13544    TIP3     H1       HT       0.417000       1.00800           0
     63078 TIP3     13544    TIP3     H2       HT       0.417000       1.00800           0
     63079 TIP3     13545    TIP3     OH2      OT      -0.834000       15.9994           0
     63080 TIP3     13545    TIP3     H1       HT       0.417000       1.00800           0
     63081 TIP3     13545    TIP3     H2       HT       0.417000       1.00800           0
     63082 TIP3     13546    TIP3     OH2      OT      -0.834000       15.9994           0
     63083 TIP3     13546    TIP3     H1       HT       0.417000       1.00800           0
     63084 TIP3     13546    TIP3     H2       HT       0.417000       1.00800           0
     63085 TIP3     13547    TIP3     OH2      OT      -0.834000       15.9994           0
     63086 TIP3     13547    TIP3     H1       HT       0.417000       1.00800           0
     63087 TIP3     13547    TIP3     H2       HT       0.417000       1.00800           0
     63088 TIP3     13548    TIP3     OH2      OT      -0.834000       15.9994           0
     63089 TIP3     13548    TIP3     H1       HT       0.417000       1.00800           0
     63090 TIP3     13548    TIP3     H2       HT       0.417000       1.00800           0
     63091 TIP3     13549    TIP3     OH2      OT      -0.834000       15.9994           0
     63092 TIP3     13549    TIP3     H1       HT       0.417000       1.00800           0
     63093 TIP3     13549    TIP3     H2       HT       0.417000       1.00800           0
     63094 TIP3     13550    TIP3     OH2      OT      -0.834000       15.9994           0
     63095 TIP3     13550    TIP3     H1       HT       0.417000       1.00800           0
     63096 TIP3     13550    TIP3     H2       HT       0.417000       1.00800           0
     63097 TIP3     13551    TIP3     OH2      OT      -0.834000       15.9994           0
     63098 TIP3     13551    TIP3     H1       HT       0.417000       1.00800           0
     63099 TIP3     13551    TIP3     H2       HT       0.417000       1.00800           0
     63100 TIP3     13552    TIP3     OH2      OT      -0.834000       15.9994           0
     63101 TIP3     13552    TIP3     H1       HT       0.417000       1.00800           0
     63102 TIP3     13552    TIP3     H2       HT       0.417000       1.00800           0
     63103 TIP3     13553    TIP3     OH2      OT      -0.834000       15.9994           0
     63104 TIP3     13553    TIP3     H1       HT       0.417000       1.00800           0
     63105 TIP3     13553    TIP3     H2       HT       0.417000       1.00800           0
     63106 TIP3     13554    TIP3     OH2      OT      -0.834000       15.9994           0
     63107 TIP3     13554    TIP3     H1       HT       0.417000       1.00800           0
     63108 TIP3     13554    TIP3     H2       HT       0.417000       1.00800           0
     63109 TIP3     13555    TIP3     OH2      OT      -0.834000       15.9994           0
     63110 TIP3     13555    TIP3     H1       HT       0.417000       1.00800           0
     63111 TIP3     13555    TIP3     H2       HT       0.417000       1.00800           0
     63112 TIP3     13556    TIP3     OH2      OT      -0.834000       15.9994           0
     63113 TIP3     13556    TIP3     H1       HT       0.417000       1.00800           0
     63114 TIP3     13556    TIP3     H2       HT       0.417000       1.00800           0
     63115 TIP3     13557    TIP3     OH2      OT      -0.834000       15.9994           0
     63116 TIP3     13557    TIP3     H1       HT       0.417000       1.00800           0
     63117 TIP3     13557    TIP3     H2       HT       0.417000       1.00800           0
     63118 TIP3     13558    TIP3     OH2      OT      -0.834000       15.9994           0
     63119 TIP3     13558    TIP3     H1       HT       0.417000       1.00800           0
     63120 TIP3     13558    TIP3     H2       HT       0.417000       1.00800           0
     63121 TIP3     13559    TIP3     OH2      OT      -0.834000       15.9994           0
     63122 TIP3     13559    TIP3     H1       HT       0.417000       1.00800           0
     63123 TIP3     13559    TIP3     H2       HT       0.417000       1.00800           0
     63124 TIP3     13560    TIP3     OH2      OT      -0.834000       15.9994           0
     63125 TIP3     13560    TIP3     H1       HT       0.417000       1.00800           0
     63126 TIP3     13560    TIP3     H2       HT       0.417000       1.00800           0
     63127 TIP3     13561    TIP3     OH2      OT      -0.834000       15.9994           0
     63128 TIP3     13561    TIP3     H1       HT       0.417000       1.00800           0
     63129 TIP3     13561    TIP3     H2       HT       0.417000       1.00800           0
     63130 TIP3     13562    TIP3     OH2      OT      -0.834000       15.9994           0
     63131 TIP3     13562    TIP3     H1       HT       0.417000       1.00800           0
     63132 TIP3     13562    TIP3     H2       HT       0.417000       1.00800           0
     63133 TIP3     13563    TIP3     OH2      OT      -0.834000       15.9994           0
     63134 TIP3     13563    TIP3     H1       HT       0.417000       1.00800           0
     63135 TIP3     13563    TIP3     H2       HT       0.417000       1.00800           0
     63136 TIP3     13564    TIP3     OH2      OT      -0.834000       15.9994           0
     63137 TIP3     13564    TIP3     H1       HT       0.417000       1.00800           0
     63138 TIP3     13564    TIP3     H2       HT       0.417000       1.00800           0
     63139 TIP3     13565    TIP3     OH2      OT      -0.834000       15.9994           0
     63140 TIP3     13565    TIP3     H1       HT       0.417000       1.00800           0
     63141 TIP3     13565    TIP3     H2       HT       0.417000       1.00800           0
     63142 TIP3     13566    TIP3     OH2      OT      -0.834000       15.9994           0
     63143 TIP3     13566    TIP3     H1       HT       0.417000       1.00800           0
     63144 TIP3     13566    TIP3     H2       HT       0.417000       1.00800           0
     63145 TIP3     13567    TIP3     OH2      OT      -0.834000       15.9994           0
     63146 TIP3     13567    TIP3     H1       HT       0.417000       1.00800           0
     63147 TIP3     13567    TIP3     H2       HT       0.417000       1.00800           0
     63148 TIP3     13568    TIP3     OH2      OT      -0.834000       15.9994           0
     63149 TIP3     13568    TIP3     H1       HT       0.417000       1.00800           0
     63150 TIP3     13568    TIP3     H2       HT       0.417000       1.00800           0
     63151 TIP3     13569    TIP3     OH2      OT      -0.834000       15.9994           0
     63152 TIP3     13569    TIP3     H1       HT       0.417000       1.00800           0
     63153 TIP3     13569    TIP3     H2       HT       0.417000       1.00800           0
     63154 TIP3     13570    TIP3     OH2      OT      -0.834000       15.9994           0
     63155 TIP3     13570    TIP3     H1       HT       0.417000       1.00800           0
     63156 TIP3     13570    TIP3     H2       HT       0.417000       1.00800           0
     63157 TIP3     13571    TIP3     OH2      OT      -0.834000       15.9994           0
     63158 TIP3     13571    TIP3     H1       HT       0.417000       1.00800           0
     63159 TIP3     13571    TIP3     H2       HT       0.417000       1.00800           0
     63160 TIP3     13572    TIP3     OH2      OT      -0.834000       15.9994           0
     63161 TIP3     13572    TIP3     H1       HT       0.417000       1.00800           0
     63162 TIP3     13572    TIP3     H2       HT       0.417000       1.00800           0
     63163 TIP3     13573    TIP3     OH2      OT      -0.834000       15.9994           0
     63164 TIP3     13573    TIP3     H1       HT       0.417000       1.00800           0
     63165 TIP3     13573    TIP3     H2       HT       0.417000       1.00800           0
     63166 TIP3     13574    TIP3     OH2      OT      -0.834000       15.9994           0
     63167 TIP3     13574    TIP3     H1       HT       0.417000       1.00800           0
     63168 TIP3     13574    TIP3     H2       HT       0.417000       1.00800           0
     63169 TIP3     13575    TIP3     OH2      OT      -0.834000       15.9994           0
     63170 TIP3     13575    TIP3     H1       HT       0.417000       1.00800           0
     63171 TIP3     13575    TIP3     H2       HT       0.417000       1.00800           0
     63172 TIP3     13576    TIP3     OH2      OT      -0.834000       15.9994           0
     63173 TIP3     13576    TIP3     H1       HT       0.417000       1.00800           0
     63174 TIP3     13576    TIP3     H2       HT       0.417000       1.00800           0
     63175 TIP3     13577    TIP3     OH2      OT      -0.834000       15.9994           0
     63176 TIP3     13577    TIP3     H1       HT       0.417000       1.00800           0
     63177 TIP3     13577    TIP3     H2       HT       0.417000       1.00800           0
     63178 TIP3     13578    TIP3     OH2      OT      -0.834000       15.9994           0
     63179 TIP3     13578    TIP3     H1       HT       0.417000       1.00800           0
     63180 TIP3     13578    TIP3     H2       HT       0.417000       1.00800           0
     63181 TIP3     13579    TIP3     OH2      OT      -0.834000       15.9994           0
     63182 TIP3     13579    TIP3     H1       HT       0.417000       1.00800           0
     63183 TIP3     13579    TIP3     H2       HT       0.417000       1.00800           0
     63184 TIP3     13580    TIP3     OH2      OT      -0.834000       15.9994           0
     63185 TIP3     13580    TIP3     H1       HT       0.417000       1.00800           0
     63186 TIP3     13580    TIP3     H2       HT       0.417000       1.00800           0
     63187 TIP3     13581    TIP3     OH2      OT      -0.834000       15.9994           0
     63188 TIP3     13581    TIP3     H1       HT       0.417000       1.00800           0
     63189 TIP3     13581    TIP3     H2       HT       0.417000       1.00800           0
     63190 TIP3     13582    TIP3     OH2      OT      -0.834000       15.9994           0
     63191 TIP3     13582    TIP3     H1       HT       0.417000       1.00800           0
     63192 TIP3     13582    TIP3     H2       HT       0.417000       1.00800           0
     63193 TIP3     13583    TIP3     OH2      OT      -0.834000       15.9994           0
     63194 TIP3     13583    TIP3     H1       HT       0.417000       1.00800           0
     63195 TIP3     13583    TIP3     H2       HT       0.417000       1.00800           0
     63196 TIP3     13584    TIP3     OH2      OT      -0.834000       15.9994           0
     63197 TIP3     13584    TIP3     H1       HT       0.417000       1.00800           0
     63198 TIP3     13584    TIP3     H2       HT       0.417000       1.00800           0
     63199 TIP3     13585    TIP3     OH2      OT      -0.834000       15.9994           0
     63200 TIP3     13585    TIP3     H1       HT       0.417000       1.00800           0
     63201 TIP3     13585    TIP3     H2       HT       0.417000       1.00800           0
     63202 TIP3     13586    TIP3     OH2      OT      -0.834000       15.9994           0
     63203 TIP3     13586    TIP3     H1       HT       0.417000       1.00800           0
     63204 TIP3     13586    TIP3     H2       HT       0.417000       1.00800           0
     63205 TIP3     13587    TIP3     OH2      OT      -0.834000       15.9994           0
     63206 TIP3     13587    TIP3     H1       HT       0.417000       1.00800           0
     63207 TIP3     13587    TIP3     H2       HT       0.417000       1.00800           0
     63208 TIP3     13588    TIP3     OH2      OT      -0.834000       15.9994           0
     63209 TIP3     13588    TIP3     H1       HT       0.417000       1.00800           0
     63210 TIP3     13588    TIP3     H2       HT       0.417000       1.00800           0
     63211 TIP3     13589    TIP3     OH2      OT      -0.834000       15.9994           0
     63212 TIP3     13589    TIP3     H1       HT       0.417000       1.00800           0
     63213 TIP3     13589    TIP3     H2       HT       0.417000       1.00800           0
     63214 TIP3     13590    TIP3     OH2      OT      -0.834000       15.9994           0
     63215 TIP3     13590    TIP3     H1       HT       0.417000       1.00800           0
     63216 TIP3     13590    TIP3     H2       HT       0.417000       1.00800           0
     63217 TIP3     13591    TIP3     OH2      OT      -0.834000       15.9994           0
     63218 TIP3     13591    TIP3     H1       HT       0.417000       1.00800           0
     63219 TIP3     13591    TIP3     H2       HT       0.417000       1.00800           0
     63220 TIP3     13592    TIP3     OH2      OT      -0.834000       15.9994           0
     63221 TIP3     13592    TIP3     H1       HT       0.417000       1.00800           0
     63222 TIP3     13592    TIP3     H2       HT       0.417000       1.00800           0
     63223 TIP3     13593    TIP3     OH2      OT      -0.834000       15.9994           0
     63224 TIP3     13593    TIP3     H1       HT       0.417000       1.00800           0
     63225 TIP3     13593    TIP3     H2       HT       0.417000       1.00800           0
     63226 TIP3     13594    TIP3     OH2      OT      -0.834000       15.9994           0
     63227 TIP3     13594    TIP3     H1       HT       0.417000       1.00800           0
     63228 TIP3     13594    TIP3     H2       HT       0.417000       1.00800           0
     63229 TIP3     13595    TIP3     OH2      OT      -0.834000       15.9994           0
     63230 TIP3     13595    TIP3     H1       HT       0.417000       1.00800           0
     63231 TIP3     13595    TIP3     H2       HT       0.417000       1.00800           0
     63232 TIP3     13596    TIP3     OH2      OT      -0.834000       15.9994           0
     63233 TIP3     13596    TIP3     H1       HT       0.417000       1.00800           0
     63234 TIP3     13596    TIP3     H2       HT       0.417000       1.00800           0
     63235 TIP3     13597    TIP3     OH2      OT      -0.834000       15.9994           0
     63236 TIP3     13597    TIP3     H1       HT       0.417000       1.00800           0
     63237 TIP3     13597    TIP3     H2       HT       0.417000       1.00800           0
     63238 TIP3     13598    TIP3     OH2      OT      -0.834000       15.9994           0
     63239 TIP3     13598    TIP3     H1       HT       0.417000       1.00800           0
     63240 TIP3     13598    TIP3     H2       HT       0.417000       1.00800           0
     63241 TIP3     13599    TIP3     OH2      OT      -0.834000       15.9994           0
     63242 TIP3     13599    TIP3     H1       HT       0.417000       1.00800           0
     63243 TIP3     13599    TIP3     H2       HT       0.417000       1.00800           0
     63244 TIP3     13600    TIP3     OH2      OT      -0.834000       15.9994           0
     63245 TIP3     13600    TIP3     H1       HT       0.417000       1.00800           0
     63246 TIP3     13600    TIP3     H2       HT       0.417000       1.00800           0
     63247 TIP3     13601    TIP3     OH2      OT      -0.834000       15.9994           0
     63248 TIP3     13601    TIP3     H1       HT       0.417000       1.00800           0
     63249 TIP3     13601    TIP3     H2       HT       0.417000       1.00800           0
     63250 TIP3     13602    TIP3     OH2      OT      -0.834000       15.9994           0
     63251 TIP3     13602    TIP3     H1       HT       0.417000       1.00800           0
     63252 TIP3     13602    TIP3     H2       HT       0.417000       1.00800           0
     63253 TIP3     13603    TIP3     OH2      OT      -0.834000       15.9994           0
     63254 TIP3     13603    TIP3     H1       HT       0.417000       1.00800           0
     63255 TIP3     13603    TIP3     H2       HT       0.417000       1.00800           0
     63256 TIP3     13604    TIP3     OH2      OT      -0.834000       15.9994           0
     63257 TIP3     13604    TIP3     H1       HT       0.417000       1.00800           0
     63258 TIP3     13604    TIP3     H2       HT       0.417000       1.00800           0
     63259 TIP3     13605    TIP3     OH2      OT      -0.834000       15.9994           0
     63260 TIP3     13605    TIP3     H1       HT       0.417000       1.00800           0
     63261 TIP3     13605    TIP3     H2       HT       0.417000       1.00800           0
     63262 TIP3     13606    TIP3     OH2      OT      -0.834000       15.9994           0
     63263 TIP3     13606    TIP3     H1       HT       0.417000       1.00800           0
     63264 TIP3     13606    TIP3     H2       HT       0.417000       1.00800           0
     63265 TIP3     13607    TIP3     OH2      OT      -0.834000       15.9994           0
     63266 TIP3     13607    TIP3     H1       HT       0.417000       1.00800           0
     63267 TIP3     13607    TIP3     H2       HT       0.417000       1.00800           0
     63268 TIP3     13608    TIP3     OH2      OT      -0.834000       15.9994           0
     63269 TIP3     13608    TIP3     H1       HT       0.417000       1.00800           0
     63270 TIP3     13608    TIP3     H2       HT       0.417000       1.00800           0
     63271 TIP3     13609    TIP3     OH2      OT      -0.834000       15.9994           0
     63272 TIP3     13609    TIP3     H1       HT       0.417000       1.00800           0
     63273 TIP3     13609    TIP3     H2       HT       0.417000       1.00800           0
     63274 TIP3     13610    TIP3     OH2      OT      -0.834000       15.9994           0
     63275 TIP3     13610    TIP3     H1       HT       0.417000       1.00800           0
     63276 TIP3     13610    TIP3     H2       HT       0.417000       1.00800           0
     63277 TIP3     13611    TIP3     OH2      OT      -0.834000       15.9994           0
     63278 TIP3     13611    TIP3     H1       HT       0.417000       1.00800           0
     63279 TIP3     13611    TIP3     H2       HT       0.417000       1.00800           0
     63280 TIP3     13612    TIP3     OH2      OT      -0.834000       15.9994           0
     63281 TIP3     13612    TIP3     H1       HT       0.417000       1.00800           0
     63282 TIP3     13612    TIP3     H2       HT       0.417000       1.00800           0
     63283 TIP3     13613    TIP3     OH2      OT      -0.834000       15.9994           0
     63284 TIP3     13613    TIP3     H1       HT       0.417000       1.00800           0
     63285 TIP3     13613    TIP3     H2       HT       0.417000       1.00800           0
     63286 TIP3     13614    TIP3     OH2      OT      -0.834000       15.9994           0
     63287 TIP3     13614    TIP3     H1       HT       0.417000       1.00800           0
     63288 TIP3     13614    TIP3     H2       HT       0.417000       1.00800           0
     63289 TIP3     13615    TIP3     OH2      OT      -0.834000       15.9994           0
     63290 TIP3     13615    TIP3     H1       HT       0.417000       1.00800           0
     63291 TIP3     13615    TIP3     H2       HT       0.417000       1.00800           0
     63292 TIP3     13616    TIP3     OH2      OT      -0.834000       15.9994           0
     63293 TIP3     13616    TIP3     H1       HT       0.417000       1.00800           0
     63294 TIP3     13616    TIP3     H2       HT       0.417000       1.00800           0
     63295 TIP3     13617    TIP3     OH2      OT      -0.834000       15.9994           0
     63296 TIP3     13617    TIP3     H1       HT       0.417000       1.00800           0
     63297 TIP3     13617    TIP3     H2       HT       0.417000       1.00800           0
     63298 TIP3     13618    TIP3     OH2      OT      -0.834000       15.9994           0
     63299 TIP3     13618    TIP3     H1       HT       0.417000       1.00800           0
     63300 TIP3     13618    TIP3     H2       HT       0.417000       1.00800           0
     63301 TIP3     13619    TIP3     OH2      OT      -0.834000       15.9994           0
     63302 TIP3     13619    TIP3     H1       HT       0.417000       1.00800           0
     63303 TIP3     13619    TIP3     H2       HT       0.417000       1.00800           0
     63304 TIP3     13620    TIP3     OH2      OT      -0.834000       15.9994           0
     63305 TIP3     13620    TIP3     H1       HT       0.417000       1.00800           0
     63306 TIP3     13620    TIP3     H2       HT       0.417000       1.00800           0
     63307 TIP3     13621    TIP3     OH2      OT      -0.834000       15.9994           0
     63308 TIP3     13621    TIP3     H1       HT       0.417000       1.00800           0
     63309 TIP3     13621    TIP3     H2       HT       0.417000       1.00800           0
     63310 TIP3     13622    TIP3     OH2      OT      -0.834000       15.9994           0
     63311 TIP3     13622    TIP3     H1       HT       0.417000       1.00800           0
     63312 TIP3     13622    TIP3     H2       HT       0.417000       1.00800           0
     63313 TIP3     13623    TIP3     OH2      OT      -0.834000       15.9994           0
     63314 TIP3     13623    TIP3     H1       HT       0.417000       1.00800           0
     63315 TIP3     13623    TIP3     H2       HT       0.417000       1.00800           0
     63316 TIP3     13624    TIP3     OH2      OT      -0.834000       15.9994           0
     63317 TIP3     13624    TIP3     H1       HT       0.417000       1.00800           0
     63318 TIP3     13624    TIP3     H2       HT       0.417000       1.00800           0
     63319 TIP3     13625    TIP3     OH2      OT      -0.834000       15.9994           0
     63320 TIP3     13625    TIP3     H1       HT       0.417000       1.00800           0
     63321 TIP3     13625    TIP3     H2       HT       0.417000       1.00800           0
     63322 TIP3     13626    TIP3     OH2      OT      -0.834000       15.9994           0
     63323 TIP3     13626    TIP3     H1       HT       0.417000       1.00800           0
     63324 TIP3     13626    TIP3     H2       HT       0.417000       1.00800           0
     63325 TIP3     13627    TIP3     OH2      OT      -0.834000       15.9994           0
     63326 TIP3     13627    TIP3     H1       HT       0.417000       1.00800           0
     63327 TIP3     13627    TIP3     H2       HT       0.417000       1.00800           0
     63328 TIP3     13628    TIP3     OH2      OT      -0.834000       15.9994           0
     63329 TIP3     13628    TIP3     H1       HT       0.417000       1.00800           0
     63330 TIP3     13628    TIP3     H2       HT       0.417000       1.00800           0
     63331 TIP3     13629    TIP3     OH2      OT      -0.834000       15.9994           0
     63332 TIP3     13629    TIP3     H1       HT       0.417000       1.00800           0
     63333 TIP3     13629    TIP3     H2       HT       0.417000       1.00800           0
     63334 TIP3     13630    TIP3     OH2      OT      -0.834000       15.9994           0
     63335 TIP3     13630    TIP3     H1       HT       0.417000       1.00800           0
     63336 TIP3     13630    TIP3     H2       HT       0.417000       1.00800           0
     63337 TIP3     13631    TIP3     OH2      OT      -0.834000       15.9994           0
     63338 TIP3     13631    TIP3     H1       HT       0.417000       1.00800           0
     63339 TIP3     13631    TIP3     H2       HT       0.417000       1.00800           0
     63340 TIP3     13632    TIP3     OH2      OT      -0.834000       15.9994           0
     63341 TIP3     13632    TIP3     H1       HT       0.417000       1.00800           0
     63342 TIP3     13632    TIP3     H2       HT       0.417000       1.00800           0
     63343 TIP3     13633    TIP3     OH2      OT      -0.834000       15.9994           0
     63344 TIP3     13633    TIP3     H1       HT       0.417000       1.00800           0
     63345 TIP3     13633    TIP3     H2       HT       0.417000       1.00800           0
     63346 TIP3     13634    TIP3     OH2      OT      -0.834000       15.9994           0
     63347 TIP3     13634    TIP3     H1       HT       0.417000       1.00800           0
     63348 TIP3     13634    TIP3     H2       HT       0.417000       1.00800           0
     63349 TIP3     13635    TIP3     OH2      OT      -0.834000       15.9994           0
     63350 TIP3     13635    TIP3     H1       HT       0.417000       1.00800           0
     63351 TIP3     13635    TIP3     H2       HT       0.417000       1.00800           0
     63352 TIP3     13636    TIP3     OH2      OT      -0.834000       15.9994           0
     63353 TIP3     13636    TIP3     H1       HT       0.417000       1.00800           0
     63354 TIP3     13636    TIP3     H2       HT       0.417000       1.00800           0
     63355 TIP3     13637    TIP3     OH2      OT      -0.834000       15.9994           0
     63356 TIP3     13637    TIP3     H1       HT       0.417000       1.00800           0
     63357 TIP3     13637    TIP3     H2       HT       0.417000       1.00800           0
     63358 TIP3     13638    TIP3     OH2      OT      -0.834000       15.9994           0
     63359 TIP3     13638    TIP3     H1       HT       0.417000       1.00800           0
     63360 TIP3     13638    TIP3     H2       HT       0.417000       1.00800           0
     63361 TIP3     13639    TIP3     OH2      OT      -0.834000       15.9994           0
     63362 TIP3     13639    TIP3     H1       HT       0.417000       1.00800           0
     63363 TIP3     13639    TIP3     H2       HT       0.417000       1.00800           0
     63364 TIP3     13640    TIP3     OH2      OT      -0.834000       15.9994           0
     63365 TIP3     13640    TIP3     H1       HT       0.417000       1.00800           0
     63366 TIP3     13640    TIP3     H2       HT       0.417000       1.00800           0
     63367 TIP3     13641    TIP3     OH2      OT      -0.834000       15.9994           0
     63368 TIP3     13641    TIP3     H1       HT       0.417000       1.00800           0
     63369 TIP3     13641    TIP3     H2       HT       0.417000       1.00800           0
     63370 TIP3     13642    TIP3     OH2      OT      -0.834000       15.9994           0
     63371 TIP3     13642    TIP3     H1       HT       0.417000       1.00800           0
     63372 TIP3     13642    TIP3     H2       HT       0.417000       1.00800           0
     63373 TIP3     13643    TIP3     OH2      OT      -0.834000       15.9994           0
     63374 TIP3     13643    TIP3     H1       HT       0.417000       1.00800           0
     63375 TIP3     13643    TIP3     H2       HT       0.417000       1.00800           0
     63376 TIP3     13644    TIP3     OH2      OT      -0.834000       15.9994           0
     63377 TIP3     13644    TIP3     H1       HT       0.417000       1.00800           0
     63378 TIP3     13644    TIP3     H2       HT       0.417000       1.00800           0
     63379 TIP3     13645    TIP3     OH2      OT      -0.834000       15.9994           0
     63380 TIP3     13645    TIP3     H1       HT       0.417000       1.00800           0
     63381 TIP3     13645    TIP3     H2       HT       0.417000       1.00800           0
     63382 TIP3     13646    TIP3     OH2      OT      -0.834000       15.9994           0
     63383 TIP3     13646    TIP3     H1       HT       0.417000       1.00800           0
     63384 TIP3     13646    TIP3     H2       HT       0.417000       1.00800           0
     63385 TIP3     13647    TIP3     OH2      OT      -0.834000       15.9994           0
     63386 TIP3     13647    TIP3     H1       HT       0.417000       1.00800           0
     63387 TIP3     13647    TIP3     H2       HT       0.417000       1.00800           0
     63388 TIP3     13648    TIP3     OH2      OT      -0.834000       15.9994           0
     63389 TIP3     13648    TIP3     H1       HT       0.417000       1.00800           0
     63390 TIP3     13648    TIP3     H2       HT       0.417000       1.00800           0
     63391 TIP3     13649    TIP3     OH2      OT      -0.834000       15.9994           0
     63392 TIP3     13649    TIP3     H1       HT       0.417000       1.00800           0
     63393 TIP3     13649    TIP3     H2       HT       0.417000       1.00800           0
     63394 TIP3     13650    TIP3     OH2      OT      -0.834000       15.9994           0
     63395 TIP3     13650    TIP3     H1       HT       0.417000       1.00800           0
     63396 TIP3     13650    TIP3     H2       HT       0.417000       1.00800           0
     63397 TIP3     13651    TIP3     OH2      OT      -0.834000       15.9994           0
     63398 TIP3     13651    TIP3     H1       HT       0.417000       1.00800           0
     63399 TIP3     13651    TIP3     H2       HT       0.417000       1.00800           0
     63400 TIP3     13652    TIP3     OH2      OT      -0.834000       15.9994           0
     63401 TIP3     13652    TIP3     H1       HT       0.417000       1.00800           0
     63402 TIP3     13652    TIP3     H2       HT       0.417000       1.00800           0
     63403 TIP3     13653    TIP3     OH2      OT      -0.834000       15.9994           0
     63404 TIP3     13653    TIP3     H1       HT       0.417000       1.00800           0
     63405 TIP3     13653    TIP3     H2       HT       0.417000       1.00800           0
     63406 TIP3     13654    TIP3     OH2      OT      -0.834000       15.9994           0
     63407 TIP3     13654    TIP3     H1       HT       0.417000       1.00800           0
     63408 TIP3     13654    TIP3     H2       HT       0.417000       1.00800           0
     63409 TIP3     13655    TIP3     OH2      OT      -0.834000       15.9994           0
     63410 TIP3     13655    TIP3     H1       HT       0.417000       1.00800           0
     63411 TIP3     13655    TIP3     H2       HT       0.417000       1.00800           0
     63412 TIP3     13656    TIP3     OH2      OT      -0.834000       15.9994           0
     63413 TIP3     13656    TIP3     H1       HT       0.417000       1.00800           0
     63414 TIP3     13656    TIP3     H2       HT       0.417000       1.00800           0
     63415 TIP3     13657    TIP3     OH2      OT      -0.834000       15.9994           0
     63416 TIP3     13657    TIP3     H1       HT       0.417000       1.00800           0
     63417 TIP3     13657    TIP3     H2       HT       0.417000       1.00800           0
     63418 TIP3     13658    TIP3     OH2      OT      -0.834000       15.9994           0
     63419 TIP3     13658    TIP3     H1       HT       0.417000       1.00800           0
     63420 TIP3     13658    TIP3     H2       HT       0.417000       1.00800           0
     63421 TIP3     13659    TIP3     OH2      OT      -0.834000       15.9994           0
     63422 TIP3     13659    TIP3     H1       HT       0.417000       1.00800           0
     63423 TIP3     13659    TIP3     H2       HT       0.417000       1.00800           0
     63424 TIP3     13660    TIP3     OH2      OT      -0.834000       15.9994           0
     63425 TIP3     13660    TIP3     H1       HT       0.417000       1.00800           0
     63426 TIP3     13660    TIP3     H2       HT       0.417000       1.00800           0
     63427 TIP3     13661    TIP3     OH2      OT      -0.834000       15.9994           0
     63428 TIP3     13661    TIP3     H1       HT       0.417000       1.00800           0
     63429 TIP3     13661    TIP3     H2       HT       0.417000       1.00800           0
     63430 TIP3     13662    TIP3     OH2      OT      -0.834000       15.9994           0
     63431 TIP3     13662    TIP3     H1       HT       0.417000       1.00800           0
     63432 TIP3     13662    TIP3     H2       HT       0.417000       1.00800           0
     63433 TIP3     13663    TIP3     OH2      OT      -0.834000       15.9994           0
     63434 TIP3     13663    TIP3     H1       HT       0.417000       1.00800           0
     63435 TIP3     13663    TIP3     H2       HT       0.417000       1.00800           0
     63436 TIP3     13664    TIP3     OH2      OT      -0.834000       15.9994           0
     63437 TIP3     13664    TIP3     H1       HT       0.417000       1.00800           0
     63438 TIP3     13664    TIP3     H2       HT       0.417000       1.00800           0
     63439 TIP3     13665    TIP3     OH2      OT      -0.834000       15.9994           0
     63440 TIP3     13665    TIP3     H1       HT       0.417000       1.00800           0
     63441 TIP3     13665    TIP3     H2       HT       0.417000       1.00800           0
     63442 TIP3     13666    TIP3     OH2      OT      -0.834000       15.9994           0
     63443 TIP3     13666    TIP3     H1       HT       0.417000       1.00800           0
     63444 TIP3     13666    TIP3     H2       HT       0.417000       1.00800           0
     63445 TIP3     13667    TIP3     OH2      OT      -0.834000       15.9994           0
     63446 TIP3     13667    TIP3     H1       HT       0.417000       1.00800           0
     63447 TIP3     13667    TIP3     H2       HT       0.417000       1.00800           0
     63448 TIP3     13668    TIP3     OH2      OT      -0.834000       15.9994           0
     63449 TIP3     13668    TIP3     H1       HT       0.417000       1.00800           0
     63450 TIP3     13668    TIP3     H2       HT       0.417000       1.00800           0
     63451 TIP3     13669    TIP3     OH2      OT      -0.834000       15.9994           0
     63452 TIP3     13669    TIP3     H1       HT       0.417000       1.00800           0
     63453 TIP3     13669    TIP3     H2       HT       0.417000       1.00800           0
     63454 TIP3     13670    TIP3     OH2      OT      -0.834000       15.9994           0
     63455 TIP3     13670    TIP3     H1       HT       0.417000       1.00800           0
     63456 TIP3     13670    TIP3     H2       HT       0.417000       1.00800           0
     63457 TIP3     13671    TIP3     OH2      OT      -0.834000       15.9994           0
     63458 TIP3     13671    TIP3     H1       HT       0.417000       1.00800           0
     63459 TIP3     13671    TIP3     H2       HT       0.417000       1.00800           0
     63460 TIP3     13672    TIP3     OH2      OT      -0.834000       15.9994           0
     63461 TIP3     13672    TIP3     H1       HT       0.417000       1.00800           0
     63462 TIP3     13672    TIP3     H2       HT       0.417000       1.00800           0
     63463 TIP3     13673    TIP3     OH2      OT      -0.834000       15.9994           0
     63464 TIP3     13673    TIP3     H1       HT       0.417000       1.00800           0
     63465 TIP3     13673    TIP3     H2       HT       0.417000       1.00800           0
     63466 TIP3     13674    TIP3     OH2      OT      -0.834000       15.9994           0
     63467 TIP3     13674    TIP3     H1       HT       0.417000       1.00800           0
     63468 TIP3     13674    TIP3     H2       HT       0.417000       1.00800           0
     63469 TIP3     13675    TIP3     OH2      OT      -0.834000       15.9994           0
     63470 TIP3     13675    TIP3     H1       HT       0.417000       1.00800           0
     63471 TIP3     13675    TIP3     H2       HT       0.417000       1.00800           0
     63472 TIP3     13676    TIP3     OH2      OT      -0.834000       15.9994           0
     63473 TIP3     13676    TIP3     H1       HT       0.417000       1.00800           0
     63474 TIP3     13676    TIP3     H2       HT       0.417000       1.00800           0
     63475 TIP3     13677    TIP3     OH2      OT      -0.834000       15.9994           0
     63476 TIP3     13677    TIP3     H1       HT       0.417000       1.00800           0
     63477 TIP3     13677    TIP3     H2       HT       0.417000       1.00800           0
     63478 TIP3     13678    TIP3     OH2      OT      -0.834000       15.9994           0
     63479 TIP3     13678    TIP3     H1       HT       0.417000       1.00800           0
     63480 TIP3     13678    TIP3     H2       HT       0.417000       1.00800           0
     63481 TIP3     13679    TIP3     OH2      OT      -0.834000       15.9994           0
     63482 TIP3     13679    TIP3     H1       HT       0.417000       1.00800           0
     63483 TIP3     13679    TIP3     H2       HT       0.417000       1.00800           0
     63484 TIP3     13680    TIP3     OH2      OT      -0.834000       15.9994           0
     63485 TIP3     13680    TIP3     H1       HT       0.417000       1.00800           0
     63486 TIP3     13680    TIP3     H2       HT       0.417000       1.00800           0
     63487 TIP3     13681    TIP3     OH2      OT      -0.834000       15.9994           0
     63488 TIP3     13681    TIP3     H1       HT       0.417000       1.00800           0
     63489 TIP3     13681    TIP3     H2       HT       0.417000       1.00800           0
     63490 TIP3     13682    TIP3     OH2      OT      -0.834000       15.9994           0
     63491 TIP3     13682    TIP3     H1       HT       0.417000       1.00800           0
     63492 TIP3     13682    TIP3     H2       HT       0.417000       1.00800           0
     63493 TIP3     13683    TIP3     OH2      OT      -0.834000       15.9994           0
     63494 TIP3     13683    TIP3     H1       HT       0.417000       1.00800           0
     63495 TIP3     13683    TIP3     H2       HT       0.417000       1.00800           0
     63496 TIP3     13684    TIP3     OH2      OT      -0.834000       15.9994           0
     63497 TIP3     13684    TIP3     H1       HT       0.417000       1.00800           0
     63498 TIP3     13684    TIP3     H2       HT       0.417000       1.00800           0
     63499 TIP3     13685    TIP3     OH2      OT      -0.834000       15.9994           0
     63500 TIP3     13685    TIP3     H1       HT       0.417000       1.00800           0
     63501 TIP3     13685    TIP3     H2       HT       0.417000       1.00800           0
     63502 TIP3     13686    TIP3     OH2      OT      -0.834000       15.9994           0
     63503 TIP3     13686    TIP3     H1       HT       0.417000       1.00800           0
     63504 TIP3     13686    TIP3     H2       HT       0.417000       1.00800           0
     63505 TIP3     13687    TIP3     OH2      OT      -0.834000       15.9994           0
     63506 TIP3     13687    TIP3     H1       HT       0.417000       1.00800           0
     63507 TIP3     13687    TIP3     H2       HT       0.417000       1.00800           0
     63508 TIP3     13688    TIP3     OH2      OT      -0.834000       15.9994           0
     63509 TIP3     13688    TIP3     H1       HT       0.417000       1.00800           0
     63510 TIP3     13688    TIP3     H2       HT       0.417000       1.00800           0
     63511 TIP3     13689    TIP3     OH2      OT      -0.834000       15.9994           0
     63512 TIP3     13689    TIP3     H1       HT       0.417000       1.00800           0
     63513 TIP3     13689    TIP3     H2       HT       0.417000       1.00800           0
     63514 TIP3     13690    TIP3     OH2      OT      -0.834000       15.9994           0
     63515 TIP3     13690    TIP3     H1       HT       0.417000       1.00800           0
     63516 TIP3     13690    TIP3     H2       HT       0.417000       1.00800           0
     63517 TIP3     13691    TIP3     OH2      OT      -0.834000       15.9994           0
     63518 TIP3     13691    TIP3     H1       HT       0.417000       1.00800           0
     63519 TIP3     13691    TIP3     H2       HT       0.417000       1.00800           0
     63520 TIP3     13692    TIP3     OH2      OT      -0.834000       15.9994           0
     63521 TIP3     13692    TIP3     H1       HT       0.417000       1.00800           0
     63522 TIP3     13692    TIP3     H2       HT       0.417000       1.00800           0
     63523 TIP3     13693    TIP3     OH2      OT      -0.834000       15.9994           0
     63524 TIP3     13693    TIP3     H1       HT       0.417000       1.00800           0
     63525 TIP3     13693    TIP3     H2       HT       0.417000       1.00800           0
     63526 TIP3     13694    TIP3     OH2      OT      -0.834000       15.9994           0
     63527 TIP3     13694    TIP3     H1       HT       0.417000       1.00800           0
     63528 TIP3     13694    TIP3     H2       HT       0.417000       1.00800           0
     63529 TIP3     13695    TIP3     OH2      OT      -0.834000       15.9994           0
     63530 TIP3     13695    TIP3     H1       HT       0.417000       1.00800           0
     63531 TIP3     13695    TIP3     H2       HT       0.417000       1.00800           0
     63532 TIP3     13696    TIP3     OH2      OT      -0.834000       15.9994           0
     63533 TIP3     13696    TIP3     H1       HT       0.417000       1.00800           0
     63534 TIP3     13696    TIP3     H2       HT       0.417000       1.00800           0
     63535 TIP3     13697    TIP3     OH2      OT      -0.834000       15.9994           0
     63536 TIP3     13697    TIP3     H1       HT       0.417000       1.00800           0
     63537 TIP3     13697    TIP3     H2       HT       0.417000       1.00800           0
     63538 TIP3     13698    TIP3     OH2      OT      -0.834000       15.9994           0
     63539 TIP3     13698    TIP3     H1       HT       0.417000       1.00800           0
     63540 TIP3     13698    TIP3     H2       HT       0.417000       1.00800           0
     63541 TIP3     13699    TIP3     OH2      OT      -0.834000       15.9994           0
     63542 TIP3     13699    TIP3     H1       HT       0.417000       1.00800           0
     63543 TIP3     13699    TIP3     H2       HT       0.417000       1.00800           0
     63544 TIP3     13700    TIP3     OH2      OT      -0.834000       15.9994           0
     63545 TIP3     13700    TIP3     H1       HT       0.417000       1.00800           0
     63546 TIP3     13700    TIP3     H2       HT       0.417000       1.00800           0
     63547 TIP3     13701    TIP3     OH2      OT      -0.834000       15.9994           0
     63548 TIP3     13701    TIP3     H1       HT       0.417000       1.00800           0
     63549 TIP3     13701    TIP3     H2       HT       0.417000       1.00800           0
     63550 TIP3     13702    TIP3     OH2      OT      -0.834000       15.9994           0
     63551 TIP3     13702    TIP3     H1       HT       0.417000       1.00800           0
     63552 TIP3     13702    TIP3     H2       HT       0.417000       1.00800           0
     63553 TIP3     13703    TIP3     OH2      OT      -0.834000       15.9994           0
     63554 TIP3     13703    TIP3     H1       HT       0.417000       1.00800           0
     63555 TIP3     13703    TIP3     H2       HT       0.417000       1.00800           0
     63556 TIP3     13704    TIP3     OH2      OT      -0.834000       15.9994           0
     63557 TIP3     13704    TIP3     H1       HT       0.417000       1.00800           0
     63558 TIP3     13704    TIP3     H2       HT       0.417000       1.00800           0
     63559 TIP3     13705    TIP3     OH2      OT      -0.834000       15.9994           0
     63560 TIP3     13705    TIP3     H1       HT       0.417000       1.00800           0
     63561 TIP3     13705    TIP3     H2       HT       0.417000       1.00800           0
     63562 TIP3     13706    TIP3     OH2      OT      -0.834000       15.9994           0
     63563 TIP3     13706    TIP3     H1       HT       0.417000       1.00800           0
     63564 TIP3     13706    TIP3     H2       HT       0.417000       1.00800           0
     63565 TIP3     13707    TIP3     OH2      OT      -0.834000       15.9994           0
     63566 TIP3     13707    TIP3     H1       HT       0.417000       1.00800           0
     63567 TIP3     13707    TIP3     H2       HT       0.417000       1.00800           0
     63568 TIP3     13708    TIP3     OH2      OT      -0.834000       15.9994           0
     63569 TIP3     13708    TIP3     H1       HT       0.417000       1.00800           0
     63570 TIP3     13708    TIP3     H2       HT       0.417000       1.00800           0
     63571 TIP3     13709    TIP3     OH2      OT      -0.834000       15.9994           0
     63572 TIP3     13709    TIP3     H1       HT       0.417000       1.00800           0
     63573 TIP3     13709    TIP3     H2       HT       0.417000       1.00800           0
     63574 TIP3     13710    TIP3     OH2      OT      -0.834000       15.9994           0
     63575 TIP3     13710    TIP3     H1       HT       0.417000       1.00800           0
     63576 TIP3     13710    TIP3     H2       HT       0.417000       1.00800           0
     63577 TIP3     13711    TIP3     OH2      OT      -0.834000       15.9994           0
     63578 TIP3     13711    TIP3     H1       HT       0.417000       1.00800           0
     63579 TIP3     13711    TIP3     H2       HT       0.417000       1.00800           0
     63580 TIP3     13712    TIP3     OH2      OT      -0.834000       15.9994           0
     63581 TIP3     13712    TIP3     H1       HT       0.417000       1.00800           0
     63582 TIP3     13712    TIP3     H2       HT       0.417000       1.00800           0
     63583 TIP3     13713    TIP3     OH2      OT      -0.834000       15.9994           0
     63584 TIP3     13713    TIP3     H1       HT       0.417000       1.00800           0
     63585 TIP3     13713    TIP3     H2       HT       0.417000       1.00800           0
     63586 TIP3     13714    TIP3     OH2      OT      -0.834000       15.9994           0
     63587 TIP3     13714    TIP3     H1       HT       0.417000       1.00800           0
     63588 TIP3     13714    TIP3     H2       HT       0.417000       1.00800           0
     63589 TIP3     13715    TIP3     OH2      OT      -0.834000       15.9994           0
     63590 TIP3     13715    TIP3     H1       HT       0.417000       1.00800           0
     63591 TIP3     13715    TIP3     H2       HT       0.417000       1.00800           0
     63592 TIP3     13716    TIP3     OH2      OT      -0.834000       15.9994           0
     63593 TIP3     13716    TIP3     H1       HT       0.417000       1.00800           0
     63594 TIP3     13716    TIP3     H2       HT       0.417000       1.00800           0
     63595 TIP3     13717    TIP3     OH2      OT      -0.834000       15.9994           0
     63596 TIP3     13717    TIP3     H1       HT       0.417000       1.00800           0
     63597 TIP3     13717    TIP3     H2       HT       0.417000       1.00800           0
     63598 TIP3     13718    TIP3     OH2      OT      -0.834000       15.9994           0
     63599 TIP3     13718    TIP3     H1       HT       0.417000       1.00800           0
     63600 TIP3     13718    TIP3     H2       HT       0.417000       1.00800           0
     63601 TIP3     13719    TIP3     OH2      OT      -0.834000       15.9994           0
     63602 TIP3     13719    TIP3     H1       HT       0.417000       1.00800           0
     63603 TIP3     13719    TIP3     H2       HT       0.417000       1.00800           0
     63604 TIP3     13720    TIP3     OH2      OT      -0.834000       15.9994           0
     63605 TIP3     13720    TIP3     H1       HT       0.417000       1.00800           0
     63606 TIP3     13720    TIP3     H2       HT       0.417000       1.00800           0
     63607 TIP3     13721    TIP3     OH2      OT      -0.834000       15.9994           0
     63608 TIP3     13721    TIP3     H1       HT       0.417000       1.00800           0
     63609 TIP3     13721    TIP3     H2       HT       0.417000       1.00800           0
     63610 TIP3     13722    TIP3     OH2      OT      -0.834000       15.9994           0
     63611 TIP3     13722    TIP3     H1       HT       0.417000       1.00800           0
     63612 TIP3     13722    TIP3     H2       HT       0.417000       1.00800           0
     63613 TIP3     13723    TIP3     OH2      OT      -0.834000       15.9994           0
     63614 TIP3     13723    TIP3     H1       HT       0.417000       1.00800           0
     63615 TIP3     13723    TIP3     H2       HT       0.417000       1.00800           0
     63616 TIP3     13724    TIP3     OH2      OT      -0.834000       15.9994           0
     63617 TIP3     13724    TIP3     H1       HT       0.417000       1.00800           0
     63618 TIP3     13724    TIP3     H2       HT       0.417000       1.00800           0
     63619 TIP3     13725    TIP3     OH2      OT      -0.834000       15.9994           0
     63620 TIP3     13725    TIP3     H1       HT       0.417000       1.00800           0
     63621 TIP3     13725    TIP3     H2       HT       0.417000       1.00800           0
     63622 TIP3     13726    TIP3     OH2      OT      -0.834000       15.9994           0
     63623 TIP3     13726    TIP3     H1       HT       0.417000       1.00800           0
     63624 TIP3     13726    TIP3     H2       HT       0.417000       1.00800           0
     63625 TIP3     13727    TIP3     OH2      OT      -0.834000       15.9994           0
     63626 TIP3     13727    TIP3     H1       HT       0.417000       1.00800           0
     63627 TIP3     13727    TIP3     H2       HT       0.417000       1.00800           0
     63628 TIP3     13728    TIP3     OH2      OT      -0.834000       15.9994           0
     63629 TIP3     13728    TIP3     H1       HT       0.417000       1.00800           0
     63630 TIP3     13728    TIP3     H2       HT       0.417000       1.00800           0
     63631 TIP3     13729    TIP3     OH2      OT      -0.834000       15.9994           0
     63632 TIP3     13729    TIP3     H1       HT       0.417000       1.00800           0
     63633 TIP3     13729    TIP3     H2       HT       0.417000       1.00800           0
     63634 TIP3     13730    TIP3     OH2      OT      -0.834000       15.9994           0
     63635 TIP3     13730    TIP3     H1       HT       0.417000       1.00800           0
     63636 TIP3     13730    TIP3     H2       HT       0.417000       1.00800           0
     63637 TIP3     13731    TIP3     OH2      OT      -0.834000       15.9994           0
     63638 TIP3     13731    TIP3     H1       HT       0.417000       1.00800           0
     63639 TIP3     13731    TIP3     H2       HT       0.417000       1.00800           0
     63640 TIP3     13732    TIP3     OH2      OT      -0.834000       15.9994           0
     63641 TIP3     13732    TIP3     H1       HT       0.417000       1.00800           0
     63642 TIP3     13732    TIP3     H2       HT       0.417000       1.00800           0
     63643 TIP3     13733    TIP3     OH2      OT      -0.834000       15.9994           0
     63644 TIP3     13733    TIP3     H1       HT       0.417000       1.00800           0
     63645 TIP3     13733    TIP3     H2       HT       0.417000       1.00800           0
     63646 TIP3     13734    TIP3     OH2      OT      -0.834000       15.9994           0
     63647 TIP3     13734    TIP3     H1       HT       0.417000       1.00800           0
     63648 TIP3     13734    TIP3     H2       HT       0.417000       1.00800           0
     63649 TIP3     13735    TIP3     OH2      OT      -0.834000       15.9994           0
     63650 TIP3     13735    TIP3     H1       HT       0.417000       1.00800           0
     63651 TIP3     13735    TIP3     H2       HT       0.417000       1.00800           0
     63652 TIP3     13736    TIP3     OH2      OT      -0.834000       15.9994           0
     63653 TIP3     13736    TIP3     H1       HT       0.417000       1.00800           0
     63654 TIP3     13736    TIP3     H2       HT       0.417000       1.00800           0
     63655 TIP3     13737    TIP3     OH2      OT      -0.834000       15.9994           0
     63656 TIP3     13737    TIP3     H1       HT       0.417000       1.00800           0
     63657 TIP3     13737    TIP3     H2       HT       0.417000       1.00800           0
     63658 TIP3     13738    TIP3     OH2      OT      -0.834000       15.9994           0
     63659 TIP3     13738    TIP3     H1       HT       0.417000       1.00800           0
     63660 TIP3     13738    TIP3     H2       HT       0.417000       1.00800           0
     63661 TIP3     13739    TIP3     OH2      OT      -0.834000       15.9994           0
     63662 TIP3     13739    TIP3     H1       HT       0.417000       1.00800           0
     63663 TIP3     13739    TIP3     H2       HT       0.417000       1.00800           0
     63664 TIP3     13740    TIP3     OH2      OT      -0.834000       15.9994           0
     63665 TIP3     13740    TIP3     H1       HT       0.417000       1.00800           0
     63666 TIP3     13740    TIP3     H2       HT       0.417000       1.00800           0
     63667 TIP3     13741    TIP3     OH2      OT      -0.834000       15.9994           0
     63668 TIP3     13741    TIP3     H1       HT       0.417000       1.00800           0
     63669 TIP3     13741    TIP3     H2       HT       0.417000       1.00800           0
     63670 TIP3     13742    TIP3     OH2      OT      -0.834000       15.9994           0
     63671 TIP3     13742    TIP3     H1       HT       0.417000       1.00800           0
     63672 TIP3     13742    TIP3     H2       HT       0.417000       1.00800           0
     63673 TIP3     13743    TIP3     OH2      OT      -0.834000       15.9994           0
     63674 TIP3     13743    TIP3     H1       HT       0.417000       1.00800           0
     63675 TIP3     13743    TIP3     H2       HT       0.417000       1.00800           0
     63676 TIP3     13744    TIP3     OH2      OT      -0.834000       15.9994           0
     63677 TIP3     13744    TIP3     H1       HT       0.417000       1.00800           0
     63678 TIP3     13744    TIP3     H2       HT       0.417000       1.00800           0
     63679 TIP3     13745    TIP3     OH2      OT      -0.834000       15.9994           0
     63680 TIP3     13745    TIP3     H1       HT       0.417000       1.00800           0
     63681 TIP3     13745    TIP3     H2       HT       0.417000       1.00800           0
     63682 TIP3     13746    TIP3     OH2      OT      -0.834000       15.9994           0
     63683 TIP3     13746    TIP3     H1       HT       0.417000       1.00800           0
     63684 TIP3     13746    TIP3     H2       HT       0.417000       1.00800           0
     63685 TIP3     13747    TIP3     OH2      OT      -0.834000       15.9994           0
     63686 TIP3     13747    TIP3     H1       HT       0.417000       1.00800           0
     63687 TIP3     13747    TIP3     H2       HT       0.417000       1.00800           0
     63688 TIP3     13748    TIP3     OH2      OT      -0.834000       15.9994           0
     63689 TIP3     13748    TIP3     H1       HT       0.417000       1.00800           0
     63690 TIP3     13748    TIP3     H2       HT       0.417000       1.00800           0
     63691 TIP3     13749    TIP3     OH2      OT      -0.834000       15.9994           0
     63692 TIP3     13749    TIP3     H1       HT       0.417000       1.00800           0
     63693 TIP3     13749    TIP3     H2       HT       0.417000       1.00800           0
     63694 TIP3     13750    TIP3     OH2      OT      -0.834000       15.9994           0
     63695 TIP3     13750    TIP3     H1       HT       0.417000       1.00800           0
     63696 TIP3     13750    TIP3     H2       HT       0.417000       1.00800           0
     63697 TIP3     13751    TIP3     OH2      OT      -0.834000       15.9994           0
     63698 TIP3     13751    TIP3     H1       HT       0.417000       1.00800           0
     63699 TIP3     13751    TIP3     H2       HT       0.417000       1.00800           0
     63700 TIP3     13752    TIP3     OH2      OT      -0.834000       15.9994           0
     63701 TIP3     13752    TIP3     H1       HT       0.417000       1.00800           0
     63702 TIP3     13752    TIP3     H2       HT       0.417000       1.00800           0
     63703 TIP3     13753    TIP3     OH2      OT      -0.834000       15.9994           0
     63704 TIP3     13753    TIP3     H1       HT       0.417000       1.00800           0
     63705 TIP3     13753    TIP3     H2       HT       0.417000       1.00800           0
     63706 TIP3     13754    TIP3     OH2      OT      -0.834000       15.9994           0
     63707 TIP3     13754    TIP3     H1       HT       0.417000       1.00800           0
     63708 TIP3     13754    TIP3     H2       HT       0.417000       1.00800           0
     63709 TIP3     13755    TIP3     OH2      OT      -0.834000       15.9994           0
     63710 TIP3     13755    TIP3     H1       HT       0.417000       1.00800           0
     63711 TIP3     13755    TIP3     H2       HT       0.417000       1.00800           0
     63712 TIP3     13756    TIP3     OH2      OT      -0.834000       15.9994           0
     63713 TIP3     13756    TIP3     H1       HT       0.417000       1.00800           0
     63714 TIP3     13756    TIP3     H2       HT       0.417000       1.00800           0
     63715 TIP3     13757    TIP3     OH2      OT      -0.834000       15.9994           0
     63716 TIP3     13757    TIP3     H1       HT       0.417000       1.00800           0
     63717 TIP3     13757    TIP3     H2       HT       0.417000       1.00800           0
     63718 TIP3     13758    TIP3     OH2      OT      -0.834000       15.9994           0
     63719 TIP3     13758    TIP3     H1       HT       0.417000       1.00800           0
     63720 TIP3     13758    TIP3     H2       HT       0.417000       1.00800           0
     63721 TIP3     13759    TIP3     OH2      OT      -0.834000       15.9994           0
     63722 TIP3     13759    TIP3     H1       HT       0.417000       1.00800           0
     63723 TIP3     13759    TIP3     H2       HT       0.417000       1.00800           0
     63724 TIP3     13760    TIP3     OH2      OT      -0.834000       15.9994           0
     63725 TIP3     13760    TIP3     H1       HT       0.417000       1.00800           0
     63726 TIP3     13760    TIP3     H2       HT       0.417000       1.00800           0
     63727 TIP3     13761    TIP3     OH2      OT      -0.834000       15.9994           0
     63728 TIP3     13761    TIP3     H1       HT       0.417000       1.00800           0
     63729 TIP3     13761    TIP3     H2       HT       0.417000       1.00800           0
     63730 TIP3     13762    TIP3     OH2      OT      -0.834000       15.9994           0
     63731 TIP3     13762    TIP3     H1       HT       0.417000       1.00800           0
     63732 TIP3     13762    TIP3     H2       HT       0.417000       1.00800           0
     63733 TIP3     13763    TIP3     OH2      OT      -0.834000       15.9994           0
     63734 TIP3     13763    TIP3     H1       HT       0.417000       1.00800           0
     63735 TIP3     13763    TIP3     H2       HT       0.417000       1.00800           0
     63736 TIP3     13764    TIP3     OH2      OT      -0.834000       15.9994           0
     63737 TIP3     13764    TIP3     H1       HT       0.417000       1.00800           0
     63738 TIP3     13764    TIP3     H2       HT       0.417000       1.00800           0
     63739 TIP3     13765    TIP3     OH2      OT      -0.834000       15.9994           0
     63740 TIP3     13765    TIP3     H1       HT       0.417000       1.00800           0
     63741 TIP3     13765    TIP3     H2       HT       0.417000       1.00800           0
     63742 TIP3     13766    TIP3     OH2      OT      -0.834000       15.9994           0
     63743 TIP3     13766    TIP3     H1       HT       0.417000       1.00800           0
     63744 TIP3     13766    TIP3     H2       HT       0.417000       1.00800           0
     63745 TIP3     13767    TIP3     OH2      OT      -0.834000       15.9994           0
     63746 TIP3     13767    TIP3     H1       HT       0.417000       1.00800           0
     63747 TIP3     13767    TIP3     H2       HT       0.417000       1.00800           0
     63748 TIP3     13768    TIP3     OH2      OT      -0.834000       15.9994           0
     63749 TIP3     13768    TIP3     H1       HT       0.417000       1.00800           0
     63750 TIP3     13768    TIP3     H2       HT       0.417000       1.00800           0
     63751 TIP3     13769    TIP3     OH2      OT      -0.834000       15.9994           0
     63752 TIP3     13769    TIP3     H1       HT       0.417000       1.00800           0
     63753 TIP3     13769    TIP3     H2       HT       0.417000       1.00800           0
     63754 TIP3     13770    TIP3     OH2      OT      -0.834000       15.9994           0
     63755 TIP3     13770    TIP3     H1       HT       0.417000       1.00800           0
     63756 TIP3     13770    TIP3     H2       HT       0.417000       1.00800           0
     63757 TIP3     13771    TIP3     OH2      OT      -0.834000       15.9994           0
     63758 TIP3     13771    TIP3     H1       HT       0.417000       1.00800           0
     63759 TIP3     13771    TIP3     H2       HT       0.417000       1.00800           0
     63760 TIP3     13772    TIP3     OH2      OT      -0.834000       15.9994           0
     63761 TIP3     13772    TIP3     H1       HT       0.417000       1.00800           0
     63762 TIP3     13772    TIP3     H2       HT       0.417000       1.00800           0
     63763 TIP3     13773    TIP3     OH2      OT      -0.834000       15.9994           0
     63764 TIP3     13773    TIP3     H1       HT       0.417000       1.00800           0
     63765 TIP3     13773    TIP3     H2       HT       0.417000       1.00800           0
     63766 TIP3     13774    TIP3     OH2      OT      -0.834000       15.9994           0
     63767 TIP3     13774    TIP3     H1       HT       0.417000       1.00800           0
     63768 TIP3     13774    TIP3     H2       HT       0.417000       1.00800           0
     63769 TIP3     13775    TIP3     OH2      OT      -0.834000       15.9994           0
     63770 TIP3     13775    TIP3     H1       HT       0.417000       1.00800           0
     63771 TIP3     13775    TIP3     H2       HT       0.417000       1.00800           0
     63772 TIP3     13776    TIP3     OH2      OT      -0.834000       15.9994           0
     63773 TIP3     13776    TIP3     H1       HT       0.417000       1.00800           0
     63774 TIP3     13776    TIP3     H2       HT       0.417000       1.00800           0
     63775 TIP3     13777    TIP3     OH2      OT      -0.834000       15.9994           0
     63776 TIP3     13777    TIP3     H1       HT       0.417000       1.00800           0
     63777 TIP3     13777    TIP3     H2       HT       0.417000       1.00800           0
     63778 TIP3     13778    TIP3     OH2      OT      -0.834000       15.9994           0
     63779 TIP3     13778    TIP3     H1       HT       0.417000       1.00800           0
     63780 TIP3     13778    TIP3     H2       HT       0.417000       1.00800           0
     63781 TIP3     13779    TIP3     OH2      OT      -0.834000       15.9994           0
     63782 TIP3     13779    TIP3     H1       HT       0.417000       1.00800           0
     63783 TIP3     13779    TIP3     H2       HT       0.417000       1.00800           0
     63784 TIP3     13780    TIP3     OH2      OT      -0.834000       15.9994           0
     63785 TIP3     13780    TIP3     H1       HT       0.417000       1.00800           0
     63786 TIP3     13780    TIP3     H2       HT       0.417000       1.00800           0
     63787 TIP3     13781    TIP3     OH2      OT      -0.834000       15.9994           0
     63788 TIP3     13781    TIP3     H1       HT       0.417000       1.00800           0
     63789 TIP3     13781    TIP3     H2       HT       0.417000       1.00800           0
     63790 TIP3     13782    TIP3     OH2      OT      -0.834000       15.9994           0
     63791 TIP3     13782    TIP3     H1       HT       0.417000       1.00800           0
     63792 TIP3     13782    TIP3     H2       HT       0.417000       1.00800           0
     63793 TIP3     13783    TIP3     OH2      OT      -0.834000       15.9994           0
     63794 TIP3     13783    TIP3     H1       HT       0.417000       1.00800           0
     63795 TIP3     13783    TIP3     H2       HT       0.417000       1.00800           0
     63796 TIP3     13784    TIP3     OH2      OT      -0.834000       15.9994           0
     63797 TIP3     13784    TIP3     H1       HT       0.417000       1.00800           0
     63798 TIP3     13784    TIP3     H2       HT       0.417000       1.00800           0
     63799 TIP3     13785    TIP3     OH2      OT      -0.834000       15.9994           0
     63800 TIP3     13785    TIP3     H1       HT       0.417000       1.00800           0
     63801 TIP3     13785    TIP3     H2       HT       0.417000       1.00800           0
     63802 TIP3     13786    TIP3     OH2      OT      -0.834000       15.9994           0
     63803 TIP3     13786    TIP3     H1       HT       0.417000       1.00800           0
     63804 TIP3     13786    TIP3     H2       HT       0.417000       1.00800           0
     63805 TIP3     13787    TIP3     OH2      OT      -0.834000       15.9994           0
     63806 TIP3     13787    TIP3     H1       HT       0.417000       1.00800           0
     63807 TIP3     13787    TIP3     H2       HT       0.417000       1.00800           0
     63808 TIP3     13788    TIP3     OH2      OT      -0.834000       15.9994           0
     63809 TIP3     13788    TIP3     H1       HT       0.417000       1.00800           0
     63810 TIP3     13788    TIP3     H2       HT       0.417000       1.00800           0
     63811 TIP3     13789    TIP3     OH2      OT      -0.834000       15.9994           0
     63812 TIP3     13789    TIP3     H1       HT       0.417000       1.00800           0
     63813 TIP3     13789    TIP3     H2       HT       0.417000       1.00800           0
     63814 TIP3     13790    TIP3     OH2      OT      -0.834000       15.9994           0
     63815 TIP3     13790    TIP3     H1       HT       0.417000       1.00800           0
     63816 TIP3     13790    TIP3     H2       HT       0.417000       1.00800           0
     63817 TIP3     13791    TIP3     OH2      OT      -0.834000       15.9994           0
     63818 TIP3     13791    TIP3     H1       HT       0.417000       1.00800           0
     63819 TIP3     13791    TIP3     H2       HT       0.417000       1.00800           0
     63820 TIP3     13792    TIP3     OH2      OT      -0.834000       15.9994           0
     63821 TIP3     13792    TIP3     H1       HT       0.417000       1.00800           0
     63822 TIP3     13792    TIP3     H2       HT       0.417000       1.00800           0
     63823 TIP3     13793    TIP3     OH2      OT      -0.834000       15.9994           0
     63824 TIP3     13793    TIP3     H1       HT       0.417000       1.00800           0
     63825 TIP3     13793    TIP3     H2       HT       0.417000       1.00800           0
     63826 TIP3     13794    TIP3     OH2      OT      -0.834000       15.9994           0
     63827 TIP3     13794    TIP3     H1       HT       0.417000       1.00800           0
     63828 TIP3     13794    TIP3     H2       HT       0.417000       1.00800           0
     63829 TIP3     13795    TIP3     OH2      OT      -0.834000       15.9994           0
     63830 TIP3     13795    TIP3     H1       HT       0.417000       1.00800           0
     63831 TIP3     13795    TIP3     H2       HT       0.417000       1.00800           0
     63832 TIP3     13796    TIP3     OH2      OT      -0.834000       15.9994           0
     63833 TIP3     13796    TIP3     H1       HT       0.417000       1.00800           0
     63834 TIP3     13796    TIP3     H2       HT       0.417000       1.00800           0
     63835 TIP3     13797    TIP3     OH2      OT      -0.834000       15.9994           0
     63836 TIP3     13797    TIP3     H1       HT       0.417000       1.00800           0
     63837 TIP3     13797    TIP3     H2       HT       0.417000       1.00800           0
     63838 TIP3     13798    TIP3     OH2      OT      -0.834000       15.9994           0
     63839 TIP3     13798    TIP3     H1       HT       0.417000       1.00800           0
     63840 TIP3     13798    TIP3     H2       HT       0.417000       1.00800           0
     63841 TIP3     13799    TIP3     OH2      OT      -0.834000       15.9994           0
     63842 TIP3     13799    TIP3     H1       HT       0.417000       1.00800           0
     63843 TIP3     13799    TIP3     H2       HT       0.417000       1.00800           0
     63844 TIP3     13800    TIP3     OH2      OT      -0.834000       15.9994           0
     63845 TIP3     13800    TIP3     H1       HT       0.417000       1.00800           0
     63846 TIP3     13800    TIP3     H2       HT       0.417000       1.00800           0
     63847 TIP3     13801    TIP3     OH2      OT      -0.834000       15.9994           0
     63848 TIP3     13801    TIP3     H1       HT       0.417000       1.00800           0
     63849 TIP3     13801    TIP3     H2       HT       0.417000       1.00800           0
     63850 TIP3     13802    TIP3     OH2      OT      -0.834000       15.9994           0
     63851 TIP3     13802    TIP3     H1       HT       0.417000       1.00800           0
     63852 TIP3     13802    TIP3     H2       HT       0.417000       1.00800           0
     63853 TIP3     13803    TIP3     OH2      OT      -0.834000       15.9994           0
     63854 TIP3     13803    TIP3     H1       HT       0.417000       1.00800           0
     63855 TIP3     13803    TIP3     H2       HT       0.417000       1.00800           0
     63856 TIP3     13804    TIP3     OH2      OT      -0.834000       15.9994           0
     63857 TIP3     13804    TIP3     H1       HT       0.417000       1.00800           0
     63858 TIP3     13804    TIP3     H2       HT       0.417000       1.00800           0
     63859 TIP3     13805    TIP3     OH2      OT      -0.834000       15.9994           0
     63860 TIP3     13805    TIP3     H1       HT       0.417000       1.00800           0
     63861 TIP3     13805    TIP3     H2       HT       0.417000       1.00800           0
     63862 TIP3     13806    TIP3     OH2      OT      -0.834000       15.9994           0
     63863 TIP3     13806    TIP3     H1       HT       0.417000       1.00800           0
     63864 TIP3     13806    TIP3     H2       HT       0.417000       1.00800           0
     63865 TIP3     13807    TIP3     OH2      OT      -0.834000       15.9994           0
     63866 TIP3     13807    TIP3     H1       HT       0.417000       1.00800           0
     63867 TIP3     13807    TIP3     H2       HT       0.417000       1.00800           0
     63868 TIP3     13808    TIP3     OH2      OT      -0.834000       15.9994           0
     63869 TIP3     13808    TIP3     H1       HT       0.417000       1.00800           0
     63870 TIP3     13808    TIP3     H2       HT       0.417000       1.00800           0
     63871 TIP3     13809    TIP3     OH2      OT      -0.834000       15.9994           0
     63872 TIP3     13809    TIP3     H1       HT       0.417000       1.00800           0
     63873 TIP3     13809    TIP3     H2       HT       0.417000       1.00800           0
     63874 TIP3     13810    TIP3     OH2      OT      -0.834000       15.9994           0
     63875 TIP3     13810    TIP3     H1       HT       0.417000       1.00800           0
     63876 TIP3     13810    TIP3     H2       HT       0.417000       1.00800           0
     63877 TIP3     13811    TIP3     OH2      OT      -0.834000       15.9994           0
     63878 TIP3     13811    TIP3     H1       HT       0.417000       1.00800           0
     63879 TIP3     13811    TIP3     H2       HT       0.417000       1.00800           0
     63880 TIP3     13812    TIP3     OH2      OT      -0.834000       15.9994           0
     63881 TIP3     13812    TIP3     H1       HT       0.417000       1.00800           0
     63882 TIP3     13812    TIP3     H2       HT       0.417000       1.00800           0
     63883 TIP3     13813    TIP3     OH2      OT      -0.834000       15.9994           0
     63884 TIP3     13813    TIP3     H1       HT       0.417000       1.00800           0
     63885 TIP3     13813    TIP3     H2       HT       0.417000       1.00800           0
     63886 TIP3     13814    TIP3     OH2      OT      -0.834000       15.9994           0
     63887 TIP3     13814    TIP3     H1       HT       0.417000       1.00800           0
     63888 TIP3     13814    TIP3     H2       HT       0.417000       1.00800           0
     63889 TIP3     13815    TIP3     OH2      OT      -0.834000       15.9994           0
     63890 TIP3     13815    TIP3     H1       HT       0.417000       1.00800           0
     63891 TIP3     13815    TIP3     H2       HT       0.417000       1.00800           0
     63892 TIP3     13816    TIP3     OH2      OT      -0.834000       15.9994           0
     63893 TIP3     13816    TIP3     H1       HT       0.417000       1.00800           0
     63894 TIP3     13816    TIP3     H2       HT       0.417000       1.00800           0
     63895 TIP3     13817    TIP3     OH2      OT      -0.834000       15.9994           0
     63896 TIP3     13817    TIP3     H1       HT       0.417000       1.00800           0
     63897 TIP3     13817    TIP3     H2       HT       0.417000       1.00800           0
     63898 TIP3     13818    TIP3     OH2      OT      -0.834000       15.9994           0
     63899 TIP3     13818    TIP3     H1       HT       0.417000       1.00800           0
     63900 TIP3     13818    TIP3     H2       HT       0.417000       1.00800           0
     63901 TIP3     13819    TIP3     OH2      OT      -0.834000       15.9994           0
     63902 TIP3     13819    TIP3     H1       HT       0.417000       1.00800           0
     63903 TIP3     13819    TIP3     H2       HT       0.417000       1.00800           0
     63904 TIP3     13820    TIP3     OH2      OT      -0.834000       15.9994           0
     63905 TIP3     13820    TIP3     H1       HT       0.417000       1.00800           0
     63906 TIP3     13820    TIP3     H2       HT       0.417000       1.00800           0
     63907 TIP3     13821    TIP3     OH2      OT      -0.834000       15.9994           0
     63908 TIP3     13821    TIP3     H1       HT       0.417000       1.00800           0
     63909 TIP3     13821    TIP3     H2       HT       0.417000       1.00800           0
     63910 TIP3     13822    TIP3     OH2      OT      -0.834000       15.9994           0
     63911 TIP3     13822    TIP3     H1       HT       0.417000       1.00800           0
     63912 TIP3     13822    TIP3     H2       HT       0.417000       1.00800           0
     63913 TIP3     13823    TIP3     OH2      OT      -0.834000       15.9994           0
     63914 TIP3     13823    TIP3     H1       HT       0.417000       1.00800           0
     63915 TIP3     13823    TIP3     H2       HT       0.417000       1.00800           0
     63916 TIP3     13824    TIP3     OH2      OT      -0.834000       15.9994           0
     63917 TIP3     13824    TIP3     H1       HT       0.417000       1.00800           0
     63918 TIP3     13824    TIP3     H2       HT       0.417000       1.00800           0
     63919 TIP3     13825    TIP3     OH2      OT      -0.834000       15.9994           0
     63920 TIP3     13825    TIP3     H1       HT       0.417000       1.00800           0
     63921 TIP3     13825    TIP3     H2       HT       0.417000       1.00800           0
     63922 TIP3     13826    TIP3     OH2      OT      -0.834000       15.9994           0
     63923 TIP3     13826    TIP3     H1       HT       0.417000       1.00800           0
     63924 TIP3     13826    TIP3     H2       HT       0.417000       1.00800           0
     63925 TIP3     13827    TIP3     OH2      OT      -0.834000       15.9994           0
     63926 TIP3     13827    TIP3     H1       HT       0.417000       1.00800           0
     63927 TIP3     13827    TIP3     H2       HT       0.417000       1.00800           0
     63928 TIP3     13828    TIP3     OH2      OT      -0.834000       15.9994           0
     63929 TIP3     13828    TIP3     H1       HT       0.417000       1.00800           0
     63930 TIP3     13828    TIP3     H2       HT       0.417000       1.00800           0
     63931 TIP3     13829    TIP3     OH2      OT      -0.834000       15.9994           0
     63932 TIP3     13829    TIP3     H1       HT       0.417000       1.00800           0
     63933 TIP3     13829    TIP3     H2       HT       0.417000       1.00800           0
     63934 TIP3     13830    TIP3     OH2      OT      -0.834000       15.9994           0
     63935 TIP3     13830    TIP3     H1       HT       0.417000       1.00800           0
     63936 TIP3     13830    TIP3     H2       HT       0.417000       1.00800           0
     63937 TIP3     13831    TIP3     OH2      OT      -0.834000       15.9994           0
     63938 TIP3     13831    TIP3     H1       HT       0.417000       1.00800           0
     63939 TIP3     13831    TIP3     H2       HT       0.417000       1.00800           0
     63940 TIP3     13832    TIP3     OH2      OT      -0.834000       15.9994           0
     63941 TIP3     13832    TIP3     H1       HT       0.417000       1.00800           0
     63942 TIP3     13832    TIP3     H2       HT       0.417000       1.00800           0
     63943 TIP3     13833    TIP3     OH2      OT      -0.834000       15.9994           0
     63944 TIP3     13833    TIP3     H1       HT       0.417000       1.00800           0
     63945 TIP3     13833    TIP3     H2       HT       0.417000       1.00800           0
     63946 TIP3     13834    TIP3     OH2      OT      -0.834000       15.9994           0
     63947 TIP3     13834    TIP3     H1       HT       0.417000       1.00800           0
     63948 TIP3     13834    TIP3     H2       HT       0.417000       1.00800           0
     63949 TIP3     13835    TIP3     OH2      OT      -0.834000       15.9994           0
     63950 TIP3     13835    TIP3     H1       HT       0.417000       1.00800           0
     63951 TIP3     13835    TIP3     H2       HT       0.417000       1.00800           0
     63952 TIP3     13836    TIP3     OH2      OT      -0.834000       15.9994           0
     63953 TIP3     13836    TIP3     H1       HT       0.417000       1.00800           0
     63954 TIP3     13836    TIP3     H2       HT       0.417000       1.00800           0
     63955 TIP3     13837    TIP3     OH2      OT      -0.834000       15.9994           0
     63956 TIP3     13837    TIP3     H1       HT       0.417000       1.00800           0
     63957 TIP3     13837    TIP3     H2       HT       0.417000       1.00800           0
     63958 TIP3     13838    TIP3     OH2      OT      -0.834000       15.9994           0
     63959 TIP3     13838    TIP3     H1       HT       0.417000       1.00800           0
     63960 TIP3     13838    TIP3     H2       HT       0.417000       1.00800           0
     63961 TIP3     13839    TIP3     OH2      OT      -0.834000       15.9994           0
     63962 TIP3     13839    TIP3     H1       HT       0.417000       1.00800           0
     63963 TIP3     13839    TIP3     H2       HT       0.417000       1.00800           0
     63964 TIP3     13840    TIP3     OH2      OT      -0.834000       15.9994           0
     63965 TIP3     13840    TIP3     H1       HT       0.417000       1.00800           0
     63966 TIP3     13840    TIP3     H2       HT       0.417000       1.00800           0
     63967 TIP3     13841    TIP3     OH2      OT      -0.834000       15.9994           0
     63968 TIP3     13841    TIP3     H1       HT       0.417000       1.00800           0
     63969 TIP3     13841    TIP3     H2       HT       0.417000       1.00800           0
     63970 TIP3     13842    TIP3     OH2      OT      -0.834000       15.9994           0
     63971 TIP3     13842    TIP3     H1       HT       0.417000       1.00800           0
     63972 TIP3     13842    TIP3     H2       HT       0.417000       1.00800           0
     63973 TIP3     13843    TIP3     OH2      OT      -0.834000       15.9994           0
     63974 TIP3     13843    TIP3     H1       HT       0.417000       1.00800           0
     63975 TIP3     13843    TIP3     H2       HT       0.417000       1.00800           0
     63976 TIP3     13844    TIP3     OH2      OT      -0.834000       15.9994           0
     63977 TIP3     13844    TIP3     H1       HT       0.417000       1.00800           0
     63978 TIP3     13844    TIP3     H2       HT       0.417000       1.00800           0
     63979 TIP3     13845    TIP3     OH2      OT      -0.834000       15.9994           0
     63980 TIP3     13845    TIP3     H1       HT       0.417000       1.00800           0
     63981 TIP3     13845    TIP3     H2       HT       0.417000       1.00800           0
     63982 TIP3     13846    TIP3     OH2      OT      -0.834000       15.9994           0
     63983 TIP3     13846    TIP3     H1       HT       0.417000       1.00800           0
     63984 TIP3     13846    TIP3     H2       HT       0.417000       1.00800           0
     63985 TIP3     13847    TIP3     OH2      OT      -0.834000       15.9994           0
     63986 TIP3     13847    TIP3     H1       HT       0.417000       1.00800           0
     63987 TIP3     13847    TIP3     H2       HT       0.417000       1.00800           0
     63988 TIP3     13848    TIP3     OH2      OT      -0.834000       15.9994           0
     63989 TIP3     13848    TIP3     H1       HT       0.417000       1.00800           0
     63990 TIP3     13848    TIP3     H2       HT       0.417000       1.00800           0
     63991 TIP3     13849    TIP3     OH2      OT      -0.834000       15.9994           0
     63992 TIP3     13849    TIP3     H1       HT       0.417000       1.00800           0
     63993 TIP3     13849    TIP3     H2       HT       0.417000       1.00800           0
     63994 TIP3     13850    TIP3     OH2      OT      -0.834000       15.9994           0
     63995 TIP3     13850    TIP3     H1       HT       0.417000       1.00800           0
     63996 TIP3     13850    TIP3     H2       HT       0.417000       1.00800           0
     63997 TIP3     13851    TIP3     OH2      OT      -0.834000       15.9994           0
     63998 TIP3     13851    TIP3     H1       HT       0.417000       1.00800           0
     63999 TIP3     13851    TIP3     H2       HT       0.417000       1.00800           0
     64000 TIP3     13852    TIP3     OH2      OT      -0.834000       15.9994           0
     64001 TIP3     13852    TIP3     H1       HT       0.417000       1.00800           0
     64002 TIP3     13852    TIP3     H2       HT       0.417000       1.00800           0
     64003 TIP3     13853    TIP3     OH2      OT      -0.834000       15.9994           0
     64004 TIP3     13853    TIP3     H1       HT       0.417000       1.00800           0
     64005 TIP3     13853    TIP3     H2       HT       0.417000       1.00800           0
     64006 TIP3     13854    TIP3     OH2      OT      -0.834000       15.9994           0
     64007 TIP3     13854    TIP3     H1       HT       0.417000       1.00800           0
     64008 TIP3     13854    TIP3     H2       HT       0.417000       1.00800           0
     64009 TIP3     13855    TIP3     OH2      OT      -0.834000       15.9994           0
     64010 TIP3     13855    TIP3     H1       HT       0.417000       1.00800           0
     64011 TIP3     13855    TIP3     H2       HT       0.417000       1.00800           0
     64012 TIP3     13856    TIP3     OH2      OT      -0.834000       15.9994           0
     64013 TIP3     13856    TIP3     H1       HT       0.417000       1.00800           0
     64014 TIP3     13856    TIP3     H2       HT       0.417000       1.00800           0
     64015 TIP3     13857    TIP3     OH2      OT      -0.834000       15.9994           0
     64016 TIP3     13857    TIP3     H1       HT       0.417000       1.00800           0
     64017 TIP3     13857    TIP3     H2       HT       0.417000       1.00800           0
     64018 TIP3     13858    TIP3     OH2      OT      -0.834000       15.9994           0
     64019 TIP3     13858    TIP3     H1       HT       0.417000       1.00800           0
     64020 TIP3     13858    TIP3     H2       HT       0.417000       1.00800           0
     64021 TIP3     13859    TIP3     OH2      OT      -0.834000       15.9994           0
     64022 TIP3     13859    TIP3     H1       HT       0.417000       1.00800           0
     64023 TIP3     13859    TIP3     H2       HT       0.417000       1.00800           0
     64024 TIP3     13860    TIP3     OH2      OT      -0.834000       15.9994           0
     64025 TIP3     13860    TIP3     H1       HT       0.417000       1.00800           0
     64026 TIP3     13860    TIP3     H2       HT       0.417000       1.00800           0
     64027 TIP3     13861    TIP3     OH2      OT      -0.834000       15.9994           0
     64028 TIP3     13861    TIP3     H1       HT       0.417000       1.00800           0
     64029 TIP3     13861    TIP3     H2       HT       0.417000       1.00800           0
     64030 TIP3     13862    TIP3     OH2      OT      -0.834000       15.9994           0
     64031 TIP3     13862    TIP3     H1       HT       0.417000       1.00800           0
     64032 TIP3     13862    TIP3     H2       HT       0.417000       1.00800           0
     64033 TIP3     13863    TIP3     OH2      OT      -0.834000       15.9994           0
     64034 TIP3     13863    TIP3     H1       HT       0.417000       1.00800           0
     64035 TIP3     13863    TIP3     H2       HT       0.417000       1.00800           0
     64036 TIP3     13864    TIP3     OH2      OT      -0.834000       15.9994           0
     64037 TIP3     13864    TIP3     H1       HT       0.417000       1.00800           0
     64038 TIP3     13864    TIP3     H2       HT       0.417000       1.00800           0
     64039 TIP3     13865    TIP3     OH2      OT      -0.834000       15.9994           0
     64040 TIP3     13865    TIP3     H1       HT       0.417000       1.00800           0
     64041 TIP3     13865    TIP3     H2       HT       0.417000       1.00800           0
     64042 TIP3     13866    TIP3     OH2      OT      -0.834000       15.9994           0
     64043 TIP3     13866    TIP3     H1       HT       0.417000       1.00800           0
     64044 TIP3     13866    TIP3     H2       HT       0.417000       1.00800           0
     64045 TIP3     13867    TIP3     OH2      OT      -0.834000       15.9994           0
     64046 TIP3     13867    TIP3     H1       HT       0.417000       1.00800           0
     64047 TIP3     13867    TIP3     H2       HT       0.417000       1.00800           0
     64048 TIP3     13868    TIP3     OH2      OT      -0.834000       15.9994           0
     64049 TIP3     13868    TIP3     H1       HT       0.417000       1.00800           0
     64050 TIP3     13868    TIP3     H2       HT       0.417000       1.00800           0
     64051 TIP3     13869    TIP3     OH2      OT      -0.834000       15.9994           0
     64052 TIP3     13869    TIP3     H1       HT       0.417000       1.00800           0
     64053 TIP3     13869    TIP3     H2       HT       0.417000       1.00800           0
     64054 TIP3     13870    TIP3     OH2      OT      -0.834000       15.9994           0
     64055 TIP3     13870    TIP3     H1       HT       0.417000       1.00800           0
     64056 TIP3     13870    TIP3     H2       HT       0.417000       1.00800           0
     64057 TIP3     13871    TIP3     OH2      OT      -0.834000       15.9994           0
     64058 TIP3     13871    TIP3     H1       HT       0.417000       1.00800           0
     64059 TIP3     13871    TIP3     H2       HT       0.417000       1.00800           0
     64060 TIP3     13872    TIP3     OH2      OT      -0.834000       15.9994           0
     64061 TIP3     13872    TIP3     H1       HT       0.417000       1.00800           0
     64062 TIP3     13872    TIP3     H2       HT       0.417000       1.00800           0
     64063 TIP3     13873    TIP3     OH2      OT      -0.834000       15.9994           0
     64064 TIP3     13873    TIP3     H1       HT       0.417000       1.00800           0
     64065 TIP3     13873    TIP3     H2       HT       0.417000       1.00800           0
     64066 TIP3     13874    TIP3     OH2      OT      -0.834000       15.9994           0
     64067 TIP3     13874    TIP3     H1       HT       0.417000       1.00800           0
     64068 TIP3     13874    TIP3     H2       HT       0.417000       1.00800           0
     64069 TIP3     13875    TIP3     OH2      OT      -0.834000       15.9994           0
     64070 TIP3     13875    TIP3     H1       HT       0.417000       1.00800           0
     64071 TIP3     13875    TIP3     H2       HT       0.417000       1.00800           0
     64072 TIP3     13876    TIP3     OH2      OT      -0.834000       15.9994           0
     64073 TIP3     13876    TIP3     H1       HT       0.417000       1.00800           0
     64074 TIP3     13876    TIP3     H2       HT       0.417000       1.00800           0
     64075 TIP3     13877    TIP3     OH2      OT      -0.834000       15.9994           0
     64076 TIP3     13877    TIP3     H1       HT       0.417000       1.00800           0
     64077 TIP3     13877    TIP3     H2       HT       0.417000       1.00800           0
     64078 TIP3     13878    TIP3     OH2      OT      -0.834000       15.9994           0
     64079 TIP3     13878    TIP3     H1       HT       0.417000       1.00800           0
     64080 TIP3     13878    TIP3     H2       HT       0.417000       1.00800           0
     64081 TIP3     13879    TIP3     OH2      OT      -0.834000       15.9994           0
     64082 TIP3     13879    TIP3     H1       HT       0.417000       1.00800           0
     64083 TIP3     13879    TIP3     H2       HT       0.417000       1.00800           0
     64084 TIP3     13880    TIP3     OH2      OT      -0.834000       15.9994           0
     64085 TIP3     13880    TIP3     H1       HT       0.417000       1.00800           0
     64086 TIP3     13880    TIP3     H2       HT       0.417000       1.00800           0
     64087 TIP3     13881    TIP3     OH2      OT      -0.834000       15.9994           0
     64088 TIP3     13881    TIP3     H1       HT       0.417000       1.00800           0
     64089 TIP3     13881    TIP3     H2       HT       0.417000       1.00800           0
     64090 TIP3     13882    TIP3     OH2      OT      -0.834000       15.9994           0
     64091 TIP3     13882    TIP3     H1       HT       0.417000       1.00800           0
     64092 TIP3     13882    TIP3     H2       HT       0.417000       1.00800           0
     64093 TIP3     13883    TIP3     OH2      OT      -0.834000       15.9994           0
     64094 TIP3     13883    TIP3     H1       HT       0.417000       1.00800           0
     64095 TIP3     13883    TIP3     H2       HT       0.417000       1.00800           0
     64096 TIP3     13884    TIP3     OH2      OT      -0.834000       15.9994           0
     64097 TIP3     13884    TIP3     H1       HT       0.417000       1.00800           0
     64098 TIP3     13884    TIP3     H2       HT       0.417000       1.00800           0
     64099 TIP3     13885    TIP3     OH2      OT      -0.834000       15.9994           0
     64100 TIP3     13885    TIP3     H1       HT       0.417000       1.00800           0
     64101 TIP3     13885    TIP3     H2       HT       0.417000       1.00800           0
     64102 TIP3     13886    TIP3     OH2      OT      -0.834000       15.9994           0
     64103 TIP3     13886    TIP3     H1       HT       0.417000       1.00800           0
     64104 TIP3     13886    TIP3     H2       HT       0.417000       1.00800           0
     64105 TIP3     13887    TIP3     OH2      OT      -0.834000       15.9994           0
     64106 TIP3     13887    TIP3     H1       HT       0.417000       1.00800           0
     64107 TIP3     13887    TIP3     H2       HT       0.417000       1.00800           0
     64108 TIP3     13888    TIP3     OH2      OT      -0.834000       15.9994           0
     64109 TIP3     13888    TIP3     H1       HT       0.417000       1.00800           0
     64110 TIP3     13888    TIP3     H2       HT       0.417000       1.00800           0
     64111 TIP3     13889    TIP3     OH2      OT      -0.834000       15.9994           0
     64112 TIP3     13889    TIP3     H1       HT       0.417000       1.00800           0
     64113 TIP3     13889    TIP3     H2       HT       0.417000       1.00800           0
     64114 TIP3     13890    TIP3     OH2      OT      -0.834000       15.9994           0
     64115 TIP3     13890    TIP3     H1       HT       0.417000       1.00800           0
     64116 TIP3     13890    TIP3     H2       HT       0.417000       1.00800           0
     64117 TIP3     13891    TIP3     OH2      OT      -0.834000       15.9994           0
     64118 TIP3     13891    TIP3     H1       HT       0.417000       1.00800           0
     64119 TIP3     13891    TIP3     H2       HT       0.417000       1.00800           0
     64120 TIP3     13892    TIP3     OH2      OT      -0.834000       15.9994           0
     64121 TIP3     13892    TIP3     H1       HT       0.417000       1.00800           0
     64122 TIP3     13892    TIP3     H2       HT       0.417000       1.00800           0
     64123 TIP3     13893    TIP3     OH2      OT      -0.834000       15.9994           0
     64124 TIP3     13893    TIP3     H1       HT       0.417000       1.00800           0
     64125 TIP3     13893    TIP3     H2       HT       0.417000       1.00800           0
     64126 TIP3     13894    TIP3     OH2      OT      -0.834000       15.9994           0
     64127 TIP3     13894    TIP3     H1       HT       0.417000       1.00800           0
     64128 TIP3     13894    TIP3     H2       HT       0.417000       1.00800           0
     64129 TIP3     13895    TIP3     OH2      OT      -0.834000       15.9994           0
     64130 TIP3     13895    TIP3     H1       HT       0.417000       1.00800           0
     64131 TIP3     13895    TIP3     H2       HT       0.417000       1.00800           0
     64132 TIP3     13896    TIP3     OH2      OT      -0.834000       15.9994           0
     64133 TIP3     13896    TIP3     H1       HT       0.417000       1.00800           0
     64134 TIP3     13896    TIP3     H2       HT       0.417000       1.00800           0
     64135 TIP3     13897    TIP3     OH2      OT      -0.834000       15.9994           0
     64136 TIP3     13897    TIP3     H1       HT       0.417000       1.00800           0
     64137 TIP3     13897    TIP3     H2       HT       0.417000       1.00800           0
     64138 TIP3     13898    TIP3     OH2      OT      -0.834000       15.9994           0
     64139 TIP3     13898    TIP3     H1       HT       0.417000       1.00800           0
     64140 TIP3     13898    TIP3     H2       HT       0.417000       1.00800           0
     64141 TIP3     13899    TIP3     OH2      OT      -0.834000       15.9994           0
     64142 TIP3     13899    TIP3     H1       HT       0.417000       1.00800           0
     64143 TIP3     13899    TIP3     H2       HT       0.417000       1.00800           0
     64144 TIP3     13900    TIP3     OH2      OT      -0.834000       15.9994           0
     64145 TIP3     13900    TIP3     H1       HT       0.417000       1.00800           0
     64146 TIP3     13900    TIP3     H2       HT       0.417000       1.00800           0
     64147 TIP3     13901    TIP3     OH2      OT      -0.834000       15.9994           0
     64148 TIP3     13901    TIP3     H1       HT       0.417000       1.00800           0
     64149 TIP3     13901    TIP3     H2       HT       0.417000       1.00800           0
     64150 TIP3     13902    TIP3     OH2      OT      -0.834000       15.9994           0
     64151 TIP3     13902    TIP3     H1       HT       0.417000       1.00800           0
     64152 TIP3     13902    TIP3     H2       HT       0.417000       1.00800           0
     64153 TIP3     13903    TIP3     OH2      OT      -0.834000       15.9994           0
     64154 TIP3     13903    TIP3     H1       HT       0.417000       1.00800           0
     64155 TIP3     13903    TIP3     H2       HT       0.417000       1.00800           0
     64156 TIP3     13904    TIP3     OH2      OT      -0.834000       15.9994           0
     64157 TIP3     13904    TIP3     H1       HT       0.417000       1.00800           0
     64158 TIP3     13904    TIP3     H2       HT       0.417000       1.00800           0
     64159 TIP3     13905    TIP3     OH2      OT      -0.834000       15.9994           0
     64160 TIP3     13905    TIP3     H1       HT       0.417000       1.00800           0
     64161 TIP3     13905    TIP3     H2       HT       0.417000       1.00800           0
     64162 TIP3     13906    TIP3     OH2      OT      -0.834000       15.9994           0
     64163 TIP3     13906    TIP3     H1       HT       0.417000       1.00800           0
     64164 TIP3     13906    TIP3     H2       HT       0.417000       1.00800           0
     64165 TIP3     13907    TIP3     OH2      OT      -0.834000       15.9994           0
     64166 TIP3     13907    TIP3     H1       HT       0.417000       1.00800           0
     64167 TIP3     13907    TIP3     H2       HT       0.417000       1.00800           0
     64168 TIP3     13908    TIP3     OH2      OT      -0.834000       15.9994           0
     64169 TIP3     13908    TIP3     H1       HT       0.417000       1.00800           0
     64170 TIP3     13908    TIP3     H2       HT       0.417000       1.00800           0
     64171 TIP3     13909    TIP3     OH2      OT      -0.834000       15.9994           0
     64172 TIP3     13909    TIP3     H1       HT       0.417000       1.00800           0
     64173 TIP3     13909    TIP3     H2       HT       0.417000       1.00800           0
     64174 TIP3     13910    TIP3     OH2      OT      -0.834000       15.9994           0
     64175 TIP3     13910    TIP3     H1       HT       0.417000       1.00800           0
     64176 TIP3     13910    TIP3     H2       HT       0.417000       1.00800           0
     64177 TIP3     13911    TIP3     OH2      OT      -0.834000       15.9994           0
     64178 TIP3     13911    TIP3     H1       HT       0.417000       1.00800           0
     64179 TIP3     13911    TIP3     H2       HT       0.417000       1.00800           0
     64180 TIP3     13912    TIP3     OH2      OT      -0.834000       15.9994           0
     64181 TIP3     13912    TIP3     H1       HT       0.417000       1.00800           0
     64182 TIP3     13912    TIP3     H2       HT       0.417000       1.00800           0
     64183 TIP3     13913    TIP3     OH2      OT      -0.834000       15.9994           0
     64184 TIP3     13913    TIP3     H1       HT       0.417000       1.00800           0
     64185 TIP3     13913    TIP3     H2       HT       0.417000       1.00800           0
     64186 TIP3     13914    TIP3     OH2      OT      -0.834000       15.9994           0
     64187 TIP3     13914    TIP3     H1       HT       0.417000       1.00800           0
     64188 TIP3     13914    TIP3     H2       HT       0.417000       1.00800           0
     64189 TIP3     13915    TIP3     OH2      OT      -0.834000       15.9994           0
     64190 TIP3     13915    TIP3     H1       HT       0.417000       1.00800           0
     64191 TIP3     13915    TIP3     H2       HT       0.417000       1.00800           0
     64192 TIP3     13916    TIP3     OH2      OT      -0.834000       15.9994           0
     64193 TIP3     13916    TIP3     H1       HT       0.417000       1.00800           0
     64194 TIP3     13916    TIP3     H2       HT       0.417000       1.00800           0
     64195 TIP3     13917    TIP3     OH2      OT      -0.834000       15.9994           0
     64196 TIP3     13917    TIP3     H1       HT       0.417000       1.00800           0
     64197 TIP3     13917    TIP3     H2       HT       0.417000       1.00800           0
     64198 TIP3     13918    TIP3     OH2      OT      -0.834000       15.9994           0
     64199 TIP3     13918    TIP3     H1       HT       0.417000       1.00800           0
     64200 TIP3     13918    TIP3     H2       HT       0.417000       1.00800           0
     64201 TIP3     13919    TIP3     OH2      OT      -0.834000       15.9994           0
     64202 TIP3     13919    TIP3     H1       HT       0.417000       1.00800           0
     64203 TIP3     13919    TIP3     H2       HT       0.417000       1.00800           0
     64204 TIP3     13920    TIP3     OH2      OT      -0.834000       15.9994           0
     64205 TIP3     13920    TIP3     H1       HT       0.417000       1.00800           0
     64206 TIP3     13920    TIP3     H2       HT       0.417000       1.00800           0
     64207 TIP3     13921    TIP3     OH2      OT      -0.834000       15.9994           0
     64208 TIP3     13921    TIP3     H1       HT       0.417000       1.00800           0
     64209 TIP3     13921    TIP3     H2       HT       0.417000       1.00800           0
     64210 TIP3     13922    TIP3     OH2      OT      -0.834000       15.9994           0
     64211 TIP3     13922    TIP3     H1       HT       0.417000       1.00800           0
     64212 TIP3     13922    TIP3     H2       HT       0.417000       1.00800           0
     64213 TIP3     13923    TIP3     OH2      OT      -0.834000       15.9994           0
     64214 TIP3     13923    TIP3     H1       HT       0.417000       1.00800           0
     64215 TIP3     13923    TIP3     H2       HT       0.417000       1.00800           0
     64216 TIP3     13924    TIP3     OH2      OT      -0.834000       15.9994           0
     64217 TIP3     13924    TIP3     H1       HT       0.417000       1.00800           0
     64218 TIP3     13924    TIP3     H2       HT       0.417000       1.00800           0
     64219 TIP3     13925    TIP3     OH2      OT      -0.834000       15.9994           0
     64220 TIP3     13925    TIP3     H1       HT       0.417000       1.00800           0
     64221 TIP3     13925    TIP3     H2       HT       0.417000       1.00800           0
     64222 TIP3     13926    TIP3     OH2      OT      -0.834000       15.9994           0
     64223 TIP3     13926    TIP3     H1       HT       0.417000       1.00800           0
     64224 TIP3     13926    TIP3     H2       HT       0.417000       1.00800           0
     64225 TIP3     13927    TIP3     OH2      OT      -0.834000       15.9994           0
     64226 TIP3     13927    TIP3     H1       HT       0.417000       1.00800           0
     64227 TIP3     13927    TIP3     H2       HT       0.417000       1.00800           0
     64228 TIP3     13928    TIP3     OH2      OT      -0.834000       15.9994           0
     64229 TIP3     13928    TIP3     H1       HT       0.417000       1.00800           0
     64230 TIP3     13928    TIP3     H2       HT       0.417000       1.00800           0
     64231 TIP3     13929    TIP3     OH2      OT      -0.834000       15.9994           0
     64232 TIP3     13929    TIP3     H1       HT       0.417000       1.00800           0
     64233 TIP3     13929    TIP3     H2       HT       0.417000       1.00800           0
     64234 TIP3     13930    TIP3     OH2      OT      -0.834000       15.9994           0
     64235 TIP3     13930    TIP3     H1       HT       0.417000       1.00800           0
     64236 TIP3     13930    TIP3     H2       HT       0.417000       1.00800           0
     64237 TIP3     13931    TIP3     OH2      OT      -0.834000       15.9994           0
     64238 TIP3     13931    TIP3     H1       HT       0.417000       1.00800           0
     64239 TIP3     13931    TIP3     H2       HT       0.417000       1.00800           0
     64240 TIP3     13932    TIP3     OH2      OT      -0.834000       15.9994           0
     64241 TIP3     13932    TIP3     H1       HT       0.417000       1.00800           0
     64242 TIP3     13932    TIP3     H2       HT       0.417000       1.00800           0
     64243 TIP3     13933    TIP3     OH2      OT      -0.834000       15.9994           0
     64244 TIP3     13933    TIP3     H1       HT       0.417000       1.00800           0
     64245 TIP3     13933    TIP3     H2       HT       0.417000       1.00800           0
     64246 TIP3     13934    TIP3     OH2      OT      -0.834000       15.9994           0
     64247 TIP3     13934    TIP3     H1       HT       0.417000       1.00800           0
     64248 TIP3     13934    TIP3     H2       HT       0.417000       1.00800           0
     64249 TIP3     13935    TIP3     OH2      OT      -0.834000       15.9994           0
     64250 TIP3     13935    TIP3     H1       HT       0.417000       1.00800           0
     64251 TIP3     13935    TIP3     H2       HT       0.417000       1.00800           0
     64252 TIP3     13936    TIP3     OH2      OT      -0.834000       15.9994           0
     64253 TIP3     13936    TIP3     H1       HT       0.417000       1.00800           0
     64254 TIP3     13936    TIP3     H2       HT       0.417000       1.00800           0
     64255 TIP3     13937    TIP3     OH2      OT      -0.834000       15.9994           0
     64256 TIP3     13937    TIP3     H1       HT       0.417000       1.00800           0
     64257 TIP3     13937    TIP3     H2       HT       0.417000       1.00800           0
     64258 TIP3     13938    TIP3     OH2      OT      -0.834000       15.9994           0
     64259 TIP3     13938    TIP3     H1       HT       0.417000       1.00800           0
     64260 TIP3     13938    TIP3     H2       HT       0.417000       1.00800           0
     64261 TIP3     13939    TIP3     OH2      OT      -0.834000       15.9994           0
     64262 TIP3     13939    TIP3     H1       HT       0.417000       1.00800           0
     64263 TIP3     13939    TIP3     H2       HT       0.417000       1.00800           0
     64264 TIP3     13940    TIP3     OH2      OT      -0.834000       15.9994           0
     64265 TIP3     13940    TIP3     H1       HT       0.417000       1.00800           0
     64266 TIP3     13940    TIP3     H2       HT       0.417000       1.00800           0
     64267 TIP3     13941    TIP3     OH2      OT      -0.834000       15.9994           0
     64268 TIP3     13941    TIP3     H1       HT       0.417000       1.00800           0
     64269 TIP3     13941    TIP3     H2       HT       0.417000       1.00800           0
     64270 TIP3     13942    TIP3     OH2      OT      -0.834000       15.9994           0
     64271 TIP3     13942    TIP3     H1       HT       0.417000       1.00800           0
     64272 TIP3     13942    TIP3     H2       HT       0.417000       1.00800           0
     64273 TIP3     13943    TIP3     OH2      OT      -0.834000       15.9994           0
     64274 TIP3     13943    TIP3     H1       HT       0.417000       1.00800           0
     64275 TIP3     13943    TIP3     H2       HT       0.417000       1.00800           0
     64276 TIP3     13944    TIP3     OH2      OT      -0.834000       15.9994           0
     64277 TIP3     13944    TIP3     H1       HT       0.417000       1.00800           0
     64278 TIP3     13944    TIP3     H2       HT       0.417000       1.00800           0
     64279 TIP3     13945    TIP3     OH2      OT      -0.834000       15.9994           0
     64280 TIP3     13945    TIP3     H1       HT       0.417000       1.00800           0
     64281 TIP3     13945    TIP3     H2       HT       0.417000       1.00800           0
     64282 TIP3     13946    TIP3     OH2      OT      -0.834000       15.9994           0
     64283 TIP3     13946    TIP3     H1       HT       0.417000       1.00800           0
     64284 TIP3     13946    TIP3     H2       HT       0.417000       1.00800           0
     64285 TIP3     13947    TIP3     OH2      OT      -0.834000       15.9994           0
     64286 TIP3     13947    TIP3     H1       HT       0.417000       1.00800           0
     64287 TIP3     13947    TIP3     H2       HT       0.417000       1.00800           0
     64288 TIP3     13948    TIP3     OH2      OT      -0.834000       15.9994           0
     64289 TIP3     13948    TIP3     H1       HT       0.417000       1.00800           0
     64290 TIP3     13948    TIP3     H2       HT       0.417000       1.00800           0
     64291 TIP3     13949    TIP3     OH2      OT      -0.834000       15.9994           0
     64292 TIP3     13949    TIP3     H1       HT       0.417000       1.00800           0
     64293 TIP3     13949    TIP3     H2       HT       0.417000       1.00800           0
     64294 TIP3     13950    TIP3     OH2      OT      -0.834000       15.9994           0
     64295 TIP3     13950    TIP3     H1       HT       0.417000       1.00800           0
     64296 TIP3     13950    TIP3     H2       HT       0.417000       1.00800           0
     64297 TIP3     13951    TIP3     OH2      OT      -0.834000       15.9994           0
     64298 TIP3     13951    TIP3     H1       HT       0.417000       1.00800           0
     64299 TIP3     13951    TIP3     H2       HT       0.417000       1.00800           0
     64300 TIP3     13952    TIP3     OH2      OT      -0.834000       15.9994           0
     64301 TIP3     13952    TIP3     H1       HT       0.417000       1.00800           0
     64302 TIP3     13952    TIP3     H2       HT       0.417000       1.00800           0
     64303 TIP3     13953    TIP3     OH2      OT      -0.834000       15.9994           0
     64304 TIP3     13953    TIP3     H1       HT       0.417000       1.00800           0
     64305 TIP3     13953    TIP3     H2       HT       0.417000       1.00800           0
     64306 TIP3     13954    TIP3     OH2      OT      -0.834000       15.9994           0
     64307 TIP3     13954    TIP3     H1       HT       0.417000       1.00800           0
     64308 TIP3     13954    TIP3     H2       HT       0.417000       1.00800           0
     64309 TIP3     13955    TIP3     OH2      OT      -0.834000       15.9994           0
     64310 TIP3     13955    TIP3     H1       HT       0.417000       1.00800           0
     64311 TIP3     13955    TIP3     H2       HT       0.417000       1.00800           0
     64312 TIP3     13956    TIP3     OH2      OT      -0.834000       15.9994           0
     64313 TIP3     13956    TIP3     H1       HT       0.417000       1.00800           0
     64314 TIP3     13956    TIP3     H2       HT       0.417000       1.00800           0
     64315 TIP3     13957    TIP3     OH2      OT      -0.834000       15.9994           0
     64316 TIP3     13957    TIP3     H1       HT       0.417000       1.00800           0
     64317 TIP3     13957    TIP3     H2       HT       0.417000       1.00800           0
     64318 TIP3     13958    TIP3     OH2      OT      -0.834000       15.9994           0
     64319 TIP3     13958    TIP3     H1       HT       0.417000       1.00800           0
     64320 TIP3     13958    TIP3     H2       HT       0.417000       1.00800           0
     64321 TIP3     13959    TIP3     OH2      OT      -0.834000       15.9994           0
     64322 TIP3     13959    TIP3     H1       HT       0.417000       1.00800           0
     64323 TIP3     13959    TIP3     H2       HT       0.417000       1.00800           0
     64324 TIP3     13960    TIP3     OH2      OT      -0.834000       15.9994           0
     64325 TIP3     13960    TIP3     H1       HT       0.417000       1.00800           0
     64326 TIP3     13960    TIP3     H2       HT       0.417000       1.00800           0
     64327 TIP3     13961    TIP3     OH2      OT      -0.834000       15.9994           0
     64328 TIP3     13961    TIP3     H1       HT       0.417000       1.00800           0
     64329 TIP3     13961    TIP3     H2       HT       0.417000       1.00800           0
     64330 TIP3     13962    TIP3     OH2      OT      -0.834000       15.9994           0
     64331 TIP3     13962    TIP3     H1       HT       0.417000       1.00800           0
     64332 TIP3     13962    TIP3     H2       HT       0.417000       1.00800           0
     64333 TIP3     13963    TIP3     OH2      OT      -0.834000       15.9994           0
     64334 TIP3     13963    TIP3     H1       HT       0.417000       1.00800           0
     64335 TIP3     13963    TIP3     H2       HT       0.417000       1.00800           0
     64336 TIP3     13964    TIP3     OH2      OT      -0.834000       15.9994           0
     64337 TIP3     13964    TIP3     H1       HT       0.417000       1.00800           0
     64338 TIP3     13964    TIP3     H2       HT       0.417000       1.00800           0
     64339 TIP3     13965    TIP3     OH2      OT      -0.834000       15.9994           0
     64340 TIP3     13965    TIP3     H1       HT       0.417000       1.00800           0
     64341 TIP3     13965    TIP3     H2       HT       0.417000       1.00800           0
     64342 TIP3     13966    TIP3     OH2      OT      -0.834000       15.9994           0
     64343 TIP3     13966    TIP3     H1       HT       0.417000       1.00800           0
     64344 TIP3     13966    TIP3     H2       HT       0.417000       1.00800           0
     64345 TIP3     13967    TIP3     OH2      OT      -0.834000       15.9994           0
     64346 TIP3     13967    TIP3     H1       HT       0.417000       1.00800           0
     64347 TIP3     13967    TIP3     H2       HT       0.417000       1.00800           0
     64348 TIP3     13968    TIP3     OH2      OT      -0.834000       15.9994           0
     64349 TIP3     13968    TIP3     H1       HT       0.417000       1.00800           0
     64350 TIP3     13968    TIP3     H2       HT       0.417000       1.00800           0
     64351 TIP3     13969    TIP3     OH2      OT      -0.834000       15.9994           0
     64352 TIP3     13969    TIP3     H1       HT       0.417000       1.00800           0
     64353 TIP3     13969    TIP3     H2       HT       0.417000       1.00800           0
     64354 TIP3     13970    TIP3     OH2      OT      -0.834000       15.9994           0
     64355 TIP3     13970    TIP3     H1       HT       0.417000       1.00800           0
     64356 TIP3     13970    TIP3     H2       HT       0.417000       1.00800           0
     64357 TIP3     13971    TIP3     OH2      OT      -0.834000       15.9994           0
     64358 TIP3     13971    TIP3     H1       HT       0.417000       1.00800           0
     64359 TIP3     13971    TIP3     H2       HT       0.417000       1.00800           0
     64360 TIP3     13972    TIP3     OH2      OT      -0.834000       15.9994           0
     64361 TIP3     13972    TIP3     H1       HT       0.417000       1.00800           0
     64362 TIP3     13972    TIP3     H2       HT       0.417000       1.00800           0
     64363 TIP3     13973    TIP3     OH2      OT      -0.834000       15.9994           0
     64364 TIP3     13973    TIP3     H1       HT       0.417000       1.00800           0
     64365 TIP3     13973    TIP3     H2       HT       0.417000       1.00800           0
     64366 TIP3     13974    TIP3     OH2      OT      -0.834000       15.9994           0
     64367 TIP3     13974    TIP3     H1       HT       0.417000       1.00800           0
     64368 TIP3     13974    TIP3     H2       HT       0.417000       1.00800           0
     64369 TIP3     13975    TIP3     OH2      OT      -0.834000       15.9994           0
     64370 TIP3     13975    TIP3     H1       HT       0.417000       1.00800           0
     64371 TIP3     13975    TIP3     H2       HT       0.417000       1.00800           0
     64372 TIP3     13976    TIP3     OH2      OT      -0.834000       15.9994           0
     64373 TIP3     13976    TIP3     H1       HT       0.417000       1.00800           0
     64374 TIP3     13976    TIP3     H2       HT       0.417000       1.00800           0
     64375 TIP3     13977    TIP3     OH2      OT      -0.834000       15.9994           0
     64376 TIP3     13977    TIP3     H1       HT       0.417000       1.00800           0
     64377 TIP3     13977    TIP3     H2       HT       0.417000       1.00800           0
     64378 TIP3     13978    TIP3     OH2      OT      -0.834000       15.9994           0
     64379 TIP3     13978    TIP3     H1       HT       0.417000       1.00800           0
     64380 TIP3     13978    TIP3     H2       HT       0.417000       1.00800           0
     64381 TIP3     13979    TIP3     OH2      OT      -0.834000       15.9994           0
     64382 TIP3     13979    TIP3     H1       HT       0.417000       1.00800           0
     64383 TIP3     13979    TIP3     H2       HT       0.417000       1.00800           0
     64384 TIP3     13980    TIP3     OH2      OT      -0.834000       15.9994           0
     64385 TIP3     13980    TIP3     H1       HT       0.417000       1.00800           0
     64386 TIP3     13980    TIP3     H2       HT       0.417000       1.00800           0
     64387 TIP3     13981    TIP3     OH2      OT      -0.834000       15.9994           0
     64388 TIP3     13981    TIP3     H1       HT       0.417000       1.00800           0
     64389 TIP3     13981    TIP3     H2       HT       0.417000       1.00800           0
     64390 TIP3     13982    TIP3     OH2      OT      -0.834000       15.9994           0
     64391 TIP3     13982    TIP3     H1       HT       0.417000       1.00800           0
     64392 TIP3     13982    TIP3     H2       HT       0.417000       1.00800           0
     64393 TIP3     13983    TIP3     OH2      OT      -0.834000       15.9994           0
     64394 TIP3     13983    TIP3     H1       HT       0.417000       1.00800           0
     64395 TIP3     13983    TIP3     H2       HT       0.417000       1.00800           0
     64396 TIP3     13984    TIP3     OH2      OT      -0.834000       15.9994           0
     64397 TIP3     13984    TIP3     H1       HT       0.417000       1.00800           0
     64398 TIP3     13984    TIP3     H2       HT       0.417000       1.00800           0
     64399 TIP3     13985    TIP3     OH2      OT      -0.834000       15.9994           0
     64400 TIP3     13985    TIP3     H1       HT       0.417000       1.00800           0
     64401 TIP3     13985    TIP3     H2       HT       0.417000       1.00800           0
     64402 TIP3     13986    TIP3     OH2      OT      -0.834000       15.9994           0
     64403 TIP3     13986    TIP3     H1       HT       0.417000       1.00800           0
     64404 TIP3     13986    TIP3     H2       HT       0.417000       1.00800           0
     64405 TIP3     13987    TIP3     OH2      OT      -0.834000       15.9994           0
     64406 TIP3     13987    TIP3     H1       HT       0.417000       1.00800           0
     64407 TIP3     13987    TIP3     H2       HT       0.417000       1.00800           0
     64408 TIP3     13988    TIP3     OH2      OT      -0.834000       15.9994           0
     64409 TIP3     13988    TIP3     H1       HT       0.417000       1.00800           0
     64410 TIP3     13988    TIP3     H2       HT       0.417000       1.00800           0
     64411 TIP3     13989    TIP3     OH2      OT      -0.834000       15.9994           0
     64412 TIP3     13989    TIP3     H1       HT       0.417000       1.00800           0
     64413 TIP3     13989    TIP3     H2       HT       0.417000       1.00800           0
     64414 TIP3     13990    TIP3     OH2      OT      -0.834000       15.9994           0
     64415 TIP3     13990    TIP3     H1       HT       0.417000       1.00800           0
     64416 TIP3     13990    TIP3     H2       HT       0.417000       1.00800           0
     64417 TIP3     13991    TIP3     OH2      OT      -0.834000       15.9994           0
     64418 TIP3     13991    TIP3     H1       HT       0.417000       1.00800           0
     64419 TIP3     13991    TIP3     H2       HT       0.417000       1.00800           0
     64420 TIP3     13992    TIP3     OH2      OT      -0.834000       15.9994           0
     64421 TIP3     13992    TIP3     H1       HT       0.417000       1.00800           0
     64422 TIP3     13992    TIP3     H2       HT       0.417000       1.00800           0
     64423 TIP3     13993    TIP3     OH2      OT      -0.834000       15.9994           0
     64424 TIP3     13993    TIP3     H1       HT       0.417000       1.00800           0
     64425 TIP3     13993    TIP3     H2       HT       0.417000       1.00800           0
     64426 TIP3     13994    TIP3     OH2      OT      -0.834000       15.9994           0
     64427 TIP3     13994    TIP3     H1       HT       0.417000       1.00800           0
     64428 TIP3     13994    TIP3     H2       HT       0.417000       1.00800           0
     64429 TIP3     13995    TIP3     OH2      OT      -0.834000       15.9994           0
     64430 TIP3     13995    TIP3     H1       HT       0.417000       1.00800           0
     64431 TIP3     13995    TIP3     H2       HT       0.417000       1.00800           0
     64432 TIP3     13996    TIP3     OH2      OT      -0.834000       15.9994           0
     64433 TIP3     13996    TIP3     H1       HT       0.417000       1.00800           0
     64434 TIP3     13996    TIP3     H2       HT       0.417000       1.00800           0
     64435 TIP3     13997    TIP3     OH2      OT      -0.834000       15.9994           0
     64436 TIP3     13997    TIP3     H1       HT       0.417000       1.00800           0
     64437 TIP3     13997    TIP3     H2       HT       0.417000       1.00800           0
     64438 TIP3     13998    TIP3     OH2      OT      -0.834000       15.9994           0
     64439 TIP3     13998    TIP3     H1       HT       0.417000       1.00800           0
     64440 TIP3     13998    TIP3     H2       HT       0.417000       1.00800           0
     64441 TIP3     13999    TIP3     OH2      OT      -0.834000       15.9994           0
     64442 TIP3     13999    TIP3     H1       HT       0.417000       1.00800           0
     64443 TIP3     13999    TIP3     H2       HT       0.417000       1.00800           0
     64444 TIP3     14000    TIP3     OH2      OT      -0.834000       15.9994           0
     64445 TIP3     14000    TIP3     H1       HT       0.417000       1.00800           0
     64446 TIP3     14000    TIP3     H2       HT       0.417000       1.00800           0
     64447 TIP3     14001    TIP3     OH2      OT      -0.834000       15.9994           0
     64448 TIP3     14001    TIP3     H1       HT       0.417000       1.00800           0
     64449 TIP3     14001    TIP3     H2       HT       0.417000       1.00800           0
     64450 TIP3     14002    TIP3     OH2      OT      -0.834000       15.9994           0
     64451 TIP3     14002    TIP3     H1       HT       0.417000       1.00800           0
     64452 TIP3     14002    TIP3     H2       HT       0.417000       1.00800           0
     64453 TIP3     14003    TIP3     OH2      OT      -0.834000       15.9994           0
     64454 TIP3     14003    TIP3     H1       HT       0.417000       1.00800           0
     64455 TIP3     14003    TIP3     H2       HT       0.417000       1.00800           0
     64456 TIP3     14004    TIP3     OH2      OT      -0.834000       15.9994           0
     64457 TIP3     14004    TIP3     H1       HT       0.417000       1.00800           0
     64458 TIP3     14004    TIP3     H2       HT       0.417000       1.00800           0
     64459 TIP3     14005    TIP3     OH2      OT      -0.834000       15.9994           0
     64460 TIP3     14005    TIP3     H1       HT       0.417000       1.00800           0
     64461 TIP3     14005    TIP3     H2       HT       0.417000       1.00800           0
     64462 TIP3     14006    TIP3     OH2      OT      -0.834000       15.9994           0
     64463 TIP3     14006    TIP3     H1       HT       0.417000       1.00800           0
     64464 TIP3     14006    TIP3     H2       HT       0.417000       1.00800           0
     64465 TIP3     14007    TIP3     OH2      OT      -0.834000       15.9994           0
     64466 TIP3     14007    TIP3     H1       HT       0.417000       1.00800           0
     64467 TIP3     14007    TIP3     H2       HT       0.417000       1.00800           0
     64468 TIP3     14008    TIP3     OH2      OT      -0.834000       15.9994           0
     64469 TIP3     14008    TIP3     H1       HT       0.417000       1.00800           0
     64470 TIP3     14008    TIP3     H2       HT       0.417000       1.00800           0
     64471 TIP3     14009    TIP3     OH2      OT      -0.834000       15.9994           0
     64472 TIP3     14009    TIP3     H1       HT       0.417000       1.00800           0
     64473 TIP3     14009    TIP3     H2       HT       0.417000       1.00800           0
     64474 TIP3     14010    TIP3     OH2      OT      -0.834000       15.9994           0
     64475 TIP3     14010    TIP3     H1       HT       0.417000       1.00800           0
     64476 TIP3     14010    TIP3     H2       HT       0.417000       1.00800           0
     64477 TIP3     14011    TIP3     OH2      OT      -0.834000       15.9994           0
     64478 TIP3     14011    TIP3     H1       HT       0.417000       1.00800           0
     64479 TIP3     14011    TIP3     H2       HT       0.417000       1.00800           0
     64480 TIP3     14012    TIP3     OH2      OT      -0.834000       15.9994           0
     64481 TIP3     14012    TIP3     H1       HT       0.417000       1.00800           0
     64482 TIP3     14012    TIP3     H2       HT       0.417000       1.00800           0
     64483 TIP3     14013    TIP3     OH2      OT      -0.834000       15.9994           0
     64484 TIP3     14013    TIP3     H1       HT       0.417000       1.00800           0
     64485 TIP3     14013    TIP3     H2       HT       0.417000       1.00800           0
     64486 TIP3     14014    TIP3     OH2      OT      -0.834000       15.9994           0
     64487 TIP3     14014    TIP3     H1       HT       0.417000       1.00800           0
     64488 TIP3     14014    TIP3     H2       HT       0.417000       1.00800           0
     64489 TIP3     14015    TIP3     OH2      OT      -0.834000       15.9994           0
     64490 TIP3     14015    TIP3     H1       HT       0.417000       1.00800           0
     64491 TIP3     14015    TIP3     H2       HT       0.417000       1.00800           0
     64492 TIP3     14016    TIP3     OH2      OT      -0.834000       15.9994           0
     64493 TIP3     14016    TIP3     H1       HT       0.417000       1.00800           0
     64494 TIP3     14016    TIP3     H2       HT       0.417000       1.00800           0
     64495 TIP3     14017    TIP3     OH2      OT      -0.834000       15.9994           0
     64496 TIP3     14017    TIP3     H1       HT       0.417000       1.00800           0
     64497 TIP3     14017    TIP3     H2       HT       0.417000       1.00800           0
     64498 TIP3     14018    TIP3     OH2      OT      -0.834000       15.9994           0
     64499 TIP3     14018    TIP3     H1       HT       0.417000       1.00800           0
     64500 TIP3     14018    TIP3     H2       HT       0.417000       1.00800           0
     64501 TIP3     14019    TIP3     OH2      OT      -0.834000       15.9994           0
     64502 TIP3     14019    TIP3     H1       HT       0.417000       1.00800           0
     64503 TIP3     14019    TIP3     H2       HT       0.417000       1.00800           0
     64504 TIP3     14020    TIP3     OH2      OT      -0.834000       15.9994           0
     64505 TIP3     14020    TIP3     H1       HT       0.417000       1.00800           0
     64506 TIP3     14020    TIP3     H2       HT       0.417000       1.00800           0
     64507 TIP3     14021    TIP3     OH2      OT      -0.834000       15.9994           0
     64508 TIP3     14021    TIP3     H1       HT       0.417000       1.00800           0
     64509 TIP3     14021    TIP3     H2       HT       0.417000       1.00800           0
     64510 TIP3     14022    TIP3     OH2      OT      -0.834000       15.9994           0
     64511 TIP3     14022    TIP3     H1       HT       0.417000       1.00800           0
     64512 TIP3     14022    TIP3     H2       HT       0.417000       1.00800           0
     64513 TIP3     14023    TIP3     OH2      OT      -0.834000       15.9994           0
     64514 TIP3     14023    TIP3     H1       HT       0.417000       1.00800           0
     64515 TIP3     14023    TIP3     H2       HT       0.417000       1.00800           0
     64516 TIP3     14024    TIP3     OH2      OT      -0.834000       15.9994           0
     64517 TIP3     14024    TIP3     H1       HT       0.417000       1.00800           0
     64518 TIP3     14024    TIP3     H2       HT       0.417000       1.00800           0
     64519 TIP3     14025    TIP3     OH2      OT      -0.834000       15.9994           0
     64520 TIP3     14025    TIP3     H1       HT       0.417000       1.00800           0
     64521 TIP3     14025    TIP3     H2       HT       0.417000       1.00800           0
     64522 TIP3     14026    TIP3     OH2      OT      -0.834000       15.9994           0
     64523 TIP3     14026    TIP3     H1       HT       0.417000       1.00800           0
     64524 TIP3     14026    TIP3     H2       HT       0.417000       1.00800           0
     64525 TIP3     14027    TIP3     OH2      OT      -0.834000       15.9994           0
     64526 TIP3     14027    TIP3     H1       HT       0.417000       1.00800           0
     64527 TIP3     14027    TIP3     H2       HT       0.417000       1.00800           0
     64528 TIP3     14028    TIP3     OH2      OT      -0.834000       15.9994           0
     64529 TIP3     14028    TIP3     H1       HT       0.417000       1.00800           0
     64530 TIP3     14028    TIP3     H2       HT       0.417000       1.00800           0
     64531 TIP3     14029    TIP3     OH2      OT      -0.834000       15.9994           0
     64532 TIP3     14029    TIP3     H1       HT       0.417000       1.00800           0
     64533 TIP3     14029    TIP3     H2       HT       0.417000       1.00800           0
     64534 TIP3     14030    TIP3     OH2      OT      -0.834000       15.9994           0
     64535 TIP3     14030    TIP3     H1       HT       0.417000       1.00800           0
     64536 TIP3     14030    TIP3     H2       HT       0.417000       1.00800           0
     64537 TIP3     14031    TIP3     OH2      OT      -0.834000       15.9994           0
     64538 TIP3     14031    TIP3     H1       HT       0.417000       1.00800           0
     64539 TIP3     14031    TIP3     H2       HT       0.417000       1.00800           0
     64540 TIP3     14032    TIP3     OH2      OT      -0.834000       15.9994           0
     64541 TIP3     14032    TIP3     H1       HT       0.417000       1.00800           0
     64542 TIP3     14032    TIP3     H2       HT       0.417000       1.00800           0
     64543 TIP3     14033    TIP3     OH2      OT      -0.834000       15.9994           0
     64544 TIP3     14033    TIP3     H1       HT       0.417000       1.00800           0
     64545 TIP3     14033    TIP3     H2       HT       0.417000       1.00800           0
     64546 TIP3     14034    TIP3     OH2      OT      -0.834000       15.9994           0
     64547 TIP3     14034    TIP3     H1       HT       0.417000       1.00800           0
     64548 TIP3     14034    TIP3     H2       HT       0.417000       1.00800           0
     64549 TIP3     14035    TIP3     OH2      OT      -0.834000       15.9994           0
     64550 TIP3     14035    TIP3     H1       HT       0.417000       1.00800           0
     64551 TIP3     14035    TIP3     H2       HT       0.417000       1.00800           0
     64552 TIP3     14036    TIP3     OH2      OT      -0.834000       15.9994           0
     64553 TIP3     14036    TIP3     H1       HT       0.417000       1.00800           0
     64554 TIP3     14036    TIP3     H2       HT       0.417000       1.00800           0
     64555 TIP3     14037    TIP3     OH2      OT      -0.834000       15.9994           0
     64556 TIP3     14037    TIP3     H1       HT       0.417000       1.00800           0
     64557 TIP3     14037    TIP3     H2       HT       0.417000       1.00800           0
     64558 TIP3     14038    TIP3     OH2      OT      -0.834000       15.9994           0
     64559 TIP3     14038    TIP3     H1       HT       0.417000       1.00800           0
     64560 TIP3     14038    TIP3     H2       HT       0.417000       1.00800           0
     64561 TIP3     14039    TIP3     OH2      OT      -0.834000       15.9994           0
     64562 TIP3     14039    TIP3     H1       HT       0.417000       1.00800           0
     64563 TIP3     14039    TIP3     H2       HT       0.417000       1.00800           0
     64564 TIP3     14040    TIP3     OH2      OT      -0.834000       15.9994           0
     64565 TIP3     14040    TIP3     H1       HT       0.417000       1.00800           0
     64566 TIP3     14040    TIP3     H2       HT       0.417000       1.00800           0
     64567 TIP3     14041    TIP3     OH2      OT      -0.834000       15.9994           0
     64568 TIP3     14041    TIP3     H1       HT       0.417000       1.00800           0
     64569 TIP3     14041    TIP3     H2       HT       0.417000       1.00800           0
     64570 TIP3     14042    TIP3     OH2      OT      -0.834000       15.9994           0
     64571 TIP3     14042    TIP3     H1       HT       0.417000       1.00800           0
     64572 TIP3     14042    TIP3     H2       HT       0.417000       1.00800           0
     64573 TIP3     14043    TIP3     OH2      OT      -0.834000       15.9994           0
     64574 TIP3     14043    TIP3     H1       HT       0.417000       1.00800           0
     64575 TIP3     14043    TIP3     H2       HT       0.417000       1.00800           0
     64576 TIP3     14044    TIP3     OH2      OT      -0.834000       15.9994           0
     64577 TIP3     14044    TIP3     H1       HT       0.417000       1.00800           0
     64578 TIP3     14044    TIP3     H2       HT       0.417000       1.00800           0
     64579 TIP3     14045    TIP3     OH2      OT      -0.834000       15.9994           0
     64580 TIP3     14045    TIP3     H1       HT       0.417000       1.00800           0
     64581 TIP3     14045    TIP3     H2       HT       0.417000       1.00800           0
     64582 TIP3     14046    TIP3     OH2      OT      -0.834000       15.9994           0
     64583 TIP3     14046    TIP3     H1       HT       0.417000       1.00800           0
     64584 TIP3     14046    TIP3     H2       HT       0.417000       1.00800           0
     64585 TIP3     14047    TIP3     OH2      OT      -0.834000       15.9994           0
     64586 TIP3     14047    TIP3     H1       HT       0.417000       1.00800           0
     64587 TIP3     14047    TIP3     H2       HT       0.417000       1.00800           0
     64588 TIP3     14048    TIP3     OH2      OT      -0.834000       15.9994           0
     64589 TIP3     14048    TIP3     H1       HT       0.417000       1.00800           0
     64590 TIP3     14048    TIP3     H2       HT       0.417000       1.00800           0
     64591 TIP3     14049    TIP3     OH2      OT      -0.834000       15.9994           0
     64592 TIP3     14049    TIP3     H1       HT       0.417000       1.00800           0
     64593 TIP3     14049    TIP3     H2       HT       0.417000       1.00800           0
     64594 TIP3     14050    TIP3     OH2      OT      -0.834000       15.9994           0
     64595 TIP3     14050    TIP3     H1       HT       0.417000       1.00800           0
     64596 TIP3     14050    TIP3     H2       HT       0.417000       1.00800           0
     64597 TIP3     14051    TIP3     OH2      OT      -0.834000       15.9994           0
     64598 TIP3     14051    TIP3     H1       HT       0.417000       1.00800           0
     64599 TIP3     14051    TIP3     H2       HT       0.417000       1.00800           0
     64600 TIP3     14052    TIP3     OH2      OT      -0.834000       15.9994           0
     64601 TIP3     14052    TIP3     H1       HT       0.417000       1.00800           0
     64602 TIP3     14052    TIP3     H2       HT       0.417000       1.00800           0
     64603 TIP3     14053    TIP3     OH2      OT      -0.834000       15.9994           0
     64604 TIP3     14053    TIP3     H1       HT       0.417000       1.00800           0
     64605 TIP3     14053    TIP3     H2       HT       0.417000       1.00800           0
     64606 TIP3     14054    TIP3     OH2      OT      -0.834000       15.9994           0
     64607 TIP3     14054    TIP3     H1       HT       0.417000       1.00800           0
     64608 TIP3     14054    TIP3     H2       HT       0.417000       1.00800           0
     64609 TIP3     14055    TIP3     OH2      OT      -0.834000       15.9994           0
     64610 TIP3     14055    TIP3     H1       HT       0.417000       1.00800           0
     64611 TIP3     14055    TIP3     H2       HT       0.417000       1.00800           0
     64612 TIP3     14056    TIP3     OH2      OT      -0.834000       15.9994           0
     64613 TIP3     14056    TIP3     H1       HT       0.417000       1.00800           0
     64614 TIP3     14056    TIP3     H2       HT       0.417000       1.00800           0
     64615 TIP3     14057    TIP3     OH2      OT      -0.834000       15.9994           0
     64616 TIP3     14057    TIP3     H1       HT       0.417000       1.00800           0
     64617 TIP3     14057    TIP3     H2       HT       0.417000       1.00800           0
     64618 TIP3     14058    TIP3     OH2      OT      -0.834000       15.9994           0
     64619 TIP3     14058    TIP3     H1       HT       0.417000       1.00800           0
     64620 TIP3     14058    TIP3     H2       HT       0.417000       1.00800           0
     64621 TIP3     14059    TIP3     OH2      OT      -0.834000       15.9994           0
     64622 TIP3     14059    TIP3     H1       HT       0.417000       1.00800           0
     64623 TIP3     14059    TIP3     H2       HT       0.417000       1.00800           0
     64624 TIP3     14060    TIP3     OH2      OT      -0.834000       15.9994           0
     64625 TIP3     14060    TIP3     H1       HT       0.417000       1.00800           0
     64626 TIP3     14060    TIP3     H2       HT       0.417000       1.00800           0
     64627 TIP3     14061    TIP3     OH2      OT      -0.834000       15.9994           0
     64628 TIP3     14061    TIP3     H1       HT       0.417000       1.00800           0
     64629 TIP3     14061    TIP3     H2       HT       0.417000       1.00800           0
     64630 TIP3     14062    TIP3     OH2      OT      -0.834000       15.9994           0
     64631 TIP3     14062    TIP3     H1       HT       0.417000       1.00800           0
     64632 TIP3     14062    TIP3     H2       HT       0.417000       1.00800           0
     64633 TIP3     14063    TIP3     OH2      OT      -0.834000       15.9994           0
     64634 TIP3     14063    TIP3     H1       HT       0.417000       1.00800           0
     64635 TIP3     14063    TIP3     H2       HT       0.417000       1.00800           0
     64636 TIP3     14064    TIP3     OH2      OT      -0.834000       15.9994           0
     64637 TIP3     14064    TIP3     H1       HT       0.417000       1.00800           0
     64638 TIP3     14064    TIP3     H2       HT       0.417000       1.00800           0
     64639 TIP3     14065    TIP3     OH2      OT      -0.834000       15.9994           0
     64640 TIP3     14065    TIP3     H1       HT       0.417000       1.00800           0
     64641 TIP3     14065    TIP3     H2       HT       0.417000       1.00800           0
     64642 TIP3     14066    TIP3     OH2      OT      -0.834000       15.9994           0
     64643 TIP3     14066    TIP3     H1       HT       0.417000       1.00800           0
     64644 TIP3     14066    TIP3     H2       HT       0.417000       1.00800           0
     64645 TIP3     14067    TIP3     OH2      OT      -0.834000       15.9994           0
     64646 TIP3     14067    TIP3     H1       HT       0.417000       1.00800           0
     64647 TIP3     14067    TIP3     H2       HT       0.417000       1.00800           0
     64648 TIP3     14068    TIP3     OH2      OT      -0.834000       15.9994           0
     64649 TIP3     14068    TIP3     H1       HT       0.417000       1.00800           0
     64650 TIP3     14068    TIP3     H2       HT       0.417000       1.00800           0
     64651 TIP3     14069    TIP3     OH2      OT      -0.834000       15.9994           0
     64652 TIP3     14069    TIP3     H1       HT       0.417000       1.00800           0
     64653 TIP3     14069    TIP3     H2       HT       0.417000       1.00800           0
     64654 TIP3     14070    TIP3     OH2      OT      -0.834000       15.9994           0
     64655 TIP3     14070    TIP3     H1       HT       0.417000       1.00800           0
     64656 TIP3     14070    TIP3     H2       HT       0.417000       1.00800           0
     64657 TIP3     14071    TIP3     OH2      OT      -0.834000       15.9994           0
     64658 TIP3     14071    TIP3     H1       HT       0.417000       1.00800           0
     64659 TIP3     14071    TIP3     H2       HT       0.417000       1.00800           0
     64660 TIP3     14072    TIP3     OH2      OT      -0.834000       15.9994           0
     64661 TIP3     14072    TIP3     H1       HT       0.417000       1.00800           0
     64662 TIP3     14072    TIP3     H2       HT       0.417000       1.00800           0
     64663 TIP3     14073    TIP3     OH2      OT      -0.834000       15.9994           0
     64664 TIP3     14073    TIP3     H1       HT       0.417000       1.00800           0
     64665 TIP3     14073    TIP3     H2       HT       0.417000       1.00800           0
     64666 TIP3     14074    TIP3     OH2      OT      -0.834000       15.9994           0
     64667 TIP3     14074    TIP3     H1       HT       0.417000       1.00800           0
     64668 TIP3     14074    TIP3     H2       HT       0.417000       1.00800           0
     64669 TIP3     14075    TIP3     OH2      OT      -0.834000       15.9994           0
     64670 TIP3     14075    TIP3     H1       HT       0.417000       1.00800           0
     64671 TIP3     14075    TIP3     H2       HT       0.417000       1.00800           0
     64672 TIP3     14076    TIP3     OH2      OT      -0.834000       15.9994           0
     64673 TIP3     14076    TIP3     H1       HT       0.417000       1.00800           0
     64674 TIP3     14076    TIP3     H2       HT       0.417000       1.00800           0
     64675 TIP3     14077    TIP3     OH2      OT      -0.834000       15.9994           0
     64676 TIP3     14077    TIP3     H1       HT       0.417000       1.00800           0
     64677 TIP3     14077    TIP3     H2       HT       0.417000       1.00800           0
     64678 TIP3     14078    TIP3     OH2      OT      -0.834000       15.9994           0
     64679 TIP3     14078    TIP3     H1       HT       0.417000       1.00800           0
     64680 TIP3     14078    TIP3     H2       HT       0.417000       1.00800           0
     64681 TIP3     14079    TIP3     OH2      OT      -0.834000       15.9994           0
     64682 TIP3     14079    TIP3     H1       HT       0.417000       1.00800           0
     64683 TIP3     14079    TIP3     H2       HT       0.417000       1.00800           0
     64684 TIP3     14080    TIP3     OH2      OT      -0.834000       15.9994           0
     64685 TIP3     14080    TIP3     H1       HT       0.417000       1.00800           0
     64686 TIP3     14080    TIP3     H2       HT       0.417000       1.00800           0
     64687 TIP3     14081    TIP3     OH2      OT      -0.834000       15.9994           0
     64688 TIP3     14081    TIP3     H1       HT       0.417000       1.00800           0
     64689 TIP3     14081    TIP3     H2       HT       0.417000       1.00800           0
     64690 TIP3     14082    TIP3     OH2      OT      -0.834000       15.9994           0
     64691 TIP3     14082    TIP3     H1       HT       0.417000       1.00800           0
     64692 TIP3     14082    TIP3     H2       HT       0.417000       1.00800           0
     64693 TIP3     14083    TIP3     OH2      OT      -0.834000       15.9994           0
     64694 TIP3     14083    TIP3     H1       HT       0.417000       1.00800           0
     64695 TIP3     14083    TIP3     H2       HT       0.417000       1.00800           0
     64696 TIP3     14084    TIP3     OH2      OT      -0.834000       15.9994           0
     64697 TIP3     14084    TIP3     H1       HT       0.417000       1.00800           0
     64698 TIP3     14084    TIP3     H2       HT       0.417000       1.00800           0
     64699 TIP3     14085    TIP3     OH2      OT      -0.834000       15.9994           0
     64700 TIP3     14085    TIP3     H1       HT       0.417000       1.00800           0
     64701 TIP3     14085    TIP3     H2       HT       0.417000       1.00800           0
     64702 TIP3     14086    TIP3     OH2      OT      -0.834000       15.9994           0
     64703 TIP3     14086    TIP3     H1       HT       0.417000       1.00800           0
     64704 TIP3     14086    TIP3     H2       HT       0.417000       1.00800           0
     64705 TIP3     14087    TIP3     OH2      OT      -0.834000       15.9994           0
     64706 TIP3     14087    TIP3     H1       HT       0.417000       1.00800           0
     64707 TIP3     14087    TIP3     H2       HT       0.417000       1.00800           0
     64708 TIP3     14088    TIP3     OH2      OT      -0.834000       15.9994           0
     64709 TIP3     14088    TIP3     H1       HT       0.417000       1.00800           0
     64710 TIP3     14088    TIP3     H2       HT       0.417000       1.00800           0
     64711 TIP3     14089    TIP3     OH2      OT      -0.834000       15.9994           0
     64712 TIP3     14089    TIP3     H1       HT       0.417000       1.00800           0
     64713 TIP3     14089    TIP3     H2       HT       0.417000       1.00800           0
     64714 TIP3     14090    TIP3     OH2      OT      -0.834000       15.9994           0
     64715 TIP3     14090    TIP3     H1       HT       0.417000       1.00800           0
     64716 TIP3     14090    TIP3     H2       HT       0.417000       1.00800           0
     64717 TIP3     14091    TIP3     OH2      OT      -0.834000       15.9994           0
     64718 TIP3     14091    TIP3     H1       HT       0.417000       1.00800           0
     64719 TIP3     14091    TIP3     H2       HT       0.417000       1.00800           0
     64720 TIP3     14092    TIP3     OH2      OT      -0.834000       15.9994           0
     64721 TIP3     14092    TIP3     H1       HT       0.417000       1.00800           0
     64722 TIP3     14092    TIP3     H2       HT       0.417000       1.00800           0
     64723 TIP3     14093    TIP3     OH2      OT      -0.834000       15.9994           0
     64724 TIP3     14093    TIP3     H1       HT       0.417000       1.00800           0
     64725 TIP3     14093    TIP3     H2       HT       0.417000       1.00800           0
     64726 TIP3     14094    TIP3     OH2      OT      -0.834000       15.9994           0
     64727 TIP3     14094    TIP3     H1       HT       0.417000       1.00800           0
     64728 TIP3     14094    TIP3     H2       HT       0.417000       1.00800           0
     64729 TIP3     14095    TIP3     OH2      OT      -0.834000       15.9994           0
     64730 TIP3     14095    TIP3     H1       HT       0.417000       1.00800           0
     64731 TIP3     14095    TIP3     H2       HT       0.417000       1.00800           0
     64732 TIP3     14096    TIP3     OH2      OT      -0.834000       15.9994           0
     64733 TIP3     14096    TIP3     H1       HT       0.417000       1.00800           0
     64734 TIP3     14096    TIP3     H2       HT       0.417000       1.00800           0
     64735 TIP3     14097    TIP3     OH2      OT      -0.834000       15.9994           0
     64736 TIP3     14097    TIP3     H1       HT       0.417000       1.00800           0
     64737 TIP3     14097    TIP3     H2       HT       0.417000       1.00800           0
     64738 TIP3     14098    TIP3     OH2      OT      -0.834000       15.9994           0
     64739 TIP3     14098    TIP3     H1       HT       0.417000       1.00800           0
     64740 TIP3     14098    TIP3     H2       HT       0.417000       1.00800           0
     64741 TIP3     14099    TIP3     OH2      OT      -0.834000       15.9994           0
     64742 TIP3     14099    TIP3     H1       HT       0.417000       1.00800           0
     64743 TIP3     14099    TIP3     H2       HT       0.417000       1.00800           0
     64744 TIP3     14100    TIP3     OH2      OT      -0.834000       15.9994           0
     64745 TIP3     14100    TIP3     H1       HT       0.417000       1.00800           0
     64746 TIP3     14100    TIP3     H2       HT       0.417000       1.00800           0
     64747 TIP3     14101    TIP3     OH2      OT      -0.834000       15.9994           0
     64748 TIP3     14101    TIP3     H1       HT       0.417000       1.00800           0
     64749 TIP3     14101    TIP3     H2       HT       0.417000       1.00800           0
     64750 TIP3     14102    TIP3     OH2      OT      -0.834000       15.9994           0
     64751 TIP3     14102    TIP3     H1       HT       0.417000       1.00800           0
     64752 TIP3     14102    TIP3     H2       HT       0.417000       1.00800           0
     64753 TIP3     14103    TIP3     OH2      OT      -0.834000       15.9994           0
     64754 TIP3     14103    TIP3     H1       HT       0.417000       1.00800           0
     64755 TIP3     14103    TIP3     H2       HT       0.417000       1.00800           0
     64756 TIP3     14104    TIP3     OH2      OT      -0.834000       15.9994           0
     64757 TIP3     14104    TIP3     H1       HT       0.417000       1.00800           0
     64758 TIP3     14104    TIP3     H2       HT       0.417000       1.00800           0
     64759 TIP3     14105    TIP3     OH2      OT      -0.834000       15.9994           0
     64760 TIP3     14105    TIP3     H1       HT       0.417000       1.00800           0
     64761 TIP3     14105    TIP3     H2       HT       0.417000       1.00800           0
     64762 TIP3     14106    TIP3     OH2      OT      -0.834000       15.9994           0
     64763 TIP3     14106    TIP3     H1       HT       0.417000       1.00800           0
     64764 TIP3     14106    TIP3     H2       HT       0.417000       1.00800           0
     64765 TIP3     14107    TIP3     OH2      OT      -0.834000       15.9994           0
     64766 TIP3     14107    TIP3     H1       HT       0.417000       1.00800           0
     64767 TIP3     14107    TIP3     H2       HT       0.417000       1.00800           0
     64768 TIP3     14108    TIP3     OH2      OT      -0.834000       15.9994           0
     64769 TIP3     14108    TIP3     H1       HT       0.417000       1.00800           0
     64770 TIP3     14108    TIP3     H2       HT       0.417000       1.00800           0
     64771 TIP3     14109    TIP3     OH2      OT      -0.834000       15.9994           0
     64772 TIP3     14109    TIP3     H1       HT       0.417000       1.00800           0
     64773 TIP3     14109    TIP3     H2       HT       0.417000       1.00800           0
     64774 TIP3     14110    TIP3     OH2      OT      -0.834000       15.9994           0
     64775 TIP3     14110    TIP3     H1       HT       0.417000       1.00800           0
     64776 TIP3     14110    TIP3     H2       HT       0.417000       1.00800           0
     64777 TIP3     14111    TIP3     OH2      OT      -0.834000       15.9994           0
     64778 TIP3     14111    TIP3     H1       HT       0.417000       1.00800           0
     64779 TIP3     14111    TIP3     H2       HT       0.417000       1.00800           0
     64780 TIP3     14112    TIP3     OH2      OT      -0.834000       15.9994           0
     64781 TIP3     14112    TIP3     H1       HT       0.417000       1.00800           0
     64782 TIP3     14112    TIP3     H2       HT       0.417000       1.00800           0
     64783 TIP3     14113    TIP3     OH2      OT      -0.834000       15.9994           0
     64784 TIP3     14113    TIP3     H1       HT       0.417000       1.00800           0
     64785 TIP3     14113    TIP3     H2       HT       0.417000       1.00800           0
     64786 TIP3     14114    TIP3     OH2      OT      -0.834000       15.9994           0
     64787 TIP3     14114    TIP3     H1       HT       0.417000       1.00800           0
     64788 TIP3     14114    TIP3     H2       HT       0.417000       1.00800           0
     64789 TIP3     14115    TIP3     OH2      OT      -0.834000       15.9994           0
     64790 TIP3     14115    TIP3     H1       HT       0.417000       1.00800           0
     64791 TIP3     14115    TIP3     H2       HT       0.417000       1.00800           0
     64792 TIP3     14116    TIP3     OH2      OT      -0.834000       15.9994           0
     64793 TIP3     14116    TIP3     H1       HT       0.417000       1.00800           0
     64794 TIP3     14116    TIP3     H2       HT       0.417000       1.00800           0
     64795 TIP3     14117    TIP3     OH2      OT      -0.834000       15.9994           0
     64796 TIP3     14117    TIP3     H1       HT       0.417000       1.00800           0
     64797 TIP3     14117    TIP3     H2       HT       0.417000       1.00800           0
     64798 TIP3     14118    TIP3     OH2      OT      -0.834000       15.9994           0
     64799 TIP3     14118    TIP3     H1       HT       0.417000       1.00800           0
     64800 TIP3     14118    TIP3     H2       HT       0.417000       1.00800           0
     64801 TIP3     14119    TIP3     OH2      OT      -0.834000       15.9994           0
     64802 TIP3     14119    TIP3     H1       HT       0.417000       1.00800           0
     64803 TIP3     14119    TIP3     H2       HT       0.417000       1.00800           0
     64804 TIP3     14120    TIP3     OH2      OT      -0.834000       15.9994           0
     64805 TIP3     14120    TIP3     H1       HT       0.417000       1.00800           0
     64806 TIP3     14120    TIP3     H2       HT       0.417000       1.00800           0
     64807 TIP3     14121    TIP3     OH2      OT      -0.834000       15.9994           0
     64808 TIP3     14121    TIP3     H1       HT       0.417000       1.00800           0
     64809 TIP3     14121    TIP3     H2       HT       0.417000       1.00800           0
     64810 TIP3     14122    TIP3     OH2      OT      -0.834000       15.9994           0
     64811 TIP3     14122    TIP3     H1       HT       0.417000       1.00800           0
     64812 TIP3     14122    TIP3     H2       HT       0.417000       1.00800           0
     64813 TIP3     14123    TIP3     OH2      OT      -0.834000       15.9994           0
     64814 TIP3     14123    TIP3     H1       HT       0.417000       1.00800           0
     64815 TIP3     14123    TIP3     H2       HT       0.417000       1.00800           0
     64816 TIP3     14124    TIP3     OH2      OT      -0.834000       15.9994           0
     64817 TIP3     14124    TIP3     H1       HT       0.417000       1.00800           0
     64818 TIP3     14124    TIP3     H2       HT       0.417000       1.00800           0
     64819 TIP3     14125    TIP3     OH2      OT      -0.834000       15.9994           0
     64820 TIP3     14125    TIP3     H1       HT       0.417000       1.00800           0
     64821 TIP3     14125    TIP3     H2       HT       0.417000       1.00800           0
     64822 TIP3     14126    TIP3     OH2      OT      -0.834000       15.9994           0
     64823 TIP3     14126    TIP3     H1       HT       0.417000       1.00800           0
     64824 TIP3     14126    TIP3     H2       HT       0.417000       1.00800           0
     64825 TIP3     14127    TIP3     OH2      OT      -0.834000       15.9994           0
     64826 TIP3     14127    TIP3     H1       HT       0.417000       1.00800           0
     64827 TIP3     14127    TIP3     H2       HT       0.417000       1.00800           0
     64828 TIP3     14128    TIP3     OH2      OT      -0.834000       15.9994           0
     64829 TIP3     14128    TIP3     H1       HT       0.417000       1.00800           0
     64830 TIP3     14128    TIP3     H2       HT       0.417000       1.00800           0
     64831 TIP3     14129    TIP3     OH2      OT      -0.834000       15.9994           0
     64832 TIP3     14129    TIP3     H1       HT       0.417000       1.00800           0
     64833 TIP3     14129    TIP3     H2       HT       0.417000       1.00800           0
     64834 TIP3     14130    TIP3     OH2      OT      -0.834000       15.9994           0
     64835 TIP3     14130    TIP3     H1       HT       0.417000       1.00800           0
     64836 TIP3     14130    TIP3     H2       HT       0.417000       1.00800           0
     64837 TIP3     14131    TIP3     OH2      OT      -0.834000       15.9994           0
     64838 TIP3     14131    TIP3     H1       HT       0.417000       1.00800           0
     64839 TIP3     14131    TIP3     H2       HT       0.417000       1.00800           0
     64840 TIP3     14132    TIP3     OH2      OT      -0.834000       15.9994           0
     64841 TIP3     14132    TIP3     H1       HT       0.417000       1.00800           0
     64842 TIP3     14132    TIP3     H2       HT       0.417000       1.00800           0
     64843 TIP3     14133    TIP3     OH2      OT      -0.834000       15.9994           0
     64844 TIP3     14133    TIP3     H1       HT       0.417000       1.00800           0
     64845 TIP3     14133    TIP3     H2       HT       0.417000       1.00800           0
     64846 TIP3     14134    TIP3     OH2      OT      -0.834000       15.9994           0
     64847 TIP3     14134    TIP3     H1       HT       0.417000       1.00800           0
     64848 TIP3     14134    TIP3     H2       HT       0.417000       1.00800           0
     64849 TIP3     14135    TIP3     OH2      OT      -0.834000       15.9994           0
     64850 TIP3     14135    TIP3     H1       HT       0.417000       1.00800           0
     64851 TIP3     14135    TIP3     H2       HT       0.417000       1.00800           0
     64852 TIP3     14136    TIP3     OH2      OT      -0.834000       15.9994           0
     64853 TIP3     14136    TIP3     H1       HT       0.417000       1.00800           0
     64854 TIP3     14136    TIP3     H2       HT       0.417000       1.00800           0
     64855 TIP3     14137    TIP3     OH2      OT      -0.834000       15.9994           0
     64856 TIP3     14137    TIP3     H1       HT       0.417000       1.00800           0
     64857 TIP3     14137    TIP3     H2       HT       0.417000       1.00800           0
     64858 TIP3     14138    TIP3     OH2      OT      -0.834000       15.9994           0
     64859 TIP3     14138    TIP3     H1       HT       0.417000       1.00800           0
     64860 TIP3     14138    TIP3     H2       HT       0.417000       1.00800           0
     64861 TIP3     14139    TIP3     OH2      OT      -0.834000       15.9994           0
     64862 TIP3     14139    TIP3     H1       HT       0.417000       1.00800           0
     64863 TIP3     14139    TIP3     H2       HT       0.417000       1.00800           0
     64864 TIP3     14140    TIP3     OH2      OT      -0.834000       15.9994           0
     64865 TIP3     14140    TIP3     H1       HT       0.417000       1.00800           0
     64866 TIP3     14140    TIP3     H2       HT       0.417000       1.00800           0
     64867 TIP3     14141    TIP3     OH2      OT      -0.834000       15.9994           0
     64868 TIP3     14141    TIP3     H1       HT       0.417000       1.00800           0
     64869 TIP3     14141    TIP3     H2       HT       0.417000       1.00800           0
     64870 TIP3     14142    TIP3     OH2      OT      -0.834000       15.9994           0
     64871 TIP3     14142    TIP3     H1       HT       0.417000       1.00800           0
     64872 TIP3     14142    TIP3     H2       HT       0.417000       1.00800           0
     64873 TIP3     14143    TIP3     OH2      OT      -0.834000       15.9994           0
     64874 TIP3     14143    TIP3     H1       HT       0.417000       1.00800           0
     64875 TIP3     14143    TIP3     H2       HT       0.417000       1.00800           0
     64876 TIP3     14144    TIP3     OH2      OT      -0.834000       15.9994           0
     64877 TIP3     14144    TIP3     H1       HT       0.417000       1.00800           0
     64878 TIP3     14144    TIP3     H2       HT       0.417000       1.00800           0
     64879 TIP3     14145    TIP3     OH2      OT      -0.834000       15.9994           0
     64880 TIP3     14145    TIP3     H1       HT       0.417000       1.00800           0
     64881 TIP3     14145    TIP3     H2       HT       0.417000       1.00800           0
     64882 TIP3     14146    TIP3     OH2      OT      -0.834000       15.9994           0
     64883 TIP3     14146    TIP3     H1       HT       0.417000       1.00800           0
     64884 TIP3     14146    TIP3     H2       HT       0.417000       1.00800           0
     64885 TIP3     14147    TIP3     OH2      OT      -0.834000       15.9994           0
     64886 TIP3     14147    TIP3     H1       HT       0.417000       1.00800           0
     64887 TIP3     14147    TIP3     H2       HT       0.417000       1.00800           0
     64888 TIP3     14148    TIP3     OH2      OT      -0.834000       15.9994           0
     64889 TIP3     14148    TIP3     H1       HT       0.417000       1.00800           0
     64890 TIP3     14148    TIP3     H2       HT       0.417000       1.00800           0
     64891 TIP3     14149    TIP3     OH2      OT      -0.834000       15.9994           0
     64892 TIP3     14149    TIP3     H1       HT       0.417000       1.00800           0
     64893 TIP3     14149    TIP3     H2       HT       0.417000       1.00800           0
     64894 TIP3     14150    TIP3     OH2      OT      -0.834000       15.9994           0
     64895 TIP3     14150    TIP3     H1       HT       0.417000       1.00800           0
     64896 TIP3     14150    TIP3     H2       HT       0.417000       1.00800           0
     64897 TIP3     14151    TIP3     OH2      OT      -0.834000       15.9994           0
     64898 TIP3     14151    TIP3     H1       HT       0.417000       1.00800           0
     64899 TIP3     14151    TIP3     H2       HT       0.417000       1.00800           0
     64900 TIP3     14152    TIP3     OH2      OT      -0.834000       15.9994           0
     64901 TIP3     14152    TIP3     H1       HT       0.417000       1.00800           0
     64902 TIP3     14152    TIP3     H2       HT       0.417000       1.00800           0
     64903 TIP3     14153    TIP3     OH2      OT      -0.834000       15.9994           0
     64904 TIP3     14153    TIP3     H1       HT       0.417000       1.00800           0
     64905 TIP3     14153    TIP3     H2       HT       0.417000       1.00800           0
     64906 TIP3     14154    TIP3     OH2      OT      -0.834000       15.9994           0
     64907 TIP3     14154    TIP3     H1       HT       0.417000       1.00800           0
     64908 TIP3     14154    TIP3     H2       HT       0.417000       1.00800           0
     64909 TIP3     14155    TIP3     OH2      OT      -0.834000       15.9994           0
     64910 TIP3     14155    TIP3     H1       HT       0.417000       1.00800           0
     64911 TIP3     14155    TIP3     H2       HT       0.417000       1.00800           0
     64912 TIP3     14156    TIP3     OH2      OT      -0.834000       15.9994           0
     64913 TIP3     14156    TIP3     H1       HT       0.417000       1.00800           0
     64914 TIP3     14156    TIP3     H2       HT       0.417000       1.00800           0
     64915 TIP3     14157    TIP3     OH2      OT      -0.834000       15.9994           0
     64916 TIP3     14157    TIP3     H1       HT       0.417000       1.00800           0
     64917 TIP3     14157    TIP3     H2       HT       0.417000       1.00800           0
     64918 TIP3     14158    TIP3     OH2      OT      -0.834000       15.9994           0
     64919 TIP3     14158    TIP3     H1       HT       0.417000       1.00800           0
     64920 TIP3     14158    TIP3     H2       HT       0.417000       1.00800           0
     64921 TIP3     14159    TIP3     OH2      OT      -0.834000       15.9994           0
     64922 TIP3     14159    TIP3     H1       HT       0.417000       1.00800           0
     64923 TIP3     14159    TIP3     H2       HT       0.417000       1.00800           0
     64924 TIP3     14160    TIP3     OH2      OT      -0.834000       15.9994           0
     64925 TIP3     14160    TIP3     H1       HT       0.417000       1.00800           0
     64926 TIP3     14160    TIP3     H2       HT       0.417000       1.00800           0
     64927 TIP3     14161    TIP3     OH2      OT      -0.834000       15.9994           0
     64928 TIP3     14161    TIP3     H1       HT       0.417000       1.00800           0
     64929 TIP3     14161    TIP3     H2       HT       0.417000       1.00800           0
     64930 TIP3     14162    TIP3     OH2      OT      -0.834000       15.9994           0
     64931 TIP3     14162    TIP3     H1       HT       0.417000       1.00800           0
     64932 TIP3     14162    TIP3     H2       HT       0.417000       1.00800           0
     64933 TIP3     14163    TIP3     OH2      OT      -0.834000       15.9994           0
     64934 TIP3     14163    TIP3     H1       HT       0.417000       1.00800           0
     64935 TIP3     14163    TIP3     H2       HT       0.417000       1.00800           0
     64936 TIP3     14164    TIP3     OH2      OT      -0.834000       15.9994           0
     64937 TIP3     14164    TIP3     H1       HT       0.417000       1.00800           0
     64938 TIP3     14164    TIP3     H2       HT       0.417000       1.00800           0
     64939 TIP3     14165    TIP3     OH2      OT      -0.834000       15.9994           0
     64940 TIP3     14165    TIP3     H1       HT       0.417000       1.00800           0
     64941 TIP3     14165    TIP3     H2       HT       0.417000       1.00800           0
     64942 TIP3     14166    TIP3     OH2      OT      -0.834000       15.9994           0
     64943 TIP3     14166    TIP3     H1       HT       0.417000       1.00800           0
     64944 TIP3     14166    TIP3     H2       HT       0.417000       1.00800           0
     64945 TIP3     14167    TIP3     OH2      OT      -0.834000       15.9994           0
     64946 TIP3     14167    TIP3     H1       HT       0.417000       1.00800           0
     64947 TIP3     14167    TIP3     H2       HT       0.417000       1.00800           0
     64948 TIP3     14168    TIP3     OH2      OT      -0.834000       15.9994           0
     64949 TIP3     14168    TIP3     H1       HT       0.417000       1.00800           0
     64950 TIP3     14168    TIP3     H2       HT       0.417000       1.00800           0
     64951 TIP3     14169    TIP3     OH2      OT      -0.834000       15.9994           0
     64952 TIP3     14169    TIP3     H1       HT       0.417000       1.00800           0
     64953 TIP3     14169    TIP3     H2       HT       0.417000       1.00800           0
     64954 TIP3     14170    TIP3     OH2      OT      -0.834000       15.9994           0
     64955 TIP3     14170    TIP3     H1       HT       0.417000       1.00800           0
     64956 TIP3     14170    TIP3     H2       HT       0.417000       1.00800           0
     64957 TIP3     14171    TIP3     OH2      OT      -0.834000       15.9994           0
     64958 TIP3     14171    TIP3     H1       HT       0.417000       1.00800           0
     64959 TIP3     14171    TIP3     H2       HT       0.417000       1.00800           0
     64960 TIP3     14172    TIP3     OH2      OT      -0.834000       15.9994           0
     64961 TIP3     14172    TIP3     H1       HT       0.417000       1.00800           0
     64962 TIP3     14172    TIP3     H2       HT       0.417000       1.00800           0
     64963 TIP3     14173    TIP3     OH2      OT      -0.834000       15.9994           0
     64964 TIP3     14173    TIP3     H1       HT       0.417000       1.00800           0
     64965 TIP3     14173    TIP3     H2       HT       0.417000       1.00800           0
     64966 TIP3     14174    TIP3     OH2      OT      -0.834000       15.9994           0
     64967 TIP3     14174    TIP3     H1       HT       0.417000       1.00800           0
     64968 TIP3     14174    TIP3     H2       HT       0.417000       1.00800           0
     64969 TIP3     14175    TIP3     OH2      OT      -0.834000       15.9994           0
     64970 TIP3     14175    TIP3     H1       HT       0.417000       1.00800           0
     64971 TIP3     14175    TIP3     H2       HT       0.417000       1.00800           0
     64972 TIP3     14176    TIP3     OH2      OT      -0.834000       15.9994           0
     64973 TIP3     14176    TIP3     H1       HT       0.417000       1.00800           0
     64974 TIP3     14176    TIP3     H2       HT       0.417000       1.00800           0
     64975 TIP3     14177    TIP3     OH2      OT      -0.834000       15.9994           0
     64976 TIP3     14177    TIP3     H1       HT       0.417000       1.00800           0
     64977 TIP3     14177    TIP3     H2       HT       0.417000       1.00800           0
     64978 TIP3     14178    TIP3     OH2      OT      -0.834000       15.9994           0
     64979 TIP3     14178    TIP3     H1       HT       0.417000       1.00800           0
     64980 TIP3     14178    TIP3     H2       HT       0.417000       1.00800           0
     64981 TIP3     14179    TIP3     OH2      OT      -0.834000       15.9994           0
     64982 TIP3     14179    TIP3     H1       HT       0.417000       1.00800           0
     64983 TIP3     14179    TIP3     H2       HT       0.417000       1.00800           0
     64984 TIP3     14180    TIP3     OH2      OT      -0.834000       15.9994           0
     64985 TIP3     14180    TIP3     H1       HT       0.417000       1.00800           0
     64986 TIP3     14180    TIP3     H2       HT       0.417000       1.00800           0
     64987 TIP3     14181    TIP3     OH2      OT      -0.834000       15.9994           0
     64988 TIP3     14181    TIP3     H1       HT       0.417000       1.00800           0
     64989 TIP3     14181    TIP3     H2       HT       0.417000       1.00800           0
     64990 TIP3     14182    TIP3     OH2      OT      -0.834000       15.9994           0
     64991 TIP3     14182    TIP3     H1       HT       0.417000       1.00800           0
     64992 TIP3     14182    TIP3     H2       HT       0.417000       1.00800           0
     64993 TIP3     14183    TIP3     OH2      OT      -0.834000       15.9994           0
     64994 TIP3     14183    TIP3     H1       HT       0.417000       1.00800           0
     64995 TIP3     14183    TIP3     H2       HT       0.417000       1.00800           0
     64996 TIP3     14184    TIP3     OH2      OT      -0.834000       15.9994           0
     64997 TIP3     14184    TIP3     H1       HT       0.417000       1.00800           0
     64998 TIP3     14184    TIP3     H2       HT       0.417000       1.00800           0
     64999 TIP3     14185    TIP3     OH2      OT      -0.834000       15.9994           0
     65000 TIP3     14185    TIP3     H1       HT       0.417000       1.00800           0
     65001 TIP3     14185    TIP3     H2       HT       0.417000       1.00800           0
     65002 TIP3     14186    TIP3     OH2      OT      -0.834000       15.9994           0
     65003 TIP3     14186    TIP3     H1       HT       0.417000       1.00800           0
     65004 TIP3     14186    TIP3     H2       HT       0.417000       1.00800           0
     65005 TIP3     14187    TIP3     OH2      OT      -0.834000       15.9994           0
     65006 TIP3     14187    TIP3     H1       HT       0.417000       1.00800           0
     65007 TIP3     14187    TIP3     H2       HT       0.417000       1.00800           0
     65008 TIP3     14188    TIP3     OH2      OT      -0.834000       15.9994           0
     65009 TIP3     14188    TIP3     H1       HT       0.417000       1.00800           0
     65010 TIP3     14188    TIP3     H2       HT       0.417000       1.00800           0
     65011 TIP3     14189    TIP3     OH2      OT      -0.834000       15.9994           0
     65012 TIP3     14189    TIP3     H1       HT       0.417000       1.00800           0
     65013 TIP3     14189    TIP3     H2       HT       0.417000       1.00800           0
     65014 TIP3     14190    TIP3     OH2      OT      -0.834000       15.9994           0
     65015 TIP3     14190    TIP3     H1       HT       0.417000       1.00800           0
     65016 TIP3     14190    TIP3     H2       HT       0.417000       1.00800           0
     65017 TIP3     14191    TIP3     OH2      OT      -0.834000       15.9994           0
     65018 TIP3     14191    TIP3     H1       HT       0.417000       1.00800           0
     65019 TIP3     14191    TIP3     H2       HT       0.417000       1.00800           0
     65020 TIP3     14192    TIP3     OH2      OT      -0.834000       15.9994           0
     65021 TIP3     14192    TIP3     H1       HT       0.417000       1.00800           0
     65022 TIP3     14192    TIP3     H2       HT       0.417000       1.00800           0
     65023 TIP3     14193    TIP3     OH2      OT      -0.834000       15.9994           0
     65024 TIP3     14193    TIP3     H1       HT       0.417000       1.00800           0
     65025 TIP3     14193    TIP3     H2       HT       0.417000       1.00800           0
     65026 TIP3     14194    TIP3     OH2      OT      -0.834000       15.9994           0
     65027 TIP3     14194    TIP3     H1       HT       0.417000       1.00800           0
     65028 TIP3     14194    TIP3     H2       HT       0.417000       1.00800           0
     65029 TIP3     14195    TIP3     OH2      OT      -0.834000       15.9994           0
     65030 TIP3     14195    TIP3     H1       HT       0.417000       1.00800           0
     65031 TIP3     14195    TIP3     H2       HT       0.417000       1.00800           0
     65032 TIP3     14196    TIP3     OH2      OT      -0.834000       15.9994           0
     65033 TIP3     14196    TIP3     H1       HT       0.417000       1.00800           0
     65034 TIP3     14196    TIP3     H2       HT       0.417000       1.00800           0
     65035 TIP3     14197    TIP3     OH2      OT      -0.834000       15.9994           0
     65036 TIP3     14197    TIP3     H1       HT       0.417000       1.00800           0
     65037 TIP3     14197    TIP3     H2       HT       0.417000       1.00800           0
     65038 TIP3     14198    TIP3     OH2      OT      -0.834000       15.9994           0
     65039 TIP3     14198    TIP3     H1       HT       0.417000       1.00800           0
     65040 TIP3     14198    TIP3     H2       HT       0.417000       1.00800           0
     65041 TIP3     14199    TIP3     OH2      OT      -0.834000       15.9994           0
     65042 TIP3     14199    TIP3     H1       HT       0.417000       1.00800           0
     65043 TIP3     14199    TIP3     H2       HT       0.417000       1.00800           0
     65044 TIP3     14200    TIP3     OH2      OT      -0.834000       15.9994           0
     65045 TIP3     14200    TIP3     H1       HT       0.417000       1.00800           0
     65046 TIP3     14200    TIP3     H2       HT       0.417000       1.00800           0
     65047 TIP3     14201    TIP3     OH2      OT      -0.834000       15.9994           0
     65048 TIP3     14201    TIP3     H1       HT       0.417000       1.00800           0
     65049 TIP3     14201    TIP3     H2       HT       0.417000       1.00800           0
     65050 TIP3     14202    TIP3     OH2      OT      -0.834000       15.9994           0
     65051 TIP3     14202    TIP3     H1       HT       0.417000       1.00800           0
     65052 TIP3     14202    TIP3     H2       HT       0.417000       1.00800           0
     65053 TIP3     14203    TIP3     OH2      OT      -0.834000       15.9994           0
     65054 TIP3     14203    TIP3     H1       HT       0.417000       1.00800           0
     65055 TIP3     14203    TIP3     H2       HT       0.417000       1.00800           0
     65056 TIP3     14204    TIP3     OH2      OT      -0.834000       15.9994           0
     65057 TIP3     14204    TIP3     H1       HT       0.417000       1.00800           0
     65058 TIP3     14204    TIP3     H2       HT       0.417000       1.00800           0
     65059 TIP3     14205    TIP3     OH2      OT      -0.834000       15.9994           0
     65060 TIP3     14205    TIP3     H1       HT       0.417000       1.00800           0
     65061 TIP3     14205    TIP3     H2       HT       0.417000       1.00800           0
     65062 TIP3     14206    TIP3     OH2      OT      -0.834000       15.9994           0
     65063 TIP3     14206    TIP3     H1       HT       0.417000       1.00800           0
     65064 TIP3     14206    TIP3     H2       HT       0.417000       1.00800           0
     65065 TIP3     14207    TIP3     OH2      OT      -0.834000       15.9994           0
     65066 TIP3     14207    TIP3     H1       HT       0.417000       1.00800           0
     65067 TIP3     14207    TIP3     H2       HT       0.417000       1.00800           0
     65068 TIP3     14208    TIP3     OH2      OT      -0.834000       15.9994           0
     65069 TIP3     14208    TIP3     H1       HT       0.417000       1.00800           0
     65070 TIP3     14208    TIP3     H2       HT       0.417000       1.00800           0
     65071 TIP3     14209    TIP3     OH2      OT      -0.834000       15.9994           0
     65072 TIP3     14209    TIP3     H1       HT       0.417000       1.00800           0
     65073 TIP3     14209    TIP3     H2       HT       0.417000       1.00800           0
     65074 TIP3     14210    TIP3     OH2      OT      -0.834000       15.9994           0
     65075 TIP3     14210    TIP3     H1       HT       0.417000       1.00800           0
     65076 TIP3     14210    TIP3     H2       HT       0.417000       1.00800           0
     65077 TIP3     14211    TIP3     OH2      OT      -0.834000       15.9994           0
     65078 TIP3     14211    TIP3     H1       HT       0.417000       1.00800           0
     65079 TIP3     14211    TIP3     H2       HT       0.417000       1.00800           0
     65080 TIP3     14212    TIP3     OH2      OT      -0.834000       15.9994           0
     65081 TIP3     14212    TIP3     H1       HT       0.417000       1.00800           0
     65082 TIP3     14212    TIP3     H2       HT       0.417000       1.00800           0
     65083 TIP3     14213    TIP3     OH2      OT      -0.834000       15.9994           0
     65084 TIP3     14213    TIP3     H1       HT       0.417000       1.00800           0
     65085 TIP3     14213    TIP3     H2       HT       0.417000       1.00800           0
     65086 TIP3     14214    TIP3     OH2      OT      -0.834000       15.9994           0
     65087 TIP3     14214    TIP3     H1       HT       0.417000       1.00800           0
     65088 TIP3     14214    TIP3     H2       HT       0.417000       1.00800           0
     65089 TIP3     14215    TIP3     OH2      OT      -0.834000       15.9994           0
     65090 TIP3     14215    TIP3     H1       HT       0.417000       1.00800           0
     65091 TIP3     14215    TIP3     H2       HT       0.417000       1.00800           0
     65092 TIP3     14216    TIP3     OH2      OT      -0.834000       15.9994           0
     65093 TIP3     14216    TIP3     H1       HT       0.417000       1.00800           0
     65094 TIP3     14216    TIP3     H2       HT       0.417000       1.00800           0
     65095 TIP3     14217    TIP3     OH2      OT      -0.834000       15.9994           0
     65096 TIP3     14217    TIP3     H1       HT       0.417000       1.00800           0
     65097 TIP3     14217    TIP3     H2       HT       0.417000       1.00800           0
     65098 TIP3     14218    TIP3     OH2      OT      -0.834000       15.9994           0
     65099 TIP3     14218    TIP3     H1       HT       0.417000       1.00800           0
     65100 TIP3     14218    TIP3     H2       HT       0.417000       1.00800           0
     65101 TIP3     14219    TIP3     OH2      OT      -0.834000       15.9994           0
     65102 TIP3     14219    TIP3     H1       HT       0.417000       1.00800           0
     65103 TIP3     14219    TIP3     H2       HT       0.417000       1.00800           0
     65104 TIP3     14220    TIP3     OH2      OT      -0.834000       15.9994           0
     65105 TIP3     14220    TIP3     H1       HT       0.417000       1.00800           0
     65106 TIP3     14220    TIP3     H2       HT       0.417000       1.00800           0
     65107 TIP3     14221    TIP3     OH2      OT      -0.834000       15.9994           0
     65108 TIP3     14221    TIP3     H1       HT       0.417000       1.00800           0
     65109 TIP3     14221    TIP3     H2       HT       0.417000       1.00800           0
     65110 TIP3     14222    TIP3     OH2      OT      -0.834000       15.9994           0
     65111 TIP3     14222    TIP3     H1       HT       0.417000       1.00800           0
     65112 TIP3     14222    TIP3     H2       HT       0.417000       1.00800           0
     65113 TIP3     14223    TIP3     OH2      OT      -0.834000       15.9994           0
     65114 TIP3     14223    TIP3     H1       HT       0.417000       1.00800           0
     65115 TIP3     14223    TIP3     H2       HT       0.417000       1.00800           0
     65116 TIP3     14224    TIP3     OH2      OT      -0.834000       15.9994           0
     65117 TIP3     14224    TIP3     H1       HT       0.417000       1.00800           0
     65118 TIP3     14224    TIP3     H2       HT       0.417000       1.00800           0
     65119 TIP3     14225    TIP3     OH2      OT      -0.834000       15.9994           0
     65120 TIP3     14225    TIP3     H1       HT       0.417000       1.00800           0
     65121 TIP3     14225    TIP3     H2       HT       0.417000       1.00800           0
     65122 TIP3     14226    TIP3     OH2      OT      -0.834000       15.9994           0
     65123 TIP3     14226    TIP3     H1       HT       0.417000       1.00800           0
     65124 TIP3     14226    TIP3     H2       HT       0.417000       1.00800           0
     65125 TIP3     14227    TIP3     OH2      OT      -0.834000       15.9994           0
     65126 TIP3     14227    TIP3     H1       HT       0.417000       1.00800           0
     65127 TIP3     14227    TIP3     H2       HT       0.417000       1.00800           0
     65128 TIP3     14228    TIP3     OH2      OT      -0.834000       15.9994           0
     65129 TIP3     14228    TIP3     H1       HT       0.417000       1.00800           0
     65130 TIP3     14228    TIP3     H2       HT       0.417000       1.00800           0
     65131 TIP3     14229    TIP3     OH2      OT      -0.834000       15.9994           0
     65132 TIP3     14229    TIP3     H1       HT       0.417000       1.00800           0
     65133 TIP3     14229    TIP3     H2       HT       0.417000       1.00800           0
     65134 TIP3     14230    TIP3     OH2      OT      -0.834000       15.9994           0
     65135 TIP3     14230    TIP3     H1       HT       0.417000       1.00800           0
     65136 TIP3     14230    TIP3     H2       HT       0.417000       1.00800           0
     65137 TIP3     14231    TIP3     OH2      OT      -0.834000       15.9994           0
     65138 TIP3     14231    TIP3     H1       HT       0.417000       1.00800           0
     65139 TIP3     14231    TIP3     H2       HT       0.417000       1.00800           0
     65140 TIP3     14232    TIP3     OH2      OT      -0.834000       15.9994           0
     65141 TIP3     14232    TIP3     H1       HT       0.417000       1.00800           0
     65142 TIP3     14232    TIP3     H2       HT       0.417000       1.00800           0
     65143 TIP3     14233    TIP3     OH2      OT      -0.834000       15.9994           0
     65144 TIP3     14233    TIP3     H1       HT       0.417000       1.00800           0
     65145 TIP3     14233    TIP3     H2       HT       0.417000       1.00800           0
     65146 TIP3     14234    TIP3     OH2      OT      -0.834000       15.9994           0
     65147 TIP3     14234    TIP3     H1       HT       0.417000       1.00800           0
     65148 TIP3     14234    TIP3     H2       HT       0.417000       1.00800           0
     65149 TIP3     14235    TIP3     OH2      OT      -0.834000       15.9994           0
     65150 TIP3     14235    TIP3     H1       HT       0.417000       1.00800           0
     65151 TIP3     14235    TIP3     H2       HT       0.417000       1.00800           0
     65152 TIP3     14236    TIP3     OH2      OT      -0.834000       15.9994           0
     65153 TIP3     14236    TIP3     H1       HT       0.417000       1.00800           0
     65154 TIP3     14236    TIP3     H2       HT       0.417000       1.00800           0
     65155 TIP3     14237    TIP3     OH2      OT      -0.834000       15.9994           0
     65156 TIP3     14237    TIP3     H1       HT       0.417000       1.00800           0
     65157 TIP3     14237    TIP3     H2       HT       0.417000       1.00800           0
     65158 TIP3     14238    TIP3     OH2      OT      -0.834000       15.9994           0
     65159 TIP3     14238    TIP3     H1       HT       0.417000       1.00800           0
     65160 TIP3     14238    TIP3     H2       HT       0.417000       1.00800           0
     65161 TIP3     14239    TIP3     OH2      OT      -0.834000       15.9994           0
     65162 TIP3     14239    TIP3     H1       HT       0.417000       1.00800           0
     65163 TIP3     14239    TIP3     H2       HT       0.417000       1.00800           0
     65164 TIP3     14240    TIP3     OH2      OT      -0.834000       15.9994           0
     65165 TIP3     14240    TIP3     H1       HT       0.417000       1.00800           0
     65166 TIP3     14240    TIP3     H2       HT       0.417000       1.00800           0
     65167 TIP3     14241    TIP3     OH2      OT      -0.834000       15.9994           0
     65168 TIP3     14241    TIP3     H1       HT       0.417000       1.00800           0
     65169 TIP3     14241    TIP3     H2       HT       0.417000       1.00800           0
     65170 TIP3     14242    TIP3     OH2      OT      -0.834000       15.9994           0
     65171 TIP3     14242    TIP3     H1       HT       0.417000       1.00800           0
     65172 TIP3     14242    TIP3     H2       HT       0.417000       1.00800           0
     65173 TIP3     14243    TIP3     OH2      OT      -0.834000       15.9994           0
     65174 TIP3     14243    TIP3     H1       HT       0.417000       1.00800           0
     65175 TIP3     14243    TIP3     H2       HT       0.417000       1.00800           0
     65176 TIP3     14244    TIP3     OH2      OT      -0.834000       15.9994           0
     65177 TIP3     14244    TIP3     H1       HT       0.417000       1.00800           0
     65178 TIP3     14244    TIP3     H2       HT       0.417000       1.00800           0
     65179 TIP3     14245    TIP3     OH2      OT      -0.834000       15.9994           0
     65180 TIP3     14245    TIP3     H1       HT       0.417000       1.00800           0
     65181 TIP3     14245    TIP3     H2       HT       0.417000       1.00800           0
     65182 TIP3     14246    TIP3     OH2      OT      -0.834000       15.9994           0
     65183 TIP3     14246    TIP3     H1       HT       0.417000       1.00800           0
     65184 TIP3     14246    TIP3     H2       HT       0.417000       1.00800           0
     65185 TIP3     14247    TIP3     OH2      OT      -0.834000       15.9994           0
     65186 TIP3     14247    TIP3     H1       HT       0.417000       1.00800           0
     65187 TIP3     14247    TIP3     H2       HT       0.417000       1.00800           0
     65188 TIP3     14248    TIP3     OH2      OT      -0.834000       15.9994           0
     65189 TIP3     14248    TIP3     H1       HT       0.417000       1.00800           0
     65190 TIP3     14248    TIP3     H2       HT       0.417000       1.00800           0
     65191 TIP3     14249    TIP3     OH2      OT      -0.834000       15.9994           0
     65192 TIP3     14249    TIP3     H1       HT       0.417000       1.00800           0
     65193 TIP3     14249    TIP3     H2       HT       0.417000       1.00800           0
     65194 TIP3     14250    TIP3     OH2      OT      -0.834000       15.9994           0
     65195 TIP3     14250    TIP3     H1       HT       0.417000       1.00800           0
     65196 TIP3     14250    TIP3     H2       HT       0.417000       1.00800           0
     65197 TIP3     14251    TIP3     OH2      OT      -0.834000       15.9994           0
     65198 TIP3     14251    TIP3     H1       HT       0.417000       1.00800           0
     65199 TIP3     14251    TIP3     H2       HT       0.417000       1.00800           0
     65200 TIP3     14252    TIP3     OH2      OT      -0.834000       15.9994           0
     65201 TIP3     14252    TIP3     H1       HT       0.417000       1.00800           0
     65202 TIP3     14252    TIP3     H2       HT       0.417000       1.00800           0
     65203 TIP3     14253    TIP3     OH2      OT      -0.834000       15.9994           0
     65204 TIP3     14253    TIP3     H1       HT       0.417000       1.00800           0
     65205 TIP3     14253    TIP3     H2       HT       0.417000       1.00800           0
     65206 TIP3     14254    TIP3     OH2      OT      -0.834000       15.9994           0
     65207 TIP3     14254    TIP3     H1       HT       0.417000       1.00800           0
     65208 TIP3     14254    TIP3     H2       HT       0.417000       1.00800           0
     65209 TIP3     14255    TIP3     OH2      OT      -0.834000       15.9994           0
     65210 TIP3     14255    TIP3     H1       HT       0.417000       1.00800           0
     65211 TIP3     14255    TIP3     H2       HT       0.417000       1.00800           0
     65212 TIP3     14256    TIP3     OH2      OT      -0.834000       15.9994           0
     65213 TIP3     14256    TIP3     H1       HT       0.417000       1.00800           0
     65214 TIP3     14256    TIP3     H2       HT       0.417000       1.00800           0
     65215 TIP3     14257    TIP3     OH2      OT      -0.834000       15.9994           0
     65216 TIP3     14257    TIP3     H1       HT       0.417000       1.00800           0
     65217 TIP3     14257    TIP3     H2       HT       0.417000       1.00800           0
     65218 TIP3     14258    TIP3     OH2      OT      -0.834000       15.9994           0
     65219 TIP3     14258    TIP3     H1       HT       0.417000       1.00800           0
     65220 TIP3     14258    TIP3     H2       HT       0.417000       1.00800           0
     65221 TIP3     14259    TIP3     OH2      OT      -0.834000       15.9994           0
     65222 TIP3     14259    TIP3     H1       HT       0.417000       1.00800           0
     65223 TIP3     14259    TIP3     H2       HT       0.417000       1.00800           0
     65224 TIP3     14260    TIP3     OH2      OT      -0.834000       15.9994           0
     65225 TIP3     14260    TIP3     H1       HT       0.417000       1.00800           0
     65226 TIP3     14260    TIP3     H2       HT       0.417000       1.00800           0
     65227 TIP3     14261    TIP3     OH2      OT      -0.834000       15.9994           0
     65228 TIP3     14261    TIP3     H1       HT       0.417000       1.00800           0
     65229 TIP3     14261    TIP3     H2       HT       0.417000       1.00800           0
     65230 TIP3     14262    TIP3     OH2      OT      -0.834000       15.9994           0
     65231 TIP3     14262    TIP3     H1       HT       0.417000       1.00800           0
     65232 TIP3     14262    TIP3     H2       HT       0.417000       1.00800           0
     65233 TIP3     14263    TIP3     OH2      OT      -0.834000       15.9994           0
     65234 TIP3     14263    TIP3     H1       HT       0.417000       1.00800           0
     65235 TIP3     14263    TIP3     H2       HT       0.417000       1.00800           0
     65236 TIP3     14264    TIP3     OH2      OT      -0.834000       15.9994           0
     65237 TIP3     14264    TIP3     H1       HT       0.417000       1.00800           0
     65238 TIP3     14264    TIP3     H2       HT       0.417000       1.00800           0
     65239 TIP3     14265    TIP3     OH2      OT      -0.834000       15.9994           0
     65240 TIP3     14265    TIP3     H1       HT       0.417000       1.00800           0
     65241 TIP3     14265    TIP3     H2       HT       0.417000       1.00800           0
     65242 TIP3     14266    TIP3     OH2      OT      -0.834000       15.9994           0
     65243 TIP3     14266    TIP3     H1       HT       0.417000       1.00800           0
     65244 TIP3     14266    TIP3     H2       HT       0.417000       1.00800           0
     65245 TIP3     14267    TIP3     OH2      OT      -0.834000       15.9994           0
     65246 TIP3     14267    TIP3     H1       HT       0.417000       1.00800           0
     65247 TIP3     14267    TIP3     H2       HT       0.417000       1.00800           0
     65248 TIP3     14268    TIP3     OH2      OT      -0.834000       15.9994           0
     65249 TIP3     14268    TIP3     H1       HT       0.417000       1.00800           0
     65250 TIP3     14268    TIP3     H2       HT       0.417000       1.00800           0
     65251 TIP3     14269    TIP3     OH2      OT      -0.834000       15.9994           0
     65252 TIP3     14269    TIP3     H1       HT       0.417000       1.00800           0
     65253 TIP3     14269    TIP3     H2       HT       0.417000       1.00800           0
     65254 TIP3     14270    TIP3     OH2      OT      -0.834000       15.9994           0
     65255 TIP3     14270    TIP3     H1       HT       0.417000       1.00800           0
     65256 TIP3     14270    TIP3     H2       HT       0.417000       1.00800           0
     65257 TIP3     14271    TIP3     OH2      OT      -0.834000       15.9994           0
     65258 TIP3     14271    TIP3     H1       HT       0.417000       1.00800           0
     65259 TIP3     14271    TIP3     H2       HT       0.417000       1.00800           0
     65260 TIP3     14272    TIP3     OH2      OT      -0.834000       15.9994           0
     65261 TIP3     14272    TIP3     H1       HT       0.417000       1.00800           0
     65262 TIP3     14272    TIP3     H2       HT       0.417000       1.00800           0
     65263 TIP3     14273    TIP3     OH2      OT      -0.834000       15.9994           0
     65264 TIP3     14273    TIP3     H1       HT       0.417000       1.00800           0
     65265 TIP3     14273    TIP3     H2       HT       0.417000       1.00800           0
     65266 TIP3     14274    TIP3     OH2      OT      -0.834000       15.9994           0
     65267 TIP3     14274    TIP3     H1       HT       0.417000       1.00800           0
     65268 TIP3     14274    TIP3     H2       HT       0.417000       1.00800           0
     65269 TIP3     14275    TIP3     OH2      OT      -0.834000       15.9994           0
     65270 TIP3     14275    TIP3     H1       HT       0.417000       1.00800           0
     65271 TIP3     14275    TIP3     H2       HT       0.417000       1.00800           0
     65272 TIP3     14276    TIP3     OH2      OT      -0.834000       15.9994           0
     65273 TIP3     14276    TIP3     H1       HT       0.417000       1.00800           0
     65274 TIP3     14276    TIP3     H2       HT       0.417000       1.00800           0
     65275 TIP3     14277    TIP3     OH2      OT      -0.834000       15.9994           0
     65276 TIP3     14277    TIP3     H1       HT       0.417000       1.00800           0
     65277 TIP3     14277    TIP3     H2       HT       0.417000       1.00800           0
     65278 TIP3     14278    TIP3     OH2      OT      -0.834000       15.9994           0
     65279 TIP3     14278    TIP3     H1       HT       0.417000       1.00800           0
     65280 TIP3     14278    TIP3     H2       HT       0.417000       1.00800           0
     65281 TIP3     14279    TIP3     OH2      OT      -0.834000       15.9994           0
     65282 TIP3     14279    TIP3     H1       HT       0.417000       1.00800           0
     65283 TIP3     14279    TIP3     H2       HT       0.417000       1.00800           0
     65284 TIP3     14280    TIP3     OH2      OT      -0.834000       15.9994           0
     65285 TIP3     14280    TIP3     H1       HT       0.417000       1.00800           0
     65286 TIP3     14280    TIP3     H2       HT       0.417000       1.00800           0
     65287 TIP3     14281    TIP3     OH2      OT      -0.834000       15.9994           0
     65288 TIP3     14281    TIP3     H1       HT       0.417000       1.00800           0
     65289 TIP3     14281    TIP3     H2       HT       0.417000       1.00800           0
     65290 TIP3     14282    TIP3     OH2      OT      -0.834000       15.9994           0
     65291 TIP3     14282    TIP3     H1       HT       0.417000       1.00800           0
     65292 TIP3     14282    TIP3     H2       HT       0.417000       1.00800           0
     65293 TIP3     14283    TIP3     OH2      OT      -0.834000       15.9994           0
     65294 TIP3     14283    TIP3     H1       HT       0.417000       1.00800           0
     65295 TIP3     14283    TIP3     H2       HT       0.417000       1.00800           0
     65296 TIP3     14284    TIP3     OH2      OT      -0.834000       15.9994           0
     65297 TIP3     14284    TIP3     H1       HT       0.417000       1.00800           0
     65298 TIP3     14284    TIP3     H2       HT       0.417000       1.00800           0
     65299 TIP3     14285    TIP3     OH2      OT      -0.834000       15.9994           0
     65300 TIP3     14285    TIP3     H1       HT       0.417000       1.00800           0
     65301 TIP3     14285    TIP3     H2       HT       0.417000       1.00800           0
     65302 TIP3     14286    TIP3     OH2      OT      -0.834000       15.9994           0
     65303 TIP3     14286    TIP3     H1       HT       0.417000       1.00800           0
     65304 TIP3     14286    TIP3     H2       HT       0.417000       1.00800           0
     65305 TIP3     14287    TIP3     OH2      OT      -0.834000       15.9994           0
     65306 TIP3     14287    TIP3     H1       HT       0.417000       1.00800           0
     65307 TIP3     14287    TIP3     H2       HT       0.417000       1.00800           0
     65308 TIP3     14288    TIP3     OH2      OT      -0.834000       15.9994           0
     65309 TIP3     14288    TIP3     H1       HT       0.417000       1.00800           0
     65310 TIP3     14288    TIP3     H2       HT       0.417000       1.00800           0
     65311 TIP3     14289    TIP3     OH2      OT      -0.834000       15.9994           0
     65312 TIP3     14289    TIP3     H1       HT       0.417000       1.00800           0
     65313 TIP3     14289    TIP3     H2       HT       0.417000       1.00800           0
     65314 TIP3     14290    TIP3     OH2      OT      -0.834000       15.9994           0
     65315 TIP3     14290    TIP3     H1       HT       0.417000       1.00800           0
     65316 TIP3     14290    TIP3     H2       HT       0.417000       1.00800           0
     65317 TIP3     14291    TIP3     OH2      OT      -0.834000       15.9994           0
     65318 TIP3     14291    TIP3     H1       HT       0.417000       1.00800           0
     65319 TIP3     14291    TIP3     H2       HT       0.417000       1.00800           0
     65320 TIP3     14292    TIP3     OH2      OT      -0.834000       15.9994           0
     65321 TIP3     14292    TIP3     H1       HT       0.417000       1.00800           0
     65322 TIP3     14292    TIP3     H2       HT       0.417000       1.00800           0
     65323 TIP3     14293    TIP3     OH2      OT      -0.834000       15.9994           0
     65324 TIP3     14293    TIP3     H1       HT       0.417000       1.00800           0
     65325 TIP3     14293    TIP3     H2       HT       0.417000       1.00800           0
     65326 TIP3     14294    TIP3     OH2      OT      -0.834000       15.9994           0
     65327 TIP3     14294    TIP3     H1       HT       0.417000       1.00800           0
     65328 TIP3     14294    TIP3     H2       HT       0.417000       1.00800           0
     65329 TIP3     14295    TIP3     OH2      OT      -0.834000       15.9994           0
     65330 TIP3     14295    TIP3     H1       HT       0.417000       1.00800           0
     65331 TIP3     14295    TIP3     H2       HT       0.417000       1.00800           0
     65332 TIP3     14296    TIP3     OH2      OT      -0.834000       15.9994           0
     65333 TIP3     14296    TIP3     H1       HT       0.417000       1.00800           0
     65334 TIP3     14296    TIP3     H2       HT       0.417000       1.00800           0
     65335 TIP3     14297    TIP3     OH2      OT      -0.834000       15.9994           0
     65336 TIP3     14297    TIP3     H1       HT       0.417000       1.00800           0
     65337 TIP3     14297    TIP3     H2       HT       0.417000       1.00800           0
     65338 TIP3     14298    TIP3     OH2      OT      -0.834000       15.9994           0
     65339 TIP3     14298    TIP3     H1       HT       0.417000       1.00800           0
     65340 TIP3     14298    TIP3     H2       HT       0.417000       1.00800           0
     65341 TIP3     14299    TIP3     OH2      OT      -0.834000       15.9994           0
     65342 TIP3     14299    TIP3     H1       HT       0.417000       1.00800           0
     65343 TIP3     14299    TIP3     H2       HT       0.417000       1.00800           0
     65344 TIP3     14300    TIP3     OH2      OT      -0.834000       15.9994           0
     65345 TIP3     14300    TIP3     H1       HT       0.417000       1.00800           0
     65346 TIP3     14300    TIP3     H2       HT       0.417000       1.00800           0
     65347 TIP3     14301    TIP3     OH2      OT      -0.834000       15.9994           0
     65348 TIP3     14301    TIP3     H1       HT       0.417000       1.00800           0
     65349 TIP3     14301    TIP3     H2       HT       0.417000       1.00800           0
     65350 TIP3     14302    TIP3     OH2      OT      -0.834000       15.9994           0
     65351 TIP3     14302    TIP3     H1       HT       0.417000       1.00800           0
     65352 TIP3     14302    TIP3     H2       HT       0.417000       1.00800           0
     65353 TIP3     14303    TIP3     OH2      OT      -0.834000       15.9994           0
     65354 TIP3     14303    TIP3     H1       HT       0.417000       1.00800           0
     65355 TIP3     14303    TIP3     H2       HT       0.417000       1.00800           0
     65356 TIP3     14304    TIP3     OH2      OT      -0.834000       15.9994           0
     65357 TIP3     14304    TIP3     H1       HT       0.417000       1.00800           0
     65358 TIP3     14304    TIP3     H2       HT       0.417000       1.00800           0
     65359 TIP3     14305    TIP3     OH2      OT      -0.834000       15.9994           0
     65360 TIP3     14305    TIP3     H1       HT       0.417000       1.00800           0
     65361 TIP3     14305    TIP3     H2       HT       0.417000       1.00800           0
     65362 TIP3     14306    TIP3     OH2      OT      -0.834000       15.9994           0
     65363 TIP3     14306    TIP3     H1       HT       0.417000       1.00800           0
     65364 TIP3     14306    TIP3     H2       HT       0.417000       1.00800           0
     65365 TIP3     14307    TIP3     OH2      OT      -0.834000       15.9994           0
     65366 TIP3     14307    TIP3     H1       HT       0.417000       1.00800           0
     65367 TIP3     14307    TIP3     H2       HT       0.417000       1.00800           0
     65368 TIP3     14308    TIP3     OH2      OT      -0.834000       15.9994           0
     65369 TIP3     14308    TIP3     H1       HT       0.417000       1.00800           0
     65370 TIP3     14308    TIP3     H2       HT       0.417000       1.00800           0
     65371 TIP3     14309    TIP3     OH2      OT      -0.834000       15.9994           0
     65372 TIP3     14309    TIP3     H1       HT       0.417000       1.00800           0
     65373 TIP3     14309    TIP3     H2       HT       0.417000       1.00800           0
     65374 TIP3     14310    TIP3     OH2      OT      -0.834000       15.9994           0
     65375 TIP3     14310    TIP3     H1       HT       0.417000       1.00800           0
     65376 TIP3     14310    TIP3     H2       HT       0.417000       1.00800           0
     65377 TIP3     14311    TIP3     OH2      OT      -0.834000       15.9994           0
     65378 TIP3     14311    TIP3     H1       HT       0.417000       1.00800           0
     65379 TIP3     14311    TIP3     H2       HT       0.417000       1.00800           0
     65380 TIP3     14312    TIP3     OH2      OT      -0.834000       15.9994           0
     65381 TIP3     14312    TIP3     H1       HT       0.417000       1.00800           0
     65382 TIP3     14312    TIP3     H2       HT       0.417000       1.00800           0
     65383 TIP3     14313    TIP3     OH2      OT      -0.834000       15.9994           0
     65384 TIP3     14313    TIP3     H1       HT       0.417000       1.00800           0
     65385 TIP3     14313    TIP3     H2       HT       0.417000       1.00800           0
     65386 TIP3     14314    TIP3     OH2      OT      -0.834000       15.9994           0
     65387 TIP3     14314    TIP3     H1       HT       0.417000       1.00800           0
     65388 TIP3     14314    TIP3     H2       HT       0.417000       1.00800           0
     65389 TIP3     14315    TIP3     OH2      OT      -0.834000       15.9994           0
     65390 TIP3     14315    TIP3     H1       HT       0.417000       1.00800           0
     65391 TIP3     14315    TIP3     H2       HT       0.417000       1.00800           0
     65392 TIP3     14316    TIP3     OH2      OT      -0.834000       15.9994           0
     65393 TIP3     14316    TIP3     H1       HT       0.417000       1.00800           0
     65394 TIP3     14316    TIP3     H2       HT       0.417000       1.00800           0
     65395 TIP3     14317    TIP3     OH2      OT      -0.834000       15.9994           0
     65396 TIP3     14317    TIP3     H1       HT       0.417000       1.00800           0
     65397 TIP3     14317    TIP3     H2       HT       0.417000       1.00800           0
     65398 TIP3     14318    TIP3     OH2      OT      -0.834000       15.9994           0
     65399 TIP3     14318    TIP3     H1       HT       0.417000       1.00800           0
     65400 TIP3     14318    TIP3     H2       HT       0.417000       1.00800           0
     65401 TIP3     14319    TIP3     OH2      OT      -0.834000       15.9994           0
     65402 TIP3     14319    TIP3     H1       HT       0.417000       1.00800           0
     65403 TIP3     14319    TIP3     H2       HT       0.417000       1.00800           0
     65404 TIP3     14320    TIP3     OH2      OT      -0.834000       15.9994           0
     65405 TIP3     14320    TIP3     H1       HT       0.417000       1.00800           0
     65406 TIP3     14320    TIP3     H2       HT       0.417000       1.00800           0
     65407 TIP3     14321    TIP3     OH2      OT      -0.834000       15.9994           0
     65408 TIP3     14321    TIP3     H1       HT       0.417000       1.00800           0
     65409 TIP3     14321    TIP3     H2       HT       0.417000       1.00800           0
     65410 TIP3     14322    TIP3     OH2      OT      -0.834000       15.9994           0
     65411 TIP3     14322    TIP3     H1       HT       0.417000       1.00800           0
     65412 TIP3     14322    TIP3     H2       HT       0.417000       1.00800           0
     65413 TIP3     14323    TIP3     OH2      OT      -0.834000       15.9994           0
     65414 TIP3     14323    TIP3     H1       HT       0.417000       1.00800           0
     65415 TIP3     14323    TIP3     H2       HT       0.417000       1.00800           0
     65416 TIP3     14324    TIP3     OH2      OT      -0.834000       15.9994           0
     65417 TIP3     14324    TIP3     H1       HT       0.417000       1.00800           0
     65418 TIP3     14324    TIP3     H2       HT       0.417000       1.00800           0
     65419 TIP3     14325    TIP3     OH2      OT      -0.834000       15.9994           0
     65420 TIP3     14325    TIP3     H1       HT       0.417000       1.00800           0
     65421 TIP3     14325    TIP3     H2       HT       0.417000       1.00800           0
     65422 TIP3     14326    TIP3     OH2      OT      -0.834000       15.9994           0
     65423 TIP3     14326    TIP3     H1       HT       0.417000       1.00800           0
     65424 TIP3     14326    TIP3     H2       HT       0.417000       1.00800           0
     65425 TIP3     14327    TIP3     OH2      OT      -0.834000       15.9994           0
     65426 TIP3     14327    TIP3     H1       HT       0.417000       1.00800           0
     65427 TIP3     14327    TIP3     H2       HT       0.417000       1.00800           0
     65428 TIP3     14328    TIP3     OH2      OT      -0.834000       15.9994           0
     65429 TIP3     14328    TIP3     H1       HT       0.417000       1.00800           0
     65430 TIP3     14328    TIP3     H2       HT       0.417000       1.00800           0
     65431 TIP3     14329    TIP3     OH2      OT      -0.834000       15.9994           0
     65432 TIP3     14329    TIP3     H1       HT       0.417000       1.00800           0
     65433 TIP3     14329    TIP3     H2       HT       0.417000       1.00800           0
     65434 TIP3     14330    TIP3     OH2      OT      -0.834000       15.9994           0
     65435 TIP3     14330    TIP3     H1       HT       0.417000       1.00800           0
     65436 TIP3     14330    TIP3     H2       HT       0.417000       1.00800           0
     65437 TIP3     14331    TIP3     OH2      OT      -0.834000       15.9994           0
     65438 TIP3     14331    TIP3     H1       HT       0.417000       1.00800           0
     65439 TIP3     14331    TIP3     H2       HT       0.417000       1.00800           0
     65440 TIP3     14332    TIP3     OH2      OT      -0.834000       15.9994           0
     65441 TIP3     14332    TIP3     H1       HT       0.417000       1.00800           0
     65442 TIP3     14332    TIP3     H2       HT       0.417000       1.00800           0
     65443 TIP3     14333    TIP3     OH2      OT      -0.834000       15.9994           0
     65444 TIP3     14333    TIP3     H1       HT       0.417000       1.00800           0
     65445 TIP3     14333    TIP3     H2       HT       0.417000       1.00800           0
     65446 TIP3     14334    TIP3     OH2      OT      -0.834000       15.9994           0
     65447 TIP3     14334    TIP3     H1       HT       0.417000       1.00800           0
     65448 TIP3     14334    TIP3     H2       HT       0.417000       1.00800           0
     65449 TIP3     14335    TIP3     OH2      OT      -0.834000       15.9994           0
     65450 TIP3     14335    TIP3     H1       HT       0.417000       1.00800           0
     65451 TIP3     14335    TIP3     H2       HT       0.417000       1.00800           0
     65452 TIP3     14336    TIP3     OH2      OT      -0.834000       15.9994           0
     65453 TIP3     14336    TIP3     H1       HT       0.417000       1.00800           0
     65454 TIP3     14336    TIP3     H2       HT       0.417000       1.00800           0
     65455 TIP3     14337    TIP3     OH2      OT      -0.834000       15.9994           0
     65456 TIP3     14337    TIP3     H1       HT       0.417000       1.00800           0
     65457 TIP3     14337    TIP3     H2       HT       0.417000       1.00800           0
     65458 TIP3     14338    TIP3     OH2      OT      -0.834000       15.9994           0
     65459 TIP3     14338    TIP3     H1       HT       0.417000       1.00800           0
     65460 TIP3     14338    TIP3     H2       HT       0.417000       1.00800           0
     65461 TIP3     14339    TIP3     OH2      OT      -0.834000       15.9994           0
     65462 TIP3     14339    TIP3     H1       HT       0.417000       1.00800           0
     65463 TIP3     14339    TIP3     H2       HT       0.417000       1.00800           0
     65464 TIP3     14340    TIP3     OH2      OT      -0.834000       15.9994           0
     65465 TIP3     14340    TIP3     H1       HT       0.417000       1.00800           0
     65466 TIP3     14340    TIP3     H2       HT       0.417000       1.00800           0
     65467 TIP3     14341    TIP3     OH2      OT      -0.834000       15.9994           0
     65468 TIP3     14341    TIP3     H1       HT       0.417000       1.00800           0
     65469 TIP3     14341    TIP3     H2       HT       0.417000       1.00800           0
     65470 TIP3     14342    TIP3     OH2      OT      -0.834000       15.9994           0
     65471 TIP3     14342    TIP3     H1       HT       0.417000       1.00800           0
     65472 TIP3     14342    TIP3     H2       HT       0.417000       1.00800           0
     65473 TIP3     14343    TIP3     OH2      OT      -0.834000       15.9994           0
     65474 TIP3     14343    TIP3     H1       HT       0.417000       1.00800           0
     65475 TIP3     14343    TIP3     H2       HT       0.417000       1.00800           0
     65476 TIP3     14344    TIP3     OH2      OT      -0.834000       15.9994           0
     65477 TIP3     14344    TIP3     H1       HT       0.417000       1.00800           0
     65478 TIP3     14344    TIP3     H2       HT       0.417000       1.00800           0
     65479 TIP3     14345    TIP3     OH2      OT      -0.834000       15.9994           0
     65480 TIP3     14345    TIP3     H1       HT       0.417000       1.00800           0
     65481 TIP3     14345    TIP3     H2       HT       0.417000       1.00800           0
     65482 TIP3     14346    TIP3     OH2      OT      -0.834000       15.9994           0
     65483 TIP3     14346    TIP3     H1       HT       0.417000       1.00800           0
     65484 TIP3     14346    TIP3     H2       HT       0.417000       1.00800           0
     65485 TIP3     14347    TIP3     OH2      OT      -0.834000       15.9994           0
     65486 TIP3     14347    TIP3     H1       HT       0.417000       1.00800           0
     65487 TIP3     14347    TIP3     H2       HT       0.417000       1.00800           0
     65488 TIP3     14348    TIP3     OH2      OT      -0.834000       15.9994           0
     65489 TIP3     14348    TIP3     H1       HT       0.417000       1.00800           0
     65490 TIP3     14348    TIP3     H2       HT       0.417000       1.00800           0
     65491 TIP3     14349    TIP3     OH2      OT      -0.834000       15.9994           0
     65492 TIP3     14349    TIP3     H1       HT       0.417000       1.00800           0
     65493 TIP3     14349    TIP3     H2       HT       0.417000       1.00800           0
     65494 TIP3     14350    TIP3     OH2      OT      -0.834000       15.9994           0
     65495 TIP3     14350    TIP3     H1       HT       0.417000       1.00800           0
     65496 TIP3     14350    TIP3     H2       HT       0.417000       1.00800           0
     65497 TIP3     14351    TIP3     OH2      OT      -0.834000       15.9994           0
     65498 TIP3     14351    TIP3     H1       HT       0.417000       1.00800           0
     65499 TIP3     14351    TIP3     H2       HT       0.417000       1.00800           0
     65500 TIP3     14352    TIP3     OH2      OT      -0.834000       15.9994           0
     65501 TIP3     14352    TIP3     H1       HT       0.417000       1.00800           0
     65502 TIP3     14352    TIP3     H2       HT       0.417000       1.00800           0
     65503 TIP3     14353    TIP3     OH2      OT      -0.834000       15.9994           0
     65504 TIP3     14353    TIP3     H1       HT       0.417000       1.00800           0
     65505 TIP3     14353    TIP3     H2       HT       0.417000       1.00800           0
     65506 TIP3     14354    TIP3     OH2      OT      -0.834000       15.9994           0
     65507 TIP3     14354    TIP3     H1       HT       0.417000       1.00800           0
     65508 TIP3     14354    TIP3     H2       HT       0.417000       1.00800           0
     65509 TIP3     14355    TIP3     OH2      OT      -0.834000       15.9994           0
     65510 TIP3     14355    TIP3     H1       HT       0.417000       1.00800           0
     65511 TIP3     14355    TIP3     H2       HT       0.417000       1.00800           0
     65512 TIP3     14356    TIP3     OH2      OT      -0.834000       15.9994           0
     65513 TIP3     14356    TIP3     H1       HT       0.417000       1.00800           0
     65514 TIP3     14356    TIP3     H2       HT       0.417000       1.00800           0
     65515 TIP3     14357    TIP3     OH2      OT      -0.834000       15.9994           0
     65516 TIP3     14357    TIP3     H1       HT       0.417000       1.00800           0
     65517 TIP3     14357    TIP3     H2       HT       0.417000       1.00800           0
     65518 TIP3     14358    TIP3     OH2      OT      -0.834000       15.9994           0
     65519 TIP3     14358    TIP3     H1       HT       0.417000       1.00800           0
     65520 TIP3     14358    TIP3     H2       HT       0.417000       1.00800           0
     65521 TIP3     14359    TIP3     OH2      OT      -0.834000       15.9994           0
     65522 TIP3     14359    TIP3     H1       HT       0.417000       1.00800           0
     65523 TIP3     14359    TIP3     H2       HT       0.417000       1.00800           0
     65524 TIP3     14360    TIP3     OH2      OT      -0.834000       15.9994           0
     65525 TIP3     14360    TIP3     H1       HT       0.417000       1.00800           0
     65526 TIP3     14360    TIP3     H2       HT       0.417000       1.00800           0
     65527 TIP3     14361    TIP3     OH2      OT      -0.834000       15.9994           0
     65528 TIP3     14361    TIP3     H1       HT       0.417000       1.00800           0
     65529 TIP3     14361    TIP3     H2       HT       0.417000       1.00800           0
     65530 TIP3     14362    TIP3     OH2      OT      -0.834000       15.9994           0
     65531 TIP3     14362    TIP3     H1       HT       0.417000       1.00800           0
     65532 TIP3     14362    TIP3     H2       HT       0.417000       1.00800           0
     65533 TIP3     14363    TIP3     OH2      OT      -0.834000       15.9994           0
     65534 TIP3     14363    TIP3     H1       HT       0.417000       1.00800           0
     65535 TIP3     14363    TIP3     H2       HT       0.417000       1.00800           0
     65536 TIP3     14364    TIP3     OH2      OT      -0.834000       15.9994           0
     65537 TIP3     14364    TIP3     H1       HT       0.417000       1.00800           0
     65538 TIP3     14364    TIP3     H2       HT       0.417000       1.00800           0
     65539 TIP3     14365    TIP3     OH2      OT      -0.834000       15.9994           0
     65540 TIP3     14365    TIP3     H1       HT       0.417000       1.00800           0
     65541 TIP3     14365    TIP3     H2       HT       0.417000       1.00800           0
     65542 TIP3     14366    TIP3     OH2      OT      -0.834000       15.9994           0
     65543 TIP3     14366    TIP3     H1       HT       0.417000       1.00800           0
     65544 TIP3     14366    TIP3     H2       HT       0.417000       1.00800           0
     65545 TIP3     14367    TIP3     OH2      OT      -0.834000       15.9994           0
     65546 TIP3     14367    TIP3     H1       HT       0.417000       1.00800           0
     65547 TIP3     14367    TIP3     H2       HT       0.417000       1.00800           0
     65548 TIP3     14368    TIP3     OH2      OT      -0.834000       15.9994           0
     65549 TIP3     14368    TIP3     H1       HT       0.417000       1.00800           0
     65550 TIP3     14368    TIP3     H2       HT       0.417000       1.00800           0
     65551 TIP3     14369    TIP3     OH2      OT      -0.834000       15.9994           0
     65552 TIP3     14369    TIP3     H1       HT       0.417000       1.00800           0
     65553 TIP3     14369    TIP3     H2       HT       0.417000       1.00800           0
     65554 TIP3     14370    TIP3     OH2      OT      -0.834000       15.9994           0
     65555 TIP3     14370    TIP3     H1       HT       0.417000       1.00800           0
     65556 TIP3     14370    TIP3     H2       HT       0.417000       1.00800           0
     65557 TIP3     14371    TIP3     OH2      OT      -0.834000       15.9994           0
     65558 TIP3     14371    TIP3     H1       HT       0.417000       1.00800           0
     65559 TIP3     14371    TIP3     H2       HT       0.417000       1.00800           0
     65560 TIP3     14372    TIP3     OH2      OT      -0.834000       15.9994           0
     65561 TIP3     14372    TIP3     H1       HT       0.417000       1.00800           0
     65562 TIP3     14372    TIP3     H2       HT       0.417000       1.00800           0
     65563 TIP3     14373    TIP3     OH2      OT      -0.834000       15.9994           0
     65564 TIP3     14373    TIP3     H1       HT       0.417000       1.00800           0
     65565 TIP3     14373    TIP3     H2       HT       0.417000       1.00800           0
     65566 TIP3     14374    TIP3     OH2      OT      -0.834000       15.9994           0
     65567 TIP3     14374    TIP3     H1       HT       0.417000       1.00800           0
     65568 TIP3     14374    TIP3     H2       HT       0.417000       1.00800           0
     65569 TIP3     14375    TIP3     OH2      OT      -0.834000       15.9994           0
     65570 TIP3     14375    TIP3     H1       HT       0.417000       1.00800           0
     65571 TIP3     14375    TIP3     H2       HT       0.417000       1.00800           0
     65572 TIP3     14376    TIP3     OH2      OT      -0.834000       15.9994           0
     65573 TIP3     14376    TIP3     H1       HT       0.417000       1.00800           0
     65574 TIP3     14376    TIP3     H2       HT       0.417000       1.00800           0
     65575 TIP3     14377    TIP3     OH2      OT      -0.834000       15.9994           0
     65576 TIP3     14377    TIP3     H1       HT       0.417000       1.00800           0
     65577 TIP3     14377    TIP3     H2       HT       0.417000       1.00800           0
     65578 TIP3     14378    TIP3     OH2      OT      -0.834000       15.9994           0
     65579 TIP3     14378    TIP3     H1       HT       0.417000       1.00800           0
     65580 TIP3     14378    TIP3     H2       HT       0.417000       1.00800           0
     65581 TIP3     14379    TIP3     OH2      OT      -0.834000       15.9994           0
     65582 TIP3     14379    TIP3     H1       HT       0.417000       1.00800           0
     65583 TIP3     14379    TIP3     H2       HT       0.417000       1.00800           0
     65584 TIP3     14380    TIP3     OH2      OT      -0.834000       15.9994           0
     65585 TIP3     14380    TIP3     H1       HT       0.417000       1.00800           0
     65586 TIP3     14380    TIP3     H2       HT       0.417000       1.00800           0
     65587 TIP3     14381    TIP3     OH2      OT      -0.834000       15.9994           0
     65588 TIP3     14381    TIP3     H1       HT       0.417000       1.00800           0
     65589 TIP3     14381    TIP3     H2       HT       0.417000       1.00800           0
     65590 TIP3     14382    TIP3     OH2      OT      -0.834000       15.9994           0
     65591 TIP3     14382    TIP3     H1       HT       0.417000       1.00800           0
     65592 TIP3     14382    TIP3     H2       HT       0.417000       1.00800           0
     65593 TIP3     14383    TIP3     OH2      OT      -0.834000       15.9994           0
     65594 TIP3     14383    TIP3     H1       HT       0.417000       1.00800           0
     65595 TIP3     14383    TIP3     H2       HT       0.417000       1.00800           0
     65596 TIP3     14384    TIP3     OH2      OT      -0.834000       15.9994           0
     65597 TIP3     14384    TIP3     H1       HT       0.417000       1.00800           0
     65598 TIP3     14384    TIP3     H2       HT       0.417000       1.00800           0
     65599 TIP3     14385    TIP3     OH2      OT      -0.834000       15.9994           0
     65600 TIP3     14385    TIP3     H1       HT       0.417000       1.00800           0
     65601 TIP3     14385    TIP3     H2       HT       0.417000       1.00800           0
     65602 TIP3     14386    TIP3     OH2      OT      -0.834000       15.9994           0
     65603 TIP3     14386    TIP3     H1       HT       0.417000       1.00800           0
     65604 TIP3     14386    TIP3     H2       HT       0.417000       1.00800           0
     65605 TIP3     14387    TIP3     OH2      OT      -0.834000       15.9994           0
     65606 TIP3     14387    TIP3     H1       HT       0.417000       1.00800           0
     65607 TIP3     14387    TIP3     H2       HT       0.417000       1.00800           0
     65608 TIP3     14388    TIP3     OH2      OT      -0.834000       15.9994           0
     65609 TIP3     14388    TIP3     H1       HT       0.417000       1.00800           0
     65610 TIP3     14388    TIP3     H2       HT       0.417000       1.00800           0
     65611 TIP3     14389    TIP3     OH2      OT      -0.834000       15.9994           0
     65612 TIP3     14389    TIP3     H1       HT       0.417000       1.00800           0
     65613 TIP3     14389    TIP3     H2       HT       0.417000       1.00800           0
     65614 TIP3     14390    TIP3     OH2      OT      -0.834000       15.9994           0
     65615 TIP3     14390    TIP3     H1       HT       0.417000       1.00800           0
     65616 TIP3     14390    TIP3     H2       HT       0.417000       1.00800           0
     65617 TIP3     14391    TIP3     OH2      OT      -0.834000       15.9994           0
     65618 TIP3     14391    TIP3     H1       HT       0.417000       1.00800           0
     65619 TIP3     14391    TIP3     H2       HT       0.417000       1.00800           0
     65620 TIP3     14392    TIP3     OH2      OT      -0.834000       15.9994           0
     65621 TIP3     14392    TIP3     H1       HT       0.417000       1.00800           0
     65622 TIP3     14392    TIP3     H2       HT       0.417000       1.00800           0
     65623 TIP3     14393    TIP3     OH2      OT      -0.834000       15.9994           0
     65624 TIP3     14393    TIP3     H1       HT       0.417000       1.00800           0
     65625 TIP3     14393    TIP3     H2       HT       0.417000       1.00800           0
     65626 TIP3     14394    TIP3     OH2      OT      -0.834000       15.9994           0
     65627 TIP3     14394    TIP3     H1       HT       0.417000       1.00800           0
     65628 TIP3     14394    TIP3     H2       HT       0.417000       1.00800           0
     65629 TIP3     14395    TIP3     OH2      OT      -0.834000       15.9994           0
     65630 TIP3     14395    TIP3     H1       HT       0.417000       1.00800           0
     65631 TIP3     14395    TIP3     H2       HT       0.417000       1.00800           0
     65632 TIP3     14396    TIP3     OH2      OT      -0.834000       15.9994           0
     65633 TIP3     14396    TIP3     H1       HT       0.417000       1.00800           0
     65634 TIP3     14396    TIP3     H2       HT       0.417000       1.00800           0
     65635 TIP3     14397    TIP3     OH2      OT      -0.834000       15.9994           0
     65636 TIP3     14397    TIP3     H1       HT       0.417000       1.00800           0
     65637 TIP3     14397    TIP3     H2       HT       0.417000       1.00800           0
     65638 TIP3     14398    TIP3     OH2      OT      -0.834000       15.9994           0
     65639 TIP3     14398    TIP3     H1       HT       0.417000       1.00800           0
     65640 TIP3     14398    TIP3     H2       HT       0.417000       1.00800           0
     65641 TIP3     14399    TIP3     OH2      OT      -0.834000       15.9994           0
     65642 TIP3     14399    TIP3     H1       HT       0.417000       1.00800           0
     65643 TIP3     14399    TIP3     H2       HT       0.417000       1.00800           0
     65644 TIP3     14400    TIP3     OH2      OT      -0.834000       15.9994           0
     65645 TIP3     14400    TIP3     H1       HT       0.417000       1.00800           0
     65646 TIP3     14400    TIP3     H2       HT       0.417000       1.00800           0
     65647 TIP3     14401    TIP3     OH2      OT      -0.834000       15.9994           0
     65648 TIP3     14401    TIP3     H1       HT       0.417000       1.00800           0
     65649 TIP3     14401    TIP3     H2       HT       0.417000       1.00800           0
     65650 TIP3     14402    TIP3     OH2      OT      -0.834000       15.9994           0
     65651 TIP3     14402    TIP3     H1       HT       0.417000       1.00800           0
     65652 TIP3     14402    TIP3     H2       HT       0.417000       1.00800           0
     65653 TIP3     14403    TIP3     OH2      OT      -0.834000       15.9994           0
     65654 TIP3     14403    TIP3     H1       HT       0.417000       1.00800           0
     65655 TIP3     14403    TIP3     H2       HT       0.417000       1.00800           0
     65656 TIP3     14404    TIP3     OH2      OT      -0.834000       15.9994           0
     65657 TIP3     14404    TIP3     H1       HT       0.417000       1.00800           0
     65658 TIP3     14404    TIP3     H2       HT       0.417000       1.00800           0
     65659 TIP3     14405    TIP3     OH2      OT      -0.834000       15.9994           0
     65660 TIP3     14405    TIP3     H1       HT       0.417000       1.00800           0
     65661 TIP3     14405    TIP3     H2       HT       0.417000       1.00800           0
     65662 TIP3     14406    TIP3     OH2      OT      -0.834000       15.9994           0
     65663 TIP3     14406    TIP3     H1       HT       0.417000       1.00800           0
     65664 TIP3     14406    TIP3     H2       HT       0.417000       1.00800           0
     65665 TIP3     14407    TIP3     OH2      OT      -0.834000       15.9994           0
     65666 TIP3     14407    TIP3     H1       HT       0.417000       1.00800           0
     65667 TIP3     14407    TIP3     H2       HT       0.417000       1.00800           0
     65668 TIP3     14408    TIP3     OH2      OT      -0.834000       15.9994           0
     65669 TIP3     14408    TIP3     H1       HT       0.417000       1.00800           0
     65670 TIP3     14408    TIP3     H2       HT       0.417000       1.00800           0
     65671 TIP3     14409    TIP3     OH2      OT      -0.834000       15.9994           0
     65672 TIP3     14409    TIP3     H1       HT       0.417000       1.00800           0
     65673 TIP3     14409    TIP3     H2       HT       0.417000       1.00800           0
     65674 TIP3     14410    TIP3     OH2      OT      -0.834000       15.9994           0
     65675 TIP3     14410    TIP3     H1       HT       0.417000       1.00800           0
     65676 TIP3     14410    TIP3     H2       HT       0.417000       1.00800           0
     65677 TIP3     14411    TIP3     OH2      OT      -0.834000       15.9994           0
     65678 TIP3     14411    TIP3     H1       HT       0.417000       1.00800           0
     65679 TIP3     14411    TIP3     H2       HT       0.417000       1.00800           0
     65680 TIP3     14412    TIP3     OH2      OT      -0.834000       15.9994           0
     65681 TIP3     14412    TIP3     H1       HT       0.417000       1.00800           0
     65682 TIP3     14412    TIP3     H2       HT       0.417000       1.00800           0
     65683 TIP3     14413    TIP3     OH2      OT      -0.834000       15.9994           0
     65684 TIP3     14413    TIP3     H1       HT       0.417000       1.00800           0
     65685 TIP3     14413    TIP3     H2       HT       0.417000       1.00800           0
     65686 TIP3     14414    TIP3     OH2      OT      -0.834000       15.9994           0
     65687 TIP3     14414    TIP3     H1       HT       0.417000       1.00800           0
     65688 TIP3     14414    TIP3     H2       HT       0.417000       1.00800           0
     65689 TIP3     14415    TIP3     OH2      OT      -0.834000       15.9994           0
     65690 TIP3     14415    TIP3     H1       HT       0.417000       1.00800           0
     65691 TIP3     14415    TIP3     H2       HT       0.417000       1.00800           0
     65692 TIP3     14416    TIP3     OH2      OT      -0.834000       15.9994           0
     65693 TIP3     14416    TIP3     H1       HT       0.417000       1.00800           0
     65694 TIP3     14416    TIP3     H2       HT       0.417000       1.00800           0
     65695 TIP3     14417    TIP3     OH2      OT      -0.834000       15.9994           0
     65696 TIP3     14417    TIP3     H1       HT       0.417000       1.00800           0
     65697 TIP3     14417    TIP3     H2       HT       0.417000       1.00800           0
     65698 TIP3     14418    TIP3     OH2      OT      -0.834000       15.9994           0
     65699 TIP3     14418    TIP3     H1       HT       0.417000       1.00800           0
     65700 TIP3     14418    TIP3     H2       HT       0.417000       1.00800           0
     65701 TIP3     14419    TIP3     OH2      OT      -0.834000       15.9994           0
     65702 TIP3     14419    TIP3     H1       HT       0.417000       1.00800           0
     65703 TIP3     14419    TIP3     H2       HT       0.417000       1.00800           0
     65704 TIP3     14420    TIP3     OH2      OT      -0.834000       15.9994           0
     65705 TIP3     14420    TIP3     H1       HT       0.417000       1.00800           0
     65706 TIP3     14420    TIP3     H2       HT       0.417000       1.00800           0
     65707 TIP3     14421    TIP3     OH2      OT      -0.834000       15.9994           0
     65708 TIP3     14421    TIP3     H1       HT       0.417000       1.00800           0
     65709 TIP3     14421    TIP3     H2       HT       0.417000       1.00800           0
     65710 TIP3     14422    TIP3     OH2      OT      -0.834000       15.9994           0
     65711 TIP3     14422    TIP3     H1       HT       0.417000       1.00800           0
     65712 TIP3     14422    TIP3     H2       HT       0.417000       1.00800           0
     65713 TIP3     14423    TIP3     OH2      OT      -0.834000       15.9994           0
     65714 TIP3     14423    TIP3     H1       HT       0.417000       1.00800           0
     65715 TIP3     14423    TIP3     H2       HT       0.417000       1.00800           0
     65716 TIP3     14424    TIP3     OH2      OT      -0.834000       15.9994           0
     65717 TIP3     14424    TIP3     H1       HT       0.417000       1.00800           0
     65718 TIP3     14424    TIP3     H2       HT       0.417000       1.00800           0
     65719 TIP3     14425    TIP3     OH2      OT      -0.834000       15.9994           0
     65720 TIP3     14425    TIP3     H1       HT       0.417000       1.00800           0
     65721 TIP3     14425    TIP3     H2       HT       0.417000       1.00800           0
     65722 TIP3     14426    TIP3     OH2      OT      -0.834000       15.9994           0
     65723 TIP3     14426    TIP3     H1       HT       0.417000       1.00800           0
     65724 TIP3     14426    TIP3     H2       HT       0.417000       1.00800           0
     65725 TIP3     14427    TIP3     OH2      OT      -0.834000       15.9994           0
     65726 TIP3     14427    TIP3     H1       HT       0.417000       1.00800           0
     65727 TIP3     14427    TIP3     H2       HT       0.417000       1.00800           0
     65728 TIP3     14428    TIP3     OH2      OT      -0.834000       15.9994           0
     65729 TIP3     14428    TIP3     H1       HT       0.417000       1.00800           0
     65730 TIP3     14428    TIP3     H2       HT       0.417000       1.00800           0
     65731 TIP3     14429    TIP3     OH2      OT      -0.834000       15.9994           0
     65732 TIP3     14429    TIP3     H1       HT       0.417000       1.00800           0
     65733 TIP3     14429    TIP3     H2       HT       0.417000       1.00800           0
     65734 TIP3     14430    TIP3     OH2      OT      -0.834000       15.9994           0
     65735 TIP3     14430    TIP3     H1       HT       0.417000       1.00800           0
     65736 TIP3     14430    TIP3     H2       HT       0.417000       1.00800           0
     65737 TIP3     14431    TIP3     OH2      OT      -0.834000       15.9994           0
     65738 TIP3     14431    TIP3     H1       HT       0.417000       1.00800           0
     65739 TIP3     14431    TIP3     H2       HT       0.417000       1.00800           0
     65740 TIP3     14432    TIP3     OH2      OT      -0.834000       15.9994           0
     65741 TIP3     14432    TIP3     H1       HT       0.417000       1.00800           0
     65742 TIP3     14432    TIP3     H2       HT       0.417000       1.00800           0
     65743 TIP3     14433    TIP3     OH2      OT      -0.834000       15.9994           0
     65744 TIP3     14433    TIP3     H1       HT       0.417000       1.00800           0
     65745 TIP3     14433    TIP3     H2       HT       0.417000       1.00800           0
     65746 TIP3     14434    TIP3     OH2      OT      -0.834000       15.9994           0
     65747 TIP3     14434    TIP3     H1       HT       0.417000       1.00800           0
     65748 TIP3     14434    TIP3     H2       HT       0.417000       1.00800           0
     65749 TIP3     14435    TIP3     OH2      OT      -0.834000       15.9994           0
     65750 TIP3     14435    TIP3     H1       HT       0.417000       1.00800           0
     65751 TIP3     14435    TIP3     H2       HT       0.417000       1.00800           0
     65752 TIP3     14436    TIP3     OH2      OT      -0.834000       15.9994           0
     65753 TIP3     14436    TIP3     H1       HT       0.417000       1.00800           0
     65754 TIP3     14436    TIP3     H2       HT       0.417000       1.00800           0
     65755 TIP3     14437    TIP3     OH2      OT      -0.834000       15.9994           0
     65756 TIP3     14437    TIP3     H1       HT       0.417000       1.00800           0
     65757 TIP3     14437    TIP3     H2       HT       0.417000       1.00800           0
     65758 TIP3     14438    TIP3     OH2      OT      -0.834000       15.9994           0
     65759 TIP3     14438    TIP3     H1       HT       0.417000       1.00800           0
     65760 TIP3     14438    TIP3     H2       HT       0.417000       1.00800           0
     65761 TIP3     14439    TIP3     OH2      OT      -0.834000       15.9994           0
     65762 TIP3     14439    TIP3     H1       HT       0.417000       1.00800           0
     65763 TIP3     14439    TIP3     H2       HT       0.417000       1.00800           0
     65764 TIP3     14440    TIP3     OH2      OT      -0.834000       15.9994           0
     65765 TIP3     14440    TIP3     H1       HT       0.417000       1.00800           0
     65766 TIP3     14440    TIP3     H2       HT       0.417000       1.00800           0
     65767 TIP3     14441    TIP3     OH2      OT      -0.834000       15.9994           0
     65768 TIP3     14441    TIP3     H1       HT       0.417000       1.00800           0
     65769 TIP3     14441    TIP3     H2       HT       0.417000       1.00800           0
     65770 TIP3     14442    TIP3     OH2      OT      -0.834000       15.9994           0
     65771 TIP3     14442    TIP3     H1       HT       0.417000       1.00800           0
     65772 TIP3     14442    TIP3     H2       HT       0.417000       1.00800           0
     65773 TIP3     14443    TIP3     OH2      OT      -0.834000       15.9994           0
     65774 TIP3     14443    TIP3     H1       HT       0.417000       1.00800           0
     65775 TIP3     14443    TIP3     H2       HT       0.417000       1.00800           0
     65776 TIP3     14444    TIP3     OH2      OT      -0.834000       15.9994           0
     65777 TIP3     14444    TIP3     H1       HT       0.417000       1.00800           0
     65778 TIP3     14444    TIP3     H2       HT       0.417000       1.00800           0
     65779 TIP3     14445    TIP3     OH2      OT      -0.834000       15.9994           0
     65780 TIP3     14445    TIP3     H1       HT       0.417000       1.00800           0
     65781 TIP3     14445    TIP3     H2       HT       0.417000       1.00800           0
     65782 TIP3     14446    TIP3     OH2      OT      -0.834000       15.9994           0
     65783 TIP3     14446    TIP3     H1       HT       0.417000       1.00800           0
     65784 TIP3     14446    TIP3     H2       HT       0.417000       1.00800           0
     65785 TIP3     14447    TIP3     OH2      OT      -0.834000       15.9994           0
     65786 TIP3     14447    TIP3     H1       HT       0.417000       1.00800           0
     65787 TIP3     14447    TIP3     H2       HT       0.417000       1.00800           0
     65788 TIP3     14448    TIP3     OH2      OT      -0.834000       15.9994           0
     65789 TIP3     14448    TIP3     H1       HT       0.417000       1.00800           0
     65790 TIP3     14448    TIP3     H2       HT       0.417000       1.00800           0
     65791 TIP3     14449    TIP3     OH2      OT      -0.834000       15.9994           0
     65792 TIP3     14449    TIP3     H1       HT       0.417000       1.00800           0
     65793 TIP3     14449    TIP3     H2       HT       0.417000       1.00800           0
     65794 TIP3     14450    TIP3     OH2      OT      -0.834000       15.9994           0
     65795 TIP3     14450    TIP3     H1       HT       0.417000       1.00800           0
     65796 TIP3     14450    TIP3     H2       HT       0.417000       1.00800           0
     65797 TIP3     14451    TIP3     OH2      OT      -0.834000       15.9994           0
     65798 TIP3     14451    TIP3     H1       HT       0.417000       1.00800           0
     65799 TIP3     14451    TIP3     H2       HT       0.417000       1.00800           0
     65800 TIP3     14452    TIP3     OH2      OT      -0.834000       15.9994           0
     65801 TIP3     14452    TIP3     H1       HT       0.417000       1.00800           0
     65802 TIP3     14452    TIP3     H2       HT       0.417000       1.00800           0
     65803 TIP3     14453    TIP3     OH2      OT      -0.834000       15.9994           0
     65804 TIP3     14453    TIP3     H1       HT       0.417000       1.00800           0
     65805 TIP3     14453    TIP3     H2       HT       0.417000       1.00800           0
     65806 TIP3     14454    TIP3     OH2      OT      -0.834000       15.9994           0
     65807 TIP3     14454    TIP3     H1       HT       0.417000       1.00800           0
     65808 TIP3     14454    TIP3     H2       HT       0.417000       1.00800           0
     65809 TIP3     14455    TIP3     OH2      OT      -0.834000       15.9994           0
     65810 TIP3     14455    TIP3     H1       HT       0.417000       1.00800           0
     65811 TIP3     14455    TIP3     H2       HT       0.417000       1.00800           0
     65812 TIP3     14456    TIP3     OH2      OT      -0.834000       15.9994           0
     65813 TIP3     14456    TIP3     H1       HT       0.417000       1.00800           0
     65814 TIP3     14456    TIP3     H2       HT       0.417000       1.00800           0
     65815 TIP3     14457    TIP3     OH2      OT      -0.834000       15.9994           0
     65816 TIP3     14457    TIP3     H1       HT       0.417000       1.00800           0
     65817 TIP3     14457    TIP3     H2       HT       0.417000       1.00800           0
     65818 TIP3     14458    TIP3     OH2      OT      -0.834000       15.9994           0
     65819 TIP3     14458    TIP3     H1       HT       0.417000       1.00800           0
     65820 TIP3     14458    TIP3     H2       HT       0.417000       1.00800           0
     65821 TIP3     14459    TIP3     OH2      OT      -0.834000       15.9994           0
     65822 TIP3     14459    TIP3     H1       HT       0.417000       1.00800           0
     65823 TIP3     14459    TIP3     H2       HT       0.417000       1.00800           0
     65824 TIP3     14460    TIP3     OH2      OT      -0.834000       15.9994           0
     65825 TIP3     14460    TIP3     H1       HT       0.417000       1.00800           0
     65826 TIP3     14460    TIP3     H2       HT       0.417000       1.00800           0
     65827 TIP3     14461    TIP3     OH2      OT      -0.834000       15.9994           0
     65828 TIP3     14461    TIP3     H1       HT       0.417000       1.00800           0
     65829 TIP3     14461    TIP3     H2       HT       0.417000       1.00800           0
     65830 TIP3     14462    TIP3     OH2      OT      -0.834000       15.9994           0
     65831 TIP3     14462    TIP3     H1       HT       0.417000       1.00800           0
     65832 TIP3     14462    TIP3     H2       HT       0.417000       1.00800           0
     65833 TIP3     14463    TIP3     OH2      OT      -0.834000       15.9994           0
     65834 TIP3     14463    TIP3     H1       HT       0.417000       1.00800           0
     65835 TIP3     14463    TIP3     H2       HT       0.417000       1.00800           0
     65836 TIP3     14464    TIP3     OH2      OT      -0.834000       15.9994           0
     65837 TIP3     14464    TIP3     H1       HT       0.417000       1.00800           0
     65838 TIP3     14464    TIP3     H2       HT       0.417000       1.00800           0
     65839 TIP3     14465    TIP3     OH2      OT      -0.834000       15.9994           0
     65840 TIP3     14465    TIP3     H1       HT       0.417000       1.00800           0
     65841 TIP3     14465    TIP3     H2       HT       0.417000       1.00800           0
     65842 TIP3     14466    TIP3     OH2      OT      -0.834000       15.9994           0
     65843 TIP3     14466    TIP3     H1       HT       0.417000       1.00800           0
     65844 TIP3     14466    TIP3     H2       HT       0.417000       1.00800           0
     65845 TIP3     14467    TIP3     OH2      OT      -0.834000       15.9994           0
     65846 TIP3     14467    TIP3     H1       HT       0.417000       1.00800           0
     65847 TIP3     14467    TIP3     H2       HT       0.417000       1.00800           0
     65848 TIP3     14468    TIP3     OH2      OT      -0.834000       15.9994           0
     65849 TIP3     14468    TIP3     H1       HT       0.417000       1.00800           0
     65850 TIP3     14468    TIP3     H2       HT       0.417000       1.00800           0
     65851 TIP3     14469    TIP3     OH2      OT      -0.834000       15.9994           0
     65852 TIP3     14469    TIP3     H1       HT       0.417000       1.00800           0
     65853 TIP3     14469    TIP3     H2       HT       0.417000       1.00800           0
     65854 TIP3     14470    TIP3     OH2      OT      -0.834000       15.9994           0
     65855 TIP3     14470    TIP3     H1       HT       0.417000       1.00800           0
     65856 TIP3     14470    TIP3     H2       HT       0.417000       1.00800           0
     65857 TIP3     14471    TIP3     OH2      OT      -0.834000       15.9994           0
     65858 TIP3     14471    TIP3     H1       HT       0.417000       1.00800           0
     65859 TIP3     14471    TIP3     H2       HT       0.417000       1.00800           0
     65860 TIP3     14472    TIP3     OH2      OT      -0.834000       15.9994           0
     65861 TIP3     14472    TIP3     H1       HT       0.417000       1.00800           0
     65862 TIP3     14472    TIP3     H2       HT       0.417000       1.00800           0
     65863 TIP3     14473    TIP3     OH2      OT      -0.834000       15.9994           0
     65864 TIP3     14473    TIP3     H1       HT       0.417000       1.00800           0
     65865 TIP3     14473    TIP3     H2       HT       0.417000       1.00800           0
     65866 TIP3     14474    TIP3     OH2      OT      -0.834000       15.9994           0
     65867 TIP3     14474    TIP3     H1       HT       0.417000       1.00800           0
     65868 TIP3     14474    TIP3     H2       HT       0.417000       1.00800           0
     65869 TIP3     14475    TIP3     OH2      OT      -0.834000       15.9994           0
     65870 TIP3     14475    TIP3     H1       HT       0.417000       1.00800           0
     65871 TIP3     14475    TIP3     H2       HT       0.417000       1.00800           0
     65872 TIP3     14476    TIP3     OH2      OT      -0.834000       15.9994           0
     65873 TIP3     14476    TIP3     H1       HT       0.417000       1.00800           0
     65874 TIP3     14476    TIP3     H2       HT       0.417000       1.00800           0
     65875 TIP3     14477    TIP3     OH2      OT      -0.834000       15.9994           0
     65876 TIP3     14477    TIP3     H1       HT       0.417000       1.00800           0
     65877 TIP3     14477    TIP3     H2       HT       0.417000       1.00800           0
     65878 TIP3     14478    TIP3     OH2      OT      -0.834000       15.9994           0
     65879 TIP3     14478    TIP3     H1       HT       0.417000       1.00800           0
     65880 TIP3     14478    TIP3     H2       HT       0.417000       1.00800           0
     65881 TIP3     14479    TIP3     OH2      OT      -0.834000       15.9994           0
     65882 TIP3     14479    TIP3     H1       HT       0.417000       1.00800           0
     65883 TIP3     14479    TIP3     H2       HT       0.417000       1.00800           0
     65884 TIP3     14480    TIP3     OH2      OT      -0.834000       15.9994           0
     65885 TIP3     14480    TIP3     H1       HT       0.417000       1.00800           0
     65886 TIP3     14480    TIP3     H2       HT       0.417000       1.00800           0
     65887 TIP3     14481    TIP3     OH2      OT      -0.834000       15.9994           0
     65888 TIP3     14481    TIP3     H1       HT       0.417000       1.00800           0
     65889 TIP3     14481    TIP3     H2       HT       0.417000       1.00800           0
     65890 TIP3     14482    TIP3     OH2      OT      -0.834000       15.9994           0
     65891 TIP3     14482    TIP3     H1       HT       0.417000       1.00800           0
     65892 TIP3     14482    TIP3     H2       HT       0.417000       1.00800           0
     65893 TIP3     14483    TIP3     OH2      OT      -0.834000       15.9994           0
     65894 TIP3     14483    TIP3     H1       HT       0.417000       1.00800           0
     65895 TIP3     14483    TIP3     H2       HT       0.417000       1.00800           0
     65896 TIP3     14484    TIP3     OH2      OT      -0.834000       15.9994           0
     65897 TIP3     14484    TIP3     H1       HT       0.417000       1.00800           0
     65898 TIP3     14484    TIP3     H2       HT       0.417000       1.00800           0
     65899 TIP3     14485    TIP3     OH2      OT      -0.834000       15.9994           0
     65900 TIP3     14485    TIP3     H1       HT       0.417000       1.00800           0
     65901 TIP3     14485    TIP3     H2       HT       0.417000       1.00800           0
     65902 TIP3     14486    TIP3     OH2      OT      -0.834000       15.9994           0
     65903 TIP3     14486    TIP3     H1       HT       0.417000       1.00800           0
     65904 TIP3     14486    TIP3     H2       HT       0.417000       1.00800           0
     65905 TIP3     14487    TIP3     OH2      OT      -0.834000       15.9994           0
     65906 TIP3     14487    TIP3     H1       HT       0.417000       1.00800           0
     65907 TIP3     14487    TIP3     H2       HT       0.417000       1.00800           0
     65908 TIP3     14488    TIP3     OH2      OT      -0.834000       15.9994           0
     65909 TIP3     14488    TIP3     H1       HT       0.417000       1.00800           0
     65910 TIP3     14488    TIP3     H2       HT       0.417000       1.00800           0
     65911 TIP3     14489    TIP3     OH2      OT      -0.834000       15.9994           0
     65912 TIP3     14489    TIP3     H1       HT       0.417000       1.00800           0
     65913 TIP3     14489    TIP3     H2       HT       0.417000       1.00800           0
     65914 TIP3     14490    TIP3     OH2      OT      -0.834000       15.9994           0
     65915 TIP3     14490    TIP3     H1       HT       0.417000       1.00800           0
     65916 TIP3     14490    TIP3     H2       HT       0.417000       1.00800           0
     65917 TIP3     14491    TIP3     OH2      OT      -0.834000       15.9994           0
     65918 TIP3     14491    TIP3     H1       HT       0.417000       1.00800           0
     65919 TIP3     14491    TIP3     H2       HT       0.417000       1.00800           0
     65920 TIP3     14492    TIP3     OH2      OT      -0.834000       15.9994           0
     65921 TIP3     14492    TIP3     H1       HT       0.417000       1.00800           0
     65922 TIP3     14492    TIP3     H2       HT       0.417000       1.00800           0
     65923 TIP3     14493    TIP3     OH2      OT      -0.834000       15.9994           0
     65924 TIP3     14493    TIP3     H1       HT       0.417000       1.00800           0
     65925 TIP3     14493    TIP3     H2       HT       0.417000       1.00800           0
     65926 TIP3     14494    TIP3     OH2      OT      -0.834000       15.9994           0
     65927 TIP3     14494    TIP3     H1       HT       0.417000       1.00800           0
     65928 TIP3     14494    TIP3     H2       HT       0.417000       1.00800           0
     65929 TIP3     14495    TIP3     OH2      OT      -0.834000       15.9994           0
     65930 TIP3     14495    TIP3     H1       HT       0.417000       1.00800           0
     65931 TIP3     14495    TIP3     H2       HT       0.417000       1.00800           0
     65932 TIP3     14496    TIP3     OH2      OT      -0.834000       15.9994           0
     65933 TIP3     14496    TIP3     H1       HT       0.417000       1.00800           0
     65934 TIP3     14496    TIP3     H2       HT       0.417000       1.00800           0
     65935 TIP3     14497    TIP3     OH2      OT      -0.834000       15.9994           0
     65936 TIP3     14497    TIP3     H1       HT       0.417000       1.00800           0
     65937 TIP3     14497    TIP3     H2       HT       0.417000       1.00800           0
     65938 TIP3     14498    TIP3     OH2      OT      -0.834000       15.9994           0
     65939 TIP3     14498    TIP3     H1       HT       0.417000       1.00800           0
     65940 TIP3     14498    TIP3     H2       HT       0.417000       1.00800           0
     65941 TIP3     14499    TIP3     OH2      OT      -0.834000       15.9994           0
     65942 TIP3     14499    TIP3     H1       HT       0.417000       1.00800           0
     65943 TIP3     14499    TIP3     H2       HT       0.417000       1.00800           0
     65944 TIP3     14500    TIP3     OH2      OT      -0.834000       15.9994           0
     65945 TIP3     14500    TIP3     H1       HT       0.417000       1.00800           0
     65946 TIP3     14500    TIP3     H2       HT       0.417000       1.00800           0
     65947 TIP3     14501    TIP3     OH2      OT      -0.834000       15.9994           0
     65948 TIP3     14501    TIP3     H1       HT       0.417000       1.00800           0
     65949 TIP3     14501    TIP3     H2       HT       0.417000       1.00800           0
     65950 TIP3     14502    TIP3     OH2      OT      -0.834000       15.9994           0
     65951 TIP3     14502    TIP3     H1       HT       0.417000       1.00800           0
     65952 TIP3     14502    TIP3     H2       HT       0.417000       1.00800           0
     65953 TIP3     14503    TIP3     OH2      OT      -0.834000       15.9994           0
     65954 TIP3     14503    TIP3     H1       HT       0.417000       1.00800           0
     65955 TIP3     14503    TIP3     H2       HT       0.417000       1.00800           0
     65956 TIP3     14504    TIP3     OH2      OT      -0.834000       15.9994           0
     65957 TIP3     14504    TIP3     H1       HT       0.417000       1.00800           0
     65958 TIP3     14504    TIP3     H2       HT       0.417000       1.00800           0
     65959 TIP3     14505    TIP3     OH2      OT      -0.834000       15.9994           0
     65960 TIP3     14505    TIP3     H1       HT       0.417000       1.00800           0
     65961 TIP3     14505    TIP3     H2       HT       0.417000       1.00800           0
     65962 TIP3     14506    TIP3     OH2      OT      -0.834000       15.9994           0
     65963 TIP3     14506    TIP3     H1       HT       0.417000       1.00800           0
     65964 TIP3     14506    TIP3     H2       HT       0.417000       1.00800           0
     65965 TIP3     14507    TIP3     OH2      OT      -0.834000       15.9994           0
     65966 TIP3     14507    TIP3     H1       HT       0.417000       1.00800           0
     65967 TIP3     14507    TIP3     H2       HT       0.417000       1.00800           0
     65968 TIP3     14508    TIP3     OH2      OT      -0.834000       15.9994           0
     65969 TIP3     14508    TIP3     H1       HT       0.417000       1.00800           0
     65970 TIP3     14508    TIP3     H2       HT       0.417000       1.00800           0
     65971 TIP3     14509    TIP3     OH2      OT      -0.834000       15.9994           0
     65972 TIP3     14509    TIP3     H1       HT       0.417000       1.00800           0
     65973 TIP3     14509    TIP3     H2       HT       0.417000       1.00800           0
     65974 TIP3     14510    TIP3     OH2      OT      -0.834000       15.9994           0
     65975 TIP3     14510    TIP3     H1       HT       0.417000       1.00800           0
     65976 TIP3     14510    TIP3     H2       HT       0.417000       1.00800           0
     65977 TIP3     14511    TIP3     OH2      OT      -0.834000       15.9994           0
     65978 TIP3     14511    TIP3     H1       HT       0.417000       1.00800           0
     65979 TIP3     14511    TIP3     H2       HT       0.417000       1.00800           0
     65980 TIP3     14512    TIP3     OH2      OT      -0.834000       15.9994           0
     65981 TIP3     14512    TIP3     H1       HT       0.417000       1.00800           0
     65982 TIP3     14512    TIP3     H2       HT       0.417000       1.00800           0
     65983 TIP3     14513    TIP3     OH2      OT      -0.834000       15.9994           0
     65984 TIP3     14513    TIP3     H1       HT       0.417000       1.00800           0
     65985 TIP3     14513    TIP3     H2       HT       0.417000       1.00800           0
     65986 TIP3     14514    TIP3     OH2      OT      -0.834000       15.9994           0
     65987 TIP3     14514    TIP3     H1       HT       0.417000       1.00800           0
     65988 TIP3     14514    TIP3     H2       HT       0.417000       1.00800           0
     65989 TIP3     14515    TIP3     OH2      OT      -0.834000       15.9994           0
     65990 TIP3     14515    TIP3     H1       HT       0.417000       1.00800           0
     65991 TIP3     14515    TIP3     H2       HT       0.417000       1.00800           0
     65992 TIP3     14516    TIP3     OH2      OT      -0.834000       15.9994           0
     65993 TIP3     14516    TIP3     H1       HT       0.417000       1.00800           0
     65994 TIP3     14516    TIP3     H2       HT       0.417000       1.00800           0
     65995 TIP3     14517    TIP3     OH2      OT      -0.834000       15.9994           0
     65996 TIP3     14517    TIP3     H1       HT       0.417000       1.00800           0
     65997 TIP3     14517    TIP3     H2       HT       0.417000       1.00800           0
     65998 TIP3     14518    TIP3     OH2      OT      -0.834000       15.9994           0
     65999 TIP3     14518    TIP3     H1       HT       0.417000       1.00800           0
     66000 TIP3     14518    TIP3     H2       HT       0.417000       1.00800           0
     66001 TIP3     14519    TIP3     OH2      OT      -0.834000       15.9994           0
     66002 TIP3     14519    TIP3     H1       HT       0.417000       1.00800           0
     66003 TIP3     14519    TIP3     H2       HT       0.417000       1.00800           0
     66004 TIP3     14520    TIP3     OH2      OT      -0.834000       15.9994           0
     66005 TIP3     14520    TIP3     H1       HT       0.417000       1.00800           0
     66006 TIP3     14520    TIP3     H2       HT       0.417000       1.00800           0
     66007 TIP3     14521    TIP3     OH2      OT      -0.834000       15.9994           0
     66008 TIP3     14521    TIP3     H1       HT       0.417000       1.00800           0
     66009 TIP3     14521    TIP3     H2       HT       0.417000       1.00800           0
     66010 TIP3     14522    TIP3     OH2      OT      -0.834000       15.9994           0
     66011 TIP3     14522    TIP3     H1       HT       0.417000       1.00800           0
     66012 TIP3     14522    TIP3     H2       HT       0.417000       1.00800           0
     66013 TIP3     14523    TIP3     OH2      OT      -0.834000       15.9994           0
     66014 TIP3     14523    TIP3     H1       HT       0.417000       1.00800           0
     66015 TIP3     14523    TIP3     H2       HT       0.417000       1.00800           0
     66016 TIP3     14524    TIP3     OH2      OT      -0.834000       15.9994           0
     66017 TIP3     14524    TIP3     H1       HT       0.417000       1.00800           0
     66018 TIP3     14524    TIP3     H2       HT       0.417000       1.00800           0
     66019 TIP3     14525    TIP3     OH2      OT      -0.834000       15.9994           0
     66020 TIP3     14525    TIP3     H1       HT       0.417000       1.00800           0
     66021 TIP3     14525    TIP3     H2       HT       0.417000       1.00800           0
     66022 TIP3     14526    TIP3     OH2      OT      -0.834000       15.9994           0
     66023 TIP3     14526    TIP3     H1       HT       0.417000       1.00800           0
     66024 TIP3     14526    TIP3     H2       HT       0.417000       1.00800           0
     66025 TIP3     14527    TIP3     OH2      OT      -0.834000       15.9994           0
     66026 TIP3     14527    TIP3     H1       HT       0.417000       1.00800           0
     66027 TIP3     14527    TIP3     H2       HT       0.417000       1.00800           0
     66028 TIP3     14528    TIP3     OH2      OT      -0.834000       15.9994           0
     66029 TIP3     14528    TIP3     H1       HT       0.417000       1.00800           0
     66030 TIP3     14528    TIP3     H2       HT       0.417000       1.00800           0
     66031 TIP3     14529    TIP3     OH2      OT      -0.834000       15.9994           0
     66032 TIP3     14529    TIP3     H1       HT       0.417000       1.00800           0
     66033 TIP3     14529    TIP3     H2       HT       0.417000       1.00800           0
     66034 TIP3     14530    TIP3     OH2      OT      -0.834000       15.9994           0
     66035 TIP3     14530    TIP3     H1       HT       0.417000       1.00800           0
     66036 TIP3     14530    TIP3     H2       HT       0.417000       1.00800           0
     66037 TIP3     14531    TIP3     OH2      OT      -0.834000       15.9994           0
     66038 TIP3     14531    TIP3     H1       HT       0.417000       1.00800           0
     66039 TIP3     14531    TIP3     H2       HT       0.417000       1.00800           0
     66040 TIP3     14532    TIP3     OH2      OT      -0.834000       15.9994           0
     66041 TIP3     14532    TIP3     H1       HT       0.417000       1.00800           0
     66042 TIP3     14532    TIP3     H2       HT       0.417000       1.00800           0
     66043 TIP3     14533    TIP3     OH2      OT      -0.834000       15.9994           0
     66044 TIP3     14533    TIP3     H1       HT       0.417000       1.00800           0
     66045 TIP3     14533    TIP3     H2       HT       0.417000       1.00800           0
     66046 TIP3     14534    TIP3     OH2      OT      -0.834000       15.9994           0
     66047 TIP3     14534    TIP3     H1       HT       0.417000       1.00800           0
     66048 TIP3     14534    TIP3     H2       HT       0.417000       1.00800           0
     66049 TIP3     14535    TIP3     OH2      OT      -0.834000       15.9994           0
     66050 TIP3     14535    TIP3     H1       HT       0.417000       1.00800           0
     66051 TIP3     14535    TIP3     H2       HT       0.417000       1.00800           0
     66052 TIP3     14536    TIP3     OH2      OT      -0.834000       15.9994           0
     66053 TIP3     14536    TIP3     H1       HT       0.417000       1.00800           0
     66054 TIP3     14536    TIP3     H2       HT       0.417000       1.00800           0
     66055 TIP3     14537    TIP3     OH2      OT      -0.834000       15.9994           0
     66056 TIP3     14537    TIP3     H1       HT       0.417000       1.00800           0
     66057 TIP3     14537    TIP3     H2       HT       0.417000       1.00800           0
     66058 TIP3     14538    TIP3     OH2      OT      -0.834000       15.9994           0
     66059 TIP3     14538    TIP3     H1       HT       0.417000       1.00800           0
     66060 TIP3     14538    TIP3     H2       HT       0.417000       1.00800           0
     66061 TIP3     14539    TIP3     OH2      OT      -0.834000       15.9994           0
     66062 TIP3     14539    TIP3     H1       HT       0.417000       1.00800           0
     66063 TIP3     14539    TIP3     H2       HT       0.417000       1.00800           0
     66064 TIP3     14540    TIP3     OH2      OT      -0.834000       15.9994           0
     66065 TIP3     14540    TIP3     H1       HT       0.417000       1.00800           0
     66066 TIP3     14540    TIP3     H2       HT       0.417000       1.00800           0
     66067 TIP3     14541    TIP3     OH2      OT      -0.834000       15.9994           0
     66068 TIP3     14541    TIP3     H1       HT       0.417000       1.00800           0
     66069 TIP3     14541    TIP3     H2       HT       0.417000       1.00800           0
     66070 TIP3     14542    TIP3     OH2      OT      -0.834000       15.9994           0
     66071 TIP3     14542    TIP3     H1       HT       0.417000       1.00800           0
     66072 TIP3     14542    TIP3     H2       HT       0.417000       1.00800           0
     66073 TIP3     14543    TIP3     OH2      OT      -0.834000       15.9994           0
     66074 TIP3     14543    TIP3     H1       HT       0.417000       1.00800           0
     66075 TIP3     14543    TIP3     H2       HT       0.417000       1.00800           0
     66076 TIP3     14544    TIP3     OH2      OT      -0.834000       15.9994           0
     66077 TIP3     14544    TIP3     H1       HT       0.417000       1.00800           0
     66078 TIP3     14544    TIP3     H2       HT       0.417000       1.00800           0
     66079 TIP3     14545    TIP3     OH2      OT      -0.834000       15.9994           0
     66080 TIP3     14545    TIP3     H1       HT       0.417000       1.00800           0
     66081 TIP3     14545    TIP3     H2       HT       0.417000       1.00800           0
     66082 TIP3     14546    TIP3     OH2      OT      -0.834000       15.9994           0
     66083 TIP3     14546    TIP3     H1       HT       0.417000       1.00800           0
     66084 TIP3     14546    TIP3     H2       HT       0.417000       1.00800           0
     66085 TIP3     14547    TIP3     OH2      OT      -0.834000       15.9994           0
     66086 TIP3     14547    TIP3     H1       HT       0.417000       1.00800           0
     66087 TIP3     14547    TIP3     H2       HT       0.417000       1.00800           0
     66088 TIP3     14548    TIP3     OH2      OT      -0.834000       15.9994           0
     66089 TIP3     14548    TIP3     H1       HT       0.417000       1.00800           0
     66090 TIP3     14548    TIP3     H2       HT       0.417000       1.00800           0
     66091 TIP3     14549    TIP3     OH2      OT      -0.834000       15.9994           0
     66092 TIP3     14549    TIP3     H1       HT       0.417000       1.00800           0
     66093 TIP3     14549    TIP3     H2       HT       0.417000       1.00800           0
     66094 TIP3     14550    TIP3     OH2      OT      -0.834000       15.9994           0
     66095 TIP3     14550    TIP3     H1       HT       0.417000       1.00800           0
     66096 TIP3     14550    TIP3     H2       HT       0.417000       1.00800           0
     66097 TIP3     14551    TIP3     OH2      OT      -0.834000       15.9994           0
     66098 TIP3     14551    TIP3     H1       HT       0.417000       1.00800           0
     66099 TIP3     14551    TIP3     H2       HT       0.417000       1.00800           0
     66100 TIP3     14552    TIP3     OH2      OT      -0.834000       15.9994           0
     66101 TIP3     14552    TIP3     H1       HT       0.417000       1.00800           0
     66102 TIP3     14552    TIP3     H2       HT       0.417000       1.00800           0
     66103 TIP3     14553    TIP3     OH2      OT      -0.834000       15.9994           0
     66104 TIP3     14553    TIP3     H1       HT       0.417000       1.00800           0
     66105 TIP3     14553    TIP3     H2       HT       0.417000       1.00800           0
     66106 TIP3     14554    TIP3     OH2      OT      -0.834000       15.9994           0
     66107 TIP3     14554    TIP3     H1       HT       0.417000       1.00800           0
     66108 TIP3     14554    TIP3     H2       HT       0.417000       1.00800           0
     66109 TIP3     14555    TIP3     OH2      OT      -0.834000       15.9994           0
     66110 TIP3     14555    TIP3     H1       HT       0.417000       1.00800           0
     66111 TIP3     14555    TIP3     H2       HT       0.417000       1.00800           0
     66112 TIP3     14556    TIP3     OH2      OT      -0.834000       15.9994           0
     66113 TIP3     14556    TIP3     H1       HT       0.417000       1.00800           0
     66114 TIP3     14556    TIP3     H2       HT       0.417000       1.00800           0
     66115 TIP3     14557    TIP3     OH2      OT      -0.834000       15.9994           0
     66116 TIP3     14557    TIP3     H1       HT       0.417000       1.00800           0
     66117 TIP3     14557    TIP3     H2       HT       0.417000       1.00800           0
     66118 TIP3     14558    TIP3     OH2      OT      -0.834000       15.9994           0
     66119 TIP3     14558    TIP3     H1       HT       0.417000       1.00800           0
     66120 TIP3     14558    TIP3     H2       HT       0.417000       1.00800           0
     66121 TIP3     14559    TIP3     OH2      OT      -0.834000       15.9994           0
     66122 TIP3     14559    TIP3     H1       HT       0.417000       1.00800           0
     66123 TIP3     14559    TIP3     H2       HT       0.417000       1.00800           0
     66124 TIP3     14560    TIP3     OH2      OT      -0.834000       15.9994           0
     66125 TIP3     14560    TIP3     H1       HT       0.417000       1.00800           0
     66126 TIP3     14560    TIP3     H2       HT       0.417000       1.00800           0
     66127 TIP3     14561    TIP3     OH2      OT      -0.834000       15.9994           0
     66128 TIP3     14561    TIP3     H1       HT       0.417000       1.00800           0
     66129 TIP3     14561    TIP3     H2       HT       0.417000       1.00800           0
     66130 TIP3     14562    TIP3     OH2      OT      -0.834000       15.9994           0
     66131 TIP3     14562    TIP3     H1       HT       0.417000       1.00800           0
     66132 TIP3     14562    TIP3     H2       HT       0.417000       1.00800           0
     66133 TIP3     14563    TIP3     OH2      OT      -0.834000       15.9994           0
     66134 TIP3     14563    TIP3     H1       HT       0.417000       1.00800           0
     66135 TIP3     14563    TIP3     H2       HT       0.417000       1.00800           0
     66136 TIP3     14564    TIP3     OH2      OT      -0.834000       15.9994           0
     66137 TIP3     14564    TIP3     H1       HT       0.417000       1.00800           0
     66138 TIP3     14564    TIP3     H2       HT       0.417000       1.00800           0
     66139 TIP3     14565    TIP3     OH2      OT      -0.834000       15.9994           0
     66140 TIP3     14565    TIP3     H1       HT       0.417000       1.00800           0
     66141 TIP3     14565    TIP3     H2       HT       0.417000       1.00800           0
     66142 TIP3     14566    TIP3     OH2      OT      -0.834000       15.9994           0
     66143 TIP3     14566    TIP3     H1       HT       0.417000       1.00800           0
     66144 TIP3     14566    TIP3     H2       HT       0.417000       1.00800           0
     66145 TIP3     14567    TIP3     OH2      OT      -0.834000       15.9994           0
     66146 TIP3     14567    TIP3     H1       HT       0.417000       1.00800           0
     66147 TIP3     14567    TIP3     H2       HT       0.417000       1.00800           0
     66148 TIP3     14568    TIP3     OH2      OT      -0.834000       15.9994           0
     66149 TIP3     14568    TIP3     H1       HT       0.417000       1.00800           0
     66150 TIP3     14568    TIP3     H2       HT       0.417000       1.00800           0
     66151 TIP3     14569    TIP3     OH2      OT      -0.834000       15.9994           0
     66152 TIP3     14569    TIP3     H1       HT       0.417000       1.00800           0
     66153 TIP3     14569    TIP3     H2       HT       0.417000       1.00800           0
     66154 TIP3     14570    TIP3     OH2      OT      -0.834000       15.9994           0
     66155 TIP3     14570    TIP3     H1       HT       0.417000       1.00800           0
     66156 TIP3     14570    TIP3     H2       HT       0.417000       1.00800           0
     66157 TIP3     14571    TIP3     OH2      OT      -0.834000       15.9994           0
     66158 TIP3     14571    TIP3     H1       HT       0.417000       1.00800           0
     66159 TIP3     14571    TIP3     H2       HT       0.417000       1.00800           0
     66160 TIP3     14572    TIP3     OH2      OT      -0.834000       15.9994           0
     66161 TIP3     14572    TIP3     H1       HT       0.417000       1.00800           0
     66162 TIP3     14572    TIP3     H2       HT       0.417000       1.00800           0
     66163 TIP3     14573    TIP3     OH2      OT      -0.834000       15.9994           0
     66164 TIP3     14573    TIP3     H1       HT       0.417000       1.00800           0
     66165 TIP3     14573    TIP3     H2       HT       0.417000       1.00800           0
     66166 TIP3     14574    TIP3     OH2      OT      -0.834000       15.9994           0
     66167 TIP3     14574    TIP3     H1       HT       0.417000       1.00800           0
     66168 TIP3     14574    TIP3     H2       HT       0.417000       1.00800           0
     66169 TIP3     14575    TIP3     OH2      OT      -0.834000       15.9994           0
     66170 TIP3     14575    TIP3     H1       HT       0.417000       1.00800           0
     66171 TIP3     14575    TIP3     H2       HT       0.417000       1.00800           0
     66172 TIP3     14576    TIP3     OH2      OT      -0.834000       15.9994           0
     66173 TIP3     14576    TIP3     H1       HT       0.417000       1.00800           0
     66174 TIP3     14576    TIP3     H2       HT       0.417000       1.00800           0
     66175 TIP3     14577    TIP3     OH2      OT      -0.834000       15.9994           0
     66176 TIP3     14577    TIP3     H1       HT       0.417000       1.00800           0
     66177 TIP3     14577    TIP3     H2       HT       0.417000       1.00800           0
     66178 TIP3     14578    TIP3     OH2      OT      -0.834000       15.9994           0
     66179 TIP3     14578    TIP3     H1       HT       0.417000       1.00800           0
     66180 TIP3     14578    TIP3     H2       HT       0.417000       1.00800           0
     66181 TIP3     14579    TIP3     OH2      OT      -0.834000       15.9994           0
     66182 TIP3     14579    TIP3     H1       HT       0.417000       1.00800           0
     66183 TIP3     14579    TIP3     H2       HT       0.417000       1.00800           0
     66184 TIP3     14580    TIP3     OH2      OT      -0.834000       15.9994           0
     66185 TIP3     14580    TIP3     H1       HT       0.417000       1.00800           0
     66186 TIP3     14580    TIP3     H2       HT       0.417000       1.00800           0
     66187 TIP3     14581    TIP3     OH2      OT      -0.834000       15.9994           0
     66188 TIP3     14581    TIP3     H1       HT       0.417000       1.00800           0
     66189 TIP3     14581    TIP3     H2       HT       0.417000       1.00800           0
     66190 TIP3     14582    TIP3     OH2      OT      -0.834000       15.9994           0
     66191 TIP3     14582    TIP3     H1       HT       0.417000       1.00800           0
     66192 TIP3     14582    TIP3     H2       HT       0.417000       1.00800           0
     66193 TIP3     14583    TIP3     OH2      OT      -0.834000       15.9994           0
     66194 TIP3     14583    TIP3     H1       HT       0.417000       1.00800           0
     66195 TIP3     14583    TIP3     H2       HT       0.417000       1.00800           0
     66196 TIP3     14584    TIP3     OH2      OT      -0.834000       15.9994           0
     66197 TIP3     14584    TIP3     H1       HT       0.417000       1.00800           0
     66198 TIP3     14584    TIP3     H2       HT       0.417000       1.00800           0
     66199 TIP3     14585    TIP3     OH2      OT      -0.834000       15.9994           0
     66200 TIP3     14585    TIP3     H1       HT       0.417000       1.00800           0
     66201 TIP3     14585    TIP3     H2       HT       0.417000       1.00800           0
     66202 TIP3     14586    TIP3     OH2      OT      -0.834000       15.9994           0
     66203 TIP3     14586    TIP3     H1       HT       0.417000       1.00800           0
     66204 TIP3     14586    TIP3     H2       HT       0.417000       1.00800           0
     66205 TIP3     14587    TIP3     OH2      OT      -0.834000       15.9994           0
     66206 TIP3     14587    TIP3     H1       HT       0.417000       1.00800           0
     66207 TIP3     14587    TIP3     H2       HT       0.417000       1.00800           0
     66208 TIP3     14588    TIP3     OH2      OT      -0.834000       15.9994           0
     66209 TIP3     14588    TIP3     H1       HT       0.417000       1.00800           0
     66210 TIP3     14588    TIP3     H2       HT       0.417000       1.00800           0
     66211 TIP3     14589    TIP3     OH2      OT      -0.834000       15.9994           0
     66212 TIP3     14589    TIP3     H1       HT       0.417000       1.00800           0
     66213 TIP3     14589    TIP3     H2       HT       0.417000       1.00800           0
     66214 TIP3     14590    TIP3     OH2      OT      -0.834000       15.9994           0
     66215 TIP3     14590    TIP3     H1       HT       0.417000       1.00800           0
     66216 TIP3     14590    TIP3     H2       HT       0.417000       1.00800           0
     66217 TIP3     14591    TIP3     OH2      OT      -0.834000       15.9994           0
     66218 TIP3     14591    TIP3     H1       HT       0.417000       1.00800           0
     66219 TIP3     14591    TIP3     H2       HT       0.417000       1.00800           0
     66220 TIP3     14592    TIP3     OH2      OT      -0.834000       15.9994           0
     66221 TIP3     14592    TIP3     H1       HT       0.417000       1.00800           0
     66222 TIP3     14592    TIP3     H2       HT       0.417000       1.00800           0
     66223 TIP3     14593    TIP3     OH2      OT      -0.834000       15.9994           0
     66224 TIP3     14593    TIP3     H1       HT       0.417000       1.00800           0
     66225 TIP3     14593    TIP3     H2       HT       0.417000       1.00800           0
     66226 TIP3     14594    TIP3     OH2      OT      -0.834000       15.9994           0
     66227 TIP3     14594    TIP3     H1       HT       0.417000       1.00800           0
     66228 TIP3     14594    TIP3     H2       HT       0.417000       1.00800           0
     66229 TIP3     14595    TIP3     OH2      OT      -0.834000       15.9994           0
     66230 TIP3     14595    TIP3     H1       HT       0.417000       1.00800           0
     66231 TIP3     14595    TIP3     H2       HT       0.417000       1.00800           0
     66232 TIP3     14596    TIP3     OH2      OT      -0.834000       15.9994           0
     66233 TIP3     14596    TIP3     H1       HT       0.417000       1.00800           0
     66234 TIP3     14596    TIP3     H2       HT       0.417000       1.00800           0
     66235 TIP3     14597    TIP3     OH2      OT      -0.834000       15.9994           0
     66236 TIP3     14597    TIP3     H1       HT       0.417000       1.00800           0
     66237 TIP3     14597    TIP3     H2       HT       0.417000       1.00800           0
     66238 TIP3     14598    TIP3     OH2      OT      -0.834000       15.9994           0
     66239 TIP3     14598    TIP3     H1       HT       0.417000       1.00800           0
     66240 TIP3     14598    TIP3     H2       HT       0.417000       1.00800           0
     66241 TIP3     14599    TIP3     OH2      OT      -0.834000       15.9994           0
     66242 TIP3     14599    TIP3     H1       HT       0.417000       1.00800           0
     66243 TIP3     14599    TIP3     H2       HT       0.417000       1.00800           0
     66244 TIP3     14600    TIP3     OH2      OT      -0.834000       15.9994           0
     66245 TIP3     14600    TIP3     H1       HT       0.417000       1.00800           0
     66246 TIP3     14600    TIP3     H2       HT       0.417000       1.00800           0
     66247 TIP3     14601    TIP3     OH2      OT      -0.834000       15.9994           0
     66248 TIP3     14601    TIP3     H1       HT       0.417000       1.00800           0
     66249 TIP3     14601    TIP3     H2       HT       0.417000       1.00800           0
     66250 TIP3     14602    TIP3     OH2      OT      -0.834000       15.9994           0
     66251 TIP3     14602    TIP3     H1       HT       0.417000       1.00800           0
     66252 TIP3     14602    TIP3     H2       HT       0.417000       1.00800           0
     66253 TIP3     14603    TIP3     OH2      OT      -0.834000       15.9994           0
     66254 TIP3     14603    TIP3     H1       HT       0.417000       1.00800           0
     66255 TIP3     14603    TIP3     H2       HT       0.417000       1.00800           0
     66256 TIP3     14604    TIP3     OH2      OT      -0.834000       15.9994           0
     66257 TIP3     14604    TIP3     H1       HT       0.417000       1.00800           0
     66258 TIP3     14604    TIP3     H2       HT       0.417000       1.00800           0
     66259 TIP3     14605    TIP3     OH2      OT      -0.834000       15.9994           0
     66260 TIP3     14605    TIP3     H1       HT       0.417000       1.00800           0
     66261 TIP3     14605    TIP3     H2       HT       0.417000       1.00800           0
     66262 TIP3     14606    TIP3     OH2      OT      -0.834000       15.9994           0
     66263 TIP3     14606    TIP3     H1       HT       0.417000       1.00800           0
     66264 TIP3     14606    TIP3     H2       HT       0.417000       1.00800           0
     66265 TIP3     14607    TIP3     OH2      OT      -0.834000       15.9994           0
     66266 TIP3     14607    TIP3     H1       HT       0.417000       1.00800           0
     66267 TIP3     14607    TIP3     H2       HT       0.417000       1.00800           0
     66268 TIP3     14608    TIP3     OH2      OT      -0.834000       15.9994           0
     66269 TIP3     14608    TIP3     H1       HT       0.417000       1.00800           0
     66270 TIP3     14608    TIP3     H2       HT       0.417000       1.00800           0
     66271 TIP3     14609    TIP3     OH2      OT      -0.834000       15.9994           0
     66272 TIP3     14609    TIP3     H1       HT       0.417000       1.00800           0
     66273 TIP3     14609    TIP3     H2       HT       0.417000       1.00800           0
     66274 TIP3     14610    TIP3     OH2      OT      -0.834000       15.9994           0
     66275 TIP3     14610    TIP3     H1       HT       0.417000       1.00800           0
     66276 TIP3     14610    TIP3     H2       HT       0.417000       1.00800           0
     66277 TIP3     14611    TIP3     OH2      OT      -0.834000       15.9994           0
     66278 TIP3     14611    TIP3     H1       HT       0.417000       1.00800           0
     66279 TIP3     14611    TIP3     H2       HT       0.417000       1.00800           0
     66280 TIP3     14612    TIP3     OH2      OT      -0.834000       15.9994           0
     66281 TIP3     14612    TIP3     H1       HT       0.417000       1.00800           0
     66282 TIP3     14612    TIP3     H2       HT       0.417000       1.00800           0
     66283 TIP3     14613    TIP3     OH2      OT      -0.834000       15.9994           0
     66284 TIP3     14613    TIP3     H1       HT       0.417000       1.00800           0
     66285 TIP3     14613    TIP3     H2       HT       0.417000       1.00800           0
     66286 TIP3     14614    TIP3     OH2      OT      -0.834000       15.9994           0
     66287 TIP3     14614    TIP3     H1       HT       0.417000       1.00800           0
     66288 TIP3     14614    TIP3     H2       HT       0.417000       1.00800           0
     66289 TIP3     14615    TIP3     OH2      OT      -0.834000       15.9994           0
     66290 TIP3     14615    TIP3     H1       HT       0.417000       1.00800           0
     66291 TIP3     14615    TIP3     H2       HT       0.417000       1.00800           0
     66292 TIP3     14616    TIP3     OH2      OT      -0.834000       15.9994           0
     66293 TIP3     14616    TIP3     H1       HT       0.417000       1.00800           0
     66294 TIP3     14616    TIP3     H2       HT       0.417000       1.00800           0
     66295 TIP3     14617    TIP3     OH2      OT      -0.834000       15.9994           0
     66296 TIP3     14617    TIP3     H1       HT       0.417000       1.00800           0
     66297 TIP3     14617    TIP3     H2       HT       0.417000       1.00800           0
     66298 TIP3     14618    TIP3     OH2      OT      -0.834000       15.9994           0
     66299 TIP3     14618    TIP3     H1       HT       0.417000       1.00800           0
     66300 TIP3     14618    TIP3     H2       HT       0.417000       1.00800           0
     66301 TIP3     14619    TIP3     OH2      OT      -0.834000       15.9994           0
     66302 TIP3     14619    TIP3     H1       HT       0.417000       1.00800           0
     66303 TIP3     14619    TIP3     H2       HT       0.417000       1.00800           0
     66304 TIP3     14620    TIP3     OH2      OT      -0.834000       15.9994           0
     66305 TIP3     14620    TIP3     H1       HT       0.417000       1.00800           0
     66306 TIP3     14620    TIP3     H2       HT       0.417000       1.00800           0
     66307 TIP3     14621    TIP3     OH2      OT      -0.834000       15.9994           0
     66308 TIP3     14621    TIP3     H1       HT       0.417000       1.00800           0
     66309 TIP3     14621    TIP3     H2       HT       0.417000       1.00800           0
     66310 TIP3     14622    TIP3     OH2      OT      -0.834000       15.9994           0
     66311 TIP3     14622    TIP3     H1       HT       0.417000       1.00800           0
     66312 TIP3     14622    TIP3     H2       HT       0.417000       1.00800           0
     66313 TIP3     14623    TIP3     OH2      OT      -0.834000       15.9994           0
     66314 TIP3     14623    TIP3     H1       HT       0.417000       1.00800           0
     66315 TIP3     14623    TIP3     H2       HT       0.417000       1.00800           0
     66316 TIP3     14624    TIP3     OH2      OT      -0.834000       15.9994           0
     66317 TIP3     14624    TIP3     H1       HT       0.417000       1.00800           0
     66318 TIP3     14624    TIP3     H2       HT       0.417000       1.00800           0
     66319 TIP3     14625    TIP3     OH2      OT      -0.834000       15.9994           0
     66320 TIP3     14625    TIP3     H1       HT       0.417000       1.00800           0
     66321 TIP3     14625    TIP3     H2       HT       0.417000       1.00800           0
     66322 TIP3     14626    TIP3     OH2      OT      -0.834000       15.9994           0
     66323 TIP3     14626    TIP3     H1       HT       0.417000       1.00800           0
     66324 TIP3     14626    TIP3     H2       HT       0.417000       1.00800           0
     66325 TIP3     14627    TIP3     OH2      OT      -0.834000       15.9994           0
     66326 TIP3     14627    TIP3     H1       HT       0.417000       1.00800           0
     66327 TIP3     14627    TIP3     H2       HT       0.417000       1.00800           0
     66328 TIP3     14628    TIP3     OH2      OT      -0.834000       15.9994           0
     66329 TIP3     14628    TIP3     H1       HT       0.417000       1.00800           0
     66330 TIP3     14628    TIP3     H2       HT       0.417000       1.00800           0
     66331 TIP3     14629    TIP3     OH2      OT      -0.834000       15.9994           0
     66332 TIP3     14629    TIP3     H1       HT       0.417000       1.00800           0
     66333 TIP3     14629    TIP3     H2       HT       0.417000       1.00800           0
     66334 TIP3     14630    TIP3     OH2      OT      -0.834000       15.9994           0
     66335 TIP3     14630    TIP3     H1       HT       0.417000       1.00800           0
     66336 TIP3     14630    TIP3     H2       HT       0.417000       1.00800           0
     66337 TIP3     14631    TIP3     OH2      OT      -0.834000       15.9994           0
     66338 TIP3     14631    TIP3     H1       HT       0.417000       1.00800           0
     66339 TIP3     14631    TIP3     H2       HT       0.417000       1.00800           0
     66340 TIP3     14632    TIP3     OH2      OT      -0.834000       15.9994           0
     66341 TIP3     14632    TIP3     H1       HT       0.417000       1.00800           0
     66342 TIP3     14632    TIP3     H2       HT       0.417000       1.00800           0
     66343 TIP3     14633    TIP3     OH2      OT      -0.834000       15.9994           0
     66344 TIP3     14633    TIP3     H1       HT       0.417000       1.00800           0
     66345 TIP3     14633    TIP3     H2       HT       0.417000       1.00800           0
     66346 TIP3     14634    TIP3     OH2      OT      -0.834000       15.9994           0
     66347 TIP3     14634    TIP3     H1       HT       0.417000       1.00800           0
     66348 TIP3     14634    TIP3     H2       HT       0.417000       1.00800           0
     66349 TIP3     14635    TIP3     OH2      OT      -0.834000       15.9994           0
     66350 TIP3     14635    TIP3     H1       HT       0.417000       1.00800           0
     66351 TIP3     14635    TIP3     H2       HT       0.417000       1.00800           0
     66352 TIP3     14636    TIP3     OH2      OT      -0.834000       15.9994           0
     66353 TIP3     14636    TIP3     H1       HT       0.417000       1.00800           0
     66354 TIP3     14636    TIP3     H2       HT       0.417000       1.00800           0
     66355 TIP3     14637    TIP3     OH2      OT      -0.834000       15.9994           0
     66356 TIP3     14637    TIP3     H1       HT       0.417000       1.00800           0
     66357 TIP3     14637    TIP3     H2       HT       0.417000       1.00800           0
     66358 TIP3     14638    TIP3     OH2      OT      -0.834000       15.9994           0
     66359 TIP3     14638    TIP3     H1       HT       0.417000       1.00800           0
     66360 TIP3     14638    TIP3     H2       HT       0.417000       1.00800           0
     66361 TIP3     14639    TIP3     OH2      OT      -0.834000       15.9994           0
     66362 TIP3     14639    TIP3     H1       HT       0.417000       1.00800           0
     66363 TIP3     14639    TIP3     H2       HT       0.417000       1.00800           0
     66364 TIP3     14640    TIP3     OH2      OT      -0.834000       15.9994           0
     66365 TIP3     14640    TIP3     H1       HT       0.417000       1.00800           0
     66366 TIP3     14640    TIP3     H2       HT       0.417000       1.00800           0
     66367 TIP3     14641    TIP3     OH2      OT      -0.834000       15.9994           0
     66368 TIP3     14641    TIP3     H1       HT       0.417000       1.00800           0
     66369 TIP3     14641    TIP3     H2       HT       0.417000       1.00800           0
     66370 TIP3     14642    TIP3     OH2      OT      -0.834000       15.9994           0
     66371 TIP3     14642    TIP3     H1       HT       0.417000       1.00800           0
     66372 TIP3     14642    TIP3     H2       HT       0.417000       1.00800           0
     66373 TIP3     14643    TIP3     OH2      OT      -0.834000       15.9994           0
     66374 TIP3     14643    TIP3     H1       HT       0.417000       1.00800           0
     66375 TIP3     14643    TIP3     H2       HT       0.417000       1.00800           0
     66376 TIP3     14644    TIP3     OH2      OT      -0.834000       15.9994           0
     66377 TIP3     14644    TIP3     H1       HT       0.417000       1.00800           0
     66378 TIP3     14644    TIP3     H2       HT       0.417000       1.00800           0
     66379 TIP3     14645    TIP3     OH2      OT      -0.834000       15.9994           0
     66380 TIP3     14645    TIP3     H1       HT       0.417000       1.00800           0
     66381 TIP3     14645    TIP3     H2       HT       0.417000       1.00800           0
     66382 TIP3     14646    TIP3     OH2      OT      -0.834000       15.9994           0
     66383 TIP3     14646    TIP3     H1       HT       0.417000       1.00800           0
     66384 TIP3     14646    TIP3     H2       HT       0.417000       1.00800           0
     66385 TIP3     14647    TIP3     OH2      OT      -0.834000       15.9994           0
     66386 TIP3     14647    TIP3     H1       HT       0.417000       1.00800           0
     66387 TIP3     14647    TIP3     H2       HT       0.417000       1.00800           0
     66388 TIP3     14648    TIP3     OH2      OT      -0.834000       15.9994           0
     66389 TIP3     14648    TIP3     H1       HT       0.417000       1.00800           0
     66390 TIP3     14648    TIP3     H2       HT       0.417000       1.00800           0
     66391 TIP3     14649    TIP3     OH2      OT      -0.834000       15.9994           0
     66392 TIP3     14649    TIP3     H1       HT       0.417000       1.00800           0
     66393 TIP3     14649    TIP3     H2       HT       0.417000       1.00800           0
     66394 TIP3     14650    TIP3     OH2      OT      -0.834000       15.9994           0
     66395 TIP3     14650    TIP3     H1       HT       0.417000       1.00800           0
     66396 TIP3     14650    TIP3     H2       HT       0.417000       1.00800           0
     66397 TIP3     14651    TIP3     OH2      OT      -0.834000       15.9994           0
     66398 TIP3     14651    TIP3     H1       HT       0.417000       1.00800           0
     66399 TIP3     14651    TIP3     H2       HT       0.417000       1.00800           0
     66400 TIP3     14652    TIP3     OH2      OT      -0.834000       15.9994           0
     66401 TIP3     14652    TIP3     H1       HT       0.417000       1.00800           0
     66402 TIP3     14652    TIP3     H2       HT       0.417000       1.00800           0
     66403 TIP3     14653    TIP3     OH2      OT      -0.834000       15.9994           0
     66404 TIP3     14653    TIP3     H1       HT       0.417000       1.00800           0
     66405 TIP3     14653    TIP3     H2       HT       0.417000       1.00800           0
     66406 TIP3     14654    TIP3     OH2      OT      -0.834000       15.9994           0
     66407 TIP3     14654    TIP3     H1       HT       0.417000       1.00800           0
     66408 TIP3     14654    TIP3     H2       HT       0.417000       1.00800           0
     66409 TIP3     14655    TIP3     OH2      OT      -0.834000       15.9994           0
     66410 TIP3     14655    TIP3     H1       HT       0.417000       1.00800           0
     66411 TIP3     14655    TIP3     H2       HT       0.417000       1.00800           0
     66412 TIP3     14656    TIP3     OH2      OT      -0.834000       15.9994           0
     66413 TIP3     14656    TIP3     H1       HT       0.417000       1.00800           0
     66414 TIP3     14656    TIP3     H2       HT       0.417000       1.00800           0
     66415 TIP3     14657    TIP3     OH2      OT      -0.834000       15.9994           0
     66416 TIP3     14657    TIP3     H1       HT       0.417000       1.00800           0
     66417 TIP3     14657    TIP3     H2       HT       0.417000       1.00800           0
     66418 TIP3     14658    TIP3     OH2      OT      -0.834000       15.9994           0
     66419 TIP3     14658    TIP3     H1       HT       0.417000       1.00800           0
     66420 TIP3     14658    TIP3     H2       HT       0.417000       1.00800           0
     66421 TIP3     14659    TIP3     OH2      OT      -0.834000       15.9994           0
     66422 TIP3     14659    TIP3     H1       HT       0.417000       1.00800           0
     66423 TIP3     14659    TIP3     H2       HT       0.417000       1.00800           0
     66424 TIP3     14660    TIP3     OH2      OT      -0.834000       15.9994           0
     66425 TIP3     14660    TIP3     H1       HT       0.417000       1.00800           0
     66426 TIP3     14660    TIP3     H2       HT       0.417000       1.00800           0
     66427 TIP3     14661    TIP3     OH2      OT      -0.834000       15.9994           0
     66428 TIP3     14661    TIP3     H1       HT       0.417000       1.00800           0
     66429 TIP3     14661    TIP3     H2       HT       0.417000       1.00800           0
     66430 TIP3     14662    TIP3     OH2      OT      -0.834000       15.9994           0
     66431 TIP3     14662    TIP3     H1       HT       0.417000       1.00800           0
     66432 TIP3     14662    TIP3     H2       HT       0.417000       1.00800           0
     66433 TIP3     14663    TIP3     OH2      OT      -0.834000       15.9994           0
     66434 TIP3     14663    TIP3     H1       HT       0.417000       1.00800           0
     66435 TIP3     14663    TIP3     H2       HT       0.417000       1.00800           0
     66436 TIP3     14664    TIP3     OH2      OT      -0.834000       15.9994           0
     66437 TIP3     14664    TIP3     H1       HT       0.417000       1.00800           0
     66438 TIP3     14664    TIP3     H2       HT       0.417000       1.00800           0
     66439 TIP3     14665    TIP3     OH2      OT      -0.834000       15.9994           0
     66440 TIP3     14665    TIP3     H1       HT       0.417000       1.00800           0
     66441 TIP3     14665    TIP3     H2       HT       0.417000       1.00800           0
     66442 TIP3     14666    TIP3     OH2      OT      -0.834000       15.9994           0
     66443 TIP3     14666    TIP3     H1       HT       0.417000       1.00800           0
     66444 TIP3     14666    TIP3     H2       HT       0.417000       1.00800           0
     66445 TIP3     14667    TIP3     OH2      OT      -0.834000       15.9994           0
     66446 TIP3     14667    TIP3     H1       HT       0.417000       1.00800           0
     66447 TIP3     14667    TIP3     H2       HT       0.417000       1.00800           0
     66448 TIP3     14668    TIP3     OH2      OT      -0.834000       15.9994           0
     66449 TIP3     14668    TIP3     H1       HT       0.417000       1.00800           0
     66450 TIP3     14668    TIP3     H2       HT       0.417000       1.00800           0
     66451 TIP3     14669    TIP3     OH2      OT      -0.834000       15.9994           0
     66452 TIP3     14669    TIP3     H1       HT       0.417000       1.00800           0
     66453 TIP3     14669    TIP3     H2       HT       0.417000       1.00800           0
     66454 TIP3     14670    TIP3     OH2      OT      -0.834000       15.9994           0
     66455 TIP3     14670    TIP3     H1       HT       0.417000       1.00800           0
     66456 TIP3     14670    TIP3     H2       HT       0.417000       1.00800           0
     66457 TIP3     14671    TIP3     OH2      OT      -0.834000       15.9994           0
     66458 TIP3     14671    TIP3     H1       HT       0.417000       1.00800           0
     66459 TIP3     14671    TIP3     H2       HT       0.417000       1.00800           0
     66460 TIP3     14672    TIP3     OH2      OT      -0.834000       15.9994           0
     66461 TIP3     14672    TIP3     H1       HT       0.417000       1.00800           0
     66462 TIP3     14672    TIP3     H2       HT       0.417000       1.00800           0
     66463 TIP3     14673    TIP3     OH2      OT      -0.834000       15.9994           0
     66464 TIP3     14673    TIP3     H1       HT       0.417000       1.00800           0
     66465 TIP3     14673    TIP3     H2       HT       0.417000       1.00800           0
     66466 TIP3     14674    TIP3     OH2      OT      -0.834000       15.9994           0
     66467 TIP3     14674    TIP3     H1       HT       0.417000       1.00800           0
     66468 TIP3     14674    TIP3     H2       HT       0.417000       1.00800           0
     66469 TIP3     14675    TIP3     OH2      OT      -0.834000       15.9994           0
     66470 TIP3     14675    TIP3     H1       HT       0.417000       1.00800           0
     66471 TIP3     14675    TIP3     H2       HT       0.417000       1.00800           0
     66472 TIP3     14676    TIP3     OH2      OT      -0.834000       15.9994           0
     66473 TIP3     14676    TIP3     H1       HT       0.417000       1.00800           0
     66474 TIP3     14676    TIP3     H2       HT       0.417000       1.00800           0
     66475 TIP3     14677    TIP3     OH2      OT      -0.834000       15.9994           0
     66476 TIP3     14677    TIP3     H1       HT       0.417000       1.00800           0
     66477 TIP3     14677    TIP3     H2       HT       0.417000       1.00800           0
     66478 TIP3     14678    TIP3     OH2      OT      -0.834000       15.9994           0
     66479 TIP3     14678    TIP3     H1       HT       0.417000       1.00800           0
     66480 TIP3     14678    TIP3     H2       HT       0.417000       1.00800           0
     66481 TIP3     14679    TIP3     OH2      OT      -0.834000       15.9994           0
     66482 TIP3     14679    TIP3     H1       HT       0.417000       1.00800           0
     66483 TIP3     14679    TIP3     H2       HT       0.417000       1.00800           0
     66484 TIP3     14680    TIP3     OH2      OT      -0.834000       15.9994           0
     66485 TIP3     14680    TIP3     H1       HT       0.417000       1.00800           0
     66486 TIP3     14680    TIP3     H2       HT       0.417000       1.00800           0
     66487 TIP3     14681    TIP3     OH2      OT      -0.834000       15.9994           0
     66488 TIP3     14681    TIP3     H1       HT       0.417000       1.00800           0
     66489 TIP3     14681    TIP3     H2       HT       0.417000       1.00800           0
     66490 TIP3     14682    TIP3     OH2      OT      -0.834000       15.9994           0
     66491 TIP3     14682    TIP3     H1       HT       0.417000       1.00800           0
     66492 TIP3     14682    TIP3     H2       HT       0.417000       1.00800           0
     66493 TIP3     14683    TIP3     OH2      OT      -0.834000       15.9994           0
     66494 TIP3     14683    TIP3     H1       HT       0.417000       1.00800           0
     66495 TIP3     14683    TIP3     H2       HT       0.417000       1.00800           0
     66496 TIP3     14684    TIP3     OH2      OT      -0.834000       15.9994           0
     66497 TIP3     14684    TIP3     H1       HT       0.417000       1.00800           0
     66498 TIP3     14684    TIP3     H2       HT       0.417000       1.00800           0
     66499 TIP3     14685    TIP3     OH2      OT      -0.834000       15.9994           0
     66500 TIP3     14685    TIP3     H1       HT       0.417000       1.00800           0
     66501 TIP3     14685    TIP3     H2       HT       0.417000       1.00800           0
     66502 TIP3     14686    TIP3     OH2      OT      -0.834000       15.9994           0
     66503 TIP3     14686    TIP3     H1       HT       0.417000       1.00800           0
     66504 TIP3     14686    TIP3     H2       HT       0.417000       1.00800           0
     66505 TIP3     14687    TIP3     OH2      OT      -0.834000       15.9994           0
     66506 TIP3     14687    TIP3     H1       HT       0.417000       1.00800           0
     66507 TIP3     14687    TIP3     H2       HT       0.417000       1.00800           0
     66508 TIP3     14688    TIP3     OH2      OT      -0.834000       15.9994           0
     66509 TIP3     14688    TIP3     H1       HT       0.417000       1.00800           0
     66510 TIP3     14688    TIP3     H2       HT       0.417000       1.00800           0
     66511 TIP3     14689    TIP3     OH2      OT      -0.834000       15.9994           0
     66512 TIP3     14689    TIP3     H1       HT       0.417000       1.00800           0
     66513 TIP3     14689    TIP3     H2       HT       0.417000       1.00800           0
     66514 TIP3     14690    TIP3     OH2      OT      -0.834000       15.9994           0
     66515 TIP3     14690    TIP3     H1       HT       0.417000       1.00800           0
     66516 TIP3     14690    TIP3     H2       HT       0.417000       1.00800           0
     66517 TIP3     14691    TIP3     OH2      OT      -0.834000       15.9994           0
     66518 TIP3     14691    TIP3     H1       HT       0.417000       1.00800           0
     66519 TIP3     14691    TIP3     H2       HT       0.417000       1.00800           0
     66520 TIP3     14692    TIP3     OH2      OT      -0.834000       15.9994           0
     66521 TIP3     14692    TIP3     H1       HT       0.417000       1.00800           0
     66522 TIP3     14692    TIP3     H2       HT       0.417000       1.00800           0
     66523 TIP3     14693    TIP3     OH2      OT      -0.834000       15.9994           0
     66524 TIP3     14693    TIP3     H1       HT       0.417000       1.00800           0
     66525 TIP3     14693    TIP3     H2       HT       0.417000       1.00800           0
     66526 TIP3     14694    TIP3     OH2      OT      -0.834000       15.9994           0
     66527 TIP3     14694    TIP3     H1       HT       0.417000       1.00800           0
     66528 TIP3     14694    TIP3     H2       HT       0.417000       1.00800           0
     66529 TIP3     14695    TIP3     OH2      OT      -0.834000       15.9994           0
     66530 TIP3     14695    TIP3     H1       HT       0.417000       1.00800           0
     66531 TIP3     14695    TIP3     H2       HT       0.417000       1.00800           0
     66532 TIP3     14696    TIP3     OH2      OT      -0.834000       15.9994           0
     66533 TIP3     14696    TIP3     H1       HT       0.417000       1.00800           0
     66534 TIP3     14696    TIP3     H2       HT       0.417000       1.00800           0
     66535 TIP3     14697    TIP3     OH2      OT      -0.834000       15.9994           0
     66536 TIP3     14697    TIP3     H1       HT       0.417000       1.00800           0
     66537 TIP3     14697    TIP3     H2       HT       0.417000       1.00800           0
     66538 TIP3     14698    TIP3     OH2      OT      -0.834000       15.9994           0
     66539 TIP3     14698    TIP3     H1       HT       0.417000       1.00800           0
     66540 TIP3     14698    TIP3     H2       HT       0.417000       1.00800           0
     66541 TIP3     14699    TIP3     OH2      OT      -0.834000       15.9994           0
     66542 TIP3     14699    TIP3     H1       HT       0.417000       1.00800           0
     66543 TIP3     14699    TIP3     H2       HT       0.417000       1.00800           0
     66544 TIP3     14700    TIP3     OH2      OT      -0.834000       15.9994           0
     66545 TIP3     14700    TIP3     H1       HT       0.417000       1.00800           0
     66546 TIP3     14700    TIP3     H2       HT       0.417000       1.00800           0
     66547 TIP3     14701    TIP3     OH2      OT      -0.834000       15.9994           0
     66548 TIP3     14701    TIP3     H1       HT       0.417000       1.00800           0
     66549 TIP3     14701    TIP3     H2       HT       0.417000       1.00800           0
     66550 TIP3     14702    TIP3     OH2      OT      -0.834000       15.9994           0
     66551 TIP3     14702    TIP3     H1       HT       0.417000       1.00800           0
     66552 TIP3     14702    TIP3     H2       HT       0.417000       1.00800           0
     66553 TIP3     14703    TIP3     OH2      OT      -0.834000       15.9994           0
     66554 TIP3     14703    TIP3     H1       HT       0.417000       1.00800           0
     66555 TIP3     14703    TIP3     H2       HT       0.417000       1.00800           0
     66556 TIP3     14704    TIP3     OH2      OT      -0.834000       15.9994           0
     66557 TIP3     14704    TIP3     H1       HT       0.417000       1.00800           0
     66558 TIP3     14704    TIP3     H2       HT       0.417000       1.00800           0
     66559 TIP3     14705    TIP3     OH2      OT      -0.834000       15.9994           0
     66560 TIP3     14705    TIP3     H1       HT       0.417000       1.00800           0
     66561 TIP3     14705    TIP3     H2       HT       0.417000       1.00800           0
     66562 TIP3     14706    TIP3     OH2      OT      -0.834000       15.9994           0
     66563 TIP3     14706    TIP3     H1       HT       0.417000       1.00800           0
     66564 TIP3     14706    TIP3     H2       HT       0.417000       1.00800           0
     66565 TIP3     14707    TIP3     OH2      OT      -0.834000       15.9994           0
     66566 TIP3     14707    TIP3     H1       HT       0.417000       1.00800           0
     66567 TIP3     14707    TIP3     H2       HT       0.417000       1.00800           0
     66568 TIP3     14708    TIP3     OH2      OT      -0.834000       15.9994           0
     66569 TIP3     14708    TIP3     H1       HT       0.417000       1.00800           0
     66570 TIP3     14708    TIP3     H2       HT       0.417000       1.00800           0
     66571 TIP3     14709    TIP3     OH2      OT      -0.834000       15.9994           0
     66572 TIP3     14709    TIP3     H1       HT       0.417000       1.00800           0
     66573 TIP3     14709    TIP3     H2       HT       0.417000       1.00800           0
     66574 TIP3     14710    TIP3     OH2      OT      -0.834000       15.9994           0
     66575 TIP3     14710    TIP3     H1       HT       0.417000       1.00800           0
     66576 TIP3     14710    TIP3     H2       HT       0.417000       1.00800           0
     66577 TIP3     14711    TIP3     OH2      OT      -0.834000       15.9994           0
     66578 TIP3     14711    TIP3     H1       HT       0.417000       1.00800           0
     66579 TIP3     14711    TIP3     H2       HT       0.417000       1.00800           0
     66580 TIP3     14712    TIP3     OH2      OT      -0.834000       15.9994           0
     66581 TIP3     14712    TIP3     H1       HT       0.417000       1.00800           0
     66582 TIP3     14712    TIP3     H2       HT       0.417000       1.00800           0
     66583 TIP3     14713    TIP3     OH2      OT      -0.834000       15.9994           0
     66584 TIP3     14713    TIP3     H1       HT       0.417000       1.00800           0
     66585 TIP3     14713    TIP3     H2       HT       0.417000       1.00800           0
     66586 TIP3     14714    TIP3     OH2      OT      -0.834000       15.9994           0
     66587 TIP3     14714    TIP3     H1       HT       0.417000       1.00800           0
     66588 TIP3     14714    TIP3     H2       HT       0.417000       1.00800           0
     66589 TIP3     14715    TIP3     OH2      OT      -0.834000       15.9994           0
     66590 TIP3     14715    TIP3     H1       HT       0.417000       1.00800           0
     66591 TIP3     14715    TIP3     H2       HT       0.417000       1.00800           0
     66592 TIP3     14716    TIP3     OH2      OT      -0.834000       15.9994           0
     66593 TIP3     14716    TIP3     H1       HT       0.417000       1.00800           0
     66594 TIP3     14716    TIP3     H2       HT       0.417000       1.00800           0
     66595 TIP3     14717    TIP3     OH2      OT      -0.834000       15.9994           0
     66596 TIP3     14717    TIP3     H1       HT       0.417000       1.00800           0
     66597 TIP3     14717    TIP3     H2       HT       0.417000       1.00800           0
     66598 TIP3     14718    TIP3     OH2      OT      -0.834000       15.9994           0
     66599 TIP3     14718    TIP3     H1       HT       0.417000       1.00800           0
     66600 TIP3     14718    TIP3     H2       HT       0.417000       1.00800           0
     66601 TIP3     14719    TIP3     OH2      OT      -0.834000       15.9994           0
     66602 TIP3     14719    TIP3     H1       HT       0.417000       1.00800           0
     66603 TIP3     14719    TIP3     H2       HT       0.417000       1.00800           0
     66604 TIP3     14720    TIP3     OH2      OT      -0.834000       15.9994           0
     66605 TIP3     14720    TIP3     H1       HT       0.417000       1.00800           0
     66606 TIP3     14720    TIP3     H2       HT       0.417000       1.00800           0
     66607 TIP3     14721    TIP3     OH2      OT      -0.834000       15.9994           0
     66608 TIP3     14721    TIP3     H1       HT       0.417000       1.00800           0
     66609 TIP3     14721    TIP3     H2       HT       0.417000       1.00800           0
     66610 TIP3     14722    TIP3     OH2      OT      -0.834000       15.9994           0
     66611 TIP3     14722    TIP3     H1       HT       0.417000       1.00800           0
     66612 TIP3     14722    TIP3     H2       HT       0.417000       1.00800           0
     66613 TIP3     14723    TIP3     OH2      OT      -0.834000       15.9994           0
     66614 TIP3     14723    TIP3     H1       HT       0.417000       1.00800           0
     66615 TIP3     14723    TIP3     H2       HT       0.417000       1.00800           0
     66616 TIP3     14724    TIP3     OH2      OT      -0.834000       15.9994           0
     66617 TIP3     14724    TIP3     H1       HT       0.417000       1.00800           0
     66618 TIP3     14724    TIP3     H2       HT       0.417000       1.00800           0
     66619 TIP3     14725    TIP3     OH2      OT      -0.834000       15.9994           0
     66620 TIP3     14725    TIP3     H1       HT       0.417000       1.00800           0
     66621 TIP3     14725    TIP3     H2       HT       0.417000       1.00800           0
     66622 TIP3     14726    TIP3     OH2      OT      -0.834000       15.9994           0
     66623 TIP3     14726    TIP3     H1       HT       0.417000       1.00800           0
     66624 TIP3     14726    TIP3     H2       HT       0.417000       1.00800           0
     66625 TIP3     14727    TIP3     OH2      OT      -0.834000       15.9994           0
     66626 TIP3     14727    TIP3     H1       HT       0.417000       1.00800           0
     66627 TIP3     14727    TIP3     H2       HT       0.417000       1.00800           0
     66628 TIP3     14728    TIP3     OH2      OT      -0.834000       15.9994           0
     66629 TIP3     14728    TIP3     H1       HT       0.417000       1.00800           0
     66630 TIP3     14728    TIP3     H2       HT       0.417000       1.00800           0
     66631 TIP3     14729    TIP3     OH2      OT      -0.834000       15.9994           0
     66632 TIP3     14729    TIP3     H1       HT       0.417000       1.00800           0
     66633 TIP3     14729    TIP3     H2       HT       0.417000       1.00800           0
     66634 TIP3     14730    TIP3     OH2      OT      -0.834000       15.9994           0
     66635 TIP3     14730    TIP3     H1       HT       0.417000       1.00800           0
     66636 TIP3     14730    TIP3     H2       HT       0.417000       1.00800           0
     66637 TIP3     14731    TIP3     OH2      OT      -0.834000       15.9994           0
     66638 TIP3     14731    TIP3     H1       HT       0.417000       1.00800           0
     66639 TIP3     14731    TIP3     H2       HT       0.417000       1.00800           0
     66640 TIP3     14732    TIP3     OH2      OT      -0.834000       15.9994           0
     66641 TIP3     14732    TIP3     H1       HT       0.417000       1.00800           0
     66642 TIP3     14732    TIP3     H2       HT       0.417000       1.00800           0
     66643 TIP3     14733    TIP3     OH2      OT      -0.834000       15.9994           0
     66644 TIP3     14733    TIP3     H1       HT       0.417000       1.00800           0
     66645 TIP3     14733    TIP3     H2       HT       0.417000       1.00800           0
     66646 TIP3     14734    TIP3     OH2      OT      -0.834000       15.9994           0
     66647 TIP3     14734    TIP3     H1       HT       0.417000       1.00800           0
     66648 TIP3     14734    TIP3     H2       HT       0.417000       1.00800           0
     66649 TIP3     14735    TIP3     OH2      OT      -0.834000       15.9994           0
     66650 TIP3     14735    TIP3     H1       HT       0.417000       1.00800           0
     66651 TIP3     14735    TIP3     H2       HT       0.417000       1.00800           0
     66652 TIP3     14736    TIP3     OH2      OT      -0.834000       15.9994           0
     66653 TIP3     14736    TIP3     H1       HT       0.417000       1.00800           0
     66654 TIP3     14736    TIP3     H2       HT       0.417000       1.00800           0
     66655 TIP3     14737    TIP3     OH2      OT      -0.834000       15.9994           0
     66656 TIP3     14737    TIP3     H1       HT       0.417000       1.00800           0
     66657 TIP3     14737    TIP3     H2       HT       0.417000       1.00800           0
     66658 TIP3     14738    TIP3     OH2      OT      -0.834000       15.9994           0
     66659 TIP3     14738    TIP3     H1       HT       0.417000       1.00800           0
     66660 TIP3     14738    TIP3     H2       HT       0.417000       1.00800           0
     66661 TIP3     14739    TIP3     OH2      OT      -0.834000       15.9994           0
     66662 TIP3     14739    TIP3     H1       HT       0.417000       1.00800           0
     66663 TIP3     14739    TIP3     H2       HT       0.417000       1.00800           0
     66664 TIP3     14740    TIP3     OH2      OT      -0.834000       15.9994           0
     66665 TIP3     14740    TIP3     H1       HT       0.417000       1.00800           0
     66666 TIP3     14740    TIP3     H2       HT       0.417000       1.00800           0
     66667 TIP3     14741    TIP3     OH2      OT      -0.834000       15.9994           0
     66668 TIP3     14741    TIP3     H1       HT       0.417000       1.00800           0
     66669 TIP3     14741    TIP3     H2       HT       0.417000       1.00800           0
     66670 TIP3     14742    TIP3     OH2      OT      -0.834000       15.9994           0
     66671 TIP3     14742    TIP3     H1       HT       0.417000       1.00800           0
     66672 TIP3     14742    TIP3     H2       HT       0.417000       1.00800           0
     66673 TIP3     14743    TIP3     OH2      OT      -0.834000       15.9994           0
     66674 TIP3     14743    TIP3     H1       HT       0.417000       1.00800           0
     66675 TIP3     14743    TIP3     H2       HT       0.417000       1.00800           0
     66676 TIP3     14744    TIP3     OH2      OT      -0.834000       15.9994           0
     66677 TIP3     14744    TIP3     H1       HT       0.417000       1.00800           0
     66678 TIP3     14744    TIP3     H2       HT       0.417000       1.00800           0
     66679 TIP3     14745    TIP3     OH2      OT      -0.834000       15.9994           0
     66680 TIP3     14745    TIP3     H1       HT       0.417000       1.00800           0
     66681 TIP3     14745    TIP3     H2       HT       0.417000       1.00800           0
     66682 TIP3     14746    TIP3     OH2      OT      -0.834000       15.9994           0
     66683 TIP3     14746    TIP3     H1       HT       0.417000       1.00800           0
     66684 TIP3     14746    TIP3     H2       HT       0.417000       1.00800           0
     66685 TIP3     14747    TIP3     OH2      OT      -0.834000       15.9994           0
     66686 TIP3     14747    TIP3     H1       HT       0.417000       1.00800           0
     66687 TIP3     14747    TIP3     H2       HT       0.417000       1.00800           0
     66688 TIP3     14748    TIP3     OH2      OT      -0.834000       15.9994           0
     66689 TIP3     14748    TIP3     H1       HT       0.417000       1.00800           0
     66690 TIP3     14748    TIP3     H2       HT       0.417000       1.00800           0
     66691 TIP3     14749    TIP3     OH2      OT      -0.834000       15.9994           0
     66692 TIP3     14749    TIP3     H1       HT       0.417000       1.00800           0
     66693 TIP3     14749    TIP3     H2       HT       0.417000       1.00800           0
     66694 TIP3     14750    TIP3     OH2      OT      -0.834000       15.9994           0
     66695 TIP3     14750    TIP3     H1       HT       0.417000       1.00800           0
     66696 TIP3     14750    TIP3     H2       HT       0.417000       1.00800           0
     66697 TIP3     14751    TIP3     OH2      OT      -0.834000       15.9994           0
     66698 TIP3     14751    TIP3     H1       HT       0.417000       1.00800           0
     66699 TIP3     14751    TIP3     H2       HT       0.417000       1.00800           0
     66700 TIP3     14752    TIP3     OH2      OT      -0.834000       15.9994           0
     66701 TIP3     14752    TIP3     H1       HT       0.417000       1.00800           0
     66702 TIP3     14752    TIP3     H2       HT       0.417000       1.00800           0
     66703 TIP3     14753    TIP3     OH2      OT      -0.834000       15.9994           0
     66704 TIP3     14753    TIP3     H1       HT       0.417000       1.00800           0
     66705 TIP3     14753    TIP3     H2       HT       0.417000       1.00800           0
     66706 TIP3     14754    TIP3     OH2      OT      -0.834000       15.9994           0
     66707 TIP3     14754    TIP3     H1       HT       0.417000       1.00800           0
     66708 TIP3     14754    TIP3     H2       HT       0.417000       1.00800           0
     66709 TIP3     14755    TIP3     OH2      OT      -0.834000       15.9994           0
     66710 TIP3     14755    TIP3     H1       HT       0.417000       1.00800           0
     66711 TIP3     14755    TIP3     H2       HT       0.417000       1.00800           0
     66712 TIP3     14756    TIP3     OH2      OT      -0.834000       15.9994           0
     66713 TIP3     14756    TIP3     H1       HT       0.417000       1.00800           0
     66714 TIP3     14756    TIP3     H2       HT       0.417000       1.00800           0
     66715 TIP3     14757    TIP3     OH2      OT      -0.834000       15.9994           0
     66716 TIP3     14757    TIP3     H1       HT       0.417000       1.00800           0
     66717 TIP3     14757    TIP3     H2       HT       0.417000       1.00800           0
     66718 TIP3     14758    TIP3     OH2      OT      -0.834000       15.9994           0
     66719 TIP3     14758    TIP3     H1       HT       0.417000       1.00800           0
     66720 TIP3     14758    TIP3     H2       HT       0.417000       1.00800           0
     66721 TIP3     14759    TIP3     OH2      OT      -0.834000       15.9994           0
     66722 TIP3     14759    TIP3     H1       HT       0.417000       1.00800           0
     66723 TIP3     14759    TIP3     H2       HT       0.417000       1.00800           0
     66724 TIP3     14760    TIP3     OH2      OT      -0.834000       15.9994           0
     66725 TIP3     14760    TIP3     H1       HT       0.417000       1.00800           0
     66726 TIP3     14760    TIP3     H2       HT       0.417000       1.00800           0
     66727 TIP3     14761    TIP3     OH2      OT      -0.834000       15.9994           0
     66728 TIP3     14761    TIP3     H1       HT       0.417000       1.00800           0
     66729 TIP3     14761    TIP3     H2       HT       0.417000       1.00800           0
     66730 TIP3     14762    TIP3     OH2      OT      -0.834000       15.9994           0
     66731 TIP3     14762    TIP3     H1       HT       0.417000       1.00800           0
     66732 TIP3     14762    TIP3     H2       HT       0.417000       1.00800           0
     66733 TIP3     14763    TIP3     OH2      OT      -0.834000       15.9994           0
     66734 TIP3     14763    TIP3     H1       HT       0.417000       1.00800           0
     66735 TIP3     14763    TIP3     H2       HT       0.417000       1.00800           0
     66736 TIP3     14764    TIP3     OH2      OT      -0.834000       15.9994           0
     66737 TIP3     14764    TIP3     H1       HT       0.417000       1.00800           0
     66738 TIP3     14764    TIP3     H2       HT       0.417000       1.00800           0
     66739 TIP3     14765    TIP3     OH2      OT      -0.834000       15.9994           0
     66740 TIP3     14765    TIP3     H1       HT       0.417000       1.00800           0
     66741 TIP3     14765    TIP3     H2       HT       0.417000       1.00800           0
     66742 TIP3     14766    TIP3     OH2      OT      -0.834000       15.9994           0
     66743 TIP3     14766    TIP3     H1       HT       0.417000       1.00800           0
     66744 TIP3     14766    TIP3     H2       HT       0.417000       1.00800           0
     66745 TIP3     14767    TIP3     OH2      OT      -0.834000       15.9994           0
     66746 TIP3     14767    TIP3     H1       HT       0.417000       1.00800           0
     66747 TIP3     14767    TIP3     H2       HT       0.417000       1.00800           0
     66748 TIP3     14768    TIP3     OH2      OT      -0.834000       15.9994           0
     66749 TIP3     14768    TIP3     H1       HT       0.417000       1.00800           0
     66750 TIP3     14768    TIP3     H2       HT       0.417000       1.00800           0
     66751 TIP3     14769    TIP3     OH2      OT      -0.834000       15.9994           0
     66752 TIP3     14769    TIP3     H1       HT       0.417000       1.00800           0
     66753 TIP3     14769    TIP3     H2       HT       0.417000       1.00800           0
     66754 TIP3     14770    TIP3     OH2      OT      -0.834000       15.9994           0
     66755 TIP3     14770    TIP3     H1       HT       0.417000       1.00800           0
     66756 TIP3     14770    TIP3     H2       HT       0.417000       1.00800           0
     66757 TIP3     14771    TIP3     OH2      OT      -0.834000       15.9994           0
     66758 TIP3     14771    TIP3     H1       HT       0.417000       1.00800           0
     66759 TIP3     14771    TIP3     H2       HT       0.417000       1.00800           0
     66760 TIP3     14772    TIP3     OH2      OT      -0.834000       15.9994           0
     66761 TIP3     14772    TIP3     H1       HT       0.417000       1.00800           0
     66762 TIP3     14772    TIP3     H2       HT       0.417000       1.00800           0
     66763 TIP3     14773    TIP3     OH2      OT      -0.834000       15.9994           0
     66764 TIP3     14773    TIP3     H1       HT       0.417000       1.00800           0
     66765 TIP3     14773    TIP3     H2       HT       0.417000       1.00800           0
     66766 TIP3     14774    TIP3     OH2      OT      -0.834000       15.9994           0
     66767 TIP3     14774    TIP3     H1       HT       0.417000       1.00800           0
     66768 TIP3     14774    TIP3     H2       HT       0.417000       1.00800           0
     66769 TIP3     14775    TIP3     OH2      OT      -0.834000       15.9994           0
     66770 TIP3     14775    TIP3     H1       HT       0.417000       1.00800           0
     66771 TIP3     14775    TIP3     H2       HT       0.417000       1.00800           0
     66772 TIP3     14776    TIP3     OH2      OT      -0.834000       15.9994           0
     66773 TIP3     14776    TIP3     H1       HT       0.417000       1.00800           0
     66774 TIP3     14776    TIP3     H2       HT       0.417000       1.00800           0
     66775 TIP3     14777    TIP3     OH2      OT      -0.834000       15.9994           0
     66776 TIP3     14777    TIP3     H1       HT       0.417000       1.00800           0
     66777 TIP3     14777    TIP3     H2       HT       0.417000       1.00800           0
     66778 TIP3     14778    TIP3     OH2      OT      -0.834000       15.9994           0
     66779 TIP3     14778    TIP3     H1       HT       0.417000       1.00800           0
     66780 TIP3     14778    TIP3     H2       HT       0.417000       1.00800           0
     66781 TIP3     14779    TIP3     OH2      OT      -0.834000       15.9994           0
     66782 TIP3     14779    TIP3     H1       HT       0.417000       1.00800           0
     66783 TIP3     14779    TIP3     H2       HT       0.417000       1.00800           0
     66784 TIP3     14780    TIP3     OH2      OT      -0.834000       15.9994           0
     66785 TIP3     14780    TIP3     H1       HT       0.417000       1.00800           0
     66786 TIP3     14780    TIP3     H2       HT       0.417000       1.00800           0
     66787 TIP3     14781    TIP3     OH2      OT      -0.834000       15.9994           0
     66788 TIP3     14781    TIP3     H1       HT       0.417000       1.00800           0
     66789 TIP3     14781    TIP3     H2       HT       0.417000       1.00800           0
     66790 TIP3     14782    TIP3     OH2      OT      -0.834000       15.9994           0
     66791 TIP3     14782    TIP3     H1       HT       0.417000       1.00800           0
     66792 TIP3     14782    TIP3     H2       HT       0.417000       1.00800           0
     66793 TIP3     14783    TIP3     OH2      OT      -0.834000       15.9994           0
     66794 TIP3     14783    TIP3     H1       HT       0.417000       1.00800           0
     66795 TIP3     14783    TIP3     H2       HT       0.417000       1.00800           0
     66796 TIP3     14784    TIP3     OH2      OT      -0.834000       15.9994           0
     66797 TIP3     14784    TIP3     H1       HT       0.417000       1.00800           0
     66798 TIP3     14784    TIP3     H2       HT       0.417000       1.00800           0
     66799 TIP3     14785    TIP3     OH2      OT      -0.834000       15.9994           0
     66800 TIP3     14785    TIP3     H1       HT       0.417000       1.00800           0
     66801 TIP3     14785    TIP3     H2       HT       0.417000       1.00800           0
     66802 TIP3     14786    TIP3     OH2      OT      -0.834000       15.9994           0
     66803 TIP3     14786    TIP3     H1       HT       0.417000       1.00800           0
     66804 TIP3     14786    TIP3     H2       HT       0.417000       1.00800           0
     66805 TIP3     14787    TIP3     OH2      OT      -0.834000       15.9994           0
     66806 TIP3     14787    TIP3     H1       HT       0.417000       1.00800           0
     66807 TIP3     14787    TIP3     H2       HT       0.417000       1.00800           0
     66808 TIP3     14788    TIP3     OH2      OT      -0.834000       15.9994           0
     66809 TIP3     14788    TIP3     H1       HT       0.417000       1.00800           0
     66810 TIP3     14788    TIP3     H2       HT       0.417000       1.00800           0
     66811 TIP3     14789    TIP3     OH2      OT      -0.834000       15.9994           0
     66812 TIP3     14789    TIP3     H1       HT       0.417000       1.00800           0
     66813 TIP3     14789    TIP3     H2       HT       0.417000       1.00800           0
     66814 TIP3     14790    TIP3     OH2      OT      -0.834000       15.9994           0
     66815 TIP3     14790    TIP3     H1       HT       0.417000       1.00800           0
     66816 TIP3     14790    TIP3     H2       HT       0.417000       1.00800           0
     66817 TIP3     14791    TIP3     OH2      OT      -0.834000       15.9994           0
     66818 TIP3     14791    TIP3     H1       HT       0.417000       1.00800           0
     66819 TIP3     14791    TIP3     H2       HT       0.417000       1.00800           0
     66820 TIP3     14792    TIP3     OH2      OT      -0.834000       15.9994           0
     66821 TIP3     14792    TIP3     H1       HT       0.417000       1.00800           0
     66822 TIP3     14792    TIP3     H2       HT       0.417000       1.00800           0
     66823 TIP3     14793    TIP3     OH2      OT      -0.834000       15.9994           0
     66824 TIP3     14793    TIP3     H1       HT       0.417000       1.00800           0
     66825 TIP3     14793    TIP3     H2       HT       0.417000       1.00800           0
     66826 TIP3     14794    TIP3     OH2      OT      -0.834000       15.9994           0
     66827 TIP3     14794    TIP3     H1       HT       0.417000       1.00800           0
     66828 TIP3     14794    TIP3     H2       HT       0.417000       1.00800           0
     66829 TIP3     14795    TIP3     OH2      OT      -0.834000       15.9994           0
     66830 TIP3     14795    TIP3     H1       HT       0.417000       1.00800           0
     66831 TIP3     14795    TIP3     H2       HT       0.417000       1.00800           0
     66832 TIP3     14796    TIP3     OH2      OT      -0.834000       15.9994           0
     66833 TIP3     14796    TIP3     H1       HT       0.417000       1.00800           0
     66834 TIP3     14796    TIP3     H2       HT       0.417000       1.00800           0
     66835 TIP3     14797    TIP3     OH2      OT      -0.834000       15.9994           0
     66836 TIP3     14797    TIP3     H1       HT       0.417000       1.00800           0
     66837 TIP3     14797    TIP3     H2       HT       0.417000       1.00800           0
     66838 TIP3     14798    TIP3     OH2      OT      -0.834000       15.9994           0
     66839 TIP3     14798    TIP3     H1       HT       0.417000       1.00800           0
     66840 TIP3     14798    TIP3     H2       HT       0.417000       1.00800           0
     66841 TIP3     14799    TIP3     OH2      OT      -0.834000       15.9994           0
     66842 TIP3     14799    TIP3     H1       HT       0.417000       1.00800           0
     66843 TIP3     14799    TIP3     H2       HT       0.417000       1.00800           0
     66844 TIP3     14800    TIP3     OH2      OT      -0.834000       15.9994           0
     66845 TIP3     14800    TIP3     H1       HT       0.417000       1.00800           0
     66846 TIP3     14800    TIP3     H2       HT       0.417000       1.00800           0
     66847 TIP3     14801    TIP3     OH2      OT      -0.834000       15.9994           0
     66848 TIP3     14801    TIP3     H1       HT       0.417000       1.00800           0
     66849 TIP3     14801    TIP3     H2       HT       0.417000       1.00800           0
     66850 TIP3     14802    TIP3     OH2      OT      -0.834000       15.9994           0
     66851 TIP3     14802    TIP3     H1       HT       0.417000       1.00800           0
     66852 TIP3     14802    TIP3     H2       HT       0.417000       1.00800           0
     66853 TIP3     14803    TIP3     OH2      OT      -0.834000       15.9994           0
     66854 TIP3     14803    TIP3     H1       HT       0.417000       1.00800           0
     66855 TIP3     14803    TIP3     H2       HT       0.417000       1.00800           0
     66856 TIP3     14804    TIP3     OH2      OT      -0.834000       15.9994           0
     66857 TIP3     14804    TIP3     H1       HT       0.417000       1.00800           0
     66858 TIP3     14804    TIP3     H2       HT       0.417000       1.00800           0
     66859 TIP3     14805    TIP3     OH2      OT      -0.834000       15.9994           0
     66860 TIP3     14805    TIP3     H1       HT       0.417000       1.00800           0
     66861 TIP3     14805    TIP3     H2       HT       0.417000       1.00800           0
     66862 TIP3     14806    TIP3     OH2      OT      -0.834000       15.9994           0
     66863 TIP3     14806    TIP3     H1       HT       0.417000       1.00800           0
     66864 TIP3     14806    TIP3     H2       HT       0.417000       1.00800           0
     66865 TIP3     14807    TIP3     OH2      OT      -0.834000       15.9994           0
     66866 TIP3     14807    TIP3     H1       HT       0.417000       1.00800           0
     66867 TIP3     14807    TIP3     H2       HT       0.417000       1.00800           0
     66868 TIP3     14808    TIP3     OH2      OT      -0.834000       15.9994           0
     66869 TIP3     14808    TIP3     H1       HT       0.417000       1.00800           0
     66870 TIP3     14808    TIP3     H2       HT       0.417000       1.00800           0
     66871 TIP3     14809    TIP3     OH2      OT      -0.834000       15.9994           0
     66872 TIP3     14809    TIP3     H1       HT       0.417000       1.00800           0
     66873 TIP3     14809    TIP3     H2       HT       0.417000       1.00800           0
     66874 TIP3     14810    TIP3     OH2      OT      -0.834000       15.9994           0
     66875 TIP3     14810    TIP3     H1       HT       0.417000       1.00800           0
     66876 TIP3     14810    TIP3     H2       HT       0.417000       1.00800           0
     66877 TIP3     14811    TIP3     OH2      OT      -0.834000       15.9994           0
     66878 TIP3     14811    TIP3     H1       HT       0.417000       1.00800           0
     66879 TIP3     14811    TIP3     H2       HT       0.417000       1.00800           0
     66880 TIP3     14812    TIP3     OH2      OT      -0.834000       15.9994           0
     66881 TIP3     14812    TIP3     H1       HT       0.417000       1.00800           0
     66882 TIP3     14812    TIP3     H2       HT       0.417000       1.00800           0
     66883 TIP3     14813    TIP3     OH2      OT      -0.834000       15.9994           0
     66884 TIP3     14813    TIP3     H1       HT       0.417000       1.00800           0
     66885 TIP3     14813    TIP3     H2       HT       0.417000       1.00800           0
     66886 TIP3     14814    TIP3     OH2      OT      -0.834000       15.9994           0
     66887 TIP3     14814    TIP3     H1       HT       0.417000       1.00800           0
     66888 TIP3     14814    TIP3     H2       HT       0.417000       1.00800           0
     66889 TIP3     14815    TIP3     OH2      OT      -0.834000       15.9994           0
     66890 TIP3     14815    TIP3     H1       HT       0.417000       1.00800           0
     66891 TIP3     14815    TIP3     H2       HT       0.417000       1.00800           0
     66892 TIP3     14816    TIP3     OH2      OT      -0.834000       15.9994           0
     66893 TIP3     14816    TIP3     H1       HT       0.417000       1.00800           0
     66894 TIP3     14816    TIP3     H2       HT       0.417000       1.00800           0
     66895 TIP3     14817    TIP3     OH2      OT      -0.834000       15.9994           0
     66896 TIP3     14817    TIP3     H1       HT       0.417000       1.00800           0
     66897 TIP3     14817    TIP3     H2       HT       0.417000       1.00800           0
     66898 TIP3     14818    TIP3     OH2      OT      -0.834000       15.9994           0
     66899 TIP3     14818    TIP3     H1       HT       0.417000       1.00800           0
     66900 TIP3     14818    TIP3     H2       HT       0.417000       1.00800           0
     66901 TIP3     14819    TIP3     OH2      OT      -0.834000       15.9994           0
     66902 TIP3     14819    TIP3     H1       HT       0.417000       1.00800           0
     66903 TIP3     14819    TIP3     H2       HT       0.417000       1.00800           0
     66904 TIP3     14820    TIP3     OH2      OT      -0.834000       15.9994           0
     66905 TIP3     14820    TIP3     H1       HT       0.417000       1.00800           0
     66906 TIP3     14820    TIP3     H2       HT       0.417000       1.00800           0
     66907 TIP3     14821    TIP3     OH2      OT      -0.834000       15.9994           0
     66908 TIP3     14821    TIP3     H1       HT       0.417000       1.00800           0
     66909 TIP3     14821    TIP3     H2       HT       0.417000       1.00800           0
     66910 TIP3     14822    TIP3     OH2      OT      -0.834000       15.9994           0
     66911 TIP3     14822    TIP3     H1       HT       0.417000       1.00800           0
     66912 TIP3     14822    TIP3     H2       HT       0.417000       1.00800           0
     66913 TIP3     14823    TIP3     OH2      OT      -0.834000       15.9994           0
     66914 TIP3     14823    TIP3     H1       HT       0.417000       1.00800           0
     66915 TIP3     14823    TIP3     H2       HT       0.417000       1.00800           0
     66916 TIP3     14824    TIP3     OH2      OT      -0.834000       15.9994           0
     66917 TIP3     14824    TIP3     H1       HT       0.417000       1.00800           0
     66918 TIP3     14824    TIP3     H2       HT       0.417000       1.00800           0
     66919 TIP3     14825    TIP3     OH2      OT      -0.834000       15.9994           0
     66920 TIP3     14825    TIP3     H1       HT       0.417000       1.00800           0
     66921 TIP3     14825    TIP3     H2       HT       0.417000       1.00800           0
     66922 TIP3     14826    TIP3     OH2      OT      -0.834000       15.9994           0
     66923 TIP3     14826    TIP3     H1       HT       0.417000       1.00800           0
     66924 TIP3     14826    TIP3     H2       HT       0.417000       1.00800           0
     66925 TIP3     14827    TIP3     OH2      OT      -0.834000       15.9994           0
     66926 TIP3     14827    TIP3     H1       HT       0.417000       1.00800           0
     66927 TIP3     14827    TIP3     H2       HT       0.417000       1.00800           0
     66928 TIP3     14828    TIP3     OH2      OT      -0.834000       15.9994           0
     66929 TIP3     14828    TIP3     H1       HT       0.417000       1.00800           0
     66930 TIP3     14828    TIP3     H2       HT       0.417000       1.00800           0
     66931 TIP3     14829    TIP3     OH2      OT      -0.834000       15.9994           0
     66932 TIP3     14829    TIP3     H1       HT       0.417000       1.00800           0
     66933 TIP3     14829    TIP3     H2       HT       0.417000       1.00800           0
     66934 TIP3     14830    TIP3     OH2      OT      -0.834000       15.9994           0
     66935 TIP3     14830    TIP3     H1       HT       0.417000       1.00800           0
     66936 TIP3     14830    TIP3     H2       HT       0.417000       1.00800           0
     66937 TIP3     14831    TIP3     OH2      OT      -0.834000       15.9994           0
     66938 TIP3     14831    TIP3     H1       HT       0.417000       1.00800           0
     66939 TIP3     14831    TIP3     H2       HT       0.417000       1.00800           0
     66940 TIP3     14832    TIP3     OH2      OT      -0.834000       15.9994           0
     66941 TIP3     14832    TIP3     H1       HT       0.417000       1.00800           0
     66942 TIP3     14832    TIP3     H2       HT       0.417000       1.00800           0
     66943 TIP3     14833    TIP3     OH2      OT      -0.834000       15.9994           0
     66944 TIP3     14833    TIP3     H1       HT       0.417000       1.00800           0
     66945 TIP3     14833    TIP3     H2       HT       0.417000       1.00800           0
     66946 TIP3     14834    TIP3     OH2      OT      -0.834000       15.9994           0
     66947 TIP3     14834    TIP3     H1       HT       0.417000       1.00800           0
     66948 TIP3     14834    TIP3     H2       HT       0.417000       1.00800           0
     66949 TIP3     14835    TIP3     OH2      OT      -0.834000       15.9994           0
     66950 TIP3     14835    TIP3     H1       HT       0.417000       1.00800           0
     66951 TIP3     14835    TIP3     H2       HT       0.417000       1.00800           0
     66952 TIP3     14836    TIP3     OH2      OT      -0.834000       15.9994           0
     66953 TIP3     14836    TIP3     H1       HT       0.417000       1.00800           0
     66954 TIP3     14836    TIP3     H2       HT       0.417000       1.00800           0
     66955 TIP3     14837    TIP3     OH2      OT      -0.834000       15.9994           0
     66956 TIP3     14837    TIP3     H1       HT       0.417000       1.00800           0
     66957 TIP3     14837    TIP3     H2       HT       0.417000       1.00800           0
     66958 TIP3     14838    TIP3     OH2      OT      -0.834000       15.9994           0
     66959 TIP3     14838    TIP3     H1       HT       0.417000       1.00800           0
     66960 TIP3     14838    TIP3     H2       HT       0.417000       1.00800           0
     66961 TIP3     14839    TIP3     OH2      OT      -0.834000       15.9994           0
     66962 TIP3     14839    TIP3     H1       HT       0.417000       1.00800           0
     66963 TIP3     14839    TIP3     H2       HT       0.417000       1.00800           0
     66964 TIP3     14840    TIP3     OH2      OT      -0.834000       15.9994           0
     66965 TIP3     14840    TIP3     H1       HT       0.417000       1.00800           0
     66966 TIP3     14840    TIP3     H2       HT       0.417000       1.00800           0
     66967 TIP3     14841    TIP3     OH2      OT      -0.834000       15.9994           0
     66968 TIP3     14841    TIP3     H1       HT       0.417000       1.00800           0
     66969 TIP3     14841    TIP3     H2       HT       0.417000       1.00800           0
     66970 TIP3     14842    TIP3     OH2      OT      -0.834000       15.9994           0
     66971 TIP3     14842    TIP3     H1       HT       0.417000       1.00800           0
     66972 TIP3     14842    TIP3     H2       HT       0.417000       1.00800           0
     66973 TIP3     14843    TIP3     OH2      OT      -0.834000       15.9994           0
     66974 TIP3     14843    TIP3     H1       HT       0.417000       1.00800           0
     66975 TIP3     14843    TIP3     H2       HT       0.417000       1.00800           0
     66976 TIP3     14844    TIP3     OH2      OT      -0.834000       15.9994           0
     66977 TIP3     14844    TIP3     H1       HT       0.417000       1.00800           0
     66978 TIP3     14844    TIP3     H2       HT       0.417000       1.00800           0
     66979 TIP3     14845    TIP3     OH2      OT      -0.834000       15.9994           0
     66980 TIP3     14845    TIP3     H1       HT       0.417000       1.00800           0
     66981 TIP3     14845    TIP3     H2       HT       0.417000       1.00800           0
     66982 TIP3     14846    TIP3     OH2      OT      -0.834000       15.9994           0
     66983 TIP3     14846    TIP3     H1       HT       0.417000       1.00800           0
     66984 TIP3     14846    TIP3     H2       HT       0.417000       1.00800           0
     66985 TIP3     14847    TIP3     OH2      OT      -0.834000       15.9994           0
     66986 TIP3     14847    TIP3     H1       HT       0.417000       1.00800           0
     66987 TIP3     14847    TIP3     H2       HT       0.417000       1.00800           0
     66988 TIP3     14848    TIP3     OH2      OT      -0.834000       15.9994           0
     66989 TIP3     14848    TIP3     H1       HT       0.417000       1.00800           0
     66990 TIP3     14848    TIP3     H2       HT       0.417000       1.00800           0
     66991 TIP3     14849    TIP3     OH2      OT      -0.834000       15.9994           0
     66992 TIP3     14849    TIP3     H1       HT       0.417000       1.00800           0
     66993 TIP3     14849    TIP3     H2       HT       0.417000       1.00800           0
     66994 TIP3     14850    TIP3     OH2      OT      -0.834000       15.9994           0
     66995 TIP3     14850    TIP3     H1       HT       0.417000       1.00800           0
     66996 TIP3     14850    TIP3     H2       HT       0.417000       1.00800           0
     66997 TIP3     14851    TIP3     OH2      OT      -0.834000       15.9994           0
     66998 TIP3     14851    TIP3     H1       HT       0.417000       1.00800           0
     66999 TIP3     14851    TIP3     H2       HT       0.417000       1.00800           0
     67000 TIP3     14852    TIP3     OH2      OT      -0.834000       15.9994           0
     67001 TIP3     14852    TIP3     H1       HT       0.417000       1.00800           0
     67002 TIP3     14852    TIP3     H2       HT       0.417000       1.00800           0
     67003 TIP3     14853    TIP3     OH2      OT      -0.834000       15.9994           0
     67004 TIP3     14853    TIP3     H1       HT       0.417000       1.00800           0
     67005 TIP3     14853    TIP3     H2       HT       0.417000       1.00800           0
     67006 TIP3     14854    TIP3     OH2      OT      -0.834000       15.9994           0
     67007 TIP3     14854    TIP3     H1       HT       0.417000       1.00800           0
     67008 TIP3     14854    TIP3     H2       HT       0.417000       1.00800           0
     67009 TIP3     14855    TIP3     OH2      OT      -0.834000       15.9994           0
     67010 TIP3     14855    TIP3     H1       HT       0.417000       1.00800           0
     67011 TIP3     14855    TIP3     H2       HT       0.417000       1.00800           0
     67012 TIP3     14856    TIP3     OH2      OT      -0.834000       15.9994           0
     67013 TIP3     14856    TIP3     H1       HT       0.417000       1.00800           0
     67014 TIP3     14856    TIP3     H2       HT       0.417000       1.00800           0
     67015 TIP3     14857    TIP3     OH2      OT      -0.834000       15.9994           0
     67016 TIP3     14857    TIP3     H1       HT       0.417000       1.00800           0
     67017 TIP3     14857    TIP3     H2       HT       0.417000       1.00800           0
     67018 TIP3     14858    TIP3     OH2      OT      -0.834000       15.9994           0
     67019 TIP3     14858    TIP3     H1       HT       0.417000       1.00800           0
     67020 TIP3     14858    TIP3     H2       HT       0.417000       1.00800           0
     67021 TIP3     14859    TIP3     OH2      OT      -0.834000       15.9994           0
     67022 TIP3     14859    TIP3     H1       HT       0.417000       1.00800           0
     67023 TIP3     14859    TIP3     H2       HT       0.417000       1.00800           0
     67024 TIP3     14860    TIP3     OH2      OT      -0.834000       15.9994           0
     67025 TIP3     14860    TIP3     H1       HT       0.417000       1.00800           0
     67026 TIP3     14860    TIP3     H2       HT       0.417000       1.00800           0
     67027 TIP3     14861    TIP3     OH2      OT      -0.834000       15.9994           0
     67028 TIP3     14861    TIP3     H1       HT       0.417000       1.00800           0
     67029 TIP3     14861    TIP3     H2       HT       0.417000       1.00800           0
     67030 TIP3     14862    TIP3     OH2      OT      -0.834000       15.9994           0
     67031 TIP3     14862    TIP3     H1       HT       0.417000       1.00800           0
     67032 TIP3     14862    TIP3     H2       HT       0.417000       1.00800           0
     67033 TIP3     14863    TIP3     OH2      OT      -0.834000       15.9994           0
     67034 TIP3     14863    TIP3     H1       HT       0.417000       1.00800           0
     67035 TIP3     14863    TIP3     H2       HT       0.417000       1.00800           0
     67036 TIP3     14864    TIP3     OH2      OT      -0.834000       15.9994           0
     67037 TIP3     14864    TIP3     H1       HT       0.417000       1.00800           0
     67038 TIP3     14864    TIP3     H2       HT       0.417000       1.00800           0
     67039 TIP3     14865    TIP3     OH2      OT      -0.834000       15.9994           0
     67040 TIP3     14865    TIP3     H1       HT       0.417000       1.00800           0
     67041 TIP3     14865    TIP3     H2       HT       0.417000       1.00800           0
     67042 TIP3     14866    TIP3     OH2      OT      -0.834000       15.9994           0
     67043 TIP3     14866    TIP3     H1       HT       0.417000       1.00800           0
     67044 TIP3     14866    TIP3     H2       HT       0.417000       1.00800           0
     67045 TIP3     14867    TIP3     OH2      OT      -0.834000       15.9994           0
     67046 TIP3     14867    TIP3     H1       HT       0.417000       1.00800           0
     67047 TIP3     14867    TIP3     H2       HT       0.417000       1.00800           0
     67048 TIP3     14868    TIP3     OH2      OT      -0.834000       15.9994           0
     67049 TIP3     14868    TIP3     H1       HT       0.417000       1.00800           0
     67050 TIP3     14868    TIP3     H2       HT       0.417000       1.00800           0
     67051 TIP3     14869    TIP3     OH2      OT      -0.834000       15.9994           0
     67052 TIP3     14869    TIP3     H1       HT       0.417000       1.00800           0
     67053 TIP3     14869    TIP3     H2       HT       0.417000       1.00800           0
     67054 TIP3     14870    TIP3     OH2      OT      -0.834000       15.9994           0
     67055 TIP3     14870    TIP3     H1       HT       0.417000       1.00800           0
     67056 TIP3     14870    TIP3     H2       HT       0.417000       1.00800           0
     67057 TIP3     14871    TIP3     OH2      OT      -0.834000       15.9994           0
     67058 TIP3     14871    TIP3     H1       HT       0.417000       1.00800           0
     67059 TIP3     14871    TIP3     H2       HT       0.417000       1.00800           0
     67060 TIP3     14872    TIP3     OH2      OT      -0.834000       15.9994           0
     67061 TIP3     14872    TIP3     H1       HT       0.417000       1.00800           0
     67062 TIP3     14872    TIP3     H2       HT       0.417000       1.00800           0
     67063 TIP3     14873    TIP3     OH2      OT      -0.834000       15.9994           0
     67064 TIP3     14873    TIP3     H1       HT       0.417000       1.00800           0
     67065 TIP3     14873    TIP3     H2       HT       0.417000       1.00800           0
     67066 TIP3     14874    TIP3     OH2      OT      -0.834000       15.9994           0
     67067 TIP3     14874    TIP3     H1       HT       0.417000       1.00800           0
     67068 TIP3     14874    TIP3     H2       HT       0.417000       1.00800           0
     67069 TIP3     14875    TIP3     OH2      OT      -0.834000       15.9994           0
     67070 TIP3     14875    TIP3     H1       HT       0.417000       1.00800           0
     67071 TIP3     14875    TIP3     H2       HT       0.417000       1.00800           0
     67072 TIP3     14876    TIP3     OH2      OT      -0.834000       15.9994           0
     67073 TIP3     14876    TIP3     H1       HT       0.417000       1.00800           0
     67074 TIP3     14876    TIP3     H2       HT       0.417000       1.00800           0
     67075 TIP3     14877    TIP3     OH2      OT      -0.834000       15.9994           0
     67076 TIP3     14877    TIP3     H1       HT       0.417000       1.00800           0
     67077 TIP3     14877    TIP3     H2       HT       0.417000       1.00800           0
     67078 TIP3     14878    TIP3     OH2      OT      -0.834000       15.9994           0
     67079 TIP3     14878    TIP3     H1       HT       0.417000       1.00800           0
     67080 TIP3     14878    TIP3     H2       HT       0.417000       1.00800           0
     67081 TIP3     14879    TIP3     OH2      OT      -0.834000       15.9994           0
     67082 TIP3     14879    TIP3     H1       HT       0.417000       1.00800           0
     67083 TIP3     14879    TIP3     H2       HT       0.417000       1.00800           0
     67084 TIP3     14880    TIP3     OH2      OT      -0.834000       15.9994           0
     67085 TIP3     14880    TIP3     H1       HT       0.417000       1.00800           0
     67086 TIP3     14880    TIP3     H2       HT       0.417000       1.00800           0
     67087 TIP3     14881    TIP3     OH2      OT      -0.834000       15.9994           0
     67088 TIP3     14881    TIP3     H1       HT       0.417000       1.00800           0
     67089 TIP3     14881    TIP3     H2       HT       0.417000       1.00800           0
     67090 TIP3     14882    TIP3     OH2      OT      -0.834000       15.9994           0
     67091 TIP3     14882    TIP3     H1       HT       0.417000       1.00800           0
     67092 TIP3     14882    TIP3     H2       HT       0.417000       1.00800           0
     67093 TIP3     14883    TIP3     OH2      OT      -0.834000       15.9994           0
     67094 TIP3     14883    TIP3     H1       HT       0.417000       1.00800           0
     67095 TIP3     14883    TIP3     H2       HT       0.417000       1.00800           0
     67096 TIP3     14884    TIP3     OH2      OT      -0.834000       15.9994           0
     67097 TIP3     14884    TIP3     H1       HT       0.417000       1.00800           0
     67098 TIP3     14884    TIP3     H2       HT       0.417000       1.00800           0
     67099 TIP3     14885    TIP3     OH2      OT      -0.834000       15.9994           0
     67100 TIP3     14885    TIP3     H1       HT       0.417000       1.00800           0
     67101 TIP3     14885    TIP3     H2       HT       0.417000       1.00800           0
     67102 TIP3     14886    TIP3     OH2      OT      -0.834000       15.9994           0
     67103 TIP3     14886    TIP3     H1       HT       0.417000       1.00800           0
     67104 TIP3     14886    TIP3     H2       HT       0.417000       1.00800           0
     67105 TIP3     14887    TIP3     OH2      OT      -0.834000       15.9994           0
     67106 TIP3     14887    TIP3     H1       HT       0.417000       1.00800           0
     67107 TIP3     14887    TIP3     H2       HT       0.417000       1.00800           0
     67108 TIP3     14888    TIP3     OH2      OT      -0.834000       15.9994           0
     67109 TIP3     14888    TIP3     H1       HT       0.417000       1.00800           0
     67110 TIP3     14888    TIP3     H2       HT       0.417000       1.00800           0
     67111 TIP3     14889    TIP3     OH2      OT      -0.834000       15.9994           0
     67112 TIP3     14889    TIP3     H1       HT       0.417000       1.00800           0
     67113 TIP3     14889    TIP3     H2       HT       0.417000       1.00800           0
     67114 TIP3     14890    TIP3     OH2      OT      -0.834000       15.9994           0
     67115 TIP3     14890    TIP3     H1       HT       0.417000       1.00800           0
     67116 TIP3     14890    TIP3     H2       HT       0.417000       1.00800           0
     67117 TIP3     14891    TIP3     OH2      OT      -0.834000       15.9994           0
     67118 TIP3     14891    TIP3     H1       HT       0.417000       1.00800           0
     67119 TIP3     14891    TIP3     H2       HT       0.417000       1.00800           0
     67120 TIP3     14892    TIP3     OH2      OT      -0.834000       15.9994           0
     67121 TIP3     14892    TIP3     H1       HT       0.417000       1.00800           0
     67122 TIP3     14892    TIP3     H2       HT       0.417000       1.00800           0
     67123 TIP3     14893    TIP3     OH2      OT      -0.834000       15.9994           0
     67124 TIP3     14893    TIP3     H1       HT       0.417000       1.00800           0
     67125 TIP3     14893    TIP3     H2       HT       0.417000       1.00800           0
     67126 TIP3     14894    TIP3     OH2      OT      -0.834000       15.9994           0
     67127 TIP3     14894    TIP3     H1       HT       0.417000       1.00800           0
     67128 TIP3     14894    TIP3     H2       HT       0.417000       1.00800           0
     67129 TIP3     14895    TIP3     OH2      OT      -0.834000       15.9994           0
     67130 TIP3     14895    TIP3     H1       HT       0.417000       1.00800           0
     67131 TIP3     14895    TIP3     H2       HT       0.417000       1.00800           0
     67132 TIP3     14896    TIP3     OH2      OT      -0.834000       15.9994           0
     67133 TIP3     14896    TIP3     H1       HT       0.417000       1.00800           0
     67134 TIP3     14896    TIP3     H2       HT       0.417000       1.00800           0
     67135 TIP3     14897    TIP3     OH2      OT      -0.834000       15.9994           0
     67136 TIP3     14897    TIP3     H1       HT       0.417000       1.00800           0
     67137 TIP3     14897    TIP3     H2       HT       0.417000       1.00800           0
     67138 TIP3     14898    TIP3     OH2      OT      -0.834000       15.9994           0
     67139 TIP3     14898    TIP3     H1       HT       0.417000       1.00800           0
     67140 TIP3     14898    TIP3     H2       HT       0.417000       1.00800           0
     67141 TIP3     14899    TIP3     OH2      OT      -0.834000       15.9994           0
     67142 TIP3     14899    TIP3     H1       HT       0.417000       1.00800           0
     67143 TIP3     14899    TIP3     H2       HT       0.417000       1.00800           0
     67144 TIP3     14900    TIP3     OH2      OT      -0.834000       15.9994           0
     67145 TIP3     14900    TIP3     H1       HT       0.417000       1.00800           0
     67146 TIP3     14900    TIP3     H2       HT       0.417000       1.00800           0
     67147 TIP3     14901    TIP3     OH2      OT      -0.834000       15.9994           0
     67148 TIP3     14901    TIP3     H1       HT       0.417000       1.00800           0
     67149 TIP3     14901    TIP3     H2       HT       0.417000       1.00800           0
     67150 TIP3     14902    TIP3     OH2      OT      -0.834000       15.9994           0
     67151 TIP3     14902    TIP3     H1       HT       0.417000       1.00800           0
     67152 TIP3     14902    TIP3     H2       HT       0.417000       1.00800           0
     67153 TIP3     14903    TIP3     OH2      OT      -0.834000       15.9994           0
     67154 TIP3     14903    TIP3     H1       HT       0.417000       1.00800           0
     67155 TIP3     14903    TIP3     H2       HT       0.417000       1.00800           0
     67156 TIP3     14904    TIP3     OH2      OT      -0.834000       15.9994           0
     67157 TIP3     14904    TIP3     H1       HT       0.417000       1.00800           0
     67158 TIP3     14904    TIP3     H2       HT       0.417000       1.00800           0
     67159 TIP3     14905    TIP3     OH2      OT      -0.834000       15.9994           0
     67160 TIP3     14905    TIP3     H1       HT       0.417000       1.00800           0
     67161 TIP3     14905    TIP3     H2       HT       0.417000       1.00800           0
     67162 TIP3     14906    TIP3     OH2      OT      -0.834000       15.9994           0
     67163 TIP3     14906    TIP3     H1       HT       0.417000       1.00800           0
     67164 TIP3     14906    TIP3     H2       HT       0.417000       1.00800           0
     67165 TIP3     14907    TIP3     OH2      OT      -0.834000       15.9994           0
     67166 TIP3     14907    TIP3     H1       HT       0.417000       1.00800           0
     67167 TIP3     14907    TIP3     H2       HT       0.417000       1.00800           0
     67168 TIP3     14908    TIP3     OH2      OT      -0.834000       15.9994           0
     67169 TIP3     14908    TIP3     H1       HT       0.417000       1.00800           0
     67170 TIP3     14908    TIP3     H2       HT       0.417000       1.00800           0
     67171 TIP3     14909    TIP3     OH2      OT      -0.834000       15.9994           0
     67172 TIP3     14909    TIP3     H1       HT       0.417000       1.00800           0
     67173 TIP3     14909    TIP3     H2       HT       0.417000       1.00800           0
     67174 TIP3     14910    TIP3     OH2      OT      -0.834000       15.9994           0
     67175 TIP3     14910    TIP3     H1       HT       0.417000       1.00800           0
     67176 TIP3     14910    TIP3     H2       HT       0.417000       1.00800           0
     67177 TIP3     14911    TIP3     OH2      OT      -0.834000       15.9994           0
     67178 TIP3     14911    TIP3     H1       HT       0.417000       1.00800           0
     67179 TIP3     14911    TIP3     H2       HT       0.417000       1.00800           0
     67180 TIP3     14912    TIP3     OH2      OT      -0.834000       15.9994           0
     67181 TIP3     14912    TIP3     H1       HT       0.417000       1.00800           0
     67182 TIP3     14912    TIP3     H2       HT       0.417000       1.00800           0
     67183 TIP3     14913    TIP3     OH2      OT      -0.834000       15.9994           0
     67184 TIP3     14913    TIP3     H1       HT       0.417000       1.00800           0
     67185 TIP3     14913    TIP3     H2       HT       0.417000       1.00800           0
     67186 TIP3     14914    TIP3     OH2      OT      -0.834000       15.9994           0
     67187 TIP3     14914    TIP3     H1       HT       0.417000       1.00800           0
     67188 TIP3     14914    TIP3     H2       HT       0.417000       1.00800           0
     67189 TIP3     14915    TIP3     OH2      OT      -0.834000       15.9994           0
     67190 TIP3     14915    TIP3     H1       HT       0.417000       1.00800           0
     67191 TIP3     14915    TIP3     H2       HT       0.417000       1.00800           0
     67192 TIP3     14916    TIP3     OH2      OT      -0.834000       15.9994           0
     67193 TIP3     14916    TIP3     H1       HT       0.417000       1.00800           0
     67194 TIP3     14916    TIP3     H2       HT       0.417000       1.00800           0
     67195 TIP3     14917    TIP3     OH2      OT      -0.834000       15.9994           0
     67196 TIP3     14917    TIP3     H1       HT       0.417000       1.00800           0
     67197 TIP3     14917    TIP3     H2       HT       0.417000       1.00800           0
     67198 TIP3     14918    TIP3     OH2      OT      -0.834000       15.9994           0
     67199 TIP3     14918    TIP3     H1       HT       0.417000       1.00800           0
     67200 TIP3     14918    TIP3     H2       HT       0.417000       1.00800           0
     67201 TIP3     14919    TIP3     OH2      OT      -0.834000       15.9994           0
     67202 TIP3     14919    TIP3     H1       HT       0.417000       1.00800           0
     67203 TIP3     14919    TIP3     H2       HT       0.417000       1.00800           0
     67204 TIP3     14920    TIP3     OH2      OT      -0.834000       15.9994           0
     67205 TIP3     14920    TIP3     H1       HT       0.417000       1.00800           0
     67206 TIP3     14920    TIP3     H2       HT       0.417000       1.00800           0
     67207 TIP3     14921    TIP3     OH2      OT      -0.834000       15.9994           0
     67208 TIP3     14921    TIP3     H1       HT       0.417000       1.00800           0
     67209 TIP3     14921    TIP3     H2       HT       0.417000       1.00800           0
     67210 TIP3     14922    TIP3     OH2      OT      -0.834000       15.9994           0
     67211 TIP3     14922    TIP3     H1       HT       0.417000       1.00800           0
     67212 TIP3     14922    TIP3     H2       HT       0.417000       1.00800           0
     67213 TIP3     14923    TIP3     OH2      OT      -0.834000       15.9994           0
     67214 TIP3     14923    TIP3     H1       HT       0.417000       1.00800           0
     67215 TIP3     14923    TIP3     H2       HT       0.417000       1.00800           0
     67216 TIP3     14924    TIP3     OH2      OT      -0.834000       15.9994           0
     67217 TIP3     14924    TIP3     H1       HT       0.417000       1.00800           0
     67218 TIP3     14924    TIP3     H2       HT       0.417000       1.00800           0
     67219 TIP3     14925    TIP3     OH2      OT      -0.834000       15.9994           0
     67220 TIP3     14925    TIP3     H1       HT       0.417000       1.00800           0
     67221 TIP3     14925    TIP3     H2       HT       0.417000       1.00800           0
     67222 TIP3     14926    TIP3     OH2      OT      -0.834000       15.9994           0
     67223 TIP3     14926    TIP3     H1       HT       0.417000       1.00800           0
     67224 TIP3     14926    TIP3     H2       HT       0.417000       1.00800           0
     67225 TIP3     14927    TIP3     OH2      OT      -0.834000       15.9994           0
     67226 TIP3     14927    TIP3     H1       HT       0.417000       1.00800           0
     67227 TIP3     14927    TIP3     H2       HT       0.417000       1.00800           0
     67228 TIP3     14928    TIP3     OH2      OT      -0.834000       15.9994           0
     67229 TIP3     14928    TIP3     H1       HT       0.417000       1.00800           0
     67230 TIP3     14928    TIP3     H2       HT       0.417000       1.00800           0
     67231 TIP3     14929    TIP3     OH2      OT      -0.834000       15.9994           0
     67232 TIP3     14929    TIP3     H1       HT       0.417000       1.00800           0
     67233 TIP3     14929    TIP3     H2       HT       0.417000       1.00800           0
     67234 TIP3     14930    TIP3     OH2      OT      -0.834000       15.9994           0
     67235 TIP3     14930    TIP3     H1       HT       0.417000       1.00800           0
     67236 TIP3     14930    TIP3     H2       HT       0.417000       1.00800           0
     67237 TIP3     14931    TIP3     OH2      OT      -0.834000       15.9994           0
     67238 TIP3     14931    TIP3     H1       HT       0.417000       1.00800           0
     67239 TIP3     14931    TIP3     H2       HT       0.417000       1.00800           0
     67240 TIP3     14932    TIP3     OH2      OT      -0.834000       15.9994           0
     67241 TIP3     14932    TIP3     H1       HT       0.417000       1.00800           0
     67242 TIP3     14932    TIP3     H2       HT       0.417000       1.00800           0
     67243 TIP3     14933    TIP3     OH2      OT      -0.834000       15.9994           0
     67244 TIP3     14933    TIP3     H1       HT       0.417000       1.00800           0
     67245 TIP3     14933    TIP3     H2       HT       0.417000       1.00800           0
     67246 TIP3     14934    TIP3     OH2      OT      -0.834000       15.9994           0
     67247 TIP3     14934    TIP3     H1       HT       0.417000       1.00800           0
     67248 TIP3     14934    TIP3     H2       HT       0.417000       1.00800           0
     67249 TIP3     14935    TIP3     OH2      OT      -0.834000       15.9994           0
     67250 TIP3     14935    TIP3     H1       HT       0.417000       1.00800           0
     67251 TIP3     14935    TIP3     H2       HT       0.417000       1.00800           0
     67252 TIP3     14936    TIP3     OH2      OT      -0.834000       15.9994           0
     67253 TIP3     14936    TIP3     H1       HT       0.417000       1.00800           0
     67254 TIP3     14936    TIP3     H2       HT       0.417000       1.00800           0
     67255 TIP3     14937    TIP3     OH2      OT      -0.834000       15.9994           0
     67256 TIP3     14937    TIP3     H1       HT       0.417000       1.00800           0
     67257 TIP3     14937    TIP3     H2       HT       0.417000       1.00800           0
     67258 TIP3     14938    TIP3     OH2      OT      -0.834000       15.9994           0
     67259 TIP3     14938    TIP3     H1       HT       0.417000       1.00800           0
     67260 TIP3     14938    TIP3     H2       HT       0.417000       1.00800           0
     67261 TIP3     14939    TIP3     OH2      OT      -0.834000       15.9994           0
     67262 TIP3     14939    TIP3     H1       HT       0.417000       1.00800           0
     67263 TIP3     14939    TIP3     H2       HT       0.417000       1.00800           0
     67264 TIP3     14940    TIP3     OH2      OT      -0.834000       15.9994           0
     67265 TIP3     14940    TIP3     H1       HT       0.417000       1.00800           0
     67266 TIP3     14940    TIP3     H2       HT       0.417000       1.00800           0
     67267 TIP3     14941    TIP3     OH2      OT      -0.834000       15.9994           0
     67268 TIP3     14941    TIP3     H1       HT       0.417000       1.00800           0
     67269 TIP3     14941    TIP3     H2       HT       0.417000       1.00800           0
     67270 TIP3     14942    TIP3     OH2      OT      -0.834000       15.9994           0
     67271 TIP3     14942    TIP3     H1       HT       0.417000       1.00800           0
     67272 TIP3     14942    TIP3     H2       HT       0.417000       1.00800           0
     67273 TIP3     14943    TIP3     OH2      OT      -0.834000       15.9994           0
     67274 TIP3     14943    TIP3     H1       HT       0.417000       1.00800           0
     67275 TIP3     14943    TIP3     H2       HT       0.417000       1.00800           0
     67276 TIP3     14944    TIP3     OH2      OT      -0.834000       15.9994           0
     67277 TIP3     14944    TIP3     H1       HT       0.417000       1.00800           0
     67278 TIP3     14944    TIP3     H2       HT       0.417000       1.00800           0
     67279 TIP3     14945    TIP3     OH2      OT      -0.834000       15.9994           0
     67280 TIP3     14945    TIP3     H1       HT       0.417000       1.00800           0
     67281 TIP3     14945    TIP3     H2       HT       0.417000       1.00800           0
     67282 TIP3     14946    TIP3     OH2      OT      -0.834000       15.9994           0
     67283 TIP3     14946    TIP3     H1       HT       0.417000       1.00800           0
     67284 TIP3     14946    TIP3     H2       HT       0.417000       1.00800           0
     67285 TIP3     14947    TIP3     OH2      OT      -0.834000       15.9994           0
     67286 TIP3     14947    TIP3     H1       HT       0.417000       1.00800           0
     67287 TIP3     14947    TIP3     H2       HT       0.417000       1.00800           0
     67288 TIP3     14948    TIP3     OH2      OT      -0.834000       15.9994           0
     67289 TIP3     14948    TIP3     H1       HT       0.417000       1.00800           0
     67290 TIP3     14948    TIP3     H2       HT       0.417000       1.00800           0
     67291 TIP3     14949    TIP3     OH2      OT      -0.834000       15.9994           0
     67292 TIP3     14949    TIP3     H1       HT       0.417000       1.00800           0
     67293 TIP3     14949    TIP3     H2       HT       0.417000       1.00800           0
     67294 TIP3     14950    TIP3     OH2      OT      -0.834000       15.9994           0
     67295 TIP3     14950    TIP3     H1       HT       0.417000       1.00800           0
     67296 TIP3     14950    TIP3     H2       HT       0.417000       1.00800           0
     67297 TIP3     14951    TIP3     OH2      OT      -0.834000       15.9994           0
     67298 TIP3     14951    TIP3     H1       HT       0.417000       1.00800           0
     67299 TIP3     14951    TIP3     H2       HT       0.417000       1.00800           0
     67300 TIP3     14952    TIP3     OH2      OT      -0.834000       15.9994           0
     67301 TIP3     14952    TIP3     H1       HT       0.417000       1.00800           0
     67302 TIP3     14952    TIP3     H2       HT       0.417000       1.00800           0
     67303 TIP3     14953    TIP3     OH2      OT      -0.834000       15.9994           0
     67304 TIP3     14953    TIP3     H1       HT       0.417000       1.00800           0
     67305 TIP3     14953    TIP3     H2       HT       0.417000       1.00800           0
     67306 TIP3     14954    TIP3     OH2      OT      -0.834000       15.9994           0
     67307 TIP3     14954    TIP3     H1       HT       0.417000       1.00800           0
     67308 TIP3     14954    TIP3     H2       HT       0.417000       1.00800           0
     67309 TIP3     14955    TIP3     OH2      OT      -0.834000       15.9994           0
     67310 TIP3     14955    TIP3     H1       HT       0.417000       1.00800           0
     67311 TIP3     14955    TIP3     H2       HT       0.417000       1.00800           0
     67312 TIP3     14956    TIP3     OH2      OT      -0.834000       15.9994           0
     67313 TIP3     14956    TIP3     H1       HT       0.417000       1.00800           0
     67314 TIP3     14956    TIP3     H2       HT       0.417000       1.00800           0
     67315 TIP3     14957    TIP3     OH2      OT      -0.834000       15.9994           0
     67316 TIP3     14957    TIP3     H1       HT       0.417000       1.00800           0
     67317 TIP3     14957    TIP3     H2       HT       0.417000       1.00800           0
     67318 TIP3     14958    TIP3     OH2      OT      -0.834000       15.9994           0
     67319 TIP3     14958    TIP3     H1       HT       0.417000       1.00800           0
     67320 TIP3     14958    TIP3     H2       HT       0.417000       1.00800           0
     67321 TIP3     14959    TIP3     OH2      OT      -0.834000       15.9994           0
     67322 TIP3     14959    TIP3     H1       HT       0.417000       1.00800           0
     67323 TIP3     14959    TIP3     H2       HT       0.417000       1.00800           0
     67324 TIP3     14960    TIP3     OH2      OT      -0.834000       15.9994           0
     67325 TIP3     14960    TIP3     H1       HT       0.417000       1.00800           0
     67326 TIP3     14960    TIP3     H2       HT       0.417000       1.00800           0
     67327 TIP3     14961    TIP3     OH2      OT      -0.834000       15.9994           0
     67328 TIP3     14961    TIP3     H1       HT       0.417000       1.00800           0
     67329 TIP3     14961    TIP3     H2       HT       0.417000       1.00800           0
     67330 TIP3     14962    TIP3     OH2      OT      -0.834000       15.9994           0
     67331 TIP3     14962    TIP3     H1       HT       0.417000       1.00800           0
     67332 TIP3     14962    TIP3     H2       HT       0.417000       1.00800           0
     67333 TIP3     14963    TIP3     OH2      OT      -0.834000       15.9994           0
     67334 TIP3     14963    TIP3     H1       HT       0.417000       1.00800           0
     67335 TIP3     14963    TIP3     H2       HT       0.417000       1.00800           0
     67336 TIP3     14964    TIP3     OH2      OT      -0.834000       15.9994           0
     67337 TIP3     14964    TIP3     H1       HT       0.417000       1.00800           0
     67338 TIP3     14964    TIP3     H2       HT       0.417000       1.00800           0
     67339 TIP3     14965    TIP3     OH2      OT      -0.834000       15.9994           0
     67340 TIP3     14965    TIP3     H1       HT       0.417000       1.00800           0
     67341 TIP3     14965    TIP3     H2       HT       0.417000       1.00800           0
     67342 TIP3     14966    TIP3     OH2      OT      -0.834000       15.9994           0
     67343 TIP3     14966    TIP3     H1       HT       0.417000       1.00800           0
     67344 TIP3     14966    TIP3     H2       HT       0.417000       1.00800           0
     67345 TIP3     14967    TIP3     OH2      OT      -0.834000       15.9994           0
     67346 TIP3     14967    TIP3     H1       HT       0.417000       1.00800           0
     67347 TIP3     14967    TIP3     H2       HT       0.417000       1.00800           0
     67348 TIP3     14968    TIP3     OH2      OT      -0.834000       15.9994           0
     67349 TIP3     14968    TIP3     H1       HT       0.417000       1.00800           0
     67350 TIP3     14968    TIP3     H2       HT       0.417000       1.00800           0
     67351 TIP3     14969    TIP3     OH2      OT      -0.834000       15.9994           0
     67352 TIP3     14969    TIP3     H1       HT       0.417000       1.00800           0
     67353 TIP3     14969    TIP3     H2       HT       0.417000       1.00800           0
     67354 TIP3     14970    TIP3     OH2      OT      -0.834000       15.9994           0
     67355 TIP3     14970    TIP3     H1       HT       0.417000       1.00800           0
     67356 TIP3     14970    TIP3     H2       HT       0.417000       1.00800           0
     67357 TIP3     14971    TIP3     OH2      OT      -0.834000       15.9994           0
     67358 TIP3     14971    TIP3     H1       HT       0.417000       1.00800           0
     67359 TIP3     14971    TIP3     H2       HT       0.417000       1.00800           0
     67360 TIP3     14972    TIP3     OH2      OT      -0.834000       15.9994           0
     67361 TIP3     14972    TIP3     H1       HT       0.417000       1.00800           0
     67362 TIP3     14972    TIP3     H2       HT       0.417000       1.00800           0
     67363 TIP3     14973    TIP3     OH2      OT      -0.834000       15.9994           0
     67364 TIP3     14973    TIP3     H1       HT       0.417000       1.00800           0
     67365 TIP3     14973    TIP3     H2       HT       0.417000       1.00800           0
     67366 TIP3     14974    TIP3     OH2      OT      -0.834000       15.9994           0
     67367 TIP3     14974    TIP3     H1       HT       0.417000       1.00800           0
     67368 TIP3     14974    TIP3     H2       HT       0.417000       1.00800           0
     67369 TIP3     14975    TIP3     OH2      OT      -0.834000       15.9994           0
     67370 TIP3     14975    TIP3     H1       HT       0.417000       1.00800           0
     67371 TIP3     14975    TIP3     H2       HT       0.417000       1.00800           0
     67372 TIP3     14976    TIP3     OH2      OT      -0.834000       15.9994           0
     67373 TIP3     14976    TIP3     H1       HT       0.417000       1.00800           0
     67374 TIP3     14976    TIP3     H2       HT       0.417000       1.00800           0
     67375 TIP3     14977    TIP3     OH2      OT      -0.834000       15.9994           0
     67376 TIP3     14977    TIP3     H1       HT       0.417000       1.00800           0
     67377 TIP3     14977    TIP3     H2       HT       0.417000       1.00800           0
     67378 TIP3     14978    TIP3     OH2      OT      -0.834000       15.9994           0
     67379 TIP3     14978    TIP3     H1       HT       0.417000       1.00800           0
     67380 TIP3     14978    TIP3     H2       HT       0.417000       1.00800           0
     67381 TIP3     14979    TIP3     OH2      OT      -0.834000       15.9994           0
     67382 TIP3     14979    TIP3     H1       HT       0.417000       1.00800           0
     67383 TIP3     14979    TIP3     H2       HT       0.417000       1.00800           0
     67384 TIP3     14980    TIP3     OH2      OT      -0.834000       15.9994           0
     67385 TIP3     14980    TIP3     H1       HT       0.417000       1.00800           0
     67386 TIP3     14980    TIP3     H2       HT       0.417000       1.00800           0
     67387 TIP3     14981    TIP3     OH2      OT      -0.834000       15.9994           0
     67388 TIP3     14981    TIP3     H1       HT       0.417000       1.00800           0
     67389 TIP3     14981    TIP3     H2       HT       0.417000       1.00800           0
     67390 TIP3     14982    TIP3     OH2      OT      -0.834000       15.9994           0
     67391 TIP3     14982    TIP3     H1       HT       0.417000       1.00800           0
     67392 TIP3     14982    TIP3     H2       HT       0.417000       1.00800           0
     67393 TIP3     14983    TIP3     OH2      OT      -0.834000       15.9994           0
     67394 TIP3     14983    TIP3     H1       HT       0.417000       1.00800           0
     67395 TIP3     14983    TIP3     H2       HT       0.417000       1.00800           0
     67396 TIP3     14984    TIP3     OH2      OT      -0.834000       15.9994           0
     67397 TIP3     14984    TIP3     H1       HT       0.417000       1.00800           0
     67398 TIP3     14984    TIP3     H2       HT       0.417000       1.00800           0
     67399 TIP3     14985    TIP3     OH2      OT      -0.834000       15.9994           0
     67400 TIP3     14985    TIP3     H1       HT       0.417000       1.00800           0
     67401 TIP3     14985    TIP3     H2       HT       0.417000       1.00800           0
     67402 TIP3     14986    TIP3     OH2      OT      -0.834000       15.9994           0
     67403 TIP3     14986    TIP3     H1       HT       0.417000       1.00800           0
     67404 TIP3     14986    TIP3     H2       HT       0.417000       1.00800           0
     67405 TIP3     14987    TIP3     OH2      OT      -0.834000       15.9994           0
     67406 TIP3     14987    TIP3     H1       HT       0.417000       1.00800           0
     67407 TIP3     14987    TIP3     H2       HT       0.417000       1.00800           0
     67408 TIP3     14988    TIP3     OH2      OT      -0.834000       15.9994           0
     67409 TIP3     14988    TIP3     H1       HT       0.417000       1.00800           0
     67410 TIP3     14988    TIP3     H2       HT       0.417000       1.00800           0
     67411 TIP3     14989    TIP3     OH2      OT      -0.834000       15.9994           0
     67412 TIP3     14989    TIP3     H1       HT       0.417000       1.00800           0
     67413 TIP3     14989    TIP3     H2       HT       0.417000       1.00800           0
     67414 TIP3     14990    TIP3     OH2      OT      -0.834000       15.9994           0
     67415 TIP3     14990    TIP3     H1       HT       0.417000       1.00800           0
     67416 TIP3     14990    TIP3     H2       HT       0.417000       1.00800           0
     67417 TIP3     14991    TIP3     OH2      OT      -0.834000       15.9994           0
     67418 TIP3     14991    TIP3     H1       HT       0.417000       1.00800           0
     67419 TIP3     14991    TIP3     H2       HT       0.417000       1.00800           0
     67420 TIP3     14992    TIP3     OH2      OT      -0.834000       15.9994           0
     67421 TIP3     14992    TIP3     H1       HT       0.417000       1.00800           0
     67422 TIP3     14992    TIP3     H2       HT       0.417000       1.00800           0
     67423 TIP3     14993    TIP3     OH2      OT      -0.834000       15.9994           0
     67424 TIP3     14993    TIP3     H1       HT       0.417000       1.00800           0
     67425 TIP3     14993    TIP3     H2       HT       0.417000       1.00800           0
     67426 TIP3     14994    TIP3     OH2      OT      -0.834000       15.9994           0
     67427 TIP3     14994    TIP3     H1       HT       0.417000       1.00800           0
     67428 TIP3     14994    TIP3     H2       HT       0.417000       1.00800           0
     67429 TIP3     14995    TIP3     OH2      OT      -0.834000       15.9994           0
     67430 TIP3     14995    TIP3     H1       HT       0.417000       1.00800           0
     67431 TIP3     14995    TIP3     H2       HT       0.417000       1.00800           0
     67432 TIP3     14996    TIP3     OH2      OT      -0.834000       15.9994           0
     67433 TIP3     14996    TIP3     H1       HT       0.417000       1.00800           0
     67434 TIP3     14996    TIP3     H2       HT       0.417000       1.00800           0
     67435 TIP3     14997    TIP3     OH2      OT      -0.834000       15.9994           0
     67436 TIP3     14997    TIP3     H1       HT       0.417000       1.00800           0
     67437 TIP3     14997    TIP3     H2       HT       0.417000       1.00800           0
     67438 TIP3     14998    TIP3     OH2      OT      -0.834000       15.9994           0
     67439 TIP3     14998    TIP3     H1       HT       0.417000       1.00800           0
     67440 TIP3     14998    TIP3     H2       HT       0.417000       1.00800           0
     67441 TIP3     14999    TIP3     OH2      OT      -0.834000       15.9994           0
     67442 TIP3     14999    TIP3     H1       HT       0.417000       1.00800           0
     67443 TIP3     14999    TIP3     H2       HT       0.417000       1.00800           0
     67444 TIP3     15000    TIP3     OH2      OT      -0.834000       15.9994           0
     67445 TIP3     15000    TIP3     H1       HT       0.417000       1.00800           0
     67446 TIP3     15000    TIP3     H2       HT       0.417000       1.00800           0
     67447 TIP3     15001    TIP3     OH2      OT      -0.834000       15.9994           0
     67448 TIP3     15001    TIP3     H1       HT       0.417000       1.00800           0
     67449 TIP3     15001    TIP3     H2       HT       0.417000       1.00800           0
     67450 TIP3     15002    TIP3     OH2      OT      -0.834000       15.9994           0
     67451 TIP3     15002    TIP3     H1       HT       0.417000       1.00800           0
     67452 TIP3     15002    TIP3     H2       HT       0.417000       1.00800           0
     67453 TIP3     15003    TIP3     OH2      OT      -0.834000       15.9994           0
     67454 TIP3     15003    TIP3     H1       HT       0.417000       1.00800           0
     67455 TIP3     15003    TIP3     H2       HT       0.417000       1.00800           0
     67456 TIP3     15004    TIP3     OH2      OT      -0.834000       15.9994           0
     67457 TIP3     15004    TIP3     H1       HT       0.417000       1.00800           0
     67458 TIP3     15004    TIP3     H2       HT       0.417000       1.00800           0
     67459 TIP3     15005    TIP3     OH2      OT      -0.834000       15.9994           0
     67460 TIP3     15005    TIP3     H1       HT       0.417000       1.00800           0
     67461 TIP3     15005    TIP3     H2       HT       0.417000       1.00800           0
     67462 TIP3     15006    TIP3     OH2      OT      -0.834000       15.9994           0
     67463 TIP3     15006    TIP3     H1       HT       0.417000       1.00800           0
     67464 TIP3     15006    TIP3     H2       HT       0.417000       1.00800           0
     67465 TIP3     15007    TIP3     OH2      OT      -0.834000       15.9994           0
     67466 TIP3     15007    TIP3     H1       HT       0.417000       1.00800           0
     67467 TIP3     15007    TIP3     H2       HT       0.417000       1.00800           0
     67468 TIP3     15008    TIP3     OH2      OT      -0.834000       15.9994           0
     67469 TIP3     15008    TIP3     H1       HT       0.417000       1.00800           0
     67470 TIP3     15008    TIP3     H2       HT       0.417000       1.00800           0
     67471 TIP3     15009    TIP3     OH2      OT      -0.834000       15.9994           0
     67472 TIP3     15009    TIP3     H1       HT       0.417000       1.00800           0
     67473 TIP3     15009    TIP3     H2       HT       0.417000       1.00800           0
     67474 TIP3     15010    TIP3     OH2      OT      -0.834000       15.9994           0
     67475 TIP3     15010    TIP3     H1       HT       0.417000       1.00800           0
     67476 TIP3     15010    TIP3     H2       HT       0.417000       1.00800           0
     67477 TIP3     15011    TIP3     OH2      OT      -0.834000       15.9994           0
     67478 TIP3     15011    TIP3     H1       HT       0.417000       1.00800           0
     67479 TIP3     15011    TIP3     H2       HT       0.417000       1.00800           0
     67480 TIP3     15012    TIP3     OH2      OT      -0.834000       15.9994           0
     67481 TIP3     15012    TIP3     H1       HT       0.417000       1.00800           0
     67482 TIP3     15012    TIP3     H2       HT       0.417000       1.00800           0
     67483 TIP3     15013    TIP3     OH2      OT      -0.834000       15.9994           0
     67484 TIP3     15013    TIP3     H1       HT       0.417000       1.00800           0
     67485 TIP3     15013    TIP3     H2       HT       0.417000       1.00800           0
     67486 TIP3     15014    TIP3     OH2      OT      -0.834000       15.9994           0
     67487 TIP3     15014    TIP3     H1       HT       0.417000       1.00800           0
     67488 TIP3     15014    TIP3     H2       HT       0.417000       1.00800           0
     67489 TIP3     15015    TIP3     OH2      OT      -0.834000       15.9994           0
     67490 TIP3     15015    TIP3     H1       HT       0.417000       1.00800           0
     67491 TIP3     15015    TIP3     H2       HT       0.417000       1.00800           0
     67492 TIP3     15016    TIP3     OH2      OT      -0.834000       15.9994           0
     67493 TIP3     15016    TIP3     H1       HT       0.417000       1.00800           0
     67494 TIP3     15016    TIP3     H2       HT       0.417000       1.00800           0
     67495 TIP3     15017    TIP3     OH2      OT      -0.834000       15.9994           0
     67496 TIP3     15017    TIP3     H1       HT       0.417000       1.00800           0
     67497 TIP3     15017    TIP3     H2       HT       0.417000       1.00800           0
     67498 TIP3     15018    TIP3     OH2      OT      -0.834000       15.9994           0
     67499 TIP3     15018    TIP3     H1       HT       0.417000       1.00800           0
     67500 TIP3     15018    TIP3     H2       HT       0.417000       1.00800           0
     67501 TIP3     15019    TIP3     OH2      OT      -0.834000       15.9994           0
     67502 TIP3     15019    TIP3     H1       HT       0.417000       1.00800           0
     67503 TIP3     15019    TIP3     H2       HT       0.417000       1.00800           0
     67504 TIP3     15020    TIP3     OH2      OT      -0.834000       15.9994           0
     67505 TIP3     15020    TIP3     H1       HT       0.417000       1.00800           0
     67506 TIP3     15020    TIP3     H2       HT       0.417000       1.00800           0
     67507 TIP3     15021    TIP3     OH2      OT      -0.834000       15.9994           0
     67508 TIP3     15021    TIP3     H1       HT       0.417000       1.00800           0
     67509 TIP3     15021    TIP3     H2       HT       0.417000       1.00800           0
     67510 TIP3     15022    TIP3     OH2      OT      -0.834000       15.9994           0
     67511 TIP3     15022    TIP3     H1       HT       0.417000       1.00800           0
     67512 TIP3     15022    TIP3     H2       HT       0.417000       1.00800           0
     67513 TIP3     15023    TIP3     OH2      OT      -0.834000       15.9994           0
     67514 TIP3     15023    TIP3     H1       HT       0.417000       1.00800           0
     67515 TIP3     15023    TIP3     H2       HT       0.417000       1.00800           0
     67516 TIP3     15024    TIP3     OH2      OT      -0.834000       15.9994           0
     67517 TIP3     15024    TIP3     H1       HT       0.417000       1.00800           0
     67518 TIP3     15024    TIP3     H2       HT       0.417000       1.00800           0
     67519 TIP3     15025    TIP3     OH2      OT      -0.834000       15.9994           0
     67520 TIP3     15025    TIP3     H1       HT       0.417000       1.00800           0
     67521 TIP3     15025    TIP3     H2       HT       0.417000       1.00800           0
     67522 TIP3     15026    TIP3     OH2      OT      -0.834000       15.9994           0
     67523 TIP3     15026    TIP3     H1       HT       0.417000       1.00800           0
     67524 TIP3     15026    TIP3     H2       HT       0.417000       1.00800           0
     67525 TIP3     15027    TIP3     OH2      OT      -0.834000       15.9994           0
     67526 TIP3     15027    TIP3     H1       HT       0.417000       1.00800           0
     67527 TIP3     15027    TIP3     H2       HT       0.417000       1.00800           0
     67528 TIP3     15028    TIP3     OH2      OT      -0.834000       15.9994           0
     67529 TIP3     15028    TIP3     H1       HT       0.417000       1.00800           0
     67530 TIP3     15028    TIP3     H2       HT       0.417000       1.00800           0
     67531 TIP3     15029    TIP3     OH2      OT      -0.834000       15.9994           0
     67532 TIP3     15029    TIP3     H1       HT       0.417000       1.00800           0
     67533 TIP3     15029    TIP3     H2       HT       0.417000       1.00800           0
     67534 TIP3     15030    TIP3     OH2      OT      -0.834000       15.9994           0
     67535 TIP3     15030    TIP3     H1       HT       0.417000       1.00800           0
     67536 TIP3     15030    TIP3     H2       HT       0.417000       1.00800           0
     67537 TIP3     15031    TIP3     OH2      OT      -0.834000       15.9994           0
     67538 TIP3     15031    TIP3     H1       HT       0.417000       1.00800           0
     67539 TIP3     15031    TIP3     H2       HT       0.417000       1.00800           0
     67540 TIP3     15032    TIP3     OH2      OT      -0.834000       15.9994           0
     67541 TIP3     15032    TIP3     H1       HT       0.417000       1.00800           0
     67542 TIP3     15032    TIP3     H2       HT       0.417000       1.00800           0
     67543 TIP3     15033    TIP3     OH2      OT      -0.834000       15.9994           0
     67544 TIP3     15033    TIP3     H1       HT       0.417000       1.00800           0
     67545 TIP3     15033    TIP3     H2       HT       0.417000       1.00800           0
     67546 TIP3     15034    TIP3     OH2      OT      -0.834000       15.9994           0
     67547 TIP3     15034    TIP3     H1       HT       0.417000       1.00800           0
     67548 TIP3     15034    TIP3     H2       HT       0.417000       1.00800           0
     67549 TIP3     15035    TIP3     OH2      OT      -0.834000       15.9994           0
     67550 TIP3     15035    TIP3     H1       HT       0.417000       1.00800           0
     67551 TIP3     15035    TIP3     H2       HT       0.417000       1.00800           0
     67552 TIP3     15036    TIP3     OH2      OT      -0.834000       15.9994           0
     67553 TIP3     15036    TIP3     H1       HT       0.417000       1.00800           0
     67554 TIP3     15036    TIP3     H2       HT       0.417000       1.00800           0
     67555 TIP3     15037    TIP3     OH2      OT      -0.834000       15.9994           0
     67556 TIP3     15037    TIP3     H1       HT       0.417000       1.00800           0
     67557 TIP3     15037    TIP3     H2       HT       0.417000       1.00800           0
     67558 TIP3     15038    TIP3     OH2      OT      -0.834000       15.9994           0
     67559 TIP3     15038    TIP3     H1       HT       0.417000       1.00800           0
     67560 TIP3     15038    TIP3     H2       HT       0.417000       1.00800           0
     67561 TIP3     15039    TIP3     OH2      OT      -0.834000       15.9994           0
     67562 TIP3     15039    TIP3     H1       HT       0.417000       1.00800           0
     67563 TIP3     15039    TIP3     H2       HT       0.417000       1.00800           0
     67564 TIP3     15040    TIP3     OH2      OT      -0.834000       15.9994           0
     67565 TIP3     15040    TIP3     H1       HT       0.417000       1.00800           0
     67566 TIP3     15040    TIP3     H2       HT       0.417000       1.00800           0
     67567 TIP3     15041    TIP3     OH2      OT      -0.834000       15.9994           0
     67568 TIP3     15041    TIP3     H1       HT       0.417000       1.00800           0
     67569 TIP3     15041    TIP3     H2       HT       0.417000       1.00800           0
     67570 TIP3     15042    TIP3     OH2      OT      -0.834000       15.9994           0
     67571 TIP3     15042    TIP3     H1       HT       0.417000       1.00800           0
     67572 TIP3     15042    TIP3     H2       HT       0.417000       1.00800           0
     67573 TIP3     15043    TIP3     OH2      OT      -0.834000       15.9994           0
     67574 TIP3     15043    TIP3     H1       HT       0.417000       1.00800           0
     67575 TIP3     15043    TIP3     H2       HT       0.417000       1.00800           0
     67576 TIP3     15044    TIP3     OH2      OT      -0.834000       15.9994           0
     67577 TIP3     15044    TIP3     H1       HT       0.417000       1.00800           0
     67578 TIP3     15044    TIP3     H2       HT       0.417000       1.00800           0
     67579 TIP3     15045    TIP3     OH2      OT      -0.834000       15.9994           0
     67580 TIP3     15045    TIP3     H1       HT       0.417000       1.00800           0
     67581 TIP3     15045    TIP3     H2       HT       0.417000       1.00800           0
     67582 TIP3     15046    TIP3     OH2      OT      -0.834000       15.9994           0
     67583 TIP3     15046    TIP3     H1       HT       0.417000       1.00800           0
     67584 TIP3     15046    TIP3     H2       HT       0.417000       1.00800           0
     67585 TIP3     15047    TIP3     OH2      OT      -0.834000       15.9994           0
     67586 TIP3     15047    TIP3     H1       HT       0.417000       1.00800           0
     67587 TIP3     15047    TIP3     H2       HT       0.417000       1.00800           0
     67588 TIP3     15048    TIP3     OH2      OT      -0.834000       15.9994           0
     67589 TIP3     15048    TIP3     H1       HT       0.417000       1.00800           0
     67590 TIP3     15048    TIP3     H2       HT       0.417000       1.00800           0
     67591 TIP3     15049    TIP3     OH2      OT      -0.834000       15.9994           0
     67592 TIP3     15049    TIP3     H1       HT       0.417000       1.00800           0
     67593 TIP3     15049    TIP3     H2       HT       0.417000       1.00800           0
     67594 TIP3     15050    TIP3     OH2      OT      -0.834000       15.9994           0
     67595 TIP3     15050    TIP3     H1       HT       0.417000       1.00800           0
     67596 TIP3     15050    TIP3     H2       HT       0.417000       1.00800           0
     67597 TIP3     15051    TIP3     OH2      OT      -0.834000       15.9994           0
     67598 TIP3     15051    TIP3     H1       HT       0.417000       1.00800           0
     67599 TIP3     15051    TIP3     H2       HT       0.417000       1.00800           0
     67600 TIP3     15052    TIP3     OH2      OT      -0.834000       15.9994           0
     67601 TIP3     15052    TIP3     H1       HT       0.417000       1.00800           0
     67602 TIP3     15052    TIP3     H2       HT       0.417000       1.00800           0
     67603 TIP3     15053    TIP3     OH2      OT      -0.834000       15.9994           0
     67604 TIP3     15053    TIP3     H1       HT       0.417000       1.00800           0
     67605 TIP3     15053    TIP3     H2       HT       0.417000       1.00800           0
     67606 TIP3     15054    TIP3     OH2      OT      -0.834000       15.9994           0
     67607 TIP3     15054    TIP3     H1       HT       0.417000       1.00800           0
     67608 TIP3     15054    TIP3     H2       HT       0.417000       1.00800           0
     67609 TIP3     15055    TIP3     OH2      OT      -0.834000       15.9994           0
     67610 TIP3     15055    TIP3     H1       HT       0.417000       1.00800           0
     67611 TIP3     15055    TIP3     H2       HT       0.417000       1.00800           0
     67612 TIP3     15056    TIP3     OH2      OT      -0.834000       15.9994           0
     67613 TIP3     15056    TIP3     H1       HT       0.417000       1.00800           0
     67614 TIP3     15056    TIP3     H2       HT       0.417000       1.00800           0
     67615 TIP3     15057    TIP3     OH2      OT      -0.834000       15.9994           0
     67616 TIP3     15057    TIP3     H1       HT       0.417000       1.00800           0
     67617 TIP3     15057    TIP3     H2       HT       0.417000       1.00800           0
     67618 TIP3     15058    TIP3     OH2      OT      -0.834000       15.9994           0
     67619 TIP3     15058    TIP3     H1       HT       0.417000       1.00800           0
     67620 TIP3     15058    TIP3     H2       HT       0.417000       1.00800           0
     67621 TIP3     15059    TIP3     OH2      OT      -0.834000       15.9994           0
     67622 TIP3     15059    TIP3     H1       HT       0.417000       1.00800           0
     67623 TIP3     15059    TIP3     H2       HT       0.417000       1.00800           0
     67624 TIP3     15060    TIP3     OH2      OT      -0.834000       15.9994           0
     67625 TIP3     15060    TIP3     H1       HT       0.417000       1.00800           0
     67626 TIP3     15060    TIP3     H2       HT       0.417000       1.00800           0
     67627 TIP3     15061    TIP3     OH2      OT      -0.834000       15.9994           0
     67628 TIP3     15061    TIP3     H1       HT       0.417000       1.00800           0
     67629 TIP3     15061    TIP3     H2       HT       0.417000       1.00800           0
     67630 TIP3     15062    TIP3     OH2      OT      -0.834000       15.9994           0
     67631 TIP3     15062    TIP3     H1       HT       0.417000       1.00800           0
     67632 TIP3     15062    TIP3     H2       HT       0.417000       1.00800           0
     67633 TIP3     15063    TIP3     OH2      OT      -0.834000       15.9994           0
     67634 TIP3     15063    TIP3     H1       HT       0.417000       1.00800           0
     67635 TIP3     15063    TIP3     H2       HT       0.417000       1.00800           0
     67636 TIP3     15064    TIP3     OH2      OT      -0.834000       15.9994           0
     67637 TIP3     15064    TIP3     H1       HT       0.417000       1.00800           0
     67638 TIP3     15064    TIP3     H2       HT       0.417000       1.00800           0
     67639 TIP3     15065    TIP3     OH2      OT      -0.834000       15.9994           0
     67640 TIP3     15065    TIP3     H1       HT       0.417000       1.00800           0
     67641 TIP3     15065    TIP3     H2       HT       0.417000       1.00800           0
     67642 TIP3     15066    TIP3     OH2      OT      -0.834000       15.9994           0
     67643 TIP3     15066    TIP3     H1       HT       0.417000       1.00800           0
     67644 TIP3     15066    TIP3     H2       HT       0.417000       1.00800           0
     67645 TIP3     15067    TIP3     OH2      OT      -0.834000       15.9994           0
     67646 TIP3     15067    TIP3     H1       HT       0.417000       1.00800           0
     67647 TIP3     15067    TIP3     H2       HT       0.417000       1.00800           0
     67648 TIP3     15068    TIP3     OH2      OT      -0.834000       15.9994           0
     67649 TIP3     15068    TIP3     H1       HT       0.417000       1.00800           0
     67650 TIP3     15068    TIP3     H2       HT       0.417000       1.00800           0
     67651 TIP3     15069    TIP3     OH2      OT      -0.834000       15.9994           0
     67652 TIP3     15069    TIP3     H1       HT       0.417000       1.00800           0
     67653 TIP3     15069    TIP3     H2       HT       0.417000       1.00800           0
     67654 TIP3     15070    TIP3     OH2      OT      -0.834000       15.9994           0
     67655 TIP3     15070    TIP3     H1       HT       0.417000       1.00800           0
     67656 TIP3     15070    TIP3     H2       HT       0.417000       1.00800           0
     67657 TIP3     15071    TIP3     OH2      OT      -0.834000       15.9994           0
     67658 TIP3     15071    TIP3     H1       HT       0.417000       1.00800           0
     67659 TIP3     15071    TIP3     H2       HT       0.417000       1.00800           0
     67660 TIP3     15072    TIP3     OH2      OT      -0.834000       15.9994           0
     67661 TIP3     15072    TIP3     H1       HT       0.417000       1.00800           0
     67662 TIP3     15072    TIP3     H2       HT       0.417000       1.00800           0
     67663 TIP3     15073    TIP3     OH2      OT      -0.834000       15.9994           0
     67664 TIP3     15073    TIP3     H1       HT       0.417000       1.00800           0
     67665 TIP3     15073    TIP3     H2       HT       0.417000       1.00800           0
     67666 TIP3     15074    TIP3     OH2      OT      -0.834000       15.9994           0
     67667 TIP3     15074    TIP3     H1       HT       0.417000       1.00800           0
     67668 TIP3     15074    TIP3     H2       HT       0.417000       1.00800           0
     67669 TIP3     15075    TIP3     OH2      OT      -0.834000       15.9994           0
     67670 TIP3     15075    TIP3     H1       HT       0.417000       1.00800           0
     67671 TIP3     15075    TIP3     H2       HT       0.417000       1.00800           0
     67672 TIP3     15076    TIP3     OH2      OT      -0.834000       15.9994           0
     67673 TIP3     15076    TIP3     H1       HT       0.417000       1.00800           0
     67674 TIP3     15076    TIP3     H2       HT       0.417000       1.00800           0
     67675 TIP3     15077    TIP3     OH2      OT      -0.834000       15.9994           0
     67676 TIP3     15077    TIP3     H1       HT       0.417000       1.00800           0
     67677 TIP3     15077    TIP3     H2       HT       0.417000       1.00800           0
     67678 TIP3     15078    TIP3     OH2      OT      -0.834000       15.9994           0
     67679 TIP3     15078    TIP3     H1       HT       0.417000       1.00800           0
     67680 TIP3     15078    TIP3     H2       HT       0.417000       1.00800           0
     67681 TIP3     15079    TIP3     OH2      OT      -0.834000       15.9994           0
     67682 TIP3     15079    TIP3     H1       HT       0.417000       1.00800           0
     67683 TIP3     15079    TIP3     H2       HT       0.417000       1.00800           0
     67684 TIP3     15080    TIP3     OH2      OT      -0.834000       15.9994           0
     67685 TIP3     15080    TIP3     H1       HT       0.417000       1.00800           0
     67686 TIP3     15080    TIP3     H2       HT       0.417000       1.00800           0
     67687 TIP3     15081    TIP3     OH2      OT      -0.834000       15.9994           0
     67688 TIP3     15081    TIP3     H1       HT       0.417000       1.00800           0
     67689 TIP3     15081    TIP3     H2       HT       0.417000       1.00800           0
     67690 TIP3     15082    TIP3     OH2      OT      -0.834000       15.9994           0
     67691 TIP3     15082    TIP3     H1       HT       0.417000       1.00800           0
     67692 TIP3     15082    TIP3     H2       HT       0.417000       1.00800           0
     67693 TIP3     15083    TIP3     OH2      OT      -0.834000       15.9994           0
     67694 TIP3     15083    TIP3     H1       HT       0.417000       1.00800           0
     67695 TIP3     15083    TIP3     H2       HT       0.417000       1.00800           0
     67696 TIP3     15084    TIP3     OH2      OT      -0.834000       15.9994           0
     67697 TIP3     15084    TIP3     H1       HT       0.417000       1.00800           0
     67698 TIP3     15084    TIP3     H2       HT       0.417000       1.00800           0
     67699 TIP3     15085    TIP3     OH2      OT      -0.834000       15.9994           0
     67700 TIP3     15085    TIP3     H1       HT       0.417000       1.00800           0
     67701 TIP3     15085    TIP3     H2       HT       0.417000       1.00800           0
     67702 TIP3     15086    TIP3     OH2      OT      -0.834000       15.9994           0
     67703 TIP3     15086    TIP3     H1       HT       0.417000       1.00800           0
     67704 TIP3     15086    TIP3     H2       HT       0.417000       1.00800           0
     67705 TIP3     15087    TIP3     OH2      OT      -0.834000       15.9994           0
     67706 TIP3     15087    TIP3     H1       HT       0.417000       1.00800           0
     67707 TIP3     15087    TIP3     H2       HT       0.417000       1.00800           0
     67708 TIP3     15088    TIP3     OH2      OT      -0.834000       15.9994           0
     67709 TIP3     15088    TIP3     H1       HT       0.417000       1.00800           0
     67710 TIP3     15088    TIP3     H2       HT       0.417000       1.00800           0
     67711 TIP3     15089    TIP3     OH2      OT      -0.834000       15.9994           0
     67712 TIP3     15089    TIP3     H1       HT       0.417000       1.00800           0
     67713 TIP3     15089    TIP3     H2       HT       0.417000       1.00800           0
     67714 TIP3     15090    TIP3     OH2      OT      -0.834000       15.9994           0
     67715 TIP3     15090    TIP3     H1       HT       0.417000       1.00800           0
     67716 TIP3     15090    TIP3     H2       HT       0.417000       1.00800           0
     67717 TIP3     15091    TIP3     OH2      OT      -0.834000       15.9994           0
     67718 TIP3     15091    TIP3     H1       HT       0.417000       1.00800           0
     67719 TIP3     15091    TIP3     H2       HT       0.417000       1.00800           0
     67720 TIP3     15092    TIP3     OH2      OT      -0.834000       15.9994           0
     67721 TIP3     15092    TIP3     H1       HT       0.417000       1.00800           0
     67722 TIP3     15092    TIP3     H2       HT       0.417000       1.00800           0
     67723 TIP3     15093    TIP3     OH2      OT      -0.834000       15.9994           0
     67724 TIP3     15093    TIP3     H1       HT       0.417000       1.00800           0
     67725 TIP3     15093    TIP3     H2       HT       0.417000       1.00800           0
     67726 TIP3     15094    TIP3     OH2      OT      -0.834000       15.9994           0
     67727 TIP3     15094    TIP3     H1       HT       0.417000       1.00800           0
     67728 TIP3     15094    TIP3     H2       HT       0.417000       1.00800           0
     67729 TIP3     15095    TIP3     OH2      OT      -0.834000       15.9994           0
     67730 TIP3     15095    TIP3     H1       HT       0.417000       1.00800           0
     67731 TIP3     15095    TIP3     H2       HT       0.417000       1.00800           0
     67732 TIP3     15096    TIP3     OH2      OT      -0.834000       15.9994           0
     67733 TIP3     15096    TIP3     H1       HT       0.417000       1.00800           0
     67734 TIP3     15096    TIP3     H2       HT       0.417000       1.00800           0
     67735 TIP3     15097    TIP3     OH2      OT      -0.834000       15.9994           0
     67736 TIP3     15097    TIP3     H1       HT       0.417000       1.00800           0
     67737 TIP3     15097    TIP3     H2       HT       0.417000       1.00800           0
     67738 TIP3     15098    TIP3     OH2      OT      -0.834000       15.9994           0
     67739 TIP3     15098    TIP3     H1       HT       0.417000       1.00800           0
     67740 TIP3     15098    TIP3     H2       HT       0.417000       1.00800           0
     67741 TIP3     15099    TIP3     OH2      OT      -0.834000       15.9994           0
     67742 TIP3     15099    TIP3     H1       HT       0.417000       1.00800           0
     67743 TIP3     15099    TIP3     H2       HT       0.417000       1.00800           0
     67744 TIP3     15100    TIP3     OH2      OT      -0.834000       15.9994           0
     67745 TIP3     15100    TIP3     H1       HT       0.417000       1.00800           0
     67746 TIP3     15100    TIP3     H2       HT       0.417000       1.00800           0
     67747 TIP3     15101    TIP3     OH2      OT      -0.834000       15.9994           0
     67748 TIP3     15101    TIP3     H1       HT       0.417000       1.00800           0
     67749 TIP3     15101    TIP3     H2       HT       0.417000       1.00800           0
     67750 TIP3     15102    TIP3     OH2      OT      -0.834000       15.9994           0
     67751 TIP3     15102    TIP3     H1       HT       0.417000       1.00800           0
     67752 TIP3     15102    TIP3     H2       HT       0.417000       1.00800           0
     67753 TIP3     15103    TIP3     OH2      OT      -0.834000       15.9994           0
     67754 TIP3     15103    TIP3     H1       HT       0.417000       1.00800           0
     67755 TIP3     15103    TIP3     H2       HT       0.417000       1.00800           0
     67756 TIP3     15104    TIP3     OH2      OT      -0.834000       15.9994           0
     67757 TIP3     15104    TIP3     H1       HT       0.417000       1.00800           0
     67758 TIP3     15104    TIP3     H2       HT       0.417000       1.00800           0
     67759 TIP3     15105    TIP3     OH2      OT      -0.834000       15.9994           0
     67760 TIP3     15105    TIP3     H1       HT       0.417000       1.00800           0
     67761 TIP3     15105    TIP3     H2       HT       0.417000       1.00800           0
     67762 TIP3     15106    TIP3     OH2      OT      -0.834000       15.9994           0
     67763 TIP3     15106    TIP3     H1       HT       0.417000       1.00800           0
     67764 TIP3     15106    TIP3     H2       HT       0.417000       1.00800           0
     67765 TIP3     15107    TIP3     OH2      OT      -0.834000       15.9994           0
     67766 TIP3     15107    TIP3     H1       HT       0.417000       1.00800           0
     67767 TIP3     15107    TIP3     H2       HT       0.417000       1.00800           0
     67768 TIP3     15108    TIP3     OH2      OT      -0.834000       15.9994           0
     67769 TIP3     15108    TIP3     H1       HT       0.417000       1.00800           0
     67770 TIP3     15108    TIP3     H2       HT       0.417000       1.00800           0
     67771 TIP3     15109    TIP3     OH2      OT      -0.834000       15.9994           0
     67772 TIP3     15109    TIP3     H1       HT       0.417000       1.00800           0
     67773 TIP3     15109    TIP3     H2       HT       0.417000       1.00800           0
     67774 TIP3     15110    TIP3     OH2      OT      -0.834000       15.9994           0
     67775 TIP3     15110    TIP3     H1       HT       0.417000       1.00800           0
     67776 TIP3     15110    TIP3     H2       HT       0.417000       1.00800           0
     67777 TIP3     15111    TIP3     OH2      OT      -0.834000       15.9994           0
     67778 TIP3     15111    TIP3     H1       HT       0.417000       1.00800           0
     67779 TIP3     15111    TIP3     H2       HT       0.417000       1.00800           0
     67780 TIP3     15112    TIP3     OH2      OT      -0.834000       15.9994           0
     67781 TIP3     15112    TIP3     H1       HT       0.417000       1.00800           0
     67782 TIP3     15112    TIP3     H2       HT       0.417000       1.00800           0
     67783 TIP3     15113    TIP3     OH2      OT      -0.834000       15.9994           0
     67784 TIP3     15113    TIP3     H1       HT       0.417000       1.00800           0
     67785 TIP3     15113    TIP3     H2       HT       0.417000       1.00800           0
     67786 TIP3     15114    TIP3     OH2      OT      -0.834000       15.9994           0
     67787 TIP3     15114    TIP3     H1       HT       0.417000       1.00800           0
     67788 TIP3     15114    TIP3     H2       HT       0.417000       1.00800           0
     67789 TIP3     15115    TIP3     OH2      OT      -0.834000       15.9994           0
     67790 TIP3     15115    TIP3     H1       HT       0.417000       1.00800           0
     67791 TIP3     15115    TIP3     H2       HT       0.417000       1.00800           0
     67792 TIP3     15116    TIP3     OH2      OT      -0.834000       15.9994           0
     67793 TIP3     15116    TIP3     H1       HT       0.417000       1.00800           0
     67794 TIP3     15116    TIP3     H2       HT       0.417000       1.00800           0
     67795 TIP3     15117    TIP3     OH2      OT      -0.834000       15.9994           0
     67796 TIP3     15117    TIP3     H1       HT       0.417000       1.00800           0
     67797 TIP3     15117    TIP3     H2       HT       0.417000       1.00800           0
     67798 TIP3     15118    TIP3     OH2      OT      -0.834000       15.9994           0
     67799 TIP3     15118    TIP3     H1       HT       0.417000       1.00800           0
     67800 TIP3     15118    TIP3     H2       HT       0.417000       1.00800           0
     67801 TIP3     15119    TIP3     OH2      OT      -0.834000       15.9994           0
     67802 TIP3     15119    TIP3     H1       HT       0.417000       1.00800           0
     67803 TIP3     15119    TIP3     H2       HT       0.417000       1.00800           0
     67804 TIP3     15120    TIP3     OH2      OT      -0.834000       15.9994           0
     67805 TIP3     15120    TIP3     H1       HT       0.417000       1.00800           0
     67806 TIP3     15120    TIP3     H2       HT       0.417000       1.00800           0
     67807 TIP3     15121    TIP3     OH2      OT      -0.834000       15.9994           0
     67808 TIP3     15121    TIP3     H1       HT       0.417000       1.00800           0
     67809 TIP3     15121    TIP3     H2       HT       0.417000       1.00800           0
     67810 TIP3     15122    TIP3     OH2      OT      -0.834000       15.9994           0
     67811 TIP3     15122    TIP3     H1       HT       0.417000       1.00800           0
     67812 TIP3     15122    TIP3     H2       HT       0.417000       1.00800           0
     67813 TIP3     15123    TIP3     OH2      OT      -0.834000       15.9994           0
     67814 TIP3     15123    TIP3     H1       HT       0.417000       1.00800           0
     67815 TIP3     15123    TIP3     H2       HT       0.417000       1.00800           0
     67816 TIP3     15124    TIP3     OH2      OT      -0.834000       15.9994           0
     67817 TIP3     15124    TIP3     H1       HT       0.417000       1.00800           0
     67818 TIP3     15124    TIP3     H2       HT       0.417000       1.00800           0
     67819 TIP3     15125    TIP3     OH2      OT      -0.834000       15.9994           0
     67820 TIP3     15125    TIP3     H1       HT       0.417000       1.00800           0
     67821 TIP3     15125    TIP3     H2       HT       0.417000       1.00800           0
     67822 TIP3     15126    TIP3     OH2      OT      -0.834000       15.9994           0
     67823 TIP3     15126    TIP3     H1       HT       0.417000       1.00800           0
     67824 TIP3     15126    TIP3     H2       HT       0.417000       1.00800           0
     67825 TIP3     15127    TIP3     OH2      OT      -0.834000       15.9994           0
     67826 TIP3     15127    TIP3     H1       HT       0.417000       1.00800           0
     67827 TIP3     15127    TIP3     H2       HT       0.417000       1.00800           0
     67828 TIP3     15128    TIP3     OH2      OT      -0.834000       15.9994           0
     67829 TIP3     15128    TIP3     H1       HT       0.417000       1.00800           0
     67830 TIP3     15128    TIP3     H2       HT       0.417000       1.00800           0
     67831 TIP3     15129    TIP3     OH2      OT      -0.834000       15.9994           0
     67832 TIP3     15129    TIP3     H1       HT       0.417000       1.00800           0
     67833 TIP3     15129    TIP3     H2       HT       0.417000       1.00800           0
     67834 TIP3     15130    TIP3     OH2      OT      -0.834000       15.9994           0
     67835 TIP3     15130    TIP3     H1       HT       0.417000       1.00800           0
     67836 TIP3     15130    TIP3     H2       HT       0.417000       1.00800           0
     67837 TIP3     15131    TIP3     OH2      OT      -0.834000       15.9994           0
     67838 TIP3     15131    TIP3     H1       HT       0.417000       1.00800           0
     67839 TIP3     15131    TIP3     H2       HT       0.417000       1.00800           0
     67840 TIP3     15132    TIP3     OH2      OT      -0.834000       15.9994           0
     67841 TIP3     15132    TIP3     H1       HT       0.417000       1.00800           0
     67842 TIP3     15132    TIP3     H2       HT       0.417000       1.00800           0
     67843 TIP3     15133    TIP3     OH2      OT      -0.834000       15.9994           0
     67844 TIP3     15133    TIP3     H1       HT       0.417000       1.00800           0
     67845 TIP3     15133    TIP3     H2       HT       0.417000       1.00800           0
     67846 TIP3     15134    TIP3     OH2      OT      -0.834000       15.9994           0
     67847 TIP3     15134    TIP3     H1       HT       0.417000       1.00800           0
     67848 TIP3     15134    TIP3     H2       HT       0.417000       1.00800           0
     67849 TIP3     15135    TIP3     OH2      OT      -0.834000       15.9994           0
     67850 TIP3     15135    TIP3     H1       HT       0.417000       1.00800           0
     67851 TIP3     15135    TIP3     H2       HT       0.417000       1.00800           0
     67852 TIP3     15136    TIP3     OH2      OT      -0.834000       15.9994           0
     67853 TIP3     15136    TIP3     H1       HT       0.417000       1.00800           0
     67854 TIP3     15136    TIP3     H2       HT       0.417000       1.00800           0
     67855 TIP3     15137    TIP3     OH2      OT      -0.834000       15.9994           0
     67856 TIP3     15137    TIP3     H1       HT       0.417000       1.00800           0
     67857 TIP3     15137    TIP3     H2       HT       0.417000       1.00800           0
     67858 TIP3     15138    TIP3     OH2      OT      -0.834000       15.9994           0
     67859 TIP3     15138    TIP3     H1       HT       0.417000       1.00800           0
     67860 TIP3     15138    TIP3     H2       HT       0.417000       1.00800           0
     67861 TIP3     15139    TIP3     OH2      OT      -0.834000       15.9994           0
     67862 TIP3     15139    TIP3     H1       HT       0.417000       1.00800           0
     67863 TIP3     15139    TIP3     H2       HT       0.417000       1.00800           0
     67864 TIP3     15140    TIP3     OH2      OT      -0.834000       15.9994           0
     67865 TIP3     15140    TIP3     H1       HT       0.417000       1.00800           0
     67866 TIP3     15140    TIP3     H2       HT       0.417000       1.00800           0
     67867 TIP3     15141    TIP3     OH2      OT      -0.834000       15.9994           0
     67868 TIP3     15141    TIP3     H1       HT       0.417000       1.00800           0
     67869 TIP3     15141    TIP3     H2       HT       0.417000       1.00800           0
     67870 TIP3     15142    TIP3     OH2      OT      -0.834000       15.9994           0
     67871 TIP3     15142    TIP3     H1       HT       0.417000       1.00800           0
     67872 TIP3     15142    TIP3     H2       HT       0.417000       1.00800           0
     67873 TIP3     15143    TIP3     OH2      OT      -0.834000       15.9994           0
     67874 TIP3     15143    TIP3     H1       HT       0.417000       1.00800           0
     67875 TIP3     15143    TIP3     H2       HT       0.417000       1.00800           0
     67876 TIP3     15144    TIP3     OH2      OT      -0.834000       15.9994           0
     67877 TIP3     15144    TIP3     H1       HT       0.417000       1.00800           0
     67878 TIP3     15144    TIP3     H2       HT       0.417000       1.00800           0
     67879 TIP3     15145    TIP3     OH2      OT      -0.834000       15.9994           0
     67880 TIP3     15145    TIP3     H1       HT       0.417000       1.00800           0
     67881 TIP3     15145    TIP3     H2       HT       0.417000       1.00800           0
     67882 TIP3     15146    TIP3     OH2      OT      -0.834000       15.9994           0
     67883 TIP3     15146    TIP3     H1       HT       0.417000       1.00800           0
     67884 TIP3     15146    TIP3     H2       HT       0.417000       1.00800           0
     67885 TIP3     15147    TIP3     OH2      OT      -0.834000       15.9994           0
     67886 TIP3     15147    TIP3     H1       HT       0.417000       1.00800           0
     67887 TIP3     15147    TIP3     H2       HT       0.417000       1.00800           0
     67888 TIP3     15148    TIP3     OH2      OT      -0.834000       15.9994           0
     67889 TIP3     15148    TIP3     H1       HT       0.417000       1.00800           0
     67890 TIP3     15148    TIP3     H2       HT       0.417000       1.00800           0
     67891 TIP3     15149    TIP3     OH2      OT      -0.834000       15.9994           0
     67892 TIP3     15149    TIP3     H1       HT       0.417000       1.00800           0
     67893 TIP3     15149    TIP3     H2       HT       0.417000       1.00800           0
     67894 TIP3     15150    TIP3     OH2      OT      -0.834000       15.9994           0
     67895 TIP3     15150    TIP3     H1       HT       0.417000       1.00800           0
     67896 TIP3     15150    TIP3     H2       HT       0.417000       1.00800           0
     67897 TIP3     15151    TIP3     OH2      OT      -0.834000       15.9994           0
     67898 TIP3     15151    TIP3     H1       HT       0.417000       1.00800           0
     67899 TIP3     15151    TIP3     H2       HT       0.417000       1.00800           0
     67900 TIP3     15152    TIP3     OH2      OT      -0.834000       15.9994           0
     67901 TIP3     15152    TIP3     H1       HT       0.417000       1.00800           0
     67902 TIP3     15152    TIP3     H2       HT       0.417000       1.00800           0
     67903 TIP3     15153    TIP3     OH2      OT      -0.834000       15.9994           0
     67904 TIP3     15153    TIP3     H1       HT       0.417000       1.00800           0
     67905 TIP3     15153    TIP3     H2       HT       0.417000       1.00800           0
     67906 TIP3     15154    TIP3     OH2      OT      -0.834000       15.9994           0
     67907 TIP3     15154    TIP3     H1       HT       0.417000       1.00800           0
     67908 TIP3     15154    TIP3     H2       HT       0.417000       1.00800           0
     67909 TIP3     15155    TIP3     OH2      OT      -0.834000       15.9994           0
     67910 TIP3     15155    TIP3     H1       HT       0.417000       1.00800           0
     67911 TIP3     15155    TIP3     H2       HT       0.417000       1.00800           0
     67912 TIP3     15156    TIP3     OH2      OT      -0.834000       15.9994           0
     67913 TIP3     15156    TIP3     H1       HT       0.417000       1.00800           0
     67914 TIP3     15156    TIP3     H2       HT       0.417000       1.00800           0
     67915 TIP3     15157    TIP3     OH2      OT      -0.834000       15.9994           0
     67916 TIP3     15157    TIP3     H1       HT       0.417000       1.00800           0
     67917 TIP3     15157    TIP3     H2       HT       0.417000       1.00800           0
     67918 TIP3     15158    TIP3     OH2      OT      -0.834000       15.9994           0
     67919 TIP3     15158    TIP3     H1       HT       0.417000       1.00800           0
     67920 TIP3     15158    TIP3     H2       HT       0.417000       1.00800           0
     67921 TIP3     15159    TIP3     OH2      OT      -0.834000       15.9994           0
     67922 TIP3     15159    TIP3     H1       HT       0.417000       1.00800           0
     67923 TIP3     15159    TIP3     H2       HT       0.417000       1.00800           0
     67924 TIP3     15160    TIP3     OH2      OT      -0.834000       15.9994           0
     67925 TIP3     15160    TIP3     H1       HT       0.417000       1.00800           0
     67926 TIP3     15160    TIP3     H2       HT       0.417000       1.00800           0
     67927 TIP3     15161    TIP3     OH2      OT      -0.834000       15.9994           0
     67928 TIP3     15161    TIP3     H1       HT       0.417000       1.00800           0
     67929 TIP3     15161    TIP3     H2       HT       0.417000       1.00800           0
     67930 TIP3     15162    TIP3     OH2      OT      -0.834000       15.9994           0
     67931 TIP3     15162    TIP3     H1       HT       0.417000       1.00800           0
     67932 TIP3     15162    TIP3     H2       HT       0.417000       1.00800           0
     67933 TIP3     15163    TIP3     OH2      OT      -0.834000       15.9994           0
     67934 TIP3     15163    TIP3     H1       HT       0.417000       1.00800           0
     67935 TIP3     15163    TIP3     H2       HT       0.417000       1.00800           0
     67936 TIP3     15164    TIP3     OH2      OT      -0.834000       15.9994           0
     67937 TIP3     15164    TIP3     H1       HT       0.417000       1.00800           0
     67938 TIP3     15164    TIP3     H2       HT       0.417000       1.00800           0
     67939 TIP3     15165    TIP3     OH2      OT      -0.834000       15.9994           0
     67940 TIP3     15165    TIP3     H1       HT       0.417000       1.00800           0
     67941 TIP3     15165    TIP3     H2       HT       0.417000       1.00800           0
     67942 TIP3     15166    TIP3     OH2      OT      -0.834000       15.9994           0
     67943 TIP3     15166    TIP3     H1       HT       0.417000       1.00800           0
     67944 TIP3     15166    TIP3     H2       HT       0.417000       1.00800           0
     67945 TIP3     15167    TIP3     OH2      OT      -0.834000       15.9994           0
     67946 TIP3     15167    TIP3     H1       HT       0.417000       1.00800           0
     67947 TIP3     15167    TIP3     H2       HT       0.417000       1.00800           0
     67948 TIP3     15168    TIP3     OH2      OT      -0.834000       15.9994           0
     67949 TIP3     15168    TIP3     H1       HT       0.417000       1.00800           0
     67950 TIP3     15168    TIP3     H2       HT       0.417000       1.00800           0
     67951 TIP3     15169    TIP3     OH2      OT      -0.834000       15.9994           0
     67952 TIP3     15169    TIP3     H1       HT       0.417000       1.00800           0
     67953 TIP3     15169    TIP3     H2       HT       0.417000       1.00800           0
     67954 TIP3     15170    TIP3     OH2      OT      -0.834000       15.9994           0
     67955 TIP3     15170    TIP3     H1       HT       0.417000       1.00800           0
     67956 TIP3     15170    TIP3     H2       HT       0.417000       1.00800           0
     67957 TIP3     15171    TIP3     OH2      OT      -0.834000       15.9994           0
     67958 TIP3     15171    TIP3     H1       HT       0.417000       1.00800           0
     67959 TIP3     15171    TIP3     H2       HT       0.417000       1.00800           0
     67960 TIP3     15172    TIP3     OH2      OT      -0.834000       15.9994           0
     67961 TIP3     15172    TIP3     H1       HT       0.417000       1.00800           0
     67962 TIP3     15172    TIP3     H2       HT       0.417000       1.00800           0
     67963 TIP3     15173    TIP3     OH2      OT      -0.834000       15.9994           0
     67964 TIP3     15173    TIP3     H1       HT       0.417000       1.00800           0
     67965 TIP3     15173    TIP3     H2       HT       0.417000       1.00800           0
     67966 TIP3     15174    TIP3     OH2      OT      -0.834000       15.9994           0
     67967 TIP3     15174    TIP3     H1       HT       0.417000       1.00800           0
     67968 TIP3     15174    TIP3     H2       HT       0.417000       1.00800           0
     67969 TIP3     15175    TIP3     OH2      OT      -0.834000       15.9994           0
     67970 TIP3     15175    TIP3     H1       HT       0.417000       1.00800           0
     67971 TIP3     15175    TIP3     H2       HT       0.417000       1.00800           0
     67972 TIP3     15176    TIP3     OH2      OT      -0.834000       15.9994           0
     67973 TIP3     15176    TIP3     H1       HT       0.417000       1.00800           0
     67974 TIP3     15176    TIP3     H2       HT       0.417000       1.00800           0
     67975 TIP3     15177    TIP3     OH2      OT      -0.834000       15.9994           0
     67976 TIP3     15177    TIP3     H1       HT       0.417000       1.00800           0
     67977 TIP3     15177    TIP3     H2       HT       0.417000       1.00800           0
     67978 TIP3     15178    TIP3     OH2      OT      -0.834000       15.9994           0
     67979 TIP3     15178    TIP3     H1       HT       0.417000       1.00800           0
     67980 TIP3     15178    TIP3     H2       HT       0.417000       1.00800           0
     67981 TIP3     15179    TIP3     OH2      OT      -0.834000       15.9994           0
     67982 TIP3     15179    TIP3     H1       HT       0.417000       1.00800           0
     67983 TIP3     15179    TIP3     H2       HT       0.417000       1.00800           0
     67984 TIP3     15180    TIP3     OH2      OT      -0.834000       15.9994           0
     67985 TIP3     15180    TIP3     H1       HT       0.417000       1.00800           0
     67986 TIP3     15180    TIP3     H2       HT       0.417000       1.00800           0
     67987 TIP3     15181    TIP3     OH2      OT      -0.834000       15.9994           0
     67988 TIP3     15181    TIP3     H1       HT       0.417000       1.00800           0
     67989 TIP3     15181    TIP3     H2       HT       0.417000       1.00800           0
     67990 TIP3     15182    TIP3     OH2      OT      -0.834000       15.9994           0
     67991 TIP3     15182    TIP3     H1       HT       0.417000       1.00800           0
     67992 TIP3     15182    TIP3     H2       HT       0.417000       1.00800           0
     67993 TIP3     15183    TIP3     OH2      OT      -0.834000       15.9994           0
     67994 TIP3     15183    TIP3     H1       HT       0.417000       1.00800           0
     67995 TIP3     15183    TIP3     H2       HT       0.417000       1.00800           0
     67996 TIP3     15184    TIP3     OH2      OT      -0.834000       15.9994           0
     67997 TIP3     15184    TIP3     H1       HT       0.417000       1.00800           0
     67998 TIP3     15184    TIP3     H2       HT       0.417000       1.00800           0
     67999 TIP3     15185    TIP3     OH2      OT      -0.834000       15.9994           0
     68000 TIP3     15185    TIP3     H1       HT       0.417000       1.00800           0
     68001 TIP3     15185    TIP3     H2       HT       0.417000       1.00800           0
     68002 TIP3     15186    TIP3     OH2      OT      -0.834000       15.9994           0
     68003 TIP3     15186    TIP3     H1       HT       0.417000       1.00800           0
     68004 TIP3     15186    TIP3     H2       HT       0.417000       1.00800           0
     68005 TIP3     15187    TIP3     OH2      OT      -0.834000       15.9994           0
     68006 TIP3     15187    TIP3     H1       HT       0.417000       1.00800           0
     68007 TIP3     15187    TIP3     H2       HT       0.417000       1.00800           0
     68008 TIP3     15188    TIP3     OH2      OT      -0.834000       15.9994           0
     68009 TIP3     15188    TIP3     H1       HT       0.417000       1.00800           0
     68010 TIP3     15188    TIP3     H2       HT       0.417000       1.00800           0
     68011 TIP3     15189    TIP3     OH2      OT      -0.834000       15.9994           0
     68012 TIP3     15189    TIP3     H1       HT       0.417000       1.00800           0
     68013 TIP3     15189    TIP3     H2       HT       0.417000       1.00800           0
     68014 TIP3     15190    TIP3     OH2      OT      -0.834000       15.9994           0
     68015 TIP3     15190    TIP3     H1       HT       0.417000       1.00800           0
     68016 TIP3     15190    TIP3     H2       HT       0.417000       1.00800           0
     68017 TIP3     15191    TIP3     OH2      OT      -0.834000       15.9994           0
     68018 TIP3     15191    TIP3     H1       HT       0.417000       1.00800           0
     68019 TIP3     15191    TIP3     H2       HT       0.417000       1.00800           0
     68020 TIP3     15192    TIP3     OH2      OT      -0.834000       15.9994           0
     68021 TIP3     15192    TIP3     H1       HT       0.417000       1.00800           0
     68022 TIP3     15192    TIP3     H2       HT       0.417000       1.00800           0
     68023 TIP3     15193    TIP3     OH2      OT      -0.834000       15.9994           0
     68024 TIP3     15193    TIP3     H1       HT       0.417000       1.00800           0
     68025 TIP3     15193    TIP3     H2       HT       0.417000       1.00800           0
     68026 TIP3     15194    TIP3     OH2      OT      -0.834000       15.9994           0
     68027 TIP3     15194    TIP3     H1       HT       0.417000       1.00800           0
     68028 TIP3     15194    TIP3     H2       HT       0.417000       1.00800           0
     68029 TIP3     15195    TIP3     OH2      OT      -0.834000       15.9994           0
     68030 TIP3     15195    TIP3     H1       HT       0.417000       1.00800           0
     68031 TIP3     15195    TIP3     H2       HT       0.417000       1.00800           0
     68032 TIP3     15196    TIP3     OH2      OT      -0.834000       15.9994           0
     68033 TIP3     15196    TIP3     H1       HT       0.417000       1.00800           0
     68034 TIP3     15196    TIP3     H2       HT       0.417000       1.00800           0
     68035 TIP3     15197    TIP3     OH2      OT      -0.834000       15.9994           0
     68036 TIP3     15197    TIP3     H1       HT       0.417000       1.00800           0
     68037 TIP3     15197    TIP3     H2       HT       0.417000       1.00800           0
     68038 TIP3     15198    TIP3     OH2      OT      -0.834000       15.9994           0
     68039 TIP3     15198    TIP3     H1       HT       0.417000       1.00800           0
     68040 TIP3     15198    TIP3     H2       HT       0.417000       1.00800           0
     68041 TIP3     15199    TIP3     OH2      OT      -0.834000       15.9994           0
     68042 TIP3     15199    TIP3     H1       HT       0.417000       1.00800           0
     68043 TIP3     15199    TIP3     H2       HT       0.417000       1.00800           0
     68044 TIP3     15200    TIP3     OH2      OT      -0.834000       15.9994           0
     68045 TIP3     15200    TIP3     H1       HT       0.417000       1.00800           0
     68046 TIP3     15200    TIP3     H2       HT       0.417000       1.00800           0
     68047 TIP3     15201    TIP3     OH2      OT      -0.834000       15.9994           0
     68048 TIP3     15201    TIP3     H1       HT       0.417000       1.00800           0
     68049 TIP3     15201    TIP3     H2       HT       0.417000       1.00800           0
     68050 TIP3     15202    TIP3     OH2      OT      -0.834000       15.9994           0
     68051 TIP3     15202    TIP3     H1       HT       0.417000       1.00800           0
     68052 TIP3     15202    TIP3     H2       HT       0.417000       1.00800           0
     68053 TIP3     15203    TIP3     OH2      OT      -0.834000       15.9994           0
     68054 TIP3     15203    TIP3     H1       HT       0.417000       1.00800           0
     68055 TIP3     15203    TIP3     H2       HT       0.417000       1.00800           0
     68056 TIP3     15204    TIP3     OH2      OT      -0.834000       15.9994           0
     68057 TIP3     15204    TIP3     H1       HT       0.417000       1.00800           0
     68058 TIP3     15204    TIP3     H2       HT       0.417000       1.00800           0
     68059 TIP3     15205    TIP3     OH2      OT      -0.834000       15.9994           0
     68060 TIP3     15205    TIP3     H1       HT       0.417000       1.00800           0
     68061 TIP3     15205    TIP3     H2       HT       0.417000       1.00800           0
     68062 TIP3     15206    TIP3     OH2      OT      -0.834000       15.9994           0
     68063 TIP3     15206    TIP3     H1       HT       0.417000       1.00800           0
     68064 TIP3     15206    TIP3     H2       HT       0.417000       1.00800           0
     68065 TIP3     15207    TIP3     OH2      OT      -0.834000       15.9994           0
     68066 TIP3     15207    TIP3     H1       HT       0.417000       1.00800           0
     68067 TIP3     15207    TIP3     H2       HT       0.417000       1.00800           0
     68068 TIP3     15208    TIP3     OH2      OT      -0.834000       15.9994           0
     68069 TIP3     15208    TIP3     H1       HT       0.417000       1.00800           0
     68070 TIP3     15208    TIP3     H2       HT       0.417000       1.00800           0
     68071 TIP3     15209    TIP3     OH2      OT      -0.834000       15.9994           0
     68072 TIP3     15209    TIP3     H1       HT       0.417000       1.00800           0
     68073 TIP3     15209    TIP3     H2       HT       0.417000       1.00800           0
     68074 TIP3     15210    TIP3     OH2      OT      -0.834000       15.9994           0
     68075 TIP3     15210    TIP3     H1       HT       0.417000       1.00800           0
     68076 TIP3     15210    TIP3     H2       HT       0.417000       1.00800           0
     68077 TIP3     15211    TIP3     OH2      OT      -0.834000       15.9994           0
     68078 TIP3     15211    TIP3     H1       HT       0.417000       1.00800           0
     68079 TIP3     15211    TIP3     H2       HT       0.417000       1.00800           0
     68080 TIP3     15212    TIP3     OH2      OT      -0.834000       15.9994           0
     68081 TIP3     15212    TIP3     H1       HT       0.417000       1.00800           0
     68082 TIP3     15212    TIP3     H2       HT       0.417000       1.00800           0
     68083 TIP3     15213    TIP3     OH2      OT      -0.834000       15.9994           0
     68084 TIP3     15213    TIP3     H1       HT       0.417000       1.00800           0
     68085 TIP3     15213    TIP3     H2       HT       0.417000       1.00800           0
     68086 TIP3     15214    TIP3     OH2      OT      -0.834000       15.9994           0
     68087 TIP3     15214    TIP3     H1       HT       0.417000       1.00800           0
     68088 TIP3     15214    TIP3     H2       HT       0.417000       1.00800           0
     68089 TIP3     15215    TIP3     OH2      OT      -0.834000       15.9994           0
     68090 TIP3     15215    TIP3     H1       HT       0.417000       1.00800           0
     68091 TIP3     15215    TIP3     H2       HT       0.417000       1.00800           0
     68092 TIP3     15216    TIP3     OH2      OT      -0.834000       15.9994           0
     68093 TIP3     15216    TIP3     H1       HT       0.417000       1.00800           0
     68094 TIP3     15216    TIP3     H2       HT       0.417000       1.00800           0
     68095 TIP3     15217    TIP3     OH2      OT      -0.834000       15.9994           0
     68096 TIP3     15217    TIP3     H1       HT       0.417000       1.00800           0
     68097 TIP3     15217    TIP3     H2       HT       0.417000       1.00800           0
     68098 TIP3     15218    TIP3     OH2      OT      -0.834000       15.9994           0
     68099 TIP3     15218    TIP3     H1       HT       0.417000       1.00800           0
     68100 TIP3     15218    TIP3     H2       HT       0.417000       1.00800           0
     68101 TIP3     15219    TIP3     OH2      OT      -0.834000       15.9994           0
     68102 TIP3     15219    TIP3     H1       HT       0.417000       1.00800           0
     68103 TIP3     15219    TIP3     H2       HT       0.417000       1.00800           0
     68104 TIP3     15220    TIP3     OH2      OT      -0.834000       15.9994           0
     68105 TIP3     15220    TIP3     H1       HT       0.417000       1.00800           0
     68106 TIP3     15220    TIP3     H2       HT       0.417000       1.00800           0
     68107 TIP3     15221    TIP3     OH2      OT      -0.834000       15.9994           0
     68108 TIP3     15221    TIP3     H1       HT       0.417000       1.00800           0
     68109 TIP3     15221    TIP3     H2       HT       0.417000       1.00800           0
     68110 TIP3     15222    TIP3     OH2      OT      -0.834000       15.9994           0
     68111 TIP3     15222    TIP3     H1       HT       0.417000       1.00800           0
     68112 TIP3     15222    TIP3     H2       HT       0.417000       1.00800           0
     68113 TIP3     15223    TIP3     OH2      OT      -0.834000       15.9994           0
     68114 TIP3     15223    TIP3     H1       HT       0.417000       1.00800           0
     68115 TIP3     15223    TIP3     H2       HT       0.417000       1.00800           0
     68116 TIP3     15224    TIP3     OH2      OT      -0.834000       15.9994           0
     68117 TIP3     15224    TIP3     H1       HT       0.417000       1.00800           0
     68118 TIP3     15224    TIP3     H2       HT       0.417000       1.00800           0
     68119 TIP3     15225    TIP3     OH2      OT      -0.834000       15.9994           0
     68120 TIP3     15225    TIP3     H1       HT       0.417000       1.00800           0
     68121 TIP3     15225    TIP3     H2       HT       0.417000       1.00800           0
     68122 TIP3     15226    TIP3     OH2      OT      -0.834000       15.9994           0
     68123 TIP3     15226    TIP3     H1       HT       0.417000       1.00800           0
     68124 TIP3     15226    TIP3     H2       HT       0.417000       1.00800           0
     68125 TIP3     15227    TIP3     OH2      OT      -0.834000       15.9994           0
     68126 TIP3     15227    TIP3     H1       HT       0.417000       1.00800           0
     68127 TIP3     15227    TIP3     H2       HT       0.417000       1.00800           0
     68128 TIP3     15228    TIP3     OH2      OT      -0.834000       15.9994           0
     68129 TIP3     15228    TIP3     H1       HT       0.417000       1.00800           0
     68130 TIP3     15228    TIP3     H2       HT       0.417000       1.00800           0
     68131 TIP3     15229    TIP3     OH2      OT      -0.834000       15.9994           0
     68132 TIP3     15229    TIP3     H1       HT       0.417000       1.00800           0
     68133 TIP3     15229    TIP3     H2       HT       0.417000       1.00800           0
     68134 TIP3     15230    TIP3     OH2      OT      -0.834000       15.9994           0
     68135 TIP3     15230    TIP3     H1       HT       0.417000       1.00800           0
     68136 TIP3     15230    TIP3     H2       HT       0.417000       1.00800           0
     68137 TIP3     15231    TIP3     OH2      OT      -0.834000       15.9994           0
     68138 TIP3     15231    TIP3     H1       HT       0.417000       1.00800           0
     68139 TIP3     15231    TIP3     H2       HT       0.417000       1.00800           0
     68140 TIP3     15232    TIP3     OH2      OT      -0.834000       15.9994           0
     68141 TIP3     15232    TIP3     H1       HT       0.417000       1.00800           0
     68142 TIP3     15232    TIP3     H2       HT       0.417000       1.00800           0
     68143 TIP3     15233    TIP3     OH2      OT      -0.834000       15.9994           0
     68144 TIP3     15233    TIP3     H1       HT       0.417000       1.00800           0
     68145 TIP3     15233    TIP3     H2       HT       0.417000       1.00800           0
     68146 TIP3     15234    TIP3     OH2      OT      -0.834000       15.9994           0
     68147 TIP3     15234    TIP3     H1       HT       0.417000       1.00800           0
     68148 TIP3     15234    TIP3     H2       HT       0.417000       1.00800           0
     68149 TIP3     15235    TIP3     OH2      OT      -0.834000       15.9994           0
     68150 TIP3     15235    TIP3     H1       HT       0.417000       1.00800           0
     68151 TIP3     15235    TIP3     H2       HT       0.417000       1.00800           0
     68152 TIP3     15236    TIP3     OH2      OT      -0.834000       15.9994           0
     68153 TIP3     15236    TIP3     H1       HT       0.417000       1.00800           0
     68154 TIP3     15236    TIP3     H2       HT       0.417000       1.00800           0
     68155 TIP3     15237    TIP3     OH2      OT      -0.834000       15.9994           0
     68156 TIP3     15237    TIP3     H1       HT       0.417000       1.00800           0
     68157 TIP3     15237    TIP3     H2       HT       0.417000       1.00800           0
     68158 TIP3     15238    TIP3     OH2      OT      -0.834000       15.9994           0
     68159 TIP3     15238    TIP3     H1       HT       0.417000       1.00800           0
     68160 TIP3     15238    TIP3     H2       HT       0.417000       1.00800           0
     68161 TIP3     15239    TIP3     OH2      OT      -0.834000       15.9994           0
     68162 TIP3     15239    TIP3     H1       HT       0.417000       1.00800           0
     68163 TIP3     15239    TIP3     H2       HT       0.417000       1.00800           0
     68164 TIP3     15240    TIP3     OH2      OT      -0.834000       15.9994           0
     68165 TIP3     15240    TIP3     H1       HT       0.417000       1.00800           0
     68166 TIP3     15240    TIP3     H2       HT       0.417000       1.00800           0
     68167 TIP3     15241    TIP3     OH2      OT      -0.834000       15.9994           0
     68168 TIP3     15241    TIP3     H1       HT       0.417000       1.00800           0
     68169 TIP3     15241    TIP3     H2       HT       0.417000       1.00800           0
     68170 TIP3     15242    TIP3     OH2      OT      -0.834000       15.9994           0
     68171 TIP3     15242    TIP3     H1       HT       0.417000       1.00800           0
     68172 TIP3     15242    TIP3     H2       HT       0.417000       1.00800           0
     68173 TIP3     15243    TIP3     OH2      OT      -0.834000       15.9994           0
     68174 TIP3     15243    TIP3     H1       HT       0.417000       1.00800           0
     68175 TIP3     15243    TIP3     H2       HT       0.417000       1.00800           0
     68176 TIP3     15244    TIP3     OH2      OT      -0.834000       15.9994           0
     68177 TIP3     15244    TIP3     H1       HT       0.417000       1.00800           0
     68178 TIP3     15244    TIP3     H2       HT       0.417000       1.00800           0
     68179 TIP3     15245    TIP3     OH2      OT      -0.834000       15.9994           0
     68180 TIP3     15245    TIP3     H1       HT       0.417000       1.00800           0
     68181 TIP3     15245    TIP3     H2       HT       0.417000       1.00800           0
     68182 TIP3     15246    TIP3     OH2      OT      -0.834000       15.9994           0
     68183 TIP3     15246    TIP3     H1       HT       0.417000       1.00800           0
     68184 TIP3     15246    TIP3     H2       HT       0.417000       1.00800           0
     68185 TIP3     15247    TIP3     OH2      OT      -0.834000       15.9994           0
     68186 TIP3     15247    TIP3     H1       HT       0.417000       1.00800           0
     68187 TIP3     15247    TIP3     H2       HT       0.417000       1.00800           0
     68188 TIP3     15248    TIP3     OH2      OT      -0.834000       15.9994           0
     68189 TIP3     15248    TIP3     H1       HT       0.417000       1.00800           0
     68190 TIP3     15248    TIP3     H2       HT       0.417000       1.00800           0
     68191 TIP3     15249    TIP3     OH2      OT      -0.834000       15.9994           0
     68192 TIP3     15249    TIP3     H1       HT       0.417000       1.00800           0
     68193 TIP3     15249    TIP3     H2       HT       0.417000       1.00800           0
     68194 TIP3     15250    TIP3     OH2      OT      -0.834000       15.9994           0
     68195 TIP3     15250    TIP3     H1       HT       0.417000       1.00800           0
     68196 TIP3     15250    TIP3     H2       HT       0.417000       1.00800           0
     68197 TIP3     15251    TIP3     OH2      OT      -0.834000       15.9994           0
     68198 TIP3     15251    TIP3     H1       HT       0.417000       1.00800           0
     68199 TIP3     15251    TIP3     H2       HT       0.417000       1.00800           0
     68200 TIP3     15252    TIP3     OH2      OT      -0.834000       15.9994           0
     68201 TIP3     15252    TIP3     H1       HT       0.417000       1.00800           0
     68202 TIP3     15252    TIP3     H2       HT       0.417000       1.00800           0
     68203 TIP3     15253    TIP3     OH2      OT      -0.834000       15.9994           0
     68204 TIP3     15253    TIP3     H1       HT       0.417000       1.00800           0
     68205 TIP3     15253    TIP3     H2       HT       0.417000       1.00800           0
     68206 TIP3     15254    TIP3     OH2      OT      -0.834000       15.9994           0
     68207 TIP3     15254    TIP3     H1       HT       0.417000       1.00800           0
     68208 TIP3     15254    TIP3     H2       HT       0.417000       1.00800           0
     68209 TIP3     15255    TIP3     OH2      OT      -0.834000       15.9994           0
     68210 TIP3     15255    TIP3     H1       HT       0.417000       1.00800           0
     68211 TIP3     15255    TIP3     H2       HT       0.417000       1.00800           0
     68212 TIP3     15256    TIP3     OH2      OT      -0.834000       15.9994           0
     68213 TIP3     15256    TIP3     H1       HT       0.417000       1.00800           0
     68214 TIP3     15256    TIP3     H2       HT       0.417000       1.00800           0
     68215 TIP3     15257    TIP3     OH2      OT      -0.834000       15.9994           0
     68216 TIP3     15257    TIP3     H1       HT       0.417000       1.00800           0
     68217 TIP3     15257    TIP3     H2       HT       0.417000       1.00800           0
     68218 TIP3     15258    TIP3     OH2      OT      -0.834000       15.9994           0
     68219 TIP3     15258    TIP3     H1       HT       0.417000       1.00800           0
     68220 TIP3     15258    TIP3     H2       HT       0.417000       1.00800           0
     68221 TIP3     15259    TIP3     OH2      OT      -0.834000       15.9994           0
     68222 TIP3     15259    TIP3     H1       HT       0.417000       1.00800           0
     68223 TIP3     15259    TIP3     H2       HT       0.417000       1.00800           0
     68224 TIP3     15260    TIP3     OH2      OT      -0.834000       15.9994           0
     68225 TIP3     15260    TIP3     H1       HT       0.417000       1.00800           0
     68226 TIP3     15260    TIP3     H2       HT       0.417000       1.00800           0
     68227 TIP3     15261    TIP3     OH2      OT      -0.834000       15.9994           0
     68228 TIP3     15261    TIP3     H1       HT       0.417000       1.00800           0
     68229 TIP3     15261    TIP3     H2       HT       0.417000       1.00800           0
     68230 TIP3     15262    TIP3     OH2      OT      -0.834000       15.9994           0
     68231 TIP3     15262    TIP3     H1       HT       0.417000       1.00800           0
     68232 TIP3     15262    TIP3     H2       HT       0.417000       1.00800           0
     68233 TIP3     15263    TIP3     OH2      OT      -0.834000       15.9994           0
     68234 TIP3     15263    TIP3     H1       HT       0.417000       1.00800           0
     68235 TIP3     15263    TIP3     H2       HT       0.417000       1.00800           0
     68236 TIP3     15264    TIP3     OH2      OT      -0.834000       15.9994           0
     68237 TIP3     15264    TIP3     H1       HT       0.417000       1.00800           0
     68238 TIP3     15264    TIP3     H2       HT       0.417000       1.00800           0
     68239 TIP3     15265    TIP3     OH2      OT      -0.834000       15.9994           0
     68240 TIP3     15265    TIP3     H1       HT       0.417000       1.00800           0
     68241 TIP3     15265    TIP3     H2       HT       0.417000       1.00800           0
     68242 TIP3     15266    TIP3     OH2      OT      -0.834000       15.9994           0
     68243 TIP3     15266    TIP3     H1       HT       0.417000       1.00800           0
     68244 TIP3     15266    TIP3     H2       HT       0.417000       1.00800           0
     68245 TIP3     15267    TIP3     OH2      OT      -0.834000       15.9994           0
     68246 TIP3     15267    TIP3     H1       HT       0.417000       1.00800           0
     68247 TIP3     15267    TIP3     H2       HT       0.417000       1.00800           0
     68248 TIP3     15268    TIP3     OH2      OT      -0.834000       15.9994           0
     68249 TIP3     15268    TIP3     H1       HT       0.417000       1.00800           0
     68250 TIP3     15268    TIP3     H2       HT       0.417000       1.00800           0
     68251 TIP3     15269    TIP3     OH2      OT      -0.834000       15.9994           0
     68252 TIP3     15269    TIP3     H1       HT       0.417000       1.00800           0
     68253 TIP3     15269    TIP3     H2       HT       0.417000       1.00800           0
     68254 TIP3     15270    TIP3     OH2      OT      -0.834000       15.9994           0
     68255 TIP3     15270    TIP3     H1       HT       0.417000       1.00800           0
     68256 TIP3     15270    TIP3     H2       HT       0.417000       1.00800           0
     68257 TIP3     15271    TIP3     OH2      OT      -0.834000       15.9994           0
     68258 TIP3     15271    TIP3     H1       HT       0.417000       1.00800           0
     68259 TIP3     15271    TIP3     H2       HT       0.417000       1.00800           0
     68260 TIP3     15272    TIP3     OH2      OT      -0.834000       15.9994           0
     68261 TIP3     15272    TIP3     H1       HT       0.417000       1.00800           0
     68262 TIP3     15272    TIP3     H2       HT       0.417000       1.00800           0
     68263 TIP3     15273    TIP3     OH2      OT      -0.834000       15.9994           0
     68264 TIP3     15273    TIP3     H1       HT       0.417000       1.00800           0
     68265 TIP3     15273    TIP3     H2       HT       0.417000       1.00800           0
     68266 TIP3     15274    TIP3     OH2      OT      -0.834000       15.9994           0
     68267 TIP3     15274    TIP3     H1       HT       0.417000       1.00800           0
     68268 TIP3     15274    TIP3     H2       HT       0.417000       1.00800           0
     68269 TIP3     15275    TIP3     OH2      OT      -0.834000       15.9994           0
     68270 TIP3     15275    TIP3     H1       HT       0.417000       1.00800           0
     68271 TIP3     15275    TIP3     H2       HT       0.417000       1.00800           0
     68272 TIP3     15276    TIP3     OH2      OT      -0.834000       15.9994           0
     68273 TIP3     15276    TIP3     H1       HT       0.417000       1.00800           0
     68274 TIP3     15276    TIP3     H2       HT       0.417000       1.00800           0
     68275 TIP3     15277    TIP3     OH2      OT      -0.834000       15.9994           0
     68276 TIP3     15277    TIP3     H1       HT       0.417000       1.00800           0
     68277 TIP3     15277    TIP3     H2       HT       0.417000       1.00800           0
     68278 TIP3     15278    TIP3     OH2      OT      -0.834000       15.9994           0
     68279 TIP3     15278    TIP3     H1       HT       0.417000       1.00800           0
     68280 TIP3     15278    TIP3     H2       HT       0.417000       1.00800           0
     68281 TIP3     15279    TIP3     OH2      OT      -0.834000       15.9994           0
     68282 TIP3     15279    TIP3     H1       HT       0.417000       1.00800           0
     68283 TIP3     15279    TIP3     H2       HT       0.417000       1.00800           0
     68284 TIP3     15280    TIP3     OH2      OT      -0.834000       15.9994           0
     68285 TIP3     15280    TIP3     H1       HT       0.417000       1.00800           0
     68286 TIP3     15280    TIP3     H2       HT       0.417000       1.00800           0
     68287 TIP3     15281    TIP3     OH2      OT      -0.834000       15.9994           0
     68288 TIP3     15281    TIP3     H1       HT       0.417000       1.00800           0
     68289 TIP3     15281    TIP3     H2       HT       0.417000       1.00800           0
     68290 TIP3     15282    TIP3     OH2      OT      -0.834000       15.9994           0
     68291 TIP3     15282    TIP3     H1       HT       0.417000       1.00800           0
     68292 TIP3     15282    TIP3     H2       HT       0.417000       1.00800           0
     68293 TIP3     15283    TIP3     OH2      OT      -0.834000       15.9994           0
     68294 TIP3     15283    TIP3     H1       HT       0.417000       1.00800           0
     68295 TIP3     15283    TIP3     H2       HT       0.417000       1.00800           0
     68296 TIP3     15284    TIP3     OH2      OT      -0.834000       15.9994           0
     68297 TIP3     15284    TIP3     H1       HT       0.417000       1.00800           0
     68298 TIP3     15284    TIP3     H2       HT       0.417000       1.00800           0
     68299 TIP3     15285    TIP3     OH2      OT      -0.834000       15.9994           0
     68300 TIP3     15285    TIP3     H1       HT       0.417000       1.00800           0
     68301 TIP3     15285    TIP3     H2       HT       0.417000       1.00800           0
     68302 TIP3     15286    TIP3     OH2      OT      -0.834000       15.9994           0
     68303 TIP3     15286    TIP3     H1       HT       0.417000       1.00800           0
     68304 TIP3     15286    TIP3     H2       HT       0.417000       1.00800           0
     68305 TIP3     15287    TIP3     OH2      OT      -0.834000       15.9994           0
     68306 TIP3     15287    TIP3     H1       HT       0.417000       1.00800           0
     68307 TIP3     15287    TIP3     H2       HT       0.417000       1.00800           0
     68308 TIP3     15288    TIP3     OH2      OT      -0.834000       15.9994           0
     68309 TIP3     15288    TIP3     H1       HT       0.417000       1.00800           0
     68310 TIP3     15288    TIP3     H2       HT       0.417000       1.00800           0
     68311 TIP3     15289    TIP3     OH2      OT      -0.834000       15.9994           0
     68312 TIP3     15289    TIP3     H1       HT       0.417000       1.00800           0
     68313 TIP3     15289    TIP3     H2       HT       0.417000       1.00800           0
     68314 TIP3     15290    TIP3     OH2      OT      -0.834000       15.9994           0
     68315 TIP3     15290    TIP3     H1       HT       0.417000       1.00800           0
     68316 TIP3     15290    TIP3     H2       HT       0.417000       1.00800           0
     68317 TIP3     15291    TIP3     OH2      OT      -0.834000       15.9994           0
     68318 TIP3     15291    TIP3     H1       HT       0.417000       1.00800           0
     68319 TIP3     15291    TIP3     H2       HT       0.417000       1.00800           0
     68320 TIP3     15292    TIP3     OH2      OT      -0.834000       15.9994           0
     68321 TIP3     15292    TIP3     H1       HT       0.417000       1.00800           0
     68322 TIP3     15292    TIP3     H2       HT       0.417000       1.00800           0
     68323 TIP3     15293    TIP3     OH2      OT      -0.834000       15.9994           0
     68324 TIP3     15293    TIP3     H1       HT       0.417000       1.00800           0
     68325 TIP3     15293    TIP3     H2       HT       0.417000       1.00800           0
     68326 TIP3     15294    TIP3     OH2      OT      -0.834000       15.9994           0
     68327 TIP3     15294    TIP3     H1       HT       0.417000       1.00800           0
     68328 TIP3     15294    TIP3     H2       HT       0.417000       1.00800           0
     68329 TIP3     15295    TIP3     OH2      OT      -0.834000       15.9994           0
     68330 TIP3     15295    TIP3     H1       HT       0.417000       1.00800           0
     68331 TIP3     15295    TIP3     H2       HT       0.417000       1.00800           0
     68332 TIP3     15296    TIP3     OH2      OT      -0.834000       15.9994           0
     68333 TIP3     15296    TIP3     H1       HT       0.417000       1.00800           0
     68334 TIP3     15296    TIP3     H2       HT       0.417000       1.00800           0
     68335 TIP3     15297    TIP3     OH2      OT      -0.834000       15.9994           0
     68336 TIP3     15297    TIP3     H1       HT       0.417000       1.00800           0
     68337 TIP3     15297    TIP3     H2       HT       0.417000       1.00800           0
     68338 TIP3     15298    TIP3     OH2      OT      -0.834000       15.9994           0
     68339 TIP3     15298    TIP3     H1       HT       0.417000       1.00800           0
     68340 TIP3     15298    TIP3     H2       HT       0.417000       1.00800           0
     68341 TIP3     15299    TIP3     OH2      OT      -0.834000       15.9994           0
     68342 TIP3     15299    TIP3     H1       HT       0.417000       1.00800           0
     68343 TIP3     15299    TIP3     H2       HT       0.417000       1.00800           0
     68344 TIP3     15300    TIP3     OH2      OT      -0.834000       15.9994           0
     68345 TIP3     15300    TIP3     H1       HT       0.417000       1.00800           0
     68346 TIP3     15300    TIP3     H2       HT       0.417000       1.00800           0
     68347 TIP3     15301    TIP3     OH2      OT      -0.834000       15.9994           0
     68348 TIP3     15301    TIP3     H1       HT       0.417000       1.00800           0
     68349 TIP3     15301    TIP3     H2       HT       0.417000       1.00800           0
     68350 TIP3     15302    TIP3     OH2      OT      -0.834000       15.9994           0
     68351 TIP3     15302    TIP3     H1       HT       0.417000       1.00800           0
     68352 TIP3     15302    TIP3     H2       HT       0.417000       1.00800           0
     68353 TIP3     15303    TIP3     OH2      OT      -0.834000       15.9994           0
     68354 TIP3     15303    TIP3     H1       HT       0.417000       1.00800           0
     68355 TIP3     15303    TIP3     H2       HT       0.417000       1.00800           0
     68356 TIP3     15304    TIP3     OH2      OT      -0.834000       15.9994           0
     68357 TIP3     15304    TIP3     H1       HT       0.417000       1.00800           0
     68358 TIP3     15304    TIP3     H2       HT       0.417000       1.00800           0
     68359 TIP3     15305    TIP3     OH2      OT      -0.834000       15.9994           0
     68360 TIP3     15305    TIP3     H1       HT       0.417000       1.00800           0
     68361 TIP3     15305    TIP3     H2       HT       0.417000       1.00800           0
     68362 TIP3     15306    TIP3     OH2      OT      -0.834000       15.9994           0
     68363 TIP3     15306    TIP3     H1       HT       0.417000       1.00800           0
     68364 TIP3     15306    TIP3     H2       HT       0.417000       1.00800           0
     68365 TIP3     15307    TIP3     OH2      OT      -0.834000       15.9994           0
     68366 TIP3     15307    TIP3     H1       HT       0.417000       1.00800           0
     68367 TIP3     15307    TIP3     H2       HT       0.417000       1.00800           0
     68368 TIP3     15308    TIP3     OH2      OT      -0.834000       15.9994           0
     68369 TIP3     15308    TIP3     H1       HT       0.417000       1.00800           0
     68370 TIP3     15308    TIP3     H2       HT       0.417000       1.00800           0
     68371 TIP3     15309    TIP3     OH2      OT      -0.834000       15.9994           0
     68372 TIP3     15309    TIP3     H1       HT       0.417000       1.00800           0
     68373 TIP3     15309    TIP3     H2       HT       0.417000       1.00800           0
     68374 TIP3     15310    TIP3     OH2      OT      -0.834000       15.9994           0
     68375 TIP3     15310    TIP3     H1       HT       0.417000       1.00800           0
     68376 TIP3     15310    TIP3     H2       HT       0.417000       1.00800           0
     68377 TIP3     15311    TIP3     OH2      OT      -0.834000       15.9994           0
     68378 TIP3     15311    TIP3     H1       HT       0.417000       1.00800           0
     68379 TIP3     15311    TIP3     H2       HT       0.417000       1.00800           0
     68380 TIP3     15312    TIP3     OH2      OT      -0.834000       15.9994           0
     68381 TIP3     15312    TIP3     H1       HT       0.417000       1.00800           0
     68382 TIP3     15312    TIP3     H2       HT       0.417000       1.00800           0
     68383 TIP3     15313    TIP3     OH2      OT      -0.834000       15.9994           0
     68384 TIP3     15313    TIP3     H1       HT       0.417000       1.00800           0
     68385 TIP3     15313    TIP3     H2       HT       0.417000       1.00800           0
     68386 TIP3     15314    TIP3     OH2      OT      -0.834000       15.9994           0
     68387 TIP3     15314    TIP3     H1       HT       0.417000       1.00800           0
     68388 TIP3     15314    TIP3     H2       HT       0.417000       1.00800           0
     68389 TIP3     15315    TIP3     OH2      OT      -0.834000       15.9994           0
     68390 TIP3     15315    TIP3     H1       HT       0.417000       1.00800           0
     68391 TIP3     15315    TIP3     H2       HT       0.417000       1.00800           0
     68392 TIP3     15316    TIP3     OH2      OT      -0.834000       15.9994           0
     68393 TIP3     15316    TIP3     H1       HT       0.417000       1.00800           0
     68394 TIP3     15316    TIP3     H2       HT       0.417000       1.00800           0
     68395 TIP3     15317    TIP3     OH2      OT      -0.834000       15.9994           0
     68396 TIP3     15317    TIP3     H1       HT       0.417000       1.00800           0
     68397 TIP3     15317    TIP3     H2       HT       0.417000       1.00800           0
     68398 TIP3     15318    TIP3     OH2      OT      -0.834000       15.9994           0
     68399 TIP3     15318    TIP3     H1       HT       0.417000       1.00800           0
     68400 TIP3     15318    TIP3     H2       HT       0.417000       1.00800           0
     68401 TIP3     15319    TIP3     OH2      OT      -0.834000       15.9994           0
     68402 TIP3     15319    TIP3     H1       HT       0.417000       1.00800           0
     68403 TIP3     15319    TIP3     H2       HT       0.417000       1.00800           0
     68404 TIP3     15320    TIP3     OH2      OT      -0.834000       15.9994           0
     68405 TIP3     15320    TIP3     H1       HT       0.417000       1.00800           0
     68406 TIP3     15320    TIP3     H2       HT       0.417000       1.00800           0
     68407 TIP3     15321    TIP3     OH2      OT      -0.834000       15.9994           0
     68408 TIP3     15321    TIP3     H1       HT       0.417000       1.00800           0
     68409 TIP3     15321    TIP3     H2       HT       0.417000       1.00800           0
     68410 TIP3     15322    TIP3     OH2      OT      -0.834000       15.9994           0
     68411 TIP3     15322    TIP3     H1       HT       0.417000       1.00800           0
     68412 TIP3     15322    TIP3     H2       HT       0.417000       1.00800           0
     68413 TIP3     15323    TIP3     OH2      OT      -0.834000       15.9994           0
     68414 TIP3     15323    TIP3     H1       HT       0.417000       1.00800           0
     68415 TIP3     15323    TIP3     H2       HT       0.417000       1.00800           0
     68416 TIP3     15324    TIP3     OH2      OT      -0.834000       15.9994           0
     68417 TIP3     15324    TIP3     H1       HT       0.417000       1.00800           0
     68418 TIP3     15324    TIP3     H2       HT       0.417000       1.00800           0
     68419 TIP3     15325    TIP3     OH2      OT      -0.834000       15.9994           0
     68420 TIP3     15325    TIP3     H1       HT       0.417000       1.00800           0
     68421 TIP3     15325    TIP3     H2       HT       0.417000       1.00800           0
     68422 TIP3     15326    TIP3     OH2      OT      -0.834000       15.9994           0
     68423 TIP3     15326    TIP3     H1       HT       0.417000       1.00800           0
     68424 TIP3     15326    TIP3     H2       HT       0.417000       1.00800           0
     68425 TIP3     15327    TIP3     OH2      OT      -0.834000       15.9994           0
     68426 TIP3     15327    TIP3     H1       HT       0.417000       1.00800           0
     68427 TIP3     15327    TIP3     H2       HT       0.417000       1.00800           0
     68428 TIP3     15328    TIP3     OH2      OT      -0.834000       15.9994           0
     68429 TIP3     15328    TIP3     H1       HT       0.417000       1.00800           0
     68430 TIP3     15328    TIP3     H2       HT       0.417000       1.00800           0
     68431 TIP3     15329    TIP3     OH2      OT      -0.834000       15.9994           0
     68432 TIP3     15329    TIP3     H1       HT       0.417000       1.00800           0
     68433 TIP3     15329    TIP3     H2       HT       0.417000       1.00800           0
     68434 TIP3     15330    TIP3     OH2      OT      -0.834000       15.9994           0
     68435 TIP3     15330    TIP3     H1       HT       0.417000       1.00800           0
     68436 TIP3     15330    TIP3     H2       HT       0.417000       1.00800           0
     68437 TIP3     15331    TIP3     OH2      OT      -0.834000       15.9994           0
     68438 TIP3     15331    TIP3     H1       HT       0.417000       1.00800           0
     68439 TIP3     15331    TIP3     H2       HT       0.417000       1.00800           0
     68440 TIP3     15332    TIP3     OH2      OT      -0.834000       15.9994           0
     68441 TIP3     15332    TIP3     H1       HT       0.417000       1.00800           0
     68442 TIP3     15332    TIP3     H2       HT       0.417000       1.00800           0
     68443 TIP3     15333    TIP3     OH2      OT      -0.834000       15.9994           0
     68444 TIP3     15333    TIP3     H1       HT       0.417000       1.00800           0
     68445 TIP3     15333    TIP3     H2       HT       0.417000       1.00800           0
     68446 TIP3     15334    TIP3     OH2      OT      -0.834000       15.9994           0
     68447 TIP3     15334    TIP3     H1       HT       0.417000       1.00800           0
     68448 TIP3     15334    TIP3     H2       HT       0.417000       1.00800           0
     68449 TIP3     15335    TIP3     OH2      OT      -0.834000       15.9994           0
     68450 TIP3     15335    TIP3     H1       HT       0.417000       1.00800           0
     68451 TIP3     15335    TIP3     H2       HT       0.417000       1.00800           0
     68452 TIP3     15336    TIP3     OH2      OT      -0.834000       15.9994           0
     68453 TIP3     15336    TIP3     H1       HT       0.417000       1.00800           0
     68454 TIP3     15336    TIP3     H2       HT       0.417000       1.00800           0
     68455 TIP3     15337    TIP3     OH2      OT      -0.834000       15.9994           0
     68456 TIP3     15337    TIP3     H1       HT       0.417000       1.00800           0
     68457 TIP3     15337    TIP3     H2       HT       0.417000       1.00800           0
     68458 TIP3     15338    TIP3     OH2      OT      -0.834000       15.9994           0
     68459 TIP3     15338    TIP3     H1       HT       0.417000       1.00800           0
     68460 TIP3     15338    TIP3     H2       HT       0.417000       1.00800           0
     68461 TIP3     15339    TIP3     OH2      OT      -0.834000       15.9994           0
     68462 TIP3     15339    TIP3     H1       HT       0.417000       1.00800           0
     68463 TIP3     15339    TIP3     H2       HT       0.417000       1.00800           0
     68464 TIP3     15340    TIP3     OH2      OT      -0.834000       15.9994           0
     68465 TIP3     15340    TIP3     H1       HT       0.417000       1.00800           0
     68466 TIP3     15340    TIP3     H2       HT       0.417000       1.00800           0
     68467 TIP3     15341    TIP3     OH2      OT      -0.834000       15.9994           0
     68468 TIP3     15341    TIP3     H1       HT       0.417000       1.00800           0
     68469 TIP3     15341    TIP3     H2       HT       0.417000       1.00800           0
     68470 TIP3     15342    TIP3     OH2      OT      -0.834000       15.9994           0
     68471 TIP3     15342    TIP3     H1       HT       0.417000       1.00800           0
     68472 TIP3     15342    TIP3     H2       HT       0.417000       1.00800           0
     68473 TIP3     15343    TIP3     OH2      OT      -0.834000       15.9994           0
     68474 TIP3     15343    TIP3     H1       HT       0.417000       1.00800           0
     68475 TIP3     15343    TIP3     H2       HT       0.417000       1.00800           0
     68476 TIP3     15344    TIP3     OH2      OT      -0.834000       15.9994           0
     68477 TIP3     15344    TIP3     H1       HT       0.417000       1.00800           0
     68478 TIP3     15344    TIP3     H2       HT       0.417000       1.00800           0
     68479 TIP3     15345    TIP3     OH2      OT      -0.834000       15.9994           0
     68480 TIP3     15345    TIP3     H1       HT       0.417000       1.00800           0
     68481 TIP3     15345    TIP3     H2       HT       0.417000       1.00800           0
     68482 TIP3     15346    TIP3     OH2      OT      -0.834000       15.9994           0
     68483 TIP3     15346    TIP3     H1       HT       0.417000       1.00800           0
     68484 TIP3     15346    TIP3     H2       HT       0.417000       1.00800           0
     68485 TIP3     15347    TIP3     OH2      OT      -0.834000       15.9994           0
     68486 TIP3     15347    TIP3     H1       HT       0.417000       1.00800           0
     68487 TIP3     15347    TIP3     H2       HT       0.417000       1.00800           0
     68488 TIP3     15348    TIP3     OH2      OT      -0.834000       15.9994           0
     68489 TIP3     15348    TIP3     H1       HT       0.417000       1.00800           0
     68490 TIP3     15348    TIP3     H2       HT       0.417000       1.00800           0
     68491 TIP3     15349    TIP3     OH2      OT      -0.834000       15.9994           0
     68492 TIP3     15349    TIP3     H1       HT       0.417000       1.00800           0
     68493 TIP3     15349    TIP3     H2       HT       0.417000       1.00800           0
     68494 TIP3     15350    TIP3     OH2      OT      -0.834000       15.9994           0
     68495 TIP3     15350    TIP3     H1       HT       0.417000       1.00800           0
     68496 TIP3     15350    TIP3     H2       HT       0.417000       1.00800           0
     68497 TIP3     15351    TIP3     OH2      OT      -0.834000       15.9994           0
     68498 TIP3     15351    TIP3     H1       HT       0.417000       1.00800           0
     68499 TIP3     15351    TIP3     H2       HT       0.417000       1.00800           0
     68500 TIP3     15352    TIP3     OH2      OT      -0.834000       15.9994           0
     68501 TIP3     15352    TIP3     H1       HT       0.417000       1.00800           0
     68502 TIP3     15352    TIP3     H2       HT       0.417000       1.00800           0
     68503 TIP3     15353    TIP3     OH2      OT      -0.834000       15.9994           0
     68504 TIP3     15353    TIP3     H1       HT       0.417000       1.00800           0
     68505 TIP3     15353    TIP3     H2       HT       0.417000       1.00800           0
     68506 TIP3     15354    TIP3     OH2      OT      -0.834000       15.9994           0
     68507 TIP3     15354    TIP3     H1       HT       0.417000       1.00800           0
     68508 TIP3     15354    TIP3     H2       HT       0.417000       1.00800           0
     68509 TIP3     15355    TIP3     OH2      OT      -0.834000       15.9994           0
     68510 TIP3     15355    TIP3     H1       HT       0.417000       1.00800           0
     68511 TIP3     15355    TIP3     H2       HT       0.417000       1.00800           0
     68512 TIP3     15356    TIP3     OH2      OT      -0.834000       15.9994           0
     68513 TIP3     15356    TIP3     H1       HT       0.417000       1.00800           0
     68514 TIP3     15356    TIP3     H2       HT       0.417000       1.00800           0
     68515 TIP3     15357    TIP3     OH2      OT      -0.834000       15.9994           0
     68516 TIP3     15357    TIP3     H1       HT       0.417000       1.00800           0
     68517 TIP3     15357    TIP3     H2       HT       0.417000       1.00800           0
     68518 TIP3     15358    TIP3     OH2      OT      -0.834000       15.9994           0
     68519 TIP3     15358    TIP3     H1       HT       0.417000       1.00800           0
     68520 TIP3     15358    TIP3     H2       HT       0.417000       1.00800           0
     68521 TIP3     15359    TIP3     OH2      OT      -0.834000       15.9994           0
     68522 TIP3     15359    TIP3     H1       HT       0.417000       1.00800           0
     68523 TIP3     15359    TIP3     H2       HT       0.417000       1.00800           0
     68524 TIP3     15360    TIP3     OH2      OT      -0.834000       15.9994           0
     68525 TIP3     15360    TIP3     H1       HT       0.417000       1.00800           0
     68526 TIP3     15360    TIP3     H2       HT       0.417000       1.00800           0
     68527 TIP3     15361    TIP3     OH2      OT      -0.834000       15.9994           0
     68528 TIP3     15361    TIP3     H1       HT       0.417000       1.00800           0
     68529 TIP3     15361    TIP3     H2       HT       0.417000       1.00800           0
     68530 TIP3     15362    TIP3     OH2      OT      -0.834000       15.9994           0
     68531 TIP3     15362    TIP3     H1       HT       0.417000       1.00800           0
     68532 TIP3     15362    TIP3     H2       HT       0.417000       1.00800           0
     68533 TIP3     15363    TIP3     OH2      OT      -0.834000       15.9994           0
     68534 TIP3     15363    TIP3     H1       HT       0.417000       1.00800           0
     68535 TIP3     15363    TIP3     H2       HT       0.417000       1.00800           0
     68536 TIP3     15364    TIP3     OH2      OT      -0.834000       15.9994           0
     68537 TIP3     15364    TIP3     H1       HT       0.417000       1.00800           0
     68538 TIP3     15364    TIP3     H2       HT       0.417000       1.00800           0
     68539 TIP3     15365    TIP3     OH2      OT      -0.834000       15.9994           0
     68540 TIP3     15365    TIP3     H1       HT       0.417000       1.00800           0
     68541 TIP3     15365    TIP3     H2       HT       0.417000       1.00800           0
     68542 TIP3     15366    TIP3     OH2      OT      -0.834000       15.9994           0
     68543 TIP3     15366    TIP3     H1       HT       0.417000       1.00800           0
     68544 TIP3     15366    TIP3     H2       HT       0.417000       1.00800           0
     68545 TIP3     15367    TIP3     OH2      OT      -0.834000       15.9994           0
     68546 TIP3     15367    TIP3     H1       HT       0.417000       1.00800           0
     68547 TIP3     15367    TIP3     H2       HT       0.417000       1.00800           0
     68548 TIP3     15368    TIP3     OH2      OT      -0.834000       15.9994           0
     68549 TIP3     15368    TIP3     H1       HT       0.417000       1.00800           0
     68550 TIP3     15368    TIP3     H2       HT       0.417000       1.00800           0
     68551 TIP3     15369    TIP3     OH2      OT      -0.834000       15.9994           0
     68552 TIP3     15369    TIP3     H1       HT       0.417000       1.00800           0
     68553 TIP3     15369    TIP3     H2       HT       0.417000       1.00800           0
     68554 TIP3     15370    TIP3     OH2      OT      -0.834000       15.9994           0
     68555 TIP3     15370    TIP3     H1       HT       0.417000       1.00800           0
     68556 TIP3     15370    TIP3     H2       HT       0.417000       1.00800           0
     68557 TIP3     15371    TIP3     OH2      OT      -0.834000       15.9994           0
     68558 TIP3     15371    TIP3     H1       HT       0.417000       1.00800           0
     68559 TIP3     15371    TIP3     H2       HT       0.417000       1.00800           0
     68560 TIP3     15372    TIP3     OH2      OT      -0.834000       15.9994           0
     68561 TIP3     15372    TIP3     H1       HT       0.417000       1.00800           0
     68562 TIP3     15372    TIP3     H2       HT       0.417000       1.00800           0
     68563 TIP3     15373    TIP3     OH2      OT      -0.834000       15.9994           0
     68564 TIP3     15373    TIP3     H1       HT       0.417000       1.00800           0
     68565 TIP3     15373    TIP3     H2       HT       0.417000       1.00800           0
     68566 TIP3     15374    TIP3     OH2      OT      -0.834000       15.9994           0
     68567 TIP3     15374    TIP3     H1       HT       0.417000       1.00800           0
     68568 TIP3     15374    TIP3     H2       HT       0.417000       1.00800           0
     68569 TIP3     15375    TIP3     OH2      OT      -0.834000       15.9994           0
     68570 TIP3     15375    TIP3     H1       HT       0.417000       1.00800           0
     68571 TIP3     15375    TIP3     H2       HT       0.417000       1.00800           0
     68572 TIP3     15376    TIP3     OH2      OT      -0.834000       15.9994           0
     68573 TIP3     15376    TIP3     H1       HT       0.417000       1.00800           0
     68574 TIP3     15376    TIP3     H2       HT       0.417000       1.00800           0
     68575 TIP3     15377    TIP3     OH2      OT      -0.834000       15.9994           0
     68576 TIP3     15377    TIP3     H1       HT       0.417000       1.00800           0
     68577 TIP3     15377    TIP3     H2       HT       0.417000       1.00800           0
     68578 TIP3     15378    TIP3     OH2      OT      -0.834000       15.9994           0
     68579 TIP3     15378    TIP3     H1       HT       0.417000       1.00800           0
     68580 TIP3     15378    TIP3     H2       HT       0.417000       1.00800           0
     68581 TIP3     15379    TIP3     OH2      OT      -0.834000       15.9994           0
     68582 TIP3     15379    TIP3     H1       HT       0.417000       1.00800           0
     68583 TIP3     15379    TIP3     H2       HT       0.417000       1.00800           0
     68584 TIP3     15380    TIP3     OH2      OT      -0.834000       15.9994           0
     68585 TIP3     15380    TIP3     H1       HT       0.417000       1.00800           0
     68586 TIP3     15380    TIP3     H2       HT       0.417000       1.00800           0
     68587 TIP3     15381    TIP3     OH2      OT      -0.834000       15.9994           0
     68588 TIP3     15381    TIP3     H1       HT       0.417000       1.00800           0
     68589 TIP3     15381    TIP3     H2       HT       0.417000       1.00800           0
     68590 TIP3     15382    TIP3     OH2      OT      -0.834000       15.9994           0
     68591 TIP3     15382    TIP3     H1       HT       0.417000       1.00800           0
     68592 TIP3     15382    TIP3     H2       HT       0.417000       1.00800           0
     68593 TIP3     15383    TIP3     OH2      OT      -0.834000       15.9994           0
     68594 TIP3     15383    TIP3     H1       HT       0.417000       1.00800           0
     68595 TIP3     15383    TIP3     H2       HT       0.417000       1.00800           0
     68596 TIP3     15384    TIP3     OH2      OT      -0.834000       15.9994           0
     68597 TIP3     15384    TIP3     H1       HT       0.417000       1.00800           0
     68598 TIP3     15384    TIP3     H2       HT       0.417000       1.00800           0
     68599 TIP3     15385    TIP3     OH2      OT      -0.834000       15.9994           0
     68600 TIP3     15385    TIP3     H1       HT       0.417000       1.00800           0
     68601 TIP3     15385    TIP3     H2       HT       0.417000       1.00800           0
     68602 TIP3     15386    TIP3     OH2      OT      -0.834000       15.9994           0
     68603 TIP3     15386    TIP3     H1       HT       0.417000       1.00800           0
     68604 TIP3     15386    TIP3     H2       HT       0.417000       1.00800           0
     68605 TIP3     15387    TIP3     OH2      OT      -0.834000       15.9994           0
     68606 TIP3     15387    TIP3     H1       HT       0.417000       1.00800           0
     68607 TIP3     15387    TIP3     H2       HT       0.417000       1.00800           0
     68608 TIP3     15388    TIP3     OH2      OT      -0.834000       15.9994           0
     68609 TIP3     15388    TIP3     H1       HT       0.417000       1.00800           0
     68610 TIP3     15388    TIP3     H2       HT       0.417000       1.00800           0
     68611 TIP3     15389    TIP3     OH2      OT      -0.834000       15.9994           0
     68612 TIP3     15389    TIP3     H1       HT       0.417000       1.00800           0
     68613 TIP3     15389    TIP3     H2       HT       0.417000       1.00800           0
     68614 TIP3     15390    TIP3     OH2      OT      -0.834000       15.9994           0
     68615 TIP3     15390    TIP3     H1       HT       0.417000       1.00800           0
     68616 TIP3     15390    TIP3     H2       HT       0.417000       1.00800           0
     68617 TIP3     15391    TIP3     OH2      OT      -0.834000       15.9994           0
     68618 TIP3     15391    TIP3     H1       HT       0.417000       1.00800           0
     68619 TIP3     15391    TIP3     H2       HT       0.417000       1.00800           0
     68620 TIP3     15392    TIP3     OH2      OT      -0.834000       15.9994           0
     68621 TIP3     15392    TIP3     H1       HT       0.417000       1.00800           0
     68622 TIP3     15392    TIP3     H2       HT       0.417000       1.00800           0
     68623 TIP3     15393    TIP3     OH2      OT      -0.834000       15.9994           0
     68624 TIP3     15393    TIP3     H1       HT       0.417000       1.00800           0
     68625 TIP3     15393    TIP3     H2       HT       0.417000       1.00800           0
     68626 TIP3     15394    TIP3     OH2      OT      -0.834000       15.9994           0
     68627 TIP3     15394    TIP3     H1       HT       0.417000       1.00800           0
     68628 TIP3     15394    TIP3     H2       HT       0.417000       1.00800           0
     68629 TIP3     15395    TIP3     OH2      OT      -0.834000       15.9994           0
     68630 TIP3     15395    TIP3     H1       HT       0.417000       1.00800           0
     68631 TIP3     15395    TIP3     H2       HT       0.417000       1.00800           0
     68632 TIP3     15396    TIP3     OH2      OT      -0.834000       15.9994           0
     68633 TIP3     15396    TIP3     H1       HT       0.417000       1.00800           0
     68634 TIP3     15396    TIP3     H2       HT       0.417000       1.00800           0
     68635 TIP3     15397    TIP3     OH2      OT      -0.834000       15.9994           0
     68636 TIP3     15397    TIP3     H1       HT       0.417000       1.00800           0
     68637 TIP3     15397    TIP3     H2       HT       0.417000       1.00800           0
     68638 TIP3     15398    TIP3     OH2      OT      -0.834000       15.9994           0
     68639 TIP3     15398    TIP3     H1       HT       0.417000       1.00800           0
     68640 TIP3     15398    TIP3     H2       HT       0.417000       1.00800           0
     68641 TIP3     15399    TIP3     OH2      OT      -0.834000       15.9994           0
     68642 TIP3     15399    TIP3     H1       HT       0.417000       1.00800           0
     68643 TIP3     15399    TIP3     H2       HT       0.417000       1.00800           0
     68644 TIP3     15400    TIP3     OH2      OT      -0.834000       15.9994           0
     68645 TIP3     15400    TIP3     H1       HT       0.417000       1.00800           0
     68646 TIP3     15400    TIP3     H2       HT       0.417000       1.00800           0
     68647 TIP3     15401    TIP3     OH2      OT      -0.834000       15.9994           0
     68648 TIP3     15401    TIP3     H1       HT       0.417000       1.00800           0
     68649 TIP3     15401    TIP3     H2       HT       0.417000       1.00800           0
     68650 TIP3     15402    TIP3     OH2      OT      -0.834000       15.9994           0
     68651 TIP3     15402    TIP3     H1       HT       0.417000       1.00800           0
     68652 TIP3     15402    TIP3     H2       HT       0.417000       1.00800           0
     68653 TIP3     15403    TIP3     OH2      OT      -0.834000       15.9994           0
     68654 TIP3     15403    TIP3     H1       HT       0.417000       1.00800           0
     68655 TIP3     15403    TIP3     H2       HT       0.417000       1.00800           0
     68656 TIP3     15404    TIP3     OH2      OT      -0.834000       15.9994           0
     68657 TIP3     15404    TIP3     H1       HT       0.417000       1.00800           0
     68658 TIP3     15404    TIP3     H2       HT       0.417000       1.00800           0
     68659 TIP3     15405    TIP3     OH2      OT      -0.834000       15.9994           0
     68660 TIP3     15405    TIP3     H1       HT       0.417000       1.00800           0
     68661 TIP3     15405    TIP3     H2       HT       0.417000       1.00800           0
     68662 TIP3     15406    TIP3     OH2      OT      -0.834000       15.9994           0
     68663 TIP3     15406    TIP3     H1       HT       0.417000       1.00800           0
     68664 TIP3     15406    TIP3     H2       HT       0.417000       1.00800           0
     68665 TIP3     15407    TIP3     OH2      OT      -0.834000       15.9994           0
     68666 TIP3     15407    TIP3     H1       HT       0.417000       1.00800           0
     68667 TIP3     15407    TIP3     H2       HT       0.417000       1.00800           0
     68668 TIP3     15408    TIP3     OH2      OT      -0.834000       15.9994           0
     68669 TIP3     15408    TIP3     H1       HT       0.417000       1.00800           0
     68670 TIP3     15408    TIP3     H2       HT       0.417000       1.00800           0
     68671 TIP3     15409    TIP3     OH2      OT      -0.834000       15.9994           0
     68672 TIP3     15409    TIP3     H1       HT       0.417000       1.00800           0
     68673 TIP3     15409    TIP3     H2       HT       0.417000       1.00800           0
     68674 TIP3     15410    TIP3     OH2      OT      -0.834000       15.9994           0
     68675 TIP3     15410    TIP3     H1       HT       0.417000       1.00800           0
     68676 TIP3     15410    TIP3     H2       HT       0.417000       1.00800           0
     68677 TIP3     15411    TIP3     OH2      OT      -0.834000       15.9994           0
     68678 TIP3     15411    TIP3     H1       HT       0.417000       1.00800           0
     68679 TIP3     15411    TIP3     H2       HT       0.417000       1.00800           0
     68680 TIP3     15412    TIP3     OH2      OT      -0.834000       15.9994           0
     68681 TIP3     15412    TIP3     H1       HT       0.417000       1.00800           0
     68682 TIP3     15412    TIP3     H2       HT       0.417000       1.00800           0
     68683 TIP3     15413    TIP3     OH2      OT      -0.834000       15.9994           0
     68684 TIP3     15413    TIP3     H1       HT       0.417000       1.00800           0
     68685 TIP3     15413    TIP3     H2       HT       0.417000       1.00800           0
     68686 TIP3     15414    TIP3     OH2      OT      -0.834000       15.9994           0
     68687 TIP3     15414    TIP3     H1       HT       0.417000       1.00800           0
     68688 TIP3     15414    TIP3     H2       HT       0.417000       1.00800           0
     68689 TIP3     15415    TIP3     OH2      OT      -0.834000       15.9994           0
     68690 TIP3     15415    TIP3     H1       HT       0.417000       1.00800           0
     68691 TIP3     15415    TIP3     H2       HT       0.417000       1.00800           0
     68692 TIP3     15416    TIP3     OH2      OT      -0.834000       15.9994           0
     68693 TIP3     15416    TIP3     H1       HT       0.417000       1.00800           0
     68694 TIP3     15416    TIP3     H2       HT       0.417000       1.00800           0
     68695 TIP3     15417    TIP3     OH2      OT      -0.834000       15.9994           0
     68696 TIP3     15417    TIP3     H1       HT       0.417000       1.00800           0
     68697 TIP3     15417    TIP3     H2       HT       0.417000       1.00800           0
     68698 TIP3     15418    TIP3     OH2      OT      -0.834000       15.9994           0
     68699 TIP3     15418    TIP3     H1       HT       0.417000       1.00800           0
     68700 TIP3     15418    TIP3     H2       HT       0.417000       1.00800           0
     68701 TIP3     15419    TIP3     OH2      OT      -0.834000       15.9994           0
     68702 TIP3     15419    TIP3     H1       HT       0.417000       1.00800           0
     68703 TIP3     15419    TIP3     H2       HT       0.417000       1.00800           0
     68704 TIP3     15420    TIP3     OH2      OT      -0.834000       15.9994           0
     68705 TIP3     15420    TIP3     H1       HT       0.417000       1.00800           0
     68706 TIP3     15420    TIP3     H2       HT       0.417000       1.00800           0
     68707 TIP3     15421    TIP3     OH2      OT      -0.834000       15.9994           0
     68708 TIP3     15421    TIP3     H1       HT       0.417000       1.00800           0
     68709 TIP3     15421    TIP3     H2       HT       0.417000       1.00800           0
     68710 TIP3     15422    TIP3     OH2      OT      -0.834000       15.9994           0
     68711 TIP3     15422    TIP3     H1       HT       0.417000       1.00800           0
     68712 TIP3     15422    TIP3     H2       HT       0.417000       1.00800           0
     68713 TIP3     15423    TIP3     OH2      OT      -0.834000       15.9994           0
     68714 TIP3     15423    TIP3     H1       HT       0.417000       1.00800           0
     68715 TIP3     15423    TIP3     H2       HT       0.417000       1.00800           0
     68716 TIP3     15424    TIP3     OH2      OT      -0.834000       15.9994           0
     68717 TIP3     15424    TIP3     H1       HT       0.417000       1.00800           0
     68718 TIP3     15424    TIP3     H2       HT       0.417000       1.00800           0
     68719 TIP3     15425    TIP3     OH2      OT      -0.834000       15.9994           0
     68720 TIP3     15425    TIP3     H1       HT       0.417000       1.00800           0
     68721 TIP3     15425    TIP3     H2       HT       0.417000       1.00800           0
     68722 TIP3     15426    TIP3     OH2      OT      -0.834000       15.9994           0
     68723 TIP3     15426    TIP3     H1       HT       0.417000       1.00800           0
     68724 TIP3     15426    TIP3     H2       HT       0.417000       1.00800           0
     68725 TIP3     15427    TIP3     OH2      OT      -0.834000       15.9994           0
     68726 TIP3     15427    TIP3     H1       HT       0.417000       1.00800           0
     68727 TIP3     15427    TIP3     H2       HT       0.417000       1.00800           0
     68728 TIP3     15428    TIP3     OH2      OT      -0.834000       15.9994           0
     68729 TIP3     15428    TIP3     H1       HT       0.417000       1.00800           0
     68730 TIP3     15428    TIP3     H2       HT       0.417000       1.00800           0
     68731 TIP3     15429    TIP3     OH2      OT      -0.834000       15.9994           0
     68732 TIP3     15429    TIP3     H1       HT       0.417000       1.00800           0
     68733 TIP3     15429    TIP3     H2       HT       0.417000       1.00800           0
     68734 TIP3     15430    TIP3     OH2      OT      -0.834000       15.9994           0
     68735 TIP3     15430    TIP3     H1       HT       0.417000       1.00800           0
     68736 TIP3     15430    TIP3     H2       HT       0.417000       1.00800           0
     68737 TIP3     15431    TIP3     OH2      OT      -0.834000       15.9994           0
     68738 TIP3     15431    TIP3     H1       HT       0.417000       1.00800           0
     68739 TIP3     15431    TIP3     H2       HT       0.417000       1.00800           0
     68740 TIP3     15432    TIP3     OH2      OT      -0.834000       15.9994           0
     68741 TIP3     15432    TIP3     H1       HT       0.417000       1.00800           0
     68742 TIP3     15432    TIP3     H2       HT       0.417000       1.00800           0
     68743 TIP3     15433    TIP3     OH2      OT      -0.834000       15.9994           0
     68744 TIP3     15433    TIP3     H1       HT       0.417000       1.00800           0
     68745 TIP3     15433    TIP3     H2       HT       0.417000       1.00800           0
     68746 TIP3     15434    TIP3     OH2      OT      -0.834000       15.9994           0
     68747 TIP3     15434    TIP3     H1       HT       0.417000       1.00800           0
     68748 TIP3     15434    TIP3     H2       HT       0.417000       1.00800           0
     68749 TIP3     15435    TIP3     OH2      OT      -0.834000       15.9994           0
     68750 TIP3     15435    TIP3     H1       HT       0.417000       1.00800           0
     68751 TIP3     15435    TIP3     H2       HT       0.417000       1.00800           0
     68752 TIP3     15436    TIP3     OH2      OT      -0.834000       15.9994           0
     68753 TIP3     15436    TIP3     H1       HT       0.417000       1.00800           0
     68754 TIP3     15436    TIP3     H2       HT       0.417000       1.00800           0
     68755 TIP3     15437    TIP3     OH2      OT      -0.834000       15.9994           0
     68756 TIP3     15437    TIP3     H1       HT       0.417000       1.00800           0
     68757 TIP3     15437    TIP3     H2       HT       0.417000       1.00800           0
     68758 TIP3     15438    TIP3     OH2      OT      -0.834000       15.9994           0
     68759 TIP3     15438    TIP3     H1       HT       0.417000       1.00800           0
     68760 TIP3     15438    TIP3     H2       HT       0.417000       1.00800           0
     68761 TIP3     15439    TIP3     OH2      OT      -0.834000       15.9994           0
     68762 TIP3     15439    TIP3     H1       HT       0.417000       1.00800           0
     68763 TIP3     15439    TIP3     H2       HT       0.417000       1.00800           0
     68764 TIP3     15440    TIP3     OH2      OT      -0.834000       15.9994           0
     68765 TIP3     15440    TIP3     H1       HT       0.417000       1.00800           0
     68766 TIP3     15440    TIP3     H2       HT       0.417000       1.00800           0
     68767 TIP3     15441    TIP3     OH2      OT      -0.834000       15.9994           0
     68768 TIP3     15441    TIP3     H1       HT       0.417000       1.00800           0
     68769 TIP3     15441    TIP3     H2       HT       0.417000       1.00800           0
     68770 TIP3     15442    TIP3     OH2      OT      -0.834000       15.9994           0
     68771 TIP3     15442    TIP3     H1       HT       0.417000       1.00800           0
     68772 TIP3     15442    TIP3     H2       HT       0.417000       1.00800           0
     68773 TIP3     15443    TIP3     OH2      OT      -0.834000       15.9994           0
     68774 TIP3     15443    TIP3     H1       HT       0.417000       1.00800           0
     68775 TIP3     15443    TIP3     H2       HT       0.417000       1.00800           0
     68776 TIP3     15444    TIP3     OH2      OT      -0.834000       15.9994           0
     68777 TIP3     15444    TIP3     H1       HT       0.417000       1.00800           0
     68778 TIP3     15444    TIP3     H2       HT       0.417000       1.00800           0
     68779 TIP3     15445    TIP3     OH2      OT      -0.834000       15.9994           0
     68780 TIP3     15445    TIP3     H1       HT       0.417000       1.00800           0
     68781 TIP3     15445    TIP3     H2       HT       0.417000       1.00800           0
     68782 TIP3     15446    TIP3     OH2      OT      -0.834000       15.9994           0
     68783 TIP3     15446    TIP3     H1       HT       0.417000       1.00800           0
     68784 TIP3     15446    TIP3     H2       HT       0.417000       1.00800           0
     68785 TIP3     15447    TIP3     OH2      OT      -0.834000       15.9994           0
     68786 TIP3     15447    TIP3     H1       HT       0.417000       1.00800           0
     68787 TIP3     15447    TIP3     H2       HT       0.417000       1.00800           0
     68788 TIP3     15448    TIP3     OH2      OT      -0.834000       15.9994           0
     68789 TIP3     15448    TIP3     H1       HT       0.417000       1.00800           0
     68790 TIP3     15448    TIP3     H2       HT       0.417000       1.00800           0
     68791 TIP3     15449    TIP3     OH2      OT      -0.834000       15.9994           0
     68792 TIP3     15449    TIP3     H1       HT       0.417000       1.00800           0
     68793 TIP3     15449    TIP3     H2       HT       0.417000       1.00800           0
     68794 TIP3     15450    TIP3     OH2      OT      -0.834000       15.9994           0
     68795 TIP3     15450    TIP3     H1       HT       0.417000       1.00800           0
     68796 TIP3     15450    TIP3     H2       HT       0.417000       1.00800           0
     68797 TIP3     15451    TIP3     OH2      OT      -0.834000       15.9994           0
     68798 TIP3     15451    TIP3     H1       HT       0.417000       1.00800           0
     68799 TIP3     15451    TIP3     H2       HT       0.417000       1.00800           0
     68800 TIP3     15452    TIP3     OH2      OT      -0.834000       15.9994           0
     68801 TIP3     15452    TIP3     H1       HT       0.417000       1.00800           0
     68802 TIP3     15452    TIP3     H2       HT       0.417000       1.00800           0
     68803 TIP3     15453    TIP3     OH2      OT      -0.834000       15.9994           0
     68804 TIP3     15453    TIP3     H1       HT       0.417000       1.00800           0
     68805 TIP3     15453    TIP3     H2       HT       0.417000       1.00800           0
     68806 TIP3     15454    TIP3     OH2      OT      -0.834000       15.9994           0
     68807 TIP3     15454    TIP3     H1       HT       0.417000       1.00800           0
     68808 TIP3     15454    TIP3     H2       HT       0.417000       1.00800           0
     68809 TIP3     15455    TIP3     OH2      OT      -0.834000       15.9994           0
     68810 TIP3     15455    TIP3     H1       HT       0.417000       1.00800           0
     68811 TIP3     15455    TIP3     H2       HT       0.417000       1.00800           0
     68812 TIP3     15456    TIP3     OH2      OT      -0.834000       15.9994           0
     68813 TIP3     15456    TIP3     H1       HT       0.417000       1.00800           0
     68814 TIP3     15456    TIP3     H2       HT       0.417000       1.00800           0
     68815 TIP3     15457    TIP3     OH2      OT      -0.834000       15.9994           0
     68816 TIP3     15457    TIP3     H1       HT       0.417000       1.00800           0
     68817 TIP3     15457    TIP3     H2       HT       0.417000       1.00800           0
     68818 TIP3     15458    TIP3     OH2      OT      -0.834000       15.9994           0
     68819 TIP3     15458    TIP3     H1       HT       0.417000       1.00800           0
     68820 TIP3     15458    TIP3     H2       HT       0.417000       1.00800           0
     68821 TIP3     15459    TIP3     OH2      OT      -0.834000       15.9994           0
     68822 TIP3     15459    TIP3     H1       HT       0.417000       1.00800           0
     68823 TIP3     15459    TIP3     H2       HT       0.417000       1.00800           0
     68824 TIP3     15460    TIP3     OH2      OT      -0.834000       15.9994           0
     68825 TIP3     15460    TIP3     H1       HT       0.417000       1.00800           0
     68826 TIP3     15460    TIP3     H2       HT       0.417000       1.00800           0
     68827 TIP3     15461    TIP3     OH2      OT      -0.834000       15.9994           0
     68828 TIP3     15461    TIP3     H1       HT       0.417000       1.00800           0
     68829 TIP3     15461    TIP3     H2       HT       0.417000       1.00800           0
     68830 TIP3     15462    TIP3     OH2      OT      -0.834000       15.9994           0
     68831 TIP3     15462    TIP3     H1       HT       0.417000       1.00800           0
     68832 TIP3     15462    TIP3     H2       HT       0.417000       1.00800           0
     68833 TIP3     15463    TIP3     OH2      OT      -0.834000       15.9994           0
     68834 TIP3     15463    TIP3     H1       HT       0.417000       1.00800           0
     68835 TIP3     15463    TIP3     H2       HT       0.417000       1.00800           0
     68836 TIP3     15464    TIP3     OH2      OT      -0.834000       15.9994           0
     68837 TIP3     15464    TIP3     H1       HT       0.417000       1.00800           0
     68838 TIP3     15464    TIP3     H2       HT       0.417000       1.00800           0
     68839 TIP3     15465    TIP3     OH2      OT      -0.834000       15.9994           0
     68840 TIP3     15465    TIP3     H1       HT       0.417000       1.00800           0
     68841 TIP3     15465    TIP3     H2       HT       0.417000       1.00800           0
     68842 TIP3     15466    TIP3     OH2      OT      -0.834000       15.9994           0
     68843 TIP3     15466    TIP3     H1       HT       0.417000       1.00800           0
     68844 TIP3     15466    TIP3     H2       HT       0.417000       1.00800           0
     68845 TIP3     15467    TIP3     OH2      OT      -0.834000       15.9994           0
     68846 TIP3     15467    TIP3     H1       HT       0.417000       1.00800           0
     68847 TIP3     15467    TIP3     H2       HT       0.417000       1.00800           0
     68848 TIP3     15468    TIP3     OH2      OT      -0.834000       15.9994           0
     68849 TIP3     15468    TIP3     H1       HT       0.417000       1.00800           0
     68850 TIP3     15468    TIP3     H2       HT       0.417000       1.00800           0
     68851 TIP3     15469    TIP3     OH2      OT      -0.834000       15.9994           0
     68852 TIP3     15469    TIP3     H1       HT       0.417000       1.00800           0
     68853 TIP3     15469    TIP3     H2       HT       0.417000       1.00800           0
     68854 TIP3     15470    TIP3     OH2      OT      -0.834000       15.9994           0
     68855 TIP3     15470    TIP3     H1       HT       0.417000       1.00800           0
     68856 TIP3     15470    TIP3     H2       HT       0.417000       1.00800           0
     68857 TIP3     15471    TIP3     OH2      OT      -0.834000       15.9994           0
     68858 TIP3     15471    TIP3     H1       HT       0.417000       1.00800           0
     68859 TIP3     15471    TIP3     H2       HT       0.417000       1.00800           0
     68860 TIP3     15472    TIP3     OH2      OT      -0.834000       15.9994           0
     68861 TIP3     15472    TIP3     H1       HT       0.417000       1.00800           0
     68862 TIP3     15472    TIP3     H2       HT       0.417000       1.00800           0
     68863 TIP3     15473    TIP3     OH2      OT      -0.834000       15.9994           0
     68864 TIP3     15473    TIP3     H1       HT       0.417000       1.00800           0
     68865 TIP3     15473    TIP3     H2       HT       0.417000       1.00800           0
     68866 TIP3     15474    TIP3     OH2      OT      -0.834000       15.9994           0
     68867 TIP3     15474    TIP3     H1       HT       0.417000       1.00800           0
     68868 TIP3     15474    TIP3     H2       HT       0.417000       1.00800           0
     68869 TIP3     15475    TIP3     OH2      OT      -0.834000       15.9994           0
     68870 TIP3     15475    TIP3     H1       HT       0.417000       1.00800           0
     68871 TIP3     15475    TIP3     H2       HT       0.417000       1.00800           0
     68872 TIP3     15476    TIP3     OH2      OT      -0.834000       15.9994           0
     68873 TIP3     15476    TIP3     H1       HT       0.417000       1.00800           0
     68874 TIP3     15476    TIP3     H2       HT       0.417000       1.00800           0
     68875 TIP3     15477    TIP3     OH2      OT      -0.834000       15.9994           0
     68876 TIP3     15477    TIP3     H1       HT       0.417000       1.00800           0
     68877 TIP3     15477    TIP3     H2       HT       0.417000       1.00800           0
     68878 TIP3     15478    TIP3     OH2      OT      -0.834000       15.9994           0
     68879 TIP3     15478    TIP3     H1       HT       0.417000       1.00800           0
     68880 TIP3     15478    TIP3     H2       HT       0.417000       1.00800           0
     68881 TIP3     15479    TIP3     OH2      OT      -0.834000       15.9994           0
     68882 TIP3     15479    TIP3     H1       HT       0.417000       1.00800           0
     68883 TIP3     15479    TIP3     H2       HT       0.417000       1.00800           0
     68884 TIP3     15480    TIP3     OH2      OT      -0.834000       15.9994           0
     68885 TIP3     15480    TIP3     H1       HT       0.417000       1.00800           0
     68886 TIP3     15480    TIP3     H2       HT       0.417000       1.00800           0
     68887 TIP3     15481    TIP3     OH2      OT      -0.834000       15.9994           0
     68888 TIP3     15481    TIP3     H1       HT       0.417000       1.00800           0
     68889 TIP3     15481    TIP3     H2       HT       0.417000       1.00800           0
     68890 TIP3     15482    TIP3     OH2      OT      -0.834000       15.9994           0
     68891 TIP3     15482    TIP3     H1       HT       0.417000       1.00800           0
     68892 TIP3     15482    TIP3     H2       HT       0.417000       1.00800           0
     68893 TIP3     15483    TIP3     OH2      OT      -0.834000       15.9994           0
     68894 TIP3     15483    TIP3     H1       HT       0.417000       1.00800           0
     68895 TIP3     15483    TIP3     H2       HT       0.417000       1.00800           0
     68896 TIP3     15484    TIP3     OH2      OT      -0.834000       15.9994           0
     68897 TIP3     15484    TIP3     H1       HT       0.417000       1.00800           0
     68898 TIP3     15484    TIP3     H2       HT       0.417000       1.00800           0
     68899 TIP3     15485    TIP3     OH2      OT      -0.834000       15.9994           0
     68900 TIP3     15485    TIP3     H1       HT       0.417000       1.00800           0
     68901 TIP3     15485    TIP3     H2       HT       0.417000       1.00800           0
     68902 TIP3     15486    TIP3     OH2      OT      -0.834000       15.9994           0
     68903 TIP3     15486    TIP3     H1       HT       0.417000       1.00800           0
     68904 TIP3     15486    TIP3     H2       HT       0.417000       1.00800           0
     68905 TIP3     15487    TIP3     OH2      OT      -0.834000       15.9994           0
     68906 TIP3     15487    TIP3     H1       HT       0.417000       1.00800           0
     68907 TIP3     15487    TIP3     H2       HT       0.417000       1.00800           0
     68908 TIP3     15488    TIP3     OH2      OT      -0.834000       15.9994           0
     68909 TIP3     15488    TIP3     H1       HT       0.417000       1.00800           0
     68910 TIP3     15488    TIP3     H2       HT       0.417000       1.00800           0
     68911 TIP3     15489    TIP3     OH2      OT      -0.834000       15.9994           0
     68912 TIP3     15489    TIP3     H1       HT       0.417000       1.00800           0
     68913 TIP3     15489    TIP3     H2       HT       0.417000       1.00800           0
     68914 TIP3     15490    TIP3     OH2      OT      -0.834000       15.9994           0
     68915 TIP3     15490    TIP3     H1       HT       0.417000       1.00800           0
     68916 TIP3     15490    TIP3     H2       HT       0.417000       1.00800           0
     68917 TIP3     15491    TIP3     OH2      OT      -0.834000       15.9994           0
     68918 TIP3     15491    TIP3     H1       HT       0.417000       1.00800           0
     68919 TIP3     15491    TIP3     H2       HT       0.417000       1.00800           0
     68920 TIP3     15492    TIP3     OH2      OT      -0.834000       15.9994           0
     68921 TIP3     15492    TIP3     H1       HT       0.417000       1.00800           0
     68922 TIP3     15492    TIP3     H2       HT       0.417000       1.00800           0
     68923 TIP3     15493    TIP3     OH2      OT      -0.834000       15.9994           0
     68924 TIP3     15493    TIP3     H1       HT       0.417000       1.00800           0
     68925 TIP3     15493    TIP3     H2       HT       0.417000       1.00800           0
     68926 TIP3     15494    TIP3     OH2      OT      -0.834000       15.9994           0
     68927 TIP3     15494    TIP3     H1       HT       0.417000       1.00800           0
     68928 TIP3     15494    TIP3     H2       HT       0.417000       1.00800           0
     68929 TIP3     15495    TIP3     OH2      OT      -0.834000       15.9994           0
     68930 TIP3     15495    TIP3     H1       HT       0.417000       1.00800           0
     68931 TIP3     15495    TIP3     H2       HT       0.417000       1.00800           0
     68932 TIP3     15496    TIP3     OH2      OT      -0.834000       15.9994           0
     68933 TIP3     15496    TIP3     H1       HT       0.417000       1.00800           0
     68934 TIP3     15496    TIP3     H2       HT       0.417000       1.00800           0
     68935 TIP3     15497    TIP3     OH2      OT      -0.834000       15.9994           0
     68936 TIP3     15497    TIP3     H1       HT       0.417000       1.00800           0
     68937 TIP3     15497    TIP3     H2       HT       0.417000       1.00800           0
     68938 TIP3     15498    TIP3     OH2      OT      -0.834000       15.9994           0
     68939 TIP3     15498    TIP3     H1       HT       0.417000       1.00800           0
     68940 TIP3     15498    TIP3     H2       HT       0.417000       1.00800           0
     68941 TIP3     15499    TIP3     OH2      OT      -0.834000       15.9994           0
     68942 TIP3     15499    TIP3     H1       HT       0.417000       1.00800           0
     68943 TIP3     15499    TIP3     H2       HT       0.417000       1.00800           0
     68944 TIP3     15500    TIP3     OH2      OT      -0.834000       15.9994           0
     68945 TIP3     15500    TIP3     H1       HT       0.417000       1.00800           0
     68946 TIP3     15500    TIP3     H2       HT       0.417000       1.00800           0
     68947 TIP3     15501    TIP3     OH2      OT      -0.834000       15.9994           0
     68948 TIP3     15501    TIP3     H1       HT       0.417000       1.00800           0
     68949 TIP3     15501    TIP3     H2       HT       0.417000       1.00800           0
     68950 TIP3     15502    TIP3     OH2      OT      -0.834000       15.9994           0
     68951 TIP3     15502    TIP3     H1       HT       0.417000       1.00800           0
     68952 TIP3     15502    TIP3     H2       HT       0.417000       1.00800           0
     68953 TIP3     15503    TIP3     OH2      OT      -0.834000       15.9994           0
     68954 TIP3     15503    TIP3     H1       HT       0.417000       1.00800           0
     68955 TIP3     15503    TIP3     H2       HT       0.417000       1.00800           0
     68956 TIP3     15504    TIP3     OH2      OT      -0.834000       15.9994           0
     68957 TIP3     15504    TIP3     H1       HT       0.417000       1.00800           0
     68958 TIP3     15504    TIP3     H2       HT       0.417000       1.00800           0
     68959 TIP3     15505    TIP3     OH2      OT      -0.834000       15.9994           0
     68960 TIP3     15505    TIP3     H1       HT       0.417000       1.00800           0
     68961 TIP3     15505    TIP3     H2       HT       0.417000       1.00800           0
     68962 TIP3     15506    TIP3     OH2      OT      -0.834000       15.9994           0
     68963 TIP3     15506    TIP3     H1       HT       0.417000       1.00800           0
     68964 TIP3     15506    TIP3     H2       HT       0.417000       1.00800           0
     68965 TIP3     15507    TIP3     OH2      OT      -0.834000       15.9994           0
     68966 TIP3     15507    TIP3     H1       HT       0.417000       1.00800           0
     68967 TIP3     15507    TIP3     H2       HT       0.417000       1.00800           0
     68968 TIP3     15508    TIP3     OH2      OT      -0.834000       15.9994           0
     68969 TIP3     15508    TIP3     H1       HT       0.417000       1.00800           0
     68970 TIP3     15508    TIP3     H2       HT       0.417000       1.00800           0
     68971 TIP3     15509    TIP3     OH2      OT      -0.834000       15.9994           0
     68972 TIP3     15509    TIP3     H1       HT       0.417000       1.00800           0
     68973 TIP3     15509    TIP3     H2       HT       0.417000       1.00800           0
     68974 TIP3     15510    TIP3     OH2      OT      -0.834000       15.9994           0
     68975 TIP3     15510    TIP3     H1       HT       0.417000       1.00800           0
     68976 TIP3     15510    TIP3     H2       HT       0.417000       1.00800           0
     68977 TIP3     15511    TIP3     OH2      OT      -0.834000       15.9994           0
     68978 TIP3     15511    TIP3     H1       HT       0.417000       1.00800           0
     68979 TIP3     15511    TIP3     H2       HT       0.417000       1.00800           0
     68980 TIP3     15512    TIP3     OH2      OT      -0.834000       15.9994           0
     68981 TIP3     15512    TIP3     H1       HT       0.417000       1.00800           0
     68982 TIP3     15512    TIP3     H2       HT       0.417000       1.00800           0
     68983 TIP3     15513    TIP3     OH2      OT      -0.834000       15.9994           0
     68984 TIP3     15513    TIP3     H1       HT       0.417000       1.00800           0
     68985 TIP3     15513    TIP3     H2       HT       0.417000       1.00800           0
     68986 TIP3     15514    TIP3     OH2      OT      -0.834000       15.9994           0
     68987 TIP3     15514    TIP3     H1       HT       0.417000       1.00800           0
     68988 TIP3     15514    TIP3     H2       HT       0.417000       1.00800           0
     68989 TIP3     15515    TIP3     OH2      OT      -0.834000       15.9994           0
     68990 TIP3     15515    TIP3     H1       HT       0.417000       1.00800           0
     68991 TIP3     15515    TIP3     H2       HT       0.417000       1.00800           0
     68992 TIP3     15516    TIP3     OH2      OT      -0.834000       15.9994           0
     68993 TIP3     15516    TIP3     H1       HT       0.417000       1.00800           0
     68994 TIP3     15516    TIP3     H2       HT       0.417000       1.00800           0
     68995 TIP3     15517    TIP3     OH2      OT      -0.834000       15.9994           0
     68996 TIP3     15517    TIP3     H1       HT       0.417000       1.00800           0
     68997 TIP3     15517    TIP3     H2       HT       0.417000       1.00800           0
     68998 TIP3     15518    TIP3     OH2      OT      -0.834000       15.9994           0
     68999 TIP3     15518    TIP3     H1       HT       0.417000       1.00800           0
     69000 TIP3     15518    TIP3     H2       HT       0.417000       1.00800           0
     69001 TIP3     15519    TIP3     OH2      OT      -0.834000       15.9994           0
     69002 TIP3     15519    TIP3     H1       HT       0.417000       1.00800           0
     69003 TIP3     15519    TIP3     H2       HT       0.417000       1.00800           0
     69004 TIP3     15520    TIP3     OH2      OT      -0.834000       15.9994           0
     69005 TIP3     15520    TIP3     H1       HT       0.417000       1.00800           0
     69006 TIP3     15520    TIP3     H2       HT       0.417000       1.00800           0
     69007 TIP3     15521    TIP3     OH2      OT      -0.834000       15.9994           0
     69008 TIP3     15521    TIP3     H1       HT       0.417000       1.00800           0
     69009 TIP3     15521    TIP3     H2       HT       0.417000       1.00800           0
     69010 TIP3     15522    TIP3     OH2      OT      -0.834000       15.9994           0
     69011 TIP3     15522    TIP3     H1       HT       0.417000       1.00800           0
     69012 TIP3     15522    TIP3     H2       HT       0.417000       1.00800           0
     69013 TIP3     15523    TIP3     OH2      OT      -0.834000       15.9994           0
     69014 TIP3     15523    TIP3     H1       HT       0.417000       1.00800           0
     69015 TIP3     15523    TIP3     H2       HT       0.417000       1.00800           0
     69016 TIP3     15524    TIP3     OH2      OT      -0.834000       15.9994           0
     69017 TIP3     15524    TIP3     H1       HT       0.417000       1.00800           0
     69018 TIP3     15524    TIP3     H2       HT       0.417000       1.00800           0
     69019 TIP3     15525    TIP3     OH2      OT      -0.834000       15.9994           0
     69020 TIP3     15525    TIP3     H1       HT       0.417000       1.00800           0
     69021 TIP3     15525    TIP3     H2       HT       0.417000       1.00800           0
     69022 TIP3     15526    TIP3     OH2      OT      -0.834000       15.9994           0
     69023 TIP3     15526    TIP3     H1       HT       0.417000       1.00800           0
     69024 TIP3     15526    TIP3     H2       HT       0.417000       1.00800           0
     69025 TIP3     15527    TIP3     OH2      OT      -0.834000       15.9994           0
     69026 TIP3     15527    TIP3     H1       HT       0.417000       1.00800           0
     69027 TIP3     15527    TIP3     H2       HT       0.417000       1.00800           0
     69028 TIP3     15528    TIP3     OH2      OT      -0.834000       15.9994           0
     69029 TIP3     15528    TIP3     H1       HT       0.417000       1.00800           0
     69030 TIP3     15528    TIP3     H2       HT       0.417000       1.00800           0
     69031 TIP3     15529    TIP3     OH2      OT      -0.834000       15.9994           0
     69032 TIP3     15529    TIP3     H1       HT       0.417000       1.00800           0
     69033 TIP3     15529    TIP3     H2       HT       0.417000       1.00800           0
     69034 TIP3     15530    TIP3     OH2      OT      -0.834000       15.9994           0
     69035 TIP3     15530    TIP3     H1       HT       0.417000       1.00800           0
     69036 TIP3     15530    TIP3     H2       HT       0.417000       1.00800           0
     69037 TIP3     15531    TIP3     OH2      OT      -0.834000       15.9994           0
     69038 TIP3     15531    TIP3     H1       HT       0.417000       1.00800           0
     69039 TIP3     15531    TIP3     H2       HT       0.417000       1.00800           0
     69040 TIP3     15532    TIP3     OH2      OT      -0.834000       15.9994           0
     69041 TIP3     15532    TIP3     H1       HT       0.417000       1.00800           0
     69042 TIP3     15532    TIP3     H2       HT       0.417000       1.00800           0
     69043 TIP3     15533    TIP3     OH2      OT      -0.834000       15.9994           0
     69044 TIP3     15533    TIP3     H1       HT       0.417000       1.00800           0
     69045 TIP3     15533    TIP3     H2       HT       0.417000       1.00800           0
     69046 TIP3     15534    TIP3     OH2      OT      -0.834000       15.9994           0
     69047 TIP3     15534    TIP3     H1       HT       0.417000       1.00800           0
     69048 TIP3     15534    TIP3     H2       HT       0.417000       1.00800           0
     69049 TIP3     15535    TIP3     OH2      OT      -0.834000       15.9994           0
     69050 TIP3     15535    TIP3     H1       HT       0.417000       1.00800           0
     69051 TIP3     15535    TIP3     H2       HT       0.417000       1.00800           0
     69052 TIP3     15536    TIP3     OH2      OT      -0.834000       15.9994           0
     69053 TIP3     15536    TIP3     H1       HT       0.417000       1.00800           0
     69054 TIP3     15536    TIP3     H2       HT       0.417000       1.00800           0
     69055 TIP3     15537    TIP3     OH2      OT      -0.834000       15.9994           0
     69056 TIP3     15537    TIP3     H1       HT       0.417000       1.00800           0
     69057 TIP3     15537    TIP3     H2       HT       0.417000       1.00800           0
     69058 TIP3     15538    TIP3     OH2      OT      -0.834000       15.9994           0
     69059 TIP3     15538    TIP3     H1       HT       0.417000       1.00800           0
     69060 TIP3     15538    TIP3     H2       HT       0.417000       1.00800           0
     69061 TIP3     15539    TIP3     OH2      OT      -0.834000       15.9994           0
     69062 TIP3     15539    TIP3     H1       HT       0.417000       1.00800           0
     69063 TIP3     15539    TIP3     H2       HT       0.417000       1.00800           0
     69064 TIP3     15540    TIP3     OH2      OT      -0.834000       15.9994           0
     69065 TIP3     15540    TIP3     H1       HT       0.417000       1.00800           0
     69066 TIP3     15540    TIP3     H2       HT       0.417000       1.00800           0
     69067 TIP3     15541    TIP3     OH2      OT      -0.834000       15.9994           0
     69068 TIP3     15541    TIP3     H1       HT       0.417000       1.00800           0
     69069 TIP3     15541    TIP3     H2       HT       0.417000       1.00800           0
     69070 TIP3     15542    TIP3     OH2      OT      -0.834000       15.9994           0
     69071 TIP3     15542    TIP3     H1       HT       0.417000       1.00800           0
     69072 TIP3     15542    TIP3     H2       HT       0.417000       1.00800           0
     69073 TIP3     15543    TIP3     OH2      OT      -0.834000       15.9994           0
     69074 TIP3     15543    TIP3     H1       HT       0.417000       1.00800           0
     69075 TIP3     15543    TIP3     H2       HT       0.417000       1.00800           0
     69076 TIP3     15544    TIP3     OH2      OT      -0.834000       15.9994           0
     69077 TIP3     15544    TIP3     H1       HT       0.417000       1.00800           0
     69078 TIP3     15544    TIP3     H2       HT       0.417000       1.00800           0
     69079 TIP3     15545    TIP3     OH2      OT      -0.834000       15.9994           0
     69080 TIP3     15545    TIP3     H1       HT       0.417000       1.00800           0
     69081 TIP3     15545    TIP3     H2       HT       0.417000       1.00800           0
     69082 TIP3     15546    TIP3     OH2      OT      -0.834000       15.9994           0
     69083 TIP3     15546    TIP3     H1       HT       0.417000       1.00800           0
     69084 TIP3     15546    TIP3     H2       HT       0.417000       1.00800           0
     69085 TIP3     15547    TIP3     OH2      OT      -0.834000       15.9994           0
     69086 TIP3     15547    TIP3     H1       HT       0.417000       1.00800           0
     69087 TIP3     15547    TIP3     H2       HT       0.417000       1.00800           0
     69088 TIP3     15548    TIP3     OH2      OT      -0.834000       15.9994           0
     69089 TIP3     15548    TIP3     H1       HT       0.417000       1.00800           0
     69090 TIP3     15548    TIP3     H2       HT       0.417000       1.00800           0
     69091 TIP3     15549    TIP3     OH2      OT      -0.834000       15.9994           0
     69092 TIP3     15549    TIP3     H1       HT       0.417000       1.00800           0
     69093 TIP3     15549    TIP3     H2       HT       0.417000       1.00800           0
     69094 TIP3     15550    TIP3     OH2      OT      -0.834000       15.9994           0
     69095 TIP3     15550    TIP3     H1       HT       0.417000       1.00800           0
     69096 TIP3     15550    TIP3     H2       HT       0.417000       1.00800           0
     69097 TIP3     15551    TIP3     OH2      OT      -0.834000       15.9994           0
     69098 TIP3     15551    TIP3     H1       HT       0.417000       1.00800           0
     69099 TIP3     15551    TIP3     H2       HT       0.417000       1.00800           0
     69100 TIP3     15552    TIP3     OH2      OT      -0.834000       15.9994           0
     69101 TIP3     15552    TIP3     H1       HT       0.417000       1.00800           0
     69102 TIP3     15552    TIP3     H2       HT       0.417000       1.00800           0
     69103 TIP3     15553    TIP3     OH2      OT      -0.834000       15.9994           0
     69104 TIP3     15553    TIP3     H1       HT       0.417000       1.00800           0
     69105 TIP3     15553    TIP3     H2       HT       0.417000       1.00800           0
     69106 TIP3     15554    TIP3     OH2      OT      -0.834000       15.9994           0
     69107 TIP3     15554    TIP3     H1       HT       0.417000       1.00800           0
     69108 TIP3     15554    TIP3     H2       HT       0.417000       1.00800           0
     69109 TIP3     15555    TIP3     OH2      OT      -0.834000       15.9994           0
     69110 TIP3     15555    TIP3     H1       HT       0.417000       1.00800           0
     69111 TIP3     15555    TIP3     H2       HT       0.417000       1.00800           0
     69112 TIP3     15556    TIP3     OH2      OT      -0.834000       15.9994           0
     69113 TIP3     15556    TIP3     H1       HT       0.417000       1.00800           0
     69114 TIP3     15556    TIP3     H2       HT       0.417000       1.00800           0
     69115 TIP3     15557    TIP3     OH2      OT      -0.834000       15.9994           0
     69116 TIP3     15557    TIP3     H1       HT       0.417000       1.00800           0
     69117 TIP3     15557    TIP3     H2       HT       0.417000       1.00800           0
     69118 TIP3     15558    TIP3     OH2      OT      -0.834000       15.9994           0
     69119 TIP3     15558    TIP3     H1       HT       0.417000       1.00800           0
     69120 TIP3     15558    TIP3     H2       HT       0.417000       1.00800           0
     69121 TIP3     15559    TIP3     OH2      OT      -0.834000       15.9994           0
     69122 TIP3     15559    TIP3     H1       HT       0.417000       1.00800           0
     69123 TIP3     15559    TIP3     H2       HT       0.417000       1.00800           0
     69124 TIP3     15560    TIP3     OH2      OT      -0.834000       15.9994           0
     69125 TIP3     15560    TIP3     H1       HT       0.417000       1.00800           0
     69126 TIP3     15560    TIP3     H2       HT       0.417000       1.00800           0
     69127 TIP3     15561    TIP3     OH2      OT      -0.834000       15.9994           0
     69128 TIP3     15561    TIP3     H1       HT       0.417000       1.00800           0
     69129 TIP3     15561    TIP3     H2       HT       0.417000       1.00800           0
     69130 TIP3     15562    TIP3     OH2      OT      -0.834000       15.9994           0
     69131 TIP3     15562    TIP3     H1       HT       0.417000       1.00800           0
     69132 TIP3     15562    TIP3     H2       HT       0.417000       1.00800           0
     69133 TIP3     15563    TIP3     OH2      OT      -0.834000       15.9994           0
     69134 TIP3     15563    TIP3     H1       HT       0.417000       1.00800           0
     69135 TIP3     15563    TIP3     H2       HT       0.417000       1.00800           0
     69136 TIP3     15564    TIP3     OH2      OT      -0.834000       15.9994           0
     69137 TIP3     15564    TIP3     H1       HT       0.417000       1.00800           0
     69138 TIP3     15564    TIP3     H2       HT       0.417000       1.00800           0
     69139 TIP3     15565    TIP3     OH2      OT      -0.834000       15.9994           0
     69140 TIP3     15565    TIP3     H1       HT       0.417000       1.00800           0
     69141 TIP3     15565    TIP3     H2       HT       0.417000       1.00800           0
     69142 TIP3     15566    TIP3     OH2      OT      -0.834000       15.9994           0
     69143 TIP3     15566    TIP3     H1       HT       0.417000       1.00800           0
     69144 TIP3     15566    TIP3     H2       HT       0.417000       1.00800           0
     69145 TIP3     15567    TIP3     OH2      OT      -0.834000       15.9994           0
     69146 TIP3     15567    TIP3     H1       HT       0.417000       1.00800           0
     69147 TIP3     15567    TIP3     H2       HT       0.417000       1.00800           0
     69148 TIP3     15568    TIP3     OH2      OT      -0.834000       15.9994           0
     69149 TIP3     15568    TIP3     H1       HT       0.417000       1.00800           0
     69150 TIP3     15568    TIP3     H2       HT       0.417000       1.00800           0
     69151 TIP3     15569    TIP3     OH2      OT      -0.834000       15.9994           0
     69152 TIP3     15569    TIP3     H1       HT       0.417000       1.00800           0
     69153 TIP3     15569    TIP3     H2       HT       0.417000       1.00800           0
     69154 TIP3     15570    TIP3     OH2      OT      -0.834000       15.9994           0
     69155 TIP3     15570    TIP3     H1       HT       0.417000       1.00800           0
     69156 TIP3     15570    TIP3     H2       HT       0.417000       1.00800           0
     69157 TIP3     15571    TIP3     OH2      OT      -0.834000       15.9994           0
     69158 TIP3     15571    TIP3     H1       HT       0.417000       1.00800           0
     69159 TIP3     15571    TIP3     H2       HT       0.417000       1.00800           0
     69160 TIP3     15572    TIP3     OH2      OT      -0.834000       15.9994           0
     69161 TIP3     15572    TIP3     H1       HT       0.417000       1.00800           0
     69162 TIP3     15572    TIP3     H2       HT       0.417000       1.00800           0
     69163 TIP3     15573    TIP3     OH2      OT      -0.834000       15.9994           0
     69164 TIP3     15573    TIP3     H1       HT       0.417000       1.00800           0
     69165 TIP3     15573    TIP3     H2       HT       0.417000       1.00800           0
     69166 TIP3     15574    TIP3     OH2      OT      -0.834000       15.9994           0
     69167 TIP3     15574    TIP3     H1       HT       0.417000       1.00800           0
     69168 TIP3     15574    TIP3     H2       HT       0.417000       1.00800           0
     69169 TIP3     15575    TIP3     OH2      OT      -0.834000       15.9994           0
     69170 TIP3     15575    TIP3     H1       HT       0.417000       1.00800           0
     69171 TIP3     15575    TIP3     H2       HT       0.417000       1.00800           0
     69172 TIP3     15576    TIP3     OH2      OT      -0.834000       15.9994           0
     69173 TIP3     15576    TIP3     H1       HT       0.417000       1.00800           0
     69174 TIP3     15576    TIP3     H2       HT       0.417000       1.00800           0
     69175 TIP3     15577    TIP3     OH2      OT      -0.834000       15.9994           0
     69176 TIP3     15577    TIP3     H1       HT       0.417000       1.00800           0
     69177 TIP3     15577    TIP3     H2       HT       0.417000       1.00800           0
     69178 TIP3     15578    TIP3     OH2      OT      -0.834000       15.9994           0
     69179 TIP3     15578    TIP3     H1       HT       0.417000       1.00800           0
     69180 TIP3     15578    TIP3     H2       HT       0.417000       1.00800           0
     69181 TIP3     15579    TIP3     OH2      OT      -0.834000       15.9994           0
     69182 TIP3     15579    TIP3     H1       HT       0.417000       1.00800           0
     69183 TIP3     15579    TIP3     H2       HT       0.417000       1.00800           0
     69184 TIP3     15580    TIP3     OH2      OT      -0.834000       15.9994           0
     69185 TIP3     15580    TIP3     H1       HT       0.417000       1.00800           0
     69186 TIP3     15580    TIP3     H2       HT       0.417000       1.00800           0
     69187 TIP3     15581    TIP3     OH2      OT      -0.834000       15.9994           0
     69188 TIP3     15581    TIP3     H1       HT       0.417000       1.00800           0
     69189 TIP3     15581    TIP3     H2       HT       0.417000       1.00800           0
     69190 TIP3     15582    TIP3     OH2      OT      -0.834000       15.9994           0
     69191 TIP3     15582    TIP3     H1       HT       0.417000       1.00800           0
     69192 TIP3     15582    TIP3     H2       HT       0.417000       1.00800           0
     69193 TIP3     15583    TIP3     OH2      OT      -0.834000       15.9994           0
     69194 TIP3     15583    TIP3     H1       HT       0.417000       1.00800           0
     69195 TIP3     15583    TIP3     H2       HT       0.417000       1.00800           0
     69196 TIP3     15584    TIP3     OH2      OT      -0.834000       15.9994           0
     69197 TIP3     15584    TIP3     H1       HT       0.417000       1.00800           0
     69198 TIP3     15584    TIP3     H2       HT       0.417000       1.00800           0
     69199 TIP3     15585    TIP3     OH2      OT      -0.834000       15.9994           0
     69200 TIP3     15585    TIP3     H1       HT       0.417000       1.00800           0
     69201 TIP3     15585    TIP3     H2       HT       0.417000       1.00800           0
     69202 TIP3     15586    TIP3     OH2      OT      -0.834000       15.9994           0
     69203 TIP3     15586    TIP3     H1       HT       0.417000       1.00800           0
     69204 TIP3     15586    TIP3     H2       HT       0.417000       1.00800           0
     69205 TIP3     15587    TIP3     OH2      OT      -0.834000       15.9994           0
     69206 TIP3     15587    TIP3     H1       HT       0.417000       1.00800           0
     69207 TIP3     15587    TIP3     H2       HT       0.417000       1.00800           0
     69208 TIP3     15588    TIP3     OH2      OT      -0.834000       15.9994           0
     69209 TIP3     15588    TIP3     H1       HT       0.417000       1.00800           0
     69210 TIP3     15588    TIP3     H2       HT       0.417000       1.00800           0
     69211 TIP3     15589    TIP3     OH2      OT      -0.834000       15.9994           0
     69212 TIP3     15589    TIP3     H1       HT       0.417000       1.00800           0
     69213 TIP3     15589    TIP3     H2       HT       0.417000       1.00800           0
     69214 TIP3     15590    TIP3     OH2      OT      -0.834000       15.9994           0
     69215 TIP3     15590    TIP3     H1       HT       0.417000       1.00800           0
     69216 TIP3     15590    TIP3     H2       HT       0.417000       1.00800           0
     69217 TIP3     15591    TIP3     OH2      OT      -0.834000       15.9994           0
     69218 TIP3     15591    TIP3     H1       HT       0.417000       1.00800           0
     69219 TIP3     15591    TIP3     H2       HT       0.417000       1.00800           0
     69220 TIP3     15592    TIP3     OH2      OT      -0.834000       15.9994           0
     69221 TIP3     15592    TIP3     H1       HT       0.417000       1.00800           0
     69222 TIP3     15592    TIP3     H2       HT       0.417000       1.00800           0
     69223 TIP3     15593    TIP3     OH2      OT      -0.834000       15.9994           0
     69224 TIP3     15593    TIP3     H1       HT       0.417000       1.00800           0
     69225 TIP3     15593    TIP3     H2       HT       0.417000       1.00800           0
     69226 TIP3     15594    TIP3     OH2      OT      -0.834000       15.9994           0
     69227 TIP3     15594    TIP3     H1       HT       0.417000       1.00800           0
     69228 TIP3     15594    TIP3     H2       HT       0.417000       1.00800           0
     69229 TIP3     15595    TIP3     OH2      OT      -0.834000       15.9994           0
     69230 TIP3     15595    TIP3     H1       HT       0.417000       1.00800           0
     69231 TIP3     15595    TIP3     H2       HT       0.417000       1.00800           0
     69232 TIP3     15596    TIP3     OH2      OT      -0.834000       15.9994           0
     69233 TIP3     15596    TIP3     H1       HT       0.417000       1.00800           0
     69234 TIP3     15596    TIP3     H2       HT       0.417000       1.00800           0
     69235 TIP3     15597    TIP3     OH2      OT      -0.834000       15.9994           0
     69236 TIP3     15597    TIP3     H1       HT       0.417000       1.00800           0
     69237 TIP3     15597    TIP3     H2       HT       0.417000       1.00800           0
     69238 TIP3     15598    TIP3     OH2      OT      -0.834000       15.9994           0
     69239 TIP3     15598    TIP3     H1       HT       0.417000       1.00800           0
     69240 TIP3     15598    TIP3     H2       HT       0.417000       1.00800           0
     69241 TIP3     15599    TIP3     OH2      OT      -0.834000       15.9994           0
     69242 TIP3     15599    TIP3     H1       HT       0.417000       1.00800           0
     69243 TIP3     15599    TIP3     H2       HT       0.417000       1.00800           0
     69244 TIP3     15600    TIP3     OH2      OT      -0.834000       15.9994           0
     69245 TIP3     15600    TIP3     H1       HT       0.417000       1.00800           0
     69246 TIP3     15600    TIP3     H2       HT       0.417000       1.00800           0
     69247 TIP3     15601    TIP3     OH2      OT      -0.834000       15.9994           0
     69248 TIP3     15601    TIP3     H1       HT       0.417000       1.00800           0
     69249 TIP3     15601    TIP3     H2       HT       0.417000       1.00800           0
     69250 TIP3     15602    TIP3     OH2      OT      -0.834000       15.9994           0
     69251 TIP3     15602    TIP3     H1       HT       0.417000       1.00800           0
     69252 TIP3     15602    TIP3     H2       HT       0.417000       1.00800           0
     69253 TIP3     15603    TIP3     OH2      OT      -0.834000       15.9994           0
     69254 TIP3     15603    TIP3     H1       HT       0.417000       1.00800           0
     69255 TIP3     15603    TIP3     H2       HT       0.417000       1.00800           0
     69256 TIP3     15604    TIP3     OH2      OT      -0.834000       15.9994           0
     69257 TIP3     15604    TIP3     H1       HT       0.417000       1.00800           0
     69258 TIP3     15604    TIP3     H2       HT       0.417000       1.00800           0
     69259 TIP3     15605    TIP3     OH2      OT      -0.834000       15.9994           0
     69260 TIP3     15605    TIP3     H1       HT       0.417000       1.00800           0
     69261 TIP3     15605    TIP3     H2       HT       0.417000       1.00800           0
     69262 TIP3     15606    TIP3     OH2      OT      -0.834000       15.9994           0
     69263 TIP3     15606    TIP3     H1       HT       0.417000       1.00800           0
     69264 TIP3     15606    TIP3     H2       HT       0.417000       1.00800           0
     69265 TIP3     15607    TIP3     OH2      OT      -0.834000       15.9994           0
     69266 TIP3     15607    TIP3     H1       HT       0.417000       1.00800           0
     69267 TIP3     15607    TIP3     H2       HT       0.417000       1.00800           0
     69268 TIP3     15608    TIP3     OH2      OT      -0.834000       15.9994           0
     69269 TIP3     15608    TIP3     H1       HT       0.417000       1.00800           0
     69270 TIP3     15608    TIP3     H2       HT       0.417000       1.00800           0
     69271 TIP3     15609    TIP3     OH2      OT      -0.834000       15.9994           0
     69272 TIP3     15609    TIP3     H1       HT       0.417000       1.00800           0
     69273 TIP3     15609    TIP3     H2       HT       0.417000       1.00800           0
     69274 TIP3     15610    TIP3     OH2      OT      -0.834000       15.9994           0
     69275 TIP3     15610    TIP3     H1       HT       0.417000       1.00800           0
     69276 TIP3     15610    TIP3     H2       HT       0.417000       1.00800           0
     69277 TIP3     15611    TIP3     OH2      OT      -0.834000       15.9994           0
     69278 TIP3     15611    TIP3     H1       HT       0.417000       1.00800           0
     69279 TIP3     15611    TIP3     H2       HT       0.417000       1.00800           0
     69280 TIP3     15612    TIP3     OH2      OT      -0.834000       15.9994           0
     69281 TIP3     15612    TIP3     H1       HT       0.417000       1.00800           0
     69282 TIP3     15612    TIP3     H2       HT       0.417000       1.00800           0
     69283 TIP3     15613    TIP3     OH2      OT      -0.834000       15.9994           0
     69284 TIP3     15613    TIP3     H1       HT       0.417000       1.00800           0
     69285 TIP3     15613    TIP3     H2       HT       0.417000       1.00800           0
     69286 TIP3     15614    TIP3     OH2      OT      -0.834000       15.9994           0
     69287 TIP3     15614    TIP3     H1       HT       0.417000       1.00800           0
     69288 TIP3     15614    TIP3     H2       HT       0.417000       1.00800           0
     69289 TIP3     15615    TIP3     OH2      OT      -0.834000       15.9994           0
     69290 TIP3     15615    TIP3     H1       HT       0.417000       1.00800           0
     69291 TIP3     15615    TIP3     H2       HT       0.417000       1.00800           0
     69292 TIP3     15616    TIP3     OH2      OT      -0.834000       15.9994           0
     69293 TIP3     15616    TIP3     H1       HT       0.417000       1.00800           0
     69294 TIP3     15616    TIP3     H2       HT       0.417000       1.00800           0
     69295 TIP3     15617    TIP3     OH2      OT      -0.834000       15.9994           0
     69296 TIP3     15617    TIP3     H1       HT       0.417000       1.00800           0
     69297 TIP3     15617    TIP3     H2       HT       0.417000       1.00800           0
     69298 TIP3     15618    TIP3     OH2      OT      -0.834000       15.9994           0
     69299 TIP3     15618    TIP3     H1       HT       0.417000       1.00800           0
     69300 TIP3     15618    TIP3     H2       HT       0.417000       1.00800           0
     69301 TIP3     15619    TIP3     OH2      OT      -0.834000       15.9994           0
     69302 TIP3     15619    TIP3     H1       HT       0.417000       1.00800           0
     69303 TIP3     15619    TIP3     H2       HT       0.417000       1.00800           0
     69304 TIP3     15620    TIP3     OH2      OT      -0.834000       15.9994           0
     69305 TIP3     15620    TIP3     H1       HT       0.417000       1.00800           0
     69306 TIP3     15620    TIP3     H2       HT       0.417000       1.00800           0
     69307 TIP3     15621    TIP3     OH2      OT      -0.834000       15.9994           0
     69308 TIP3     15621    TIP3     H1       HT       0.417000       1.00800           0
     69309 TIP3     15621    TIP3     H2       HT       0.417000       1.00800           0
     69310 TIP3     15622    TIP3     OH2      OT      -0.834000       15.9994           0
     69311 TIP3     15622    TIP3     H1       HT       0.417000       1.00800           0
     69312 TIP3     15622    TIP3     H2       HT       0.417000       1.00800           0
     69313 TIP3     15623    TIP3     OH2      OT      -0.834000       15.9994           0
     69314 TIP3     15623    TIP3     H1       HT       0.417000       1.00800           0
     69315 TIP3     15623    TIP3     H2       HT       0.417000       1.00800           0
     69316 TIP3     15624    TIP3     OH2      OT      -0.834000       15.9994           0
     69317 TIP3     15624    TIP3     H1       HT       0.417000       1.00800           0
     69318 TIP3     15624    TIP3     H2       HT       0.417000       1.00800           0
     69319 TIP3     15625    TIP3     OH2      OT      -0.834000       15.9994           0
     69320 TIP3     15625    TIP3     H1       HT       0.417000       1.00800           0
     69321 TIP3     15625    TIP3     H2       HT       0.417000       1.00800           0
     69322 TIP3     15626    TIP3     OH2      OT      -0.834000       15.9994           0
     69323 TIP3     15626    TIP3     H1       HT       0.417000       1.00800           0
     69324 TIP3     15626    TIP3     H2       HT       0.417000       1.00800           0
     69325 TIP3     15627    TIP3     OH2      OT      -0.834000       15.9994           0
     69326 TIP3     15627    TIP3     H1       HT       0.417000       1.00800           0
     69327 TIP3     15627    TIP3     H2       HT       0.417000       1.00800           0
     69328 TIP3     15628    TIP3     OH2      OT      -0.834000       15.9994           0
     69329 TIP3     15628    TIP3     H1       HT       0.417000       1.00800           0
     69330 TIP3     15628    TIP3     H2       HT       0.417000       1.00800           0
     69331 TIP3     15629    TIP3     OH2      OT      -0.834000       15.9994           0
     69332 TIP3     15629    TIP3     H1       HT       0.417000       1.00800           0
     69333 TIP3     15629    TIP3     H2       HT       0.417000       1.00800           0
     69334 TIP3     15630    TIP3     OH2      OT      -0.834000       15.9994           0
     69335 TIP3     15630    TIP3     H1       HT       0.417000       1.00800           0
     69336 TIP3     15630    TIP3     H2       HT       0.417000       1.00800           0
     69337 TIP3     15631    TIP3     OH2      OT      -0.834000       15.9994           0
     69338 TIP3     15631    TIP3     H1       HT       0.417000       1.00800           0
     69339 TIP3     15631    TIP3     H2       HT       0.417000       1.00800           0
     69340 TIP3     15632    TIP3     OH2      OT      -0.834000       15.9994           0
     69341 TIP3     15632    TIP3     H1       HT       0.417000       1.00800           0
     69342 TIP3     15632    TIP3     H2       HT       0.417000       1.00800           0
     69343 TIP3     15633    TIP3     OH2      OT      -0.834000       15.9994           0
     69344 TIP3     15633    TIP3     H1       HT       0.417000       1.00800           0
     69345 TIP3     15633    TIP3     H2       HT       0.417000       1.00800           0
     69346 TIP3     15634    TIP3     OH2      OT      -0.834000       15.9994           0
     69347 TIP3     15634    TIP3     H1       HT       0.417000       1.00800           0
     69348 TIP3     15634    TIP3     H2       HT       0.417000       1.00800           0
     69349 TIP3     15635    TIP3     OH2      OT      -0.834000       15.9994           0
     69350 TIP3     15635    TIP3     H1       HT       0.417000       1.00800           0
     69351 TIP3     15635    TIP3     H2       HT       0.417000       1.00800           0
     69352 TIP3     15636    TIP3     OH2      OT      -0.834000       15.9994           0
     69353 TIP3     15636    TIP3     H1       HT       0.417000       1.00800           0
     69354 TIP3     15636    TIP3     H2       HT       0.417000       1.00800           0
     69355 TIP3     15637    TIP3     OH2      OT      -0.834000       15.9994           0
     69356 TIP3     15637    TIP3     H1       HT       0.417000       1.00800           0
     69357 TIP3     15637    TIP3     H2       HT       0.417000       1.00800           0
     69358 TIP3     15638    TIP3     OH2      OT      -0.834000       15.9994           0
     69359 TIP3     15638    TIP3     H1       HT       0.417000       1.00800           0
     69360 TIP3     15638    TIP3     H2       HT       0.417000       1.00800           0
     69361 TIP3     15639    TIP3     OH2      OT      -0.834000       15.9994           0
     69362 TIP3     15639    TIP3     H1       HT       0.417000       1.00800           0
     69363 TIP3     15639    TIP3     H2       HT       0.417000       1.00800           0
     69364 TIP3     15640    TIP3     OH2      OT      -0.834000       15.9994           0
     69365 TIP3     15640    TIP3     H1       HT       0.417000       1.00800           0
     69366 TIP3     15640    TIP3     H2       HT       0.417000       1.00800           0
     69367 TIP3     15641    TIP3     OH2      OT      -0.834000       15.9994           0
     69368 TIP3     15641    TIP3     H1       HT       0.417000       1.00800           0
     69369 TIP3     15641    TIP3     H2       HT       0.417000       1.00800           0
     69370 TIP3     15642    TIP3     OH2      OT      -0.834000       15.9994           0
     69371 TIP3     15642    TIP3     H1       HT       0.417000       1.00800           0
     69372 TIP3     15642    TIP3     H2       HT       0.417000       1.00800           0
     69373 TIP3     15643    TIP3     OH2      OT      -0.834000       15.9994           0
     69374 TIP3     15643    TIP3     H1       HT       0.417000       1.00800           0
     69375 TIP3     15643    TIP3     H2       HT       0.417000       1.00800           0
     69376 TIP3     15644    TIP3     OH2      OT      -0.834000       15.9994           0
     69377 TIP3     15644    TIP3     H1       HT       0.417000       1.00800           0
     69378 TIP3     15644    TIP3     H2       HT       0.417000       1.00800           0
     69379 TIP3     15645    TIP3     OH2      OT      -0.834000       15.9994           0
     69380 TIP3     15645    TIP3     H1       HT       0.417000       1.00800           0
     69381 TIP3     15645    TIP3     H2       HT       0.417000       1.00800           0
     69382 TIP3     15646    TIP3     OH2      OT      -0.834000       15.9994           0
     69383 TIP3     15646    TIP3     H1       HT       0.417000       1.00800           0
     69384 TIP3     15646    TIP3     H2       HT       0.417000       1.00800           0
     69385 TIP3     15647    TIP3     OH2      OT      -0.834000       15.9994           0
     69386 TIP3     15647    TIP3     H1       HT       0.417000       1.00800           0
     69387 TIP3     15647    TIP3     H2       HT       0.417000       1.00800           0
     69388 TIP3     15648    TIP3     OH2      OT      -0.834000       15.9994           0
     69389 TIP3     15648    TIP3     H1       HT       0.417000       1.00800           0
     69390 TIP3     15648    TIP3     H2       HT       0.417000       1.00800           0
     69391 TIP3     15649    TIP3     OH2      OT      -0.834000       15.9994           0
     69392 TIP3     15649    TIP3     H1       HT       0.417000       1.00800           0
     69393 TIP3     15649    TIP3     H2       HT       0.417000       1.00800           0
     69394 TIP3     15650    TIP3     OH2      OT      -0.834000       15.9994           0
     69395 TIP3     15650    TIP3     H1       HT       0.417000       1.00800           0
     69396 TIP3     15650    TIP3     H2       HT       0.417000       1.00800           0
     69397 TIP3     15651    TIP3     OH2      OT      -0.834000       15.9994           0
     69398 TIP3     15651    TIP3     H1       HT       0.417000       1.00800           0
     69399 TIP3     15651    TIP3     H2       HT       0.417000       1.00800           0
     69400 TIP3     15652    TIP3     OH2      OT      -0.834000       15.9994           0
     69401 TIP3     15652    TIP3     H1       HT       0.417000       1.00800           0
     69402 TIP3     15652    TIP3     H2       HT       0.417000       1.00800           0
     69403 TIP3     15653    TIP3     OH2      OT      -0.834000       15.9994           0
     69404 TIP3     15653    TIP3     H1       HT       0.417000       1.00800           0
     69405 TIP3     15653    TIP3     H2       HT       0.417000       1.00800           0
     69406 TIP3     15654    TIP3     OH2      OT      -0.834000       15.9994           0
     69407 TIP3     15654    TIP3     H1       HT       0.417000       1.00800           0
     69408 TIP3     15654    TIP3     H2       HT       0.417000       1.00800           0
     69409 TIP3     15655    TIP3     OH2      OT      -0.834000       15.9994           0
     69410 TIP3     15655    TIP3     H1       HT       0.417000       1.00800           0
     69411 TIP3     15655    TIP3     H2       HT       0.417000       1.00800           0
     69412 TIP3     15656    TIP3     OH2      OT      -0.834000       15.9994           0
     69413 TIP3     15656    TIP3     H1       HT       0.417000       1.00800           0
     69414 TIP3     15656    TIP3     H2       HT       0.417000       1.00800           0
     69415 TIP3     15657    TIP3     OH2      OT      -0.834000       15.9994           0
     69416 TIP3     15657    TIP3     H1       HT       0.417000       1.00800           0
     69417 TIP3     15657    TIP3     H2       HT       0.417000       1.00800           0
     69418 TIP3     15658    TIP3     OH2      OT      -0.834000       15.9994           0
     69419 TIP3     15658    TIP3     H1       HT       0.417000       1.00800           0
     69420 TIP3     15658    TIP3     H2       HT       0.417000       1.00800           0
     69421 TIP3     15659    TIP3     OH2      OT      -0.834000       15.9994           0
     69422 TIP3     15659    TIP3     H1       HT       0.417000       1.00800           0
     69423 TIP3     15659    TIP3     H2       HT       0.417000       1.00800           0
     69424 TIP3     15660    TIP3     OH2      OT      -0.834000       15.9994           0
     69425 TIP3     15660    TIP3     H1       HT       0.417000       1.00800           0
     69426 TIP3     15660    TIP3     H2       HT       0.417000       1.00800           0
     69427 TIP3     15661    TIP3     OH2      OT      -0.834000       15.9994           0
     69428 TIP3     15661    TIP3     H1       HT       0.417000       1.00800           0
     69429 TIP3     15661    TIP3     H2       HT       0.417000       1.00800           0
     69430 TIP3     15662    TIP3     OH2      OT      -0.834000       15.9994           0
     69431 TIP3     15662    TIP3     H1       HT       0.417000       1.00800           0
     69432 TIP3     15662    TIP3     H2       HT       0.417000       1.00800           0
     69433 TIP3     15663    TIP3     OH2      OT      -0.834000       15.9994           0
     69434 TIP3     15663    TIP3     H1       HT       0.417000       1.00800           0
     69435 TIP3     15663    TIP3     H2       HT       0.417000       1.00800           0
     69436 TIP3     15664    TIP3     OH2      OT      -0.834000       15.9994           0
     69437 TIP3     15664    TIP3     H1       HT       0.417000       1.00800           0
     69438 TIP3     15664    TIP3     H2       HT       0.417000       1.00800           0
     69439 TIP3     15665    TIP3     OH2      OT      -0.834000       15.9994           0
     69440 TIP3     15665    TIP3     H1       HT       0.417000       1.00800           0
     69441 TIP3     15665    TIP3     H2       HT       0.417000       1.00800           0
     69442 TIP3     15666    TIP3     OH2      OT      -0.834000       15.9994           0
     69443 TIP3     15666    TIP3     H1       HT       0.417000       1.00800           0
     69444 TIP3     15666    TIP3     H2       HT       0.417000       1.00800           0
     69445 TIP3     15667    TIP3     OH2      OT      -0.834000       15.9994           0
     69446 TIP3     15667    TIP3     H1       HT       0.417000       1.00800           0
     69447 TIP3     15667    TIP3     H2       HT       0.417000       1.00800           0
     69448 TIP3     15668    TIP3     OH2      OT      -0.834000       15.9994           0
     69449 TIP3     15668    TIP3     H1       HT       0.417000       1.00800           0
     69450 TIP3     15668    TIP3     H2       HT       0.417000       1.00800           0
     69451 TIP3     15669    TIP3     OH2      OT      -0.834000       15.9994           0
     69452 TIP3     15669    TIP3     H1       HT       0.417000       1.00800           0
     69453 TIP3     15669    TIP3     H2       HT       0.417000       1.00800           0
     69454 TIP3     15670    TIP3     OH2      OT      -0.834000       15.9994           0
     69455 TIP3     15670    TIP3     H1       HT       0.417000       1.00800           0
     69456 TIP3     15670    TIP3     H2       HT       0.417000       1.00800           0
     69457 TIP3     15671    TIP3     OH2      OT      -0.834000       15.9994           0
     69458 TIP3     15671    TIP3     H1       HT       0.417000       1.00800           0
     69459 TIP3     15671    TIP3     H2       HT       0.417000       1.00800           0
     69460 TIP3     15672    TIP3     OH2      OT      -0.834000       15.9994           0
     69461 TIP3     15672    TIP3     H1       HT       0.417000       1.00800           0
     69462 TIP3     15672    TIP3     H2       HT       0.417000       1.00800           0
     69463 TIP3     15673    TIP3     OH2      OT      -0.834000       15.9994           0
     69464 TIP3     15673    TIP3     H1       HT       0.417000       1.00800           0
     69465 TIP3     15673    TIP3     H2       HT       0.417000       1.00800           0
     69466 TIP3     15674    TIP3     OH2      OT      -0.834000       15.9994           0
     69467 TIP3     15674    TIP3     H1       HT       0.417000       1.00800           0
     69468 TIP3     15674    TIP3     H2       HT       0.417000       1.00800           0
     69469 TIP3     15675    TIP3     OH2      OT      -0.834000       15.9994           0
     69470 TIP3     15675    TIP3     H1       HT       0.417000       1.00800           0
     69471 TIP3     15675    TIP3     H2       HT       0.417000       1.00800           0
     69472 TIP3     15676    TIP3     OH2      OT      -0.834000       15.9994           0
     69473 TIP3     15676    TIP3     H1       HT       0.417000       1.00800           0
     69474 TIP3     15676    TIP3     H2       HT       0.417000       1.00800           0
     69475 TIP3     15677    TIP3     OH2      OT      -0.834000       15.9994           0
     69476 TIP3     15677    TIP3     H1       HT       0.417000       1.00800           0
     69477 TIP3     15677    TIP3     H2       HT       0.417000       1.00800           0
     69478 TIP3     15678    TIP3     OH2      OT      -0.834000       15.9994           0
     69479 TIP3     15678    TIP3     H1       HT       0.417000       1.00800           0
     69480 TIP3     15678    TIP3     H2       HT       0.417000       1.00800           0
     69481 TIP3     15679    TIP3     OH2      OT      -0.834000       15.9994           0
     69482 TIP3     15679    TIP3     H1       HT       0.417000       1.00800           0
     69483 TIP3     15679    TIP3     H2       HT       0.417000       1.00800           0
     69484 TIP3     15680    TIP3     OH2      OT      -0.834000       15.9994           0
     69485 TIP3     15680    TIP3     H1       HT       0.417000       1.00800           0
     69486 TIP3     15680    TIP3     H2       HT       0.417000       1.00800           0
     69487 TIP3     15681    TIP3     OH2      OT      -0.834000       15.9994           0
     69488 TIP3     15681    TIP3     H1       HT       0.417000       1.00800           0
     69489 TIP3     15681    TIP3     H2       HT       0.417000       1.00800           0
     69490 TIP3     15682    TIP3     OH2      OT      -0.834000       15.9994           0
     69491 TIP3     15682    TIP3     H1       HT       0.417000       1.00800           0
     69492 TIP3     15682    TIP3     H2       HT       0.417000       1.00800           0
     69493 TIP3     15683    TIP3     OH2      OT      -0.834000       15.9994           0
     69494 TIP3     15683    TIP3     H1       HT       0.417000       1.00800           0
     69495 TIP3     15683    TIP3     H2       HT       0.417000       1.00800           0
     69496 TIP3     15684    TIP3     OH2      OT      -0.834000       15.9994           0
     69497 TIP3     15684    TIP3     H1       HT       0.417000       1.00800           0
     69498 TIP3     15684    TIP3     H2       HT       0.417000       1.00800           0
     69499 TIP3     15685    TIP3     OH2      OT      -0.834000       15.9994           0
     69500 TIP3     15685    TIP3     H1       HT       0.417000       1.00800           0
     69501 TIP3     15685    TIP3     H2       HT       0.417000       1.00800           0
     69502 TIP3     15686    TIP3     OH2      OT      -0.834000       15.9994           0
     69503 TIP3     15686    TIP3     H1       HT       0.417000       1.00800           0
     69504 TIP3     15686    TIP3     H2       HT       0.417000       1.00800           0
     69505 TIP3     15687    TIP3     OH2      OT      -0.834000       15.9994           0
     69506 TIP3     15687    TIP3     H1       HT       0.417000       1.00800           0
     69507 TIP3     15687    TIP3     H2       HT       0.417000       1.00800           0
     69508 TIP3     15688    TIP3     OH2      OT      -0.834000       15.9994           0
     69509 TIP3     15688    TIP3     H1       HT       0.417000       1.00800           0
     69510 TIP3     15688    TIP3     H2       HT       0.417000       1.00800           0
     69511 TIP3     15689    TIP3     OH2      OT      -0.834000       15.9994           0
     69512 TIP3     15689    TIP3     H1       HT       0.417000       1.00800           0
     69513 TIP3     15689    TIP3     H2       HT       0.417000       1.00800           0
     69514 TIP3     15690    TIP3     OH2      OT      -0.834000       15.9994           0
     69515 TIP3     15690    TIP3     H1       HT       0.417000       1.00800           0
     69516 TIP3     15690    TIP3     H2       HT       0.417000       1.00800           0
     69517 TIP3     15691    TIP3     OH2      OT      -0.834000       15.9994           0
     69518 TIP3     15691    TIP3     H1       HT       0.417000       1.00800           0
     69519 TIP3     15691    TIP3     H2       HT       0.417000       1.00800           0
     69520 TIP3     15692    TIP3     OH2      OT      -0.834000       15.9994           0
     69521 TIP3     15692    TIP3     H1       HT       0.417000       1.00800           0
     69522 TIP3     15692    TIP3     H2       HT       0.417000       1.00800           0
     69523 TIP3     15693    TIP3     OH2      OT      -0.834000       15.9994           0
     69524 TIP3     15693    TIP3     H1       HT       0.417000       1.00800           0
     69525 TIP3     15693    TIP3     H2       HT       0.417000       1.00800           0
     69526 TIP3     15694    TIP3     OH2      OT      -0.834000       15.9994           0
     69527 TIP3     15694    TIP3     H1       HT       0.417000       1.00800           0
     69528 TIP3     15694    TIP3     H2       HT       0.417000       1.00800           0
     69529 TIP3     15695    TIP3     OH2      OT      -0.834000       15.9994           0
     69530 TIP3     15695    TIP3     H1       HT       0.417000       1.00800           0
     69531 TIP3     15695    TIP3     H2       HT       0.417000       1.00800           0
     69532 TIP3     15696    TIP3     OH2      OT      -0.834000       15.9994           0
     69533 TIP3     15696    TIP3     H1       HT       0.417000       1.00800           0
     69534 TIP3     15696    TIP3     H2       HT       0.417000       1.00800           0
     69535 TIP3     15697    TIP3     OH2      OT      -0.834000       15.9994           0
     69536 TIP3     15697    TIP3     H1       HT       0.417000       1.00800           0
     69537 TIP3     15697    TIP3     H2       HT       0.417000       1.00800           0
     69538 TIP3     15698    TIP3     OH2      OT      -0.834000       15.9994           0
     69539 TIP3     15698    TIP3     H1       HT       0.417000       1.00800           0
     69540 TIP3     15698    TIP3     H2       HT       0.417000       1.00800           0
     69541 TIP3     15699    TIP3     OH2      OT      -0.834000       15.9994           0
     69542 TIP3     15699    TIP3     H1       HT       0.417000       1.00800           0
     69543 TIP3     15699    TIP3     H2       HT       0.417000       1.00800           0
     69544 TIP3     15700    TIP3     OH2      OT      -0.834000       15.9994           0
     69545 TIP3     15700    TIP3     H1       HT       0.417000       1.00800           0
     69546 TIP3     15700    TIP3     H2       HT       0.417000       1.00800           0
     69547 TIP3     15701    TIP3     OH2      OT      -0.834000       15.9994           0
     69548 TIP3     15701    TIP3     H1       HT       0.417000       1.00800           0
     69549 TIP3     15701    TIP3     H2       HT       0.417000       1.00800           0
     69550 TIP3     15702    TIP3     OH2      OT      -0.834000       15.9994           0
     69551 TIP3     15702    TIP3     H1       HT       0.417000       1.00800           0
     69552 TIP3     15702    TIP3     H2       HT       0.417000       1.00800           0
     69553 TIP3     15703    TIP3     OH2      OT      -0.834000       15.9994           0
     69554 TIP3     15703    TIP3     H1       HT       0.417000       1.00800           0
     69555 TIP3     15703    TIP3     H2       HT       0.417000       1.00800           0
     69556 TIP3     15704    TIP3     OH2      OT      -0.834000       15.9994           0
     69557 TIP3     15704    TIP3     H1       HT       0.417000       1.00800           0
     69558 TIP3     15704    TIP3     H2       HT       0.417000       1.00800           0
     69559 TIP3     15705    TIP3     OH2      OT      -0.834000       15.9994           0
     69560 TIP3     15705    TIP3     H1       HT       0.417000       1.00800           0
     69561 TIP3     15705    TIP3     H2       HT       0.417000       1.00800           0
     69562 TIP3     15706    TIP3     OH2      OT      -0.834000       15.9994           0
     69563 TIP3     15706    TIP3     H1       HT       0.417000       1.00800           0
     69564 TIP3     15706    TIP3     H2       HT       0.417000       1.00800           0
     69565 TIP3     15707    TIP3     OH2      OT      -0.834000       15.9994           0
     69566 TIP3     15707    TIP3     H1       HT       0.417000       1.00800           0
     69567 TIP3     15707    TIP3     H2       HT       0.417000       1.00800           0
     69568 TIP3     15708    TIP3     OH2      OT      -0.834000       15.9994           0
     69569 TIP3     15708    TIP3     H1       HT       0.417000       1.00800           0
     69570 TIP3     15708    TIP3     H2       HT       0.417000       1.00800           0
     69571 TIP3     15709    TIP3     OH2      OT      -0.834000       15.9994           0
     69572 TIP3     15709    TIP3     H1       HT       0.417000       1.00800           0
     69573 TIP3     15709    TIP3     H2       HT       0.417000       1.00800           0
     69574 TIP3     15710    TIP3     OH2      OT      -0.834000       15.9994           0
     69575 TIP3     15710    TIP3     H1       HT       0.417000       1.00800           0
     69576 TIP3     15710    TIP3     H2       HT       0.417000       1.00800           0
     69577 TIP3     15711    TIP3     OH2      OT      -0.834000       15.9994           0
     69578 TIP3     15711    TIP3     H1       HT       0.417000       1.00800           0
     69579 TIP3     15711    TIP3     H2       HT       0.417000       1.00800           0
     69580 TIP3     15712    TIP3     OH2      OT      -0.834000       15.9994           0
     69581 TIP3     15712    TIP3     H1       HT       0.417000       1.00800           0
     69582 TIP3     15712    TIP3     H2       HT       0.417000       1.00800           0
     69583 TIP3     15713    TIP3     OH2      OT      -0.834000       15.9994           0
     69584 TIP3     15713    TIP3     H1       HT       0.417000       1.00800           0
     69585 TIP3     15713    TIP3     H2       HT       0.417000       1.00800           0
     69586 TIP3     15714    TIP3     OH2      OT      -0.834000       15.9994           0
     69587 TIP3     15714    TIP3     H1       HT       0.417000       1.00800           0
     69588 TIP3     15714    TIP3     H2       HT       0.417000       1.00800           0
     69589 TIP3     15715    TIP3     OH2      OT      -0.834000       15.9994           0
     69590 TIP3     15715    TIP3     H1       HT       0.417000       1.00800           0
     69591 TIP3     15715    TIP3     H2       HT       0.417000       1.00800           0
     69592 TIP3     15716    TIP3     OH2      OT      -0.834000       15.9994           0
     69593 TIP3     15716    TIP3     H1       HT       0.417000       1.00800           0
     69594 TIP3     15716    TIP3     H2       HT       0.417000       1.00800           0
     69595 TIP3     15717    TIP3     OH2      OT      -0.834000       15.9994           0
     69596 TIP3     15717    TIP3     H1       HT       0.417000       1.00800           0
     69597 TIP3     15717    TIP3     H2       HT       0.417000       1.00800           0
     69598 TIP3     15718    TIP3     OH2      OT      -0.834000       15.9994           0
     69599 TIP3     15718    TIP3     H1       HT       0.417000       1.00800           0
     69600 TIP3     15718    TIP3     H2       HT       0.417000       1.00800           0
     69601 TIP3     15719    TIP3     OH2      OT      -0.834000       15.9994           0
     69602 TIP3     15719    TIP3     H1       HT       0.417000       1.00800           0
     69603 TIP3     15719    TIP3     H2       HT       0.417000       1.00800           0
     69604 TIP3     15720    TIP3     OH2      OT      -0.834000       15.9994           0
     69605 TIP3     15720    TIP3     H1       HT       0.417000       1.00800           0
     69606 TIP3     15720    TIP3     H2       HT       0.417000       1.00800           0
     69607 TIP3     15721    TIP3     OH2      OT      -0.834000       15.9994           0
     69608 TIP3     15721    TIP3     H1       HT       0.417000       1.00800           0
     69609 TIP3     15721    TIP3     H2       HT       0.417000       1.00800           0
     69610 TIP3     15722    TIP3     OH2      OT      -0.834000       15.9994           0
     69611 TIP3     15722    TIP3     H1       HT       0.417000       1.00800           0
     69612 TIP3     15722    TIP3     H2       HT       0.417000       1.00800           0
     69613 TIP3     15723    TIP3     OH2      OT      -0.834000       15.9994           0
     69614 TIP3     15723    TIP3     H1       HT       0.417000       1.00800           0
     69615 TIP3     15723    TIP3     H2       HT       0.417000       1.00800           0
     69616 TIP3     15724    TIP3     OH2      OT      -0.834000       15.9994           0
     69617 TIP3     15724    TIP3     H1       HT       0.417000       1.00800           0
     69618 TIP3     15724    TIP3     H2       HT       0.417000       1.00800           0
     69619 TIP3     15725    TIP3     OH2      OT      -0.834000       15.9994           0
     69620 TIP3     15725    TIP3     H1       HT       0.417000       1.00800           0
     69621 TIP3     15725    TIP3     H2       HT       0.417000       1.00800           0
     69622 TIP3     15726    TIP3     OH2      OT      -0.834000       15.9994           0
     69623 TIP3     15726    TIP3     H1       HT       0.417000       1.00800           0
     69624 TIP3     15726    TIP3     H2       HT       0.417000       1.00800           0
     69625 TIP3     15727    TIP3     OH2      OT      -0.834000       15.9994           0
     69626 TIP3     15727    TIP3     H1       HT       0.417000       1.00800           0
     69627 TIP3     15727    TIP3     H2       HT       0.417000       1.00800           0
     69628 TIP3     15728    TIP3     OH2      OT      -0.834000       15.9994           0
     69629 TIP3     15728    TIP3     H1       HT       0.417000       1.00800           0
     69630 TIP3     15728    TIP3     H2       HT       0.417000       1.00800           0
     69631 TIP3     15729    TIP3     OH2      OT      -0.834000       15.9994           0
     69632 TIP3     15729    TIP3     H1       HT       0.417000       1.00800           0
     69633 TIP3     15729    TIP3     H2       HT       0.417000       1.00800           0
     69634 TIP3     15730    TIP3     OH2      OT      -0.834000       15.9994           0
     69635 TIP3     15730    TIP3     H1       HT       0.417000       1.00800           0
     69636 TIP3     15730    TIP3     H2       HT       0.417000       1.00800           0
     69637 TIP3     15731    TIP3     OH2      OT      -0.834000       15.9994           0
     69638 TIP3     15731    TIP3     H1       HT       0.417000       1.00800           0
     69639 TIP3     15731    TIP3     H2       HT       0.417000       1.00800           0
     69640 TIP3     15732    TIP3     OH2      OT      -0.834000       15.9994           0
     69641 TIP3     15732    TIP3     H1       HT       0.417000       1.00800           0
     69642 TIP3     15732    TIP3     H2       HT       0.417000       1.00800           0
     69643 TIP3     15733    TIP3     OH2      OT      -0.834000       15.9994           0
     69644 TIP3     15733    TIP3     H1       HT       0.417000       1.00800           0
     69645 TIP3     15733    TIP3     H2       HT       0.417000       1.00800           0
     69646 TIP3     15734    TIP3     OH2      OT      -0.834000       15.9994           0
     69647 TIP3     15734    TIP3     H1       HT       0.417000       1.00800           0
     69648 TIP3     15734    TIP3     H2       HT       0.417000       1.00800           0
     69649 TIP3     15735    TIP3     OH2      OT      -0.834000       15.9994           0
     69650 TIP3     15735    TIP3     H1       HT       0.417000       1.00800           0
     69651 TIP3     15735    TIP3     H2       HT       0.417000       1.00800           0
     69652 TIP3     15736    TIP3     OH2      OT      -0.834000       15.9994           0
     69653 TIP3     15736    TIP3     H1       HT       0.417000       1.00800           0
     69654 TIP3     15736    TIP3     H2       HT       0.417000       1.00800           0
     69655 TIP3     15737    TIP3     OH2      OT      -0.834000       15.9994           0
     69656 TIP3     15737    TIP3     H1       HT       0.417000       1.00800           0
     69657 TIP3     15737    TIP3     H2       HT       0.417000       1.00800           0
     69658 TIP3     15738    TIP3     OH2      OT      -0.834000       15.9994           0
     69659 TIP3     15738    TIP3     H1       HT       0.417000       1.00800           0
     69660 TIP3     15738    TIP3     H2       HT       0.417000       1.00800           0
     69661 TIP3     15739    TIP3     OH2      OT      -0.834000       15.9994           0
     69662 TIP3     15739    TIP3     H1       HT       0.417000       1.00800           0
     69663 TIP3     15739    TIP3     H2       HT       0.417000       1.00800           0
     69664 TIP3     15740    TIP3     OH2      OT      -0.834000       15.9994           0
     69665 TIP3     15740    TIP3     H1       HT       0.417000       1.00800           0
     69666 TIP3     15740    TIP3     H2       HT       0.417000       1.00800           0
     69667 TIP3     15741    TIP3     OH2      OT      -0.834000       15.9994           0
     69668 TIP3     15741    TIP3     H1       HT       0.417000       1.00800           0
     69669 TIP3     15741    TIP3     H2       HT       0.417000       1.00800           0
     69670 TIP3     15742    TIP3     OH2      OT      -0.834000       15.9994           0
     69671 TIP3     15742    TIP3     H1       HT       0.417000       1.00800           0
     69672 TIP3     15742    TIP3     H2       HT       0.417000       1.00800           0
     69673 TIP3     15743    TIP3     OH2      OT      -0.834000       15.9994           0
     69674 TIP3     15743    TIP3     H1       HT       0.417000       1.00800           0
     69675 TIP3     15743    TIP3     H2       HT       0.417000       1.00800           0
     69676 TIP3     15744    TIP3     OH2      OT      -0.834000       15.9994           0
     69677 TIP3     15744    TIP3     H1       HT       0.417000       1.00800           0
     69678 TIP3     15744    TIP3     H2       HT       0.417000       1.00800           0
     69679 TIP3     15745    TIP3     OH2      OT      -0.834000       15.9994           0
     69680 TIP3     15745    TIP3     H1       HT       0.417000       1.00800           0
     69681 TIP3     15745    TIP3     H2       HT       0.417000       1.00800           0
     69682 TIP3     15746    TIP3     OH2      OT      -0.834000       15.9994           0
     69683 TIP3     15746    TIP3     H1       HT       0.417000       1.00800           0
     69684 TIP3     15746    TIP3     H2       HT       0.417000       1.00800           0
     69685 TIP3     15747    TIP3     OH2      OT      -0.834000       15.9994           0
     69686 TIP3     15747    TIP3     H1       HT       0.417000       1.00800           0
     69687 TIP3     15747    TIP3     H2       HT       0.417000       1.00800           0
     69688 TIP3     15748    TIP3     OH2      OT      -0.834000       15.9994           0
     69689 TIP3     15748    TIP3     H1       HT       0.417000       1.00800           0
     69690 TIP3     15748    TIP3     H2       HT       0.417000       1.00800           0
     69691 TIP3     15749    TIP3     OH2      OT      -0.834000       15.9994           0
     69692 TIP3     15749    TIP3     H1       HT       0.417000       1.00800           0
     69693 TIP3     15749    TIP3     H2       HT       0.417000       1.00800           0
     69694 TIP3     15750    TIP3     OH2      OT      -0.834000       15.9994           0
     69695 TIP3     15750    TIP3     H1       HT       0.417000       1.00800           0
     69696 TIP3     15750    TIP3     H2       HT       0.417000       1.00800           0
     69697 TIP3     15751    TIP3     OH2      OT      -0.834000       15.9994           0
     69698 TIP3     15751    TIP3     H1       HT       0.417000       1.00800           0
     69699 TIP3     15751    TIP3     H2       HT       0.417000       1.00800           0
     69700 TIP3     15752    TIP3     OH2      OT      -0.834000       15.9994           0
     69701 TIP3     15752    TIP3     H1       HT       0.417000       1.00800           0
     69702 TIP3     15752    TIP3     H2       HT       0.417000       1.00800           0
     69703 TIP3     15753    TIP3     OH2      OT      -0.834000       15.9994           0
     69704 TIP3     15753    TIP3     H1       HT       0.417000       1.00800           0
     69705 TIP3     15753    TIP3     H2       HT       0.417000       1.00800           0
     69706 TIP3     15754    TIP3     OH2      OT      -0.834000       15.9994           0
     69707 TIP3     15754    TIP3     H1       HT       0.417000       1.00800           0
     69708 TIP3     15754    TIP3     H2       HT       0.417000       1.00800           0
     69709 TIP3     15755    TIP3     OH2      OT      -0.834000       15.9994           0
     69710 TIP3     15755    TIP3     H1       HT       0.417000       1.00800           0
     69711 TIP3     15755    TIP3     H2       HT       0.417000       1.00800           0
     69712 TIP3     15756    TIP3     OH2      OT      -0.834000       15.9994           0
     69713 TIP3     15756    TIP3     H1       HT       0.417000       1.00800           0
     69714 TIP3     15756    TIP3     H2       HT       0.417000       1.00800           0
     69715 TIP3     15757    TIP3     OH2      OT      -0.834000       15.9994           0
     69716 TIP3     15757    TIP3     H1       HT       0.417000       1.00800           0
     69717 TIP3     15757    TIP3     H2       HT       0.417000       1.00800           0
     69718 TIP3     15758    TIP3     OH2      OT      -0.834000       15.9994           0
     69719 TIP3     15758    TIP3     H1       HT       0.417000       1.00800           0
     69720 TIP3     15758    TIP3     H2       HT       0.417000       1.00800           0
     69721 TIP3     15759    TIP3     OH2      OT      -0.834000       15.9994           0
     69722 TIP3     15759    TIP3     H1       HT       0.417000       1.00800           0
     69723 TIP3     15759    TIP3     H2       HT       0.417000       1.00800           0
     69724 TIP3     15760    TIP3     OH2      OT      -0.834000       15.9994           0
     69725 TIP3     15760    TIP3     H1       HT       0.417000       1.00800           0
     69726 TIP3     15760    TIP3     H2       HT       0.417000       1.00800           0
     69727 TIP3     15761    TIP3     OH2      OT      -0.834000       15.9994           0
     69728 TIP3     15761    TIP3     H1       HT       0.417000       1.00800           0
     69729 TIP3     15761    TIP3     H2       HT       0.417000       1.00800           0
     69730 TIP3     15762    TIP3     OH2      OT      -0.834000       15.9994           0
     69731 TIP3     15762    TIP3     H1       HT       0.417000       1.00800           0
     69732 TIP3     15762    TIP3     H2       HT       0.417000       1.00800           0
     69733 TIP3     15763    TIP3     OH2      OT      -0.834000       15.9994           0
     69734 TIP3     15763    TIP3     H1       HT       0.417000       1.00800           0
     69735 TIP3     15763    TIP3     H2       HT       0.417000       1.00800           0
     69736 TIP3     15764    TIP3     OH2      OT      -0.834000       15.9994           0
     69737 TIP3     15764    TIP3     H1       HT       0.417000       1.00800           0
     69738 TIP3     15764    TIP3     H2       HT       0.417000       1.00800           0
     69739 TIP3     15765    TIP3     OH2      OT      -0.834000       15.9994           0
     69740 TIP3     15765    TIP3     H1       HT       0.417000       1.00800           0
     69741 TIP3     15765    TIP3     H2       HT       0.417000       1.00800           0
     69742 TIP3     15766    TIP3     OH2      OT      -0.834000       15.9994           0
     69743 TIP3     15766    TIP3     H1       HT       0.417000       1.00800           0
     69744 TIP3     15766    TIP3     H2       HT       0.417000       1.00800           0
     69745 TIP3     15767    TIP3     OH2      OT      -0.834000       15.9994           0
     69746 TIP3     15767    TIP3     H1       HT       0.417000       1.00800           0
     69747 TIP3     15767    TIP3     H2       HT       0.417000       1.00800           0
     69748 TIP3     15768    TIP3     OH2      OT      -0.834000       15.9994           0
     69749 TIP3     15768    TIP3     H1       HT       0.417000       1.00800           0
     69750 TIP3     15768    TIP3     H2       HT       0.417000       1.00800           0
     69751 TIP3     15769    TIP3     OH2      OT      -0.834000       15.9994           0
     69752 TIP3     15769    TIP3     H1       HT       0.417000       1.00800           0
     69753 TIP3     15769    TIP3     H2       HT       0.417000       1.00800           0
     69754 TIP3     15770    TIP3     OH2      OT      -0.834000       15.9994           0
     69755 TIP3     15770    TIP3     H1       HT       0.417000       1.00800           0
     69756 TIP3     15770    TIP3     H2       HT       0.417000       1.00800           0
     69757 TIP3     15771    TIP3     OH2      OT      -0.834000       15.9994           0
     69758 TIP3     15771    TIP3     H1       HT       0.417000       1.00800           0
     69759 TIP3     15771    TIP3     H2       HT       0.417000       1.00800           0
     69760 TIP3     15772    TIP3     OH2      OT      -0.834000       15.9994           0
     69761 TIP3     15772    TIP3     H1       HT       0.417000       1.00800           0
     69762 TIP3     15772    TIP3     H2       HT       0.417000       1.00800           0
     69763 TIP3     15773    TIP3     OH2      OT      -0.834000       15.9994           0
     69764 TIP3     15773    TIP3     H1       HT       0.417000       1.00800           0
     69765 TIP3     15773    TIP3     H2       HT       0.417000       1.00800           0
     69766 TIP3     15774    TIP3     OH2      OT      -0.834000       15.9994           0
     69767 TIP3     15774    TIP3     H1       HT       0.417000       1.00800           0
     69768 TIP3     15774    TIP3     H2       HT       0.417000       1.00800           0
     69769 TIP3     15775    TIP3     OH2      OT      -0.834000       15.9994           0
     69770 TIP3     15775    TIP3     H1       HT       0.417000       1.00800           0
     69771 TIP3     15775    TIP3     H2       HT       0.417000       1.00800           0
     69772 TIP3     15776    TIP3     OH2      OT      -0.834000       15.9994           0
     69773 TIP3     15776    TIP3     H1       HT       0.417000       1.00800           0
     69774 TIP3     15776    TIP3     H2       HT       0.417000       1.00800           0
     69775 TIP3     15777    TIP3     OH2      OT      -0.834000       15.9994           0
     69776 TIP3     15777    TIP3     H1       HT       0.417000       1.00800           0
     69777 TIP3     15777    TIP3     H2       HT       0.417000       1.00800           0
     69778 TIP3     15778    TIP3     OH2      OT      -0.834000       15.9994           0
     69779 TIP3     15778    TIP3     H1       HT       0.417000       1.00800           0
     69780 TIP3     15778    TIP3     H2       HT       0.417000       1.00800           0
     69781 TIP3     15779    TIP3     OH2      OT      -0.834000       15.9994           0
     69782 TIP3     15779    TIP3     H1       HT       0.417000       1.00800           0
     69783 TIP3     15779    TIP3     H2       HT       0.417000       1.00800           0
     69784 TIP3     15780    TIP3     OH2      OT      -0.834000       15.9994           0
     69785 TIP3     15780    TIP3     H1       HT       0.417000       1.00800           0
     69786 TIP3     15780    TIP3     H2       HT       0.417000       1.00800           0
     69787 TIP3     15781    TIP3     OH2      OT      -0.834000       15.9994           0
     69788 TIP3     15781    TIP3     H1       HT       0.417000       1.00800           0
     69789 TIP3     15781    TIP3     H2       HT       0.417000       1.00800           0
     69790 TIP3     15782    TIP3     OH2      OT      -0.834000       15.9994           0
     69791 TIP3     15782    TIP3     H1       HT       0.417000       1.00800           0
     69792 TIP3     15782    TIP3     H2       HT       0.417000       1.00800           0
     69793 TIP3     15783    TIP3     OH2      OT      -0.834000       15.9994           0
     69794 TIP3     15783    TIP3     H1       HT       0.417000       1.00800           0
     69795 TIP3     15783    TIP3     H2       HT       0.417000       1.00800           0
     69796 TIP3     15784    TIP3     OH2      OT      -0.834000       15.9994           0
     69797 TIP3     15784    TIP3     H1       HT       0.417000       1.00800           0
     69798 TIP3     15784    TIP3     H2       HT       0.417000       1.00800           0
     69799 TIP3     15785    TIP3     OH2      OT      -0.834000       15.9994           0
     69800 TIP3     15785    TIP3     H1       HT       0.417000       1.00800           0
     69801 TIP3     15785    TIP3     H2       HT       0.417000       1.00800           0
     69802 TIP3     15786    TIP3     OH2      OT      -0.834000       15.9994           0
     69803 TIP3     15786    TIP3     H1       HT       0.417000       1.00800           0
     69804 TIP3     15786    TIP3     H2       HT       0.417000       1.00800           0
     69805 TIP3     15787    TIP3     OH2      OT      -0.834000       15.9994           0
     69806 TIP3     15787    TIP3     H1       HT       0.417000       1.00800           0
     69807 TIP3     15787    TIP3     H2       HT       0.417000       1.00800           0
     69808 TIP3     15788    TIP3     OH2      OT      -0.834000       15.9994           0
     69809 TIP3     15788    TIP3     H1       HT       0.417000       1.00800           0
     69810 TIP3     15788    TIP3     H2       HT       0.417000       1.00800           0
     69811 TIP3     15789    TIP3     OH2      OT      -0.834000       15.9994           0
     69812 TIP3     15789    TIP3     H1       HT       0.417000       1.00800           0
     69813 TIP3     15789    TIP3     H2       HT       0.417000       1.00800           0
     69814 TIP3     15790    TIP3     OH2      OT      -0.834000       15.9994           0
     69815 TIP3     15790    TIP3     H1       HT       0.417000       1.00800           0
     69816 TIP3     15790    TIP3     H2       HT       0.417000       1.00800           0
     69817 TIP3     15791    TIP3     OH2      OT      -0.834000       15.9994           0
     69818 TIP3     15791    TIP3     H1       HT       0.417000       1.00800           0
     69819 TIP3     15791    TIP3     H2       HT       0.417000       1.00800           0
     69820 TIP3     15792    TIP3     OH2      OT      -0.834000       15.9994           0
     69821 TIP3     15792    TIP3     H1       HT       0.417000       1.00800           0
     69822 TIP3     15792    TIP3     H2       HT       0.417000       1.00800           0
     69823 TIP3     15793    TIP3     OH2      OT      -0.834000       15.9994           0
     69824 TIP3     15793    TIP3     H1       HT       0.417000       1.00800           0
     69825 TIP3     15793    TIP3     H2       HT       0.417000       1.00800           0
     69826 TIP3     15794    TIP3     OH2      OT      -0.834000       15.9994           0
     69827 TIP3     15794    TIP3     H1       HT       0.417000       1.00800           0
     69828 TIP3     15794    TIP3     H2       HT       0.417000       1.00800           0
     69829 TIP3     15795    TIP3     OH2      OT      -0.834000       15.9994           0
     69830 TIP3     15795    TIP3     H1       HT       0.417000       1.00800           0
     69831 TIP3     15795    TIP3     H2       HT       0.417000       1.00800           0
     69832 TIP3     15796    TIP3     OH2      OT      -0.834000       15.9994           0
     69833 TIP3     15796    TIP3     H1       HT       0.417000       1.00800           0
     69834 TIP3     15796    TIP3     H2       HT       0.417000       1.00800           0
     69835 TIP3     15797    TIP3     OH2      OT      -0.834000       15.9994           0
     69836 TIP3     15797    TIP3     H1       HT       0.417000       1.00800           0
     69837 TIP3     15797    TIP3     H2       HT       0.417000       1.00800           0
     69838 TIP3     15798    TIP3     OH2      OT      -0.834000       15.9994           0
     69839 TIP3     15798    TIP3     H1       HT       0.417000       1.00800           0
     69840 TIP3     15798    TIP3     H2       HT       0.417000       1.00800           0
     69841 TIP3     15799    TIP3     OH2      OT      -0.834000       15.9994           0
     69842 TIP3     15799    TIP3     H1       HT       0.417000       1.00800           0
     69843 TIP3     15799    TIP3     H2       HT       0.417000       1.00800           0
     69844 TIP3     15800    TIP3     OH2      OT      -0.834000       15.9994           0
     69845 TIP3     15800    TIP3     H1       HT       0.417000       1.00800           0
     69846 TIP3     15800    TIP3     H2       HT       0.417000       1.00800           0
     69847 TIP3     15801    TIP3     OH2      OT      -0.834000       15.9994           0
     69848 TIP3     15801    TIP3     H1       HT       0.417000       1.00800           0
     69849 TIP3     15801    TIP3     H2       HT       0.417000       1.00800           0
     69850 TIP3     15802    TIP3     OH2      OT      -0.834000       15.9994           0
     69851 TIP3     15802    TIP3     H1       HT       0.417000       1.00800           0
     69852 TIP3     15802    TIP3     H2       HT       0.417000       1.00800           0
     69853 TIP3     15803    TIP3     OH2      OT      -0.834000       15.9994           0
     69854 TIP3     15803    TIP3     H1       HT       0.417000       1.00800           0
     69855 TIP3     15803    TIP3     H2       HT       0.417000       1.00800           0
     69856 TIP3     15804    TIP3     OH2      OT      -0.834000       15.9994           0
     69857 TIP3     15804    TIP3     H1       HT       0.417000       1.00800           0
     69858 TIP3     15804    TIP3     H2       HT       0.417000       1.00800           0
     69859 TIP3     15805    TIP3     OH2      OT      -0.834000       15.9994           0
     69860 TIP3     15805    TIP3     H1       HT       0.417000       1.00800           0
     69861 TIP3     15805    TIP3     H2       HT       0.417000       1.00800           0
     69862 TIP3     15806    TIP3     OH2      OT      -0.834000       15.9994           0
     69863 TIP3     15806    TIP3     H1       HT       0.417000       1.00800           0
     69864 TIP3     15806    TIP3     H2       HT       0.417000       1.00800           0
     69865 TIP3     15807    TIP3     OH2      OT      -0.834000       15.9994           0
     69866 TIP3     15807    TIP3     H1       HT       0.417000       1.00800           0
     69867 TIP3     15807    TIP3     H2       HT       0.417000       1.00800           0
     69868 TIP3     15808    TIP3     OH2      OT      -0.834000       15.9994           0
     69869 TIP3     15808    TIP3     H1       HT       0.417000       1.00800           0
     69870 TIP3     15808    TIP3     H2       HT       0.417000       1.00800           0
     69871 TIP3     15809    TIP3     OH2      OT      -0.834000       15.9994           0
     69872 TIP3     15809    TIP3     H1       HT       0.417000       1.00800           0
     69873 TIP3     15809    TIP3     H2       HT       0.417000       1.00800           0
     69874 TIP3     15810    TIP3     OH2      OT      -0.834000       15.9994           0
     69875 TIP3     15810    TIP3     H1       HT       0.417000       1.00800           0
     69876 TIP3     15810    TIP3     H2       HT       0.417000       1.00800           0
     69877 TIP3     15811    TIP3     OH2      OT      -0.834000       15.9994           0
     69878 TIP3     15811    TIP3     H1       HT       0.417000       1.00800           0
     69879 TIP3     15811    TIP3     H2       HT       0.417000       1.00800           0
     69880 TIP3     15812    TIP3     OH2      OT      -0.834000       15.9994           0
     69881 TIP3     15812    TIP3     H1       HT       0.417000       1.00800           0
     69882 TIP3     15812    TIP3     H2       HT       0.417000       1.00800           0
     69883 TIP3     15813    TIP3     OH2      OT      -0.834000       15.9994           0
     69884 TIP3     15813    TIP3     H1       HT       0.417000       1.00800           0
     69885 TIP3     15813    TIP3     H2       HT       0.417000       1.00800           0
     69886 TIP3     15814    TIP3     OH2      OT      -0.834000       15.9994           0
     69887 TIP3     15814    TIP3     H1       HT       0.417000       1.00800           0
     69888 TIP3     15814    TIP3     H2       HT       0.417000       1.00800           0
     69889 TIP3     15815    TIP3     OH2      OT      -0.834000       15.9994           0
     69890 TIP3     15815    TIP3     H1       HT       0.417000       1.00800           0
     69891 TIP3     15815    TIP3     H2       HT       0.417000       1.00800           0
     69892 TIP3     15816    TIP3     OH2      OT      -0.834000       15.9994           0
     69893 TIP3     15816    TIP3     H1       HT       0.417000       1.00800           0
     69894 TIP3     15816    TIP3     H2       HT       0.417000       1.00800           0
     69895 TIP3     15817    TIP3     OH2      OT      -0.834000       15.9994           0
     69896 TIP3     15817    TIP3     H1       HT       0.417000       1.00800           0
     69897 TIP3     15817    TIP3     H2       HT       0.417000       1.00800           0
     69898 TIP3     15818    TIP3     OH2      OT      -0.834000       15.9994           0
     69899 TIP3     15818    TIP3     H1       HT       0.417000       1.00800           0
     69900 TIP3     15818    TIP3     H2       HT       0.417000       1.00800           0
     69901 TIP3     15819    TIP3     OH2      OT      -0.834000       15.9994           0
     69902 TIP3     15819    TIP3     H1       HT       0.417000       1.00800           0
     69903 TIP3     15819    TIP3     H2       HT       0.417000       1.00800           0
     69904 TIP3     15820    TIP3     OH2      OT      -0.834000       15.9994           0
     69905 TIP3     15820    TIP3     H1       HT       0.417000       1.00800           0
     69906 TIP3     15820    TIP3     H2       HT       0.417000       1.00800           0
     69907 TIP3     15821    TIP3     OH2      OT      -0.834000       15.9994           0
     69908 TIP3     15821    TIP3     H1       HT       0.417000       1.00800           0
     69909 TIP3     15821    TIP3     H2       HT       0.417000       1.00800           0
     69910 TIP3     15822    TIP3     OH2      OT      -0.834000       15.9994           0
     69911 TIP3     15822    TIP3     H1       HT       0.417000       1.00800           0
     69912 TIP3     15822    TIP3     H2       HT       0.417000       1.00800           0
     69913 TIP3     15823    TIP3     OH2      OT      -0.834000       15.9994           0
     69914 TIP3     15823    TIP3     H1       HT       0.417000       1.00800           0
     69915 TIP3     15823    TIP3     H2       HT       0.417000       1.00800           0
     69916 TIP3     15824    TIP3     OH2      OT      -0.834000       15.9994           0
     69917 TIP3     15824    TIP3     H1       HT       0.417000       1.00800           0
     69918 TIP3     15824    TIP3     H2       HT       0.417000       1.00800           0
     69919 TIP3     15825    TIP3     OH2      OT      -0.834000       15.9994           0
     69920 TIP3     15825    TIP3     H1       HT       0.417000       1.00800           0
     69921 TIP3     15825    TIP3     H2       HT       0.417000       1.00800           0
     69922 TIP3     15826    TIP3     OH2      OT      -0.834000       15.9994           0
     69923 TIP3     15826    TIP3     H1       HT       0.417000       1.00800           0
     69924 TIP3     15826    TIP3     H2       HT       0.417000       1.00800           0
     69925 TIP3     15827    TIP3     OH2      OT      -0.834000       15.9994           0
     69926 TIP3     15827    TIP3     H1       HT       0.417000       1.00800           0
     69927 TIP3     15827    TIP3     H2       HT       0.417000       1.00800           0
     69928 TIP3     15828    TIP3     OH2      OT      -0.834000       15.9994           0
     69929 TIP3     15828    TIP3     H1       HT       0.417000       1.00800           0
     69930 TIP3     15828    TIP3     H2       HT       0.417000       1.00800           0
     69931 TIP3     15829    TIP3     OH2      OT      -0.834000       15.9994           0
     69932 TIP3     15829    TIP3     H1       HT       0.417000       1.00800           0
     69933 TIP3     15829    TIP3     H2       HT       0.417000       1.00800           0
     69934 TIP3     15830    TIP3     OH2      OT      -0.834000       15.9994           0
     69935 TIP3     15830    TIP3     H1       HT       0.417000       1.00800           0
     69936 TIP3     15830    TIP3     H2       HT       0.417000       1.00800           0
     69937 TIP3     15831    TIP3     OH2      OT      -0.834000       15.9994           0
     69938 TIP3     15831    TIP3     H1       HT       0.417000       1.00800           0
     69939 TIP3     15831    TIP3     H2       HT       0.417000       1.00800           0
     69940 TIP3     15832    TIP3     OH2      OT      -0.834000       15.9994           0
     69941 TIP3     15832    TIP3     H1       HT       0.417000       1.00800           0
     69942 TIP3     15832    TIP3     H2       HT       0.417000       1.00800           0
     69943 TIP3     15833    TIP3     OH2      OT      -0.834000       15.9994           0
     69944 TIP3     15833    TIP3     H1       HT       0.417000       1.00800           0
     69945 TIP3     15833    TIP3     H2       HT       0.417000       1.00800           0
     69946 TIP3     15834    TIP3     OH2      OT      -0.834000       15.9994           0
     69947 TIP3     15834    TIP3     H1       HT       0.417000       1.00800           0
     69948 TIP3     15834    TIP3     H2       HT       0.417000       1.00800           0
     69949 TIP3     15835    TIP3     OH2      OT      -0.834000       15.9994           0
     69950 TIP3     15835    TIP3     H1       HT       0.417000       1.00800           0
     69951 TIP3     15835    TIP3     H2       HT       0.417000       1.00800           0
     69952 TIP3     15836    TIP3     OH2      OT      -0.834000       15.9994           0
     69953 TIP3     15836    TIP3     H1       HT       0.417000       1.00800           0
     69954 TIP3     15836    TIP3     H2       HT       0.417000       1.00800           0
     69955 TIP3     15837    TIP3     OH2      OT      -0.834000       15.9994           0
     69956 TIP3     15837    TIP3     H1       HT       0.417000       1.00800           0
     69957 TIP3     15837    TIP3     H2       HT       0.417000       1.00800           0
     69958 TIP3     15838    TIP3     OH2      OT      -0.834000       15.9994           0
     69959 TIP3     15838    TIP3     H1       HT       0.417000       1.00800           0
     69960 TIP3     15838    TIP3     H2       HT       0.417000       1.00800           0
     69961 TIP3     15839    TIP3     OH2      OT      -0.834000       15.9994           0
     69962 TIP3     15839    TIP3     H1       HT       0.417000       1.00800           0
     69963 TIP3     15839    TIP3     H2       HT       0.417000       1.00800           0
     69964 TIP3     15840    TIP3     OH2      OT      -0.834000       15.9994           0
     69965 TIP3     15840    TIP3     H1       HT       0.417000       1.00800           0
     69966 TIP3     15840    TIP3     H2       HT       0.417000       1.00800           0
     69967 TIP3     15841    TIP3     OH2      OT      -0.834000       15.9994           0
     69968 TIP3     15841    TIP3     H1       HT       0.417000       1.00800           0
     69969 TIP3     15841    TIP3     H2       HT       0.417000       1.00800           0
     69970 TIP3     15842    TIP3     OH2      OT      -0.834000       15.9994           0
     69971 TIP3     15842    TIP3     H1       HT       0.417000       1.00800           0
     69972 TIP3     15842    TIP3     H2       HT       0.417000       1.00800           0
     69973 TIP3     15843    TIP3     OH2      OT      -0.834000       15.9994           0
     69974 TIP3     15843    TIP3     H1       HT       0.417000       1.00800           0
     69975 TIP3     15843    TIP3     H2       HT       0.417000       1.00800           0
     69976 TIP3     15844    TIP3     OH2      OT      -0.834000       15.9994           0
     69977 TIP3     15844    TIP3     H1       HT       0.417000       1.00800           0
     69978 TIP3     15844    TIP3     H2       HT       0.417000       1.00800           0
     69979 TIP3     15845    TIP3     OH2      OT      -0.834000       15.9994           0
     69980 TIP3     15845    TIP3     H1       HT       0.417000       1.00800           0
     69981 TIP3     15845    TIP3     H2       HT       0.417000       1.00800           0
     69982 TIP3     15846    TIP3     OH2      OT      -0.834000       15.9994           0
     69983 TIP3     15846    TIP3     H1       HT       0.417000       1.00800           0
     69984 TIP3     15846    TIP3     H2       HT       0.417000       1.00800           0
     69985 TIP3     15847    TIP3     OH2      OT      -0.834000       15.9994           0
     69986 TIP3     15847    TIP3     H1       HT       0.417000       1.00800           0
     69987 TIP3     15847    TIP3     H2       HT       0.417000       1.00800           0
     69988 TIP3     15848    TIP3     OH2      OT      -0.834000       15.9994           0
     69989 TIP3     15848    TIP3     H1       HT       0.417000       1.00800           0
     69990 TIP3     15848    TIP3     H2       HT       0.417000       1.00800           0
     69991 TIP3     15849    TIP3     OH2      OT      -0.834000       15.9994           0
     69992 TIP3     15849    TIP3     H1       HT       0.417000       1.00800           0
     69993 TIP3     15849    TIP3     H2       HT       0.417000       1.00800           0
     69994 TIP3     15850    TIP3     OH2      OT      -0.834000       15.9994           0
     69995 TIP3     15850    TIP3     H1       HT       0.417000       1.00800           0
     69996 TIP3     15850    TIP3     H2       HT       0.417000       1.00800           0
     69997 TIP3     15851    TIP3     OH2      OT      -0.834000       15.9994           0
     69998 TIP3     15851    TIP3     H1       HT       0.417000       1.00800           0
     69999 TIP3     15851    TIP3     H2       HT       0.417000       1.00800           0
     70000 TIP3     15852    TIP3     OH2      OT      -0.834000       15.9994           0
     70001 TIP3     15852    TIP3     H1       HT       0.417000       1.00800           0
     70002 TIP3     15852    TIP3     H2       HT       0.417000       1.00800           0
     70003 TIP3     15853    TIP3     OH2      OT      -0.834000       15.9994           0
     70004 TIP3     15853    TIP3     H1       HT       0.417000       1.00800           0
     70005 TIP3     15853    TIP3     H2       HT       0.417000       1.00800           0
     70006 TIP3     15854    TIP3     OH2      OT      -0.834000       15.9994           0
     70007 TIP3     15854    TIP3     H1       HT       0.417000       1.00800           0
     70008 TIP3     15854    TIP3     H2       HT       0.417000       1.00800           0
     70009 TIP3     15855    TIP3     OH2      OT      -0.834000       15.9994           0
     70010 TIP3     15855    TIP3     H1       HT       0.417000       1.00800           0
     70011 TIP3     15855    TIP3     H2       HT       0.417000       1.00800           0
     70012 TIP3     15856    TIP3     OH2      OT      -0.834000       15.9994           0
     70013 TIP3     15856    TIP3     H1       HT       0.417000       1.00800           0
     70014 TIP3     15856    TIP3     H2       HT       0.417000       1.00800           0
     70015 TIP3     15857    TIP3     OH2      OT      -0.834000       15.9994           0
     70016 TIP3     15857    TIP3     H1       HT       0.417000       1.00800           0
     70017 TIP3     15857    TIP3     H2       HT       0.417000       1.00800           0
     70018 TIP3     15858    TIP3     OH2      OT      -0.834000       15.9994           0
     70019 TIP3     15858    TIP3     H1       HT       0.417000       1.00800           0
     70020 TIP3     15858    TIP3     H2       HT       0.417000       1.00800           0
     70021 TIP3     15859    TIP3     OH2      OT      -0.834000       15.9994           0
     70022 TIP3     15859    TIP3     H1       HT       0.417000       1.00800           0
     70023 TIP3     15859    TIP3     H2       HT       0.417000       1.00800           0
     70024 TIP3     15860    TIP3     OH2      OT      -0.834000       15.9994           0
     70025 TIP3     15860    TIP3     H1       HT       0.417000       1.00800           0
     70026 TIP3     15860    TIP3     H2       HT       0.417000       1.00800           0
     70027 TIP3     15861    TIP3     OH2      OT      -0.834000       15.9994           0
     70028 TIP3     15861    TIP3     H1       HT       0.417000       1.00800           0
     70029 TIP3     15861    TIP3     H2       HT       0.417000       1.00800           0
     70030 TIP3     15862    TIP3     OH2      OT      -0.834000       15.9994           0
     70031 TIP3     15862    TIP3     H1       HT       0.417000       1.00800           0
     70032 TIP3     15862    TIP3     H2       HT       0.417000       1.00800           0
     70033 TIP3     15863    TIP3     OH2      OT      -0.834000       15.9994           0
     70034 TIP3     15863    TIP3     H1       HT       0.417000       1.00800           0
     70035 TIP3     15863    TIP3     H2       HT       0.417000       1.00800           0
     70036 TIP3     15864    TIP3     OH2      OT      -0.834000       15.9994           0
     70037 TIP3     15864    TIP3     H1       HT       0.417000       1.00800           0
     70038 TIP3     15864    TIP3     H2       HT       0.417000       1.00800           0
     70039 TIP3     15865    TIP3     OH2      OT      -0.834000       15.9994           0
     70040 TIP3     15865    TIP3     H1       HT       0.417000       1.00800           0
     70041 TIP3     15865    TIP3     H2       HT       0.417000       1.00800           0
     70042 TIP3     15866    TIP3     OH2      OT      -0.834000       15.9994           0
     70043 TIP3     15866    TIP3     H1       HT       0.417000       1.00800           0
     70044 TIP3     15866    TIP3     H2       HT       0.417000       1.00800           0
     70045 TIP3     15867    TIP3     OH2      OT      -0.834000       15.9994           0
     70046 TIP3     15867    TIP3     H1       HT       0.417000       1.00800           0
     70047 TIP3     15867    TIP3     H2       HT       0.417000       1.00800           0
     70048 TIP3     15868    TIP3     OH2      OT      -0.834000       15.9994           0
     70049 TIP3     15868    TIP3     H1       HT       0.417000       1.00800           0
     70050 TIP3     15868    TIP3     H2       HT       0.417000       1.00800           0
     70051 TIP3     15869    TIP3     OH2      OT      -0.834000       15.9994           0
     70052 TIP3     15869    TIP3     H1       HT       0.417000       1.00800           0
     70053 TIP3     15869    TIP3     H2       HT       0.417000       1.00800           0
     70054 TIP3     15870    TIP3     OH2      OT      -0.834000       15.9994           0
     70055 TIP3     15870    TIP3     H1       HT       0.417000       1.00800           0
     70056 TIP3     15870    TIP3     H2       HT       0.417000       1.00800           0
     70057 TIP3     15871    TIP3     OH2      OT      -0.834000       15.9994           0
     70058 TIP3     15871    TIP3     H1       HT       0.417000       1.00800           0
     70059 TIP3     15871    TIP3     H2       HT       0.417000       1.00800           0
     70060 TIP3     15872    TIP3     OH2      OT      -0.834000       15.9994           0
     70061 TIP3     15872    TIP3     H1       HT       0.417000       1.00800           0
     70062 TIP3     15872    TIP3     H2       HT       0.417000       1.00800           0
     70063 TIP3     15873    TIP3     OH2      OT      -0.834000       15.9994           0
     70064 TIP3     15873    TIP3     H1       HT       0.417000       1.00800           0
     70065 TIP3     15873    TIP3     H2       HT       0.417000       1.00800           0
     70066 TIP3     15874    TIP3     OH2      OT      -0.834000       15.9994           0
     70067 TIP3     15874    TIP3     H1       HT       0.417000       1.00800           0
     70068 TIP3     15874    TIP3     H2       HT       0.417000       1.00800           0
     70069 TIP3     15875    TIP3     OH2      OT      -0.834000       15.9994           0
     70070 TIP3     15875    TIP3     H1       HT       0.417000       1.00800           0
     70071 TIP3     15875    TIP3     H2       HT       0.417000       1.00800           0
     70072 TIP3     15876    TIP3     OH2      OT      -0.834000       15.9994           0
     70073 TIP3     15876    TIP3     H1       HT       0.417000       1.00800           0
     70074 TIP3     15876    TIP3     H2       HT       0.417000       1.00800           0
     70075 TIP3     15877    TIP3     OH2      OT      -0.834000       15.9994           0
     70076 TIP3     15877    TIP3     H1       HT       0.417000       1.00800           0
     70077 TIP3     15877    TIP3     H2       HT       0.417000       1.00800           0
     70078 TIP3     15878    TIP3     OH2      OT      -0.834000       15.9994           0
     70079 TIP3     15878    TIP3     H1       HT       0.417000       1.00800           0
     70080 TIP3     15878    TIP3     H2       HT       0.417000       1.00800           0
     70081 TIP3     15879    TIP3     OH2      OT      -0.834000       15.9994           0
     70082 TIP3     15879    TIP3     H1       HT       0.417000       1.00800           0
     70083 TIP3     15879    TIP3     H2       HT       0.417000       1.00800           0
     70084 TIP3     15880    TIP3     OH2      OT      -0.834000       15.9994           0
     70085 TIP3     15880    TIP3     H1       HT       0.417000       1.00800           0
     70086 TIP3     15880    TIP3     H2       HT       0.417000       1.00800           0
     70087 TIP3     15881    TIP3     OH2      OT      -0.834000       15.9994           0
     70088 TIP3     15881    TIP3     H1       HT       0.417000       1.00800           0
     70089 TIP3     15881    TIP3     H2       HT       0.417000       1.00800           0
     70090 TIP3     15882    TIP3     OH2      OT      -0.834000       15.9994           0
     70091 TIP3     15882    TIP3     H1       HT       0.417000       1.00800           0
     70092 TIP3     15882    TIP3     H2       HT       0.417000       1.00800           0
     70093 TIP3     15883    TIP3     OH2      OT      -0.834000       15.9994           0
     70094 TIP3     15883    TIP3     H1       HT       0.417000       1.00800           0
     70095 TIP3     15883    TIP3     H2       HT       0.417000       1.00800           0
     70096 TIP3     15884    TIP3     OH2      OT      -0.834000       15.9994           0
     70097 TIP3     15884    TIP3     H1       HT       0.417000       1.00800           0
     70098 TIP3     15884    TIP3     H2       HT       0.417000       1.00800           0
     70099 TIP3     15885    TIP3     OH2      OT      -0.834000       15.9994           0
     70100 TIP3     15885    TIP3     H1       HT       0.417000       1.00800           0
     70101 TIP3     15885    TIP3     H2       HT       0.417000       1.00800           0
     70102 TIP3     15886    TIP3     OH2      OT      -0.834000       15.9994           0
     70103 TIP3     15886    TIP3     H1       HT       0.417000       1.00800           0
     70104 TIP3     15886    TIP3     H2       HT       0.417000       1.00800           0
     70105 TIP3     15887    TIP3     OH2      OT      -0.834000       15.9994           0
     70106 TIP3     15887    TIP3     H1       HT       0.417000       1.00800           0
     70107 TIP3     15887    TIP3     H2       HT       0.417000       1.00800           0
     70108 TIP3     15888    TIP3     OH2      OT      -0.834000       15.9994           0
     70109 TIP3     15888    TIP3     H1       HT       0.417000       1.00800           0
     70110 TIP3     15888    TIP3     H2       HT       0.417000       1.00800           0
     70111 TIP3     15889    TIP3     OH2      OT      -0.834000       15.9994           0
     70112 TIP3     15889    TIP3     H1       HT       0.417000       1.00800           0
     70113 TIP3     15889    TIP3     H2       HT       0.417000       1.00800           0
     70114 TIP3     15890    TIP3     OH2      OT      -0.834000       15.9994           0
     70115 TIP3     15890    TIP3     H1       HT       0.417000       1.00800           0
     70116 TIP3     15890    TIP3     H2       HT       0.417000       1.00800           0
     70117 TIP3     15891    TIP3     OH2      OT      -0.834000       15.9994           0
     70118 TIP3     15891    TIP3     H1       HT       0.417000       1.00800           0
     70119 TIP3     15891    TIP3     H2       HT       0.417000       1.00800           0
     70120 TIP3     15892    TIP3     OH2      OT      -0.834000       15.9994           0
     70121 TIP3     15892    TIP3     H1       HT       0.417000       1.00800           0
     70122 TIP3     15892    TIP3     H2       HT       0.417000       1.00800           0
     70123 TIP3     15893    TIP3     OH2      OT      -0.834000       15.9994           0
     70124 TIP3     15893    TIP3     H1       HT       0.417000       1.00800           0
     70125 TIP3     15893    TIP3     H2       HT       0.417000       1.00800           0
     70126 TIP3     15894    TIP3     OH2      OT      -0.834000       15.9994           0
     70127 TIP3     15894    TIP3     H1       HT       0.417000       1.00800           0
     70128 TIP3     15894    TIP3     H2       HT       0.417000       1.00800           0
     70129 TIP3     15895    TIP3     OH2      OT      -0.834000       15.9994           0
     70130 TIP3     15895    TIP3     H1       HT       0.417000       1.00800           0
     70131 TIP3     15895    TIP3     H2       HT       0.417000       1.00800           0
     70132 TIP3     15896    TIP3     OH2      OT      -0.834000       15.9994           0
     70133 TIP3     15896    TIP3     H1       HT       0.417000       1.00800           0
     70134 TIP3     15896    TIP3     H2       HT       0.417000       1.00800           0
     70135 TIP3     15897    TIP3     OH2      OT      -0.834000       15.9994           0
     70136 TIP3     15897    TIP3     H1       HT       0.417000       1.00800           0
     70137 TIP3     15897    TIP3     H2       HT       0.417000       1.00800           0
     70138 TIP3     15898    TIP3     OH2      OT      -0.834000       15.9994           0
     70139 TIP3     15898    TIP3     H1       HT       0.417000       1.00800           0
     70140 TIP3     15898    TIP3     H2       HT       0.417000       1.00800           0
     70141 TIP3     15899    TIP3     OH2      OT      -0.834000       15.9994           0
     70142 TIP3     15899    TIP3     H1       HT       0.417000       1.00800           0
     70143 TIP3     15899    TIP3     H2       HT       0.417000       1.00800           0
     70144 TIP3     15900    TIP3     OH2      OT      -0.834000       15.9994           0
     70145 TIP3     15900    TIP3     H1       HT       0.417000       1.00800           0
     70146 TIP3     15900    TIP3     H2       HT       0.417000       1.00800           0
     70147 TIP3     15901    TIP3     OH2      OT      -0.834000       15.9994           0
     70148 TIP3     15901    TIP3     H1       HT       0.417000       1.00800           0
     70149 TIP3     15901    TIP3     H2       HT       0.417000       1.00800           0
     70150 TIP3     15902    TIP3     OH2      OT      -0.834000       15.9994           0
     70151 TIP3     15902    TIP3     H1       HT       0.417000       1.00800           0
     70152 TIP3     15902    TIP3     H2       HT       0.417000       1.00800           0
     70153 TIP3     15903    TIP3     OH2      OT      -0.834000       15.9994           0
     70154 TIP3     15903    TIP3     H1       HT       0.417000       1.00800           0
     70155 TIP3     15903    TIP3     H2       HT       0.417000       1.00800           0
     70156 TIP3     15904    TIP3     OH2      OT      -0.834000       15.9994           0
     70157 TIP3     15904    TIP3     H1       HT       0.417000       1.00800           0
     70158 TIP3     15904    TIP3     H2       HT       0.417000       1.00800           0
     70159 TIP3     15905    TIP3     OH2      OT      -0.834000       15.9994           0
     70160 TIP3     15905    TIP3     H1       HT       0.417000       1.00800           0
     70161 TIP3     15905    TIP3     H2       HT       0.417000       1.00800           0
     70162 TIP3     15906    TIP3     OH2      OT      -0.834000       15.9994           0
     70163 TIP3     15906    TIP3     H1       HT       0.417000       1.00800           0
     70164 TIP3     15906    TIP3     H2       HT       0.417000       1.00800           0
     70165 TIP3     15907    TIP3     OH2      OT      -0.834000       15.9994           0
     70166 TIP3     15907    TIP3     H1       HT       0.417000       1.00800           0
     70167 TIP3     15907    TIP3     H2       HT       0.417000       1.00800           0
     70168 TIP3     15908    TIP3     OH2      OT      -0.834000       15.9994           0
     70169 TIP3     15908    TIP3     H1       HT       0.417000       1.00800           0
     70170 TIP3     15908    TIP3     H2       HT       0.417000       1.00800           0
     70171 TIP3     15909    TIP3     OH2      OT      -0.834000       15.9994           0
     70172 TIP3     15909    TIP3     H1       HT       0.417000       1.00800           0
     70173 TIP3     15909    TIP3     H2       HT       0.417000       1.00800           0
     70174 TIP3     15910    TIP3     OH2      OT      -0.834000       15.9994           0
     70175 TIP3     15910    TIP3     H1       HT       0.417000       1.00800           0
     70176 TIP3     15910    TIP3     H2       HT       0.417000       1.00800           0
     70177 TIP3     15911    TIP3     OH2      OT      -0.834000       15.9994           0
     70178 TIP3     15911    TIP3     H1       HT       0.417000       1.00800           0
     70179 TIP3     15911    TIP3     H2       HT       0.417000       1.00800           0
     70180 TIP3     15912    TIP3     OH2      OT      -0.834000       15.9994           0
     70181 TIP3     15912    TIP3     H1       HT       0.417000       1.00800           0
     70182 TIP3     15912    TIP3     H2       HT       0.417000       1.00800           0
     70183 TIP3     15913    TIP3     OH2      OT      -0.834000       15.9994           0
     70184 TIP3     15913    TIP3     H1       HT       0.417000       1.00800           0
     70185 TIP3     15913    TIP3     H2       HT       0.417000       1.00800           0
     70186 TIP3     15914    TIP3     OH2      OT      -0.834000       15.9994           0
     70187 TIP3     15914    TIP3     H1       HT       0.417000       1.00800           0
     70188 TIP3     15914    TIP3     H2       HT       0.417000       1.00800           0
     70189 TIP3     15915    TIP3     OH2      OT      -0.834000       15.9994           0
     70190 TIP3     15915    TIP3     H1       HT       0.417000       1.00800           0
     70191 TIP3     15915    TIP3     H2       HT       0.417000       1.00800           0
     70192 TIP3     15916    TIP3     OH2      OT      -0.834000       15.9994           0
     70193 TIP3     15916    TIP3     H1       HT       0.417000       1.00800           0
     70194 TIP3     15916    TIP3     H2       HT       0.417000       1.00800           0
     70195 TIP3     15917    TIP3     OH2      OT      -0.834000       15.9994           0
     70196 TIP3     15917    TIP3     H1       HT       0.417000       1.00800           0
     70197 TIP3     15917    TIP3     H2       HT       0.417000       1.00800           0
     70198 TIP3     15918    TIP3     OH2      OT      -0.834000       15.9994           0
     70199 TIP3     15918    TIP3     H1       HT       0.417000       1.00800           0
     70200 TIP3     15918    TIP3     H2       HT       0.417000       1.00800           0
     70201 TIP3     15919    TIP3     OH2      OT      -0.834000       15.9994           0
     70202 TIP3     15919    TIP3     H1       HT       0.417000       1.00800           0
     70203 TIP3     15919    TIP3     H2       HT       0.417000       1.00800           0
     70204 TIP3     15920    TIP3     OH2      OT      -0.834000       15.9994           0
     70205 TIP3     15920    TIP3     H1       HT       0.417000       1.00800           0
     70206 TIP3     15920    TIP3     H2       HT       0.417000       1.00800           0
     70207 TIP3     15921    TIP3     OH2      OT      -0.834000       15.9994           0
     70208 TIP3     15921    TIP3     H1       HT       0.417000       1.00800           0
     70209 TIP3     15921    TIP3     H2       HT       0.417000       1.00800           0
     70210 TIP3     15922    TIP3     OH2      OT      -0.834000       15.9994           0
     70211 TIP3     15922    TIP3     H1       HT       0.417000       1.00800           0
     70212 TIP3     15922    TIP3     H2       HT       0.417000       1.00800           0
     70213 TIP3     15923    TIP3     OH2      OT      -0.834000       15.9994           0
     70214 TIP3     15923    TIP3     H1       HT       0.417000       1.00800           0
     70215 TIP3     15923    TIP3     H2       HT       0.417000       1.00800           0
     70216 TIP3     15924    TIP3     OH2      OT      -0.834000       15.9994           0
     70217 TIP3     15924    TIP3     H1       HT       0.417000       1.00800           0
     70218 TIP3     15924    TIP3     H2       HT       0.417000       1.00800           0
     70219 TIP3     15925    TIP3     OH2      OT      -0.834000       15.9994           0
     70220 TIP3     15925    TIP3     H1       HT       0.417000       1.00800           0
     70221 TIP3     15925    TIP3     H2       HT       0.417000       1.00800           0
     70222 TIP3     15926    TIP3     OH2      OT      -0.834000       15.9994           0
     70223 TIP3     15926    TIP3     H1       HT       0.417000       1.00800           0
     70224 TIP3     15926    TIP3     H2       HT       0.417000       1.00800           0
     70225 TIP3     15927    TIP3     OH2      OT      -0.834000       15.9994           0
     70226 TIP3     15927    TIP3     H1       HT       0.417000       1.00800           0
     70227 TIP3     15927    TIP3     H2       HT       0.417000       1.00800           0
     70228 TIP3     15928    TIP3     OH2      OT      -0.834000       15.9994           0
     70229 TIP3     15928    TIP3     H1       HT       0.417000       1.00800           0
     70230 TIP3     15928    TIP3     H2       HT       0.417000       1.00800           0
     70231 TIP3     15929    TIP3     OH2      OT      -0.834000       15.9994           0
     70232 TIP3     15929    TIP3     H1       HT       0.417000       1.00800           0
     70233 TIP3     15929    TIP3     H2       HT       0.417000       1.00800           0
     70234 TIP3     15930    TIP3     OH2      OT      -0.834000       15.9994           0
     70235 TIP3     15930    TIP3     H1       HT       0.417000       1.00800           0
     70236 TIP3     15930    TIP3     H2       HT       0.417000       1.00800           0
     70237 TIP3     15931    TIP3     OH2      OT      -0.834000       15.9994           0
     70238 TIP3     15931    TIP3     H1       HT       0.417000       1.00800           0
     70239 TIP3     15931    TIP3     H2       HT       0.417000       1.00800           0
     70240 TIP3     15932    TIP3     OH2      OT      -0.834000       15.9994           0
     70241 TIP3     15932    TIP3     H1       HT       0.417000       1.00800           0
     70242 TIP3     15932    TIP3     H2       HT       0.417000       1.00800           0
     70243 TIP3     15933    TIP3     OH2      OT      -0.834000       15.9994           0
     70244 TIP3     15933    TIP3     H1       HT       0.417000       1.00800           0
     70245 TIP3     15933    TIP3     H2       HT       0.417000       1.00800           0
     70246 TIP3     15934    TIP3     OH2      OT      -0.834000       15.9994           0
     70247 TIP3     15934    TIP3     H1       HT       0.417000       1.00800           0
     70248 TIP3     15934    TIP3     H2       HT       0.417000       1.00800           0
     70249 TIP3     15935    TIP3     OH2      OT      -0.834000       15.9994           0
     70250 TIP3     15935    TIP3     H1       HT       0.417000       1.00800           0
     70251 TIP3     15935    TIP3     H2       HT       0.417000       1.00800           0
     70252 TIP3     15936    TIP3     OH2      OT      -0.834000       15.9994           0
     70253 TIP3     15936    TIP3     H1       HT       0.417000       1.00800           0
     70254 TIP3     15936    TIP3     H2       HT       0.417000       1.00800           0
     70255 TIP3     15937    TIP3     OH2      OT      -0.834000       15.9994           0
     70256 TIP3     15937    TIP3     H1       HT       0.417000       1.00800           0
     70257 TIP3     15937    TIP3     H2       HT       0.417000       1.00800           0
     70258 TIP3     15938    TIP3     OH2      OT      -0.834000       15.9994           0
     70259 TIP3     15938    TIP3     H1       HT       0.417000       1.00800           0
     70260 TIP3     15938    TIP3     H2       HT       0.417000       1.00800           0
     70261 TIP3     15939    TIP3     OH2      OT      -0.834000       15.9994           0
     70262 TIP3     15939    TIP3     H1       HT       0.417000       1.00800           0
     70263 TIP3     15939    TIP3     H2       HT       0.417000       1.00800           0
     70264 TIP3     15940    TIP3     OH2      OT      -0.834000       15.9994           0
     70265 TIP3     15940    TIP3     H1       HT       0.417000       1.00800           0
     70266 TIP3     15940    TIP3     H2       HT       0.417000       1.00800           0
     70267 TIP3     15941    TIP3     OH2      OT      -0.834000       15.9994           0
     70268 TIP3     15941    TIP3     H1       HT       0.417000       1.00800           0
     70269 TIP3     15941    TIP3     H2       HT       0.417000       1.00800           0
     70270 TIP3     15942    TIP3     OH2      OT      -0.834000       15.9994           0
     70271 TIP3     15942    TIP3     H1       HT       0.417000       1.00800           0
     70272 TIP3     15942    TIP3     H2       HT       0.417000       1.00800           0
     70273 TIP3     15943    TIP3     OH2      OT      -0.834000       15.9994           0
     70274 TIP3     15943    TIP3     H1       HT       0.417000       1.00800           0
     70275 TIP3     15943    TIP3     H2       HT       0.417000       1.00800           0
     70276 TIP3     15944    TIP3     OH2      OT      -0.834000       15.9994           0
     70277 TIP3     15944    TIP3     H1       HT       0.417000       1.00800           0
     70278 TIP3     15944    TIP3     H2       HT       0.417000       1.00800           0
     70279 TIP3     15945    TIP3     OH2      OT      -0.834000       15.9994           0
     70280 TIP3     15945    TIP3     H1       HT       0.417000       1.00800           0
     70281 TIP3     15945    TIP3     H2       HT       0.417000       1.00800           0
     70282 TIP3     15946    TIP3     OH2      OT      -0.834000       15.9994           0
     70283 TIP3     15946    TIP3     H1       HT       0.417000       1.00800           0
     70284 TIP3     15946    TIP3     H2       HT       0.417000       1.00800           0
     70285 TIP3     15947    TIP3     OH2      OT      -0.834000       15.9994           0
     70286 TIP3     15947    TIP3     H1       HT       0.417000       1.00800           0
     70287 TIP3     15947    TIP3     H2       HT       0.417000       1.00800           0
     70288 TIP3     15948    TIP3     OH2      OT      -0.834000       15.9994           0
     70289 TIP3     15948    TIP3     H1       HT       0.417000       1.00800           0
     70290 TIP3     15948    TIP3     H2       HT       0.417000       1.00800           0
     70291 TIP3     15949    TIP3     OH2      OT      -0.834000       15.9994           0
     70292 TIP3     15949    TIP3     H1       HT       0.417000       1.00800           0
     70293 TIP3     15949    TIP3     H2       HT       0.417000       1.00800           0
     70294 TIP3     15950    TIP3     OH2      OT      -0.834000       15.9994           0
     70295 TIP3     15950    TIP3     H1       HT       0.417000       1.00800           0
     70296 TIP3     15950    TIP3     H2       HT       0.417000       1.00800           0
     70297 TIP3     15951    TIP3     OH2      OT      -0.834000       15.9994           0
     70298 TIP3     15951    TIP3     H1       HT       0.417000       1.00800           0
     70299 TIP3     15951    TIP3     H2       HT       0.417000       1.00800           0
     70300 TIP3     15952    TIP3     OH2      OT      -0.834000       15.9994           0
     70301 TIP3     15952    TIP3     H1       HT       0.417000       1.00800           0
     70302 TIP3     15952    TIP3     H2       HT       0.417000       1.00800           0
     70303 TIP3     15953    TIP3     OH2      OT      -0.834000       15.9994           0
     70304 TIP3     15953    TIP3     H1       HT       0.417000       1.00800           0
     70305 TIP3     15953    TIP3     H2       HT       0.417000       1.00800           0
     70306 TIP3     15954    TIP3     OH2      OT      -0.834000       15.9994           0
     70307 TIP3     15954    TIP3     H1       HT       0.417000       1.00800           0
     70308 TIP3     15954    TIP3     H2       HT       0.417000       1.00800           0
     70309 TIP3     15955    TIP3     OH2      OT      -0.834000       15.9994           0
     70310 TIP3     15955    TIP3     H1       HT       0.417000       1.00800           0
     70311 TIP3     15955    TIP3     H2       HT       0.417000       1.00800           0
     70312 TIP3     15956    TIP3     OH2      OT      -0.834000       15.9994           0
     70313 TIP3     15956    TIP3     H1       HT       0.417000       1.00800           0
     70314 TIP3     15956    TIP3     H2       HT       0.417000       1.00800           0
     70315 TIP3     15957    TIP3     OH2      OT      -0.834000       15.9994           0
     70316 TIP3     15957    TIP3     H1       HT       0.417000       1.00800           0
     70317 TIP3     15957    TIP3     H2       HT       0.417000       1.00800           0
     70318 TIP3     15958    TIP3     OH2      OT      -0.834000       15.9994           0
     70319 TIP3     15958    TIP3     H1       HT       0.417000       1.00800           0
     70320 TIP3     15958    TIP3     H2       HT       0.417000       1.00800           0
     70321 TIP3     15959    TIP3     OH2      OT      -0.834000       15.9994           0
     70322 TIP3     15959    TIP3     H1       HT       0.417000       1.00800           0
     70323 TIP3     15959    TIP3     H2       HT       0.417000       1.00800           0
     70324 TIP3     15960    TIP3     OH2      OT      -0.834000       15.9994           0
     70325 TIP3     15960    TIP3     H1       HT       0.417000       1.00800           0
     70326 TIP3     15960    TIP3     H2       HT       0.417000       1.00800           0
     70327 TIP3     15961    TIP3     OH2      OT      -0.834000       15.9994           0
     70328 TIP3     15961    TIP3     H1       HT       0.417000       1.00800           0
     70329 TIP3     15961    TIP3     H2       HT       0.417000       1.00800           0
     70330 TIP3     15962    TIP3     OH2      OT      -0.834000       15.9994           0
     70331 TIP3     15962    TIP3     H1       HT       0.417000       1.00800           0
     70332 TIP3     15962    TIP3     H2       HT       0.417000       1.00800           0
     70333 TIP3     15963    TIP3     OH2      OT      -0.834000       15.9994           0
     70334 TIP3     15963    TIP3     H1       HT       0.417000       1.00800           0
     70335 TIP3     15963    TIP3     H2       HT       0.417000       1.00800           0
     70336 TIP3     15964    TIP3     OH2      OT      -0.834000       15.9994           0
     70337 TIP3     15964    TIP3     H1       HT       0.417000       1.00800           0
     70338 TIP3     15964    TIP3     H2       HT       0.417000       1.00800           0
     70339 TIP3     15965    TIP3     OH2      OT      -0.834000       15.9994           0
     70340 TIP3     15965    TIP3     H1       HT       0.417000       1.00800           0
     70341 TIP3     15965    TIP3     H2       HT       0.417000       1.00800           0
     70342 TIP3     15966    TIP3     OH2      OT      -0.834000       15.9994           0
     70343 TIP3     15966    TIP3     H1       HT       0.417000       1.00800           0
     70344 TIP3     15966    TIP3     H2       HT       0.417000       1.00800           0
     70345 TIP3     15967    TIP3     OH2      OT      -0.834000       15.9994           0
     70346 TIP3     15967    TIP3     H1       HT       0.417000       1.00800           0
     70347 TIP3     15967    TIP3     H2       HT       0.417000       1.00800           0
     70348 TIP3     15968    TIP3     OH2      OT      -0.834000       15.9994           0
     70349 TIP3     15968    TIP3     H1       HT       0.417000       1.00800           0
     70350 TIP3     15968    TIP3     H2       HT       0.417000       1.00800           0
     70351 TIP3     15969    TIP3     OH2      OT      -0.834000       15.9994           0
     70352 TIP3     15969    TIP3     H1       HT       0.417000       1.00800           0
     70353 TIP3     15969    TIP3     H2       HT       0.417000       1.00800           0
     70354 TIP3     15970    TIP3     OH2      OT      -0.834000       15.9994           0
     70355 TIP3     15970    TIP3     H1       HT       0.417000       1.00800           0
     70356 TIP3     15970    TIP3     H2       HT       0.417000       1.00800           0
     70357 TIP3     15971    TIP3     OH2      OT      -0.834000       15.9994           0
     70358 TIP3     15971    TIP3     H1       HT       0.417000       1.00800           0
     70359 TIP3     15971    TIP3     H2       HT       0.417000       1.00800           0
     70360 TIP3     15972    TIP3     OH2      OT      -0.834000       15.9994           0
     70361 TIP3     15972    TIP3     H1       HT       0.417000       1.00800           0
     70362 TIP3     15972    TIP3     H2       HT       0.417000       1.00800           0
     70363 TIP3     15973    TIP3     OH2      OT      -0.834000       15.9994           0
     70364 TIP3     15973    TIP3     H1       HT       0.417000       1.00800           0
     70365 TIP3     15973    TIP3     H2       HT       0.417000       1.00800           0
     70366 TIP3     15974    TIP3     OH2      OT      -0.834000       15.9994           0
     70367 TIP3     15974    TIP3     H1       HT       0.417000       1.00800           0
     70368 TIP3     15974    TIP3     H2       HT       0.417000       1.00800           0
     70369 TIP3     15975    TIP3     OH2      OT      -0.834000       15.9994           0
     70370 TIP3     15975    TIP3     H1       HT       0.417000       1.00800           0
     70371 TIP3     15975    TIP3     H2       HT       0.417000       1.00800           0
     70372 TIP3     15976    TIP3     OH2      OT      -0.834000       15.9994           0
     70373 TIP3     15976    TIP3     H1       HT       0.417000       1.00800           0
     70374 TIP3     15976    TIP3     H2       HT       0.417000       1.00800           0
     70375 TIP3     15977    TIP3     OH2      OT      -0.834000       15.9994           0
     70376 TIP3     15977    TIP3     H1       HT       0.417000       1.00800           0
     70377 TIP3     15977    TIP3     H2       HT       0.417000       1.00800           0
     70378 TIP3     15978    TIP3     OH2      OT      -0.834000       15.9994           0
     70379 TIP3     15978    TIP3     H1       HT       0.417000       1.00800           0
     70380 TIP3     15978    TIP3     H2       HT       0.417000       1.00800           0
     70381 TIP3     15979    TIP3     OH2      OT      -0.834000       15.9994           0
     70382 TIP3     15979    TIP3     H1       HT       0.417000       1.00800           0
     70383 TIP3     15979    TIP3     H2       HT       0.417000       1.00800           0
     70384 TIP3     15980    TIP3     OH2      OT      -0.834000       15.9994           0
     70385 TIP3     15980    TIP3     H1       HT       0.417000       1.00800           0
     70386 TIP3     15980    TIP3     H2       HT       0.417000       1.00800           0
     70387 TIP3     15981    TIP3     OH2      OT      -0.834000       15.9994           0
     70388 TIP3     15981    TIP3     H1       HT       0.417000       1.00800           0
     70389 TIP3     15981    TIP3     H2       HT       0.417000       1.00800           0
     70390 TIP3     15982    TIP3     OH2      OT      -0.834000       15.9994           0
     70391 TIP3     15982    TIP3     H1       HT       0.417000       1.00800           0
     70392 TIP3     15982    TIP3     H2       HT       0.417000       1.00800           0
     70393 TIP3     15983    TIP3     OH2      OT      -0.834000       15.9994           0
     70394 TIP3     15983    TIP3     H1       HT       0.417000       1.00800           0
     70395 TIP3     15983    TIP3     H2       HT       0.417000       1.00800           0
     70396 TIP3     15984    TIP3     OH2      OT      -0.834000       15.9994           0
     70397 TIP3     15984    TIP3     H1       HT       0.417000       1.00800           0
     70398 TIP3     15984    TIP3     H2       HT       0.417000       1.00800           0
     70399 TIP3     15985    TIP3     OH2      OT      -0.834000       15.9994           0
     70400 TIP3     15985    TIP3     H1       HT       0.417000       1.00800           0
     70401 TIP3     15985    TIP3     H2       HT       0.417000       1.00800           0
     70402 TIP3     15986    TIP3     OH2      OT      -0.834000       15.9994           0
     70403 TIP3     15986    TIP3     H1       HT       0.417000       1.00800           0
     70404 TIP3     15986    TIP3     H2       HT       0.417000       1.00800           0
     70405 TIP3     15987    TIP3     OH2      OT      -0.834000       15.9994           0
     70406 TIP3     15987    TIP3     H1       HT       0.417000       1.00800           0
     70407 TIP3     15987    TIP3     H2       HT       0.417000       1.00800           0
     70408 TIP3     15988    TIP3     OH2      OT      -0.834000       15.9994           0
     70409 TIP3     15988    TIP3     H1       HT       0.417000       1.00800           0
     70410 TIP3     15988    TIP3     H2       HT       0.417000       1.00800           0
     70411 TIP3     15989    TIP3     OH2      OT      -0.834000       15.9994           0
     70412 TIP3     15989    TIP3     H1       HT       0.417000       1.00800           0
     70413 TIP3     15989    TIP3     H2       HT       0.417000       1.00800           0
     70414 TIP3     15990    TIP3     OH2      OT      -0.834000       15.9994           0
     70415 TIP3     15990    TIP3     H1       HT       0.417000       1.00800           0
     70416 TIP3     15990    TIP3     H2       HT       0.417000       1.00800           0
     70417 TIP3     15991    TIP3     OH2      OT      -0.834000       15.9994           0
     70418 TIP3     15991    TIP3     H1       HT       0.417000       1.00800           0
     70419 TIP3     15991    TIP3     H2       HT       0.417000       1.00800           0
     70420 TIP3     15992    TIP3     OH2      OT      -0.834000       15.9994           0
     70421 TIP3     15992    TIP3     H1       HT       0.417000       1.00800           0
     70422 TIP3     15992    TIP3     H2       HT       0.417000       1.00800           0
     70423 TIP3     15993    TIP3     OH2      OT      -0.834000       15.9994           0
     70424 TIP3     15993    TIP3     H1       HT       0.417000       1.00800           0
     70425 TIP3     15993    TIP3     H2       HT       0.417000       1.00800           0
     70426 TIP3     15994    TIP3     OH2      OT      -0.834000       15.9994           0
     70427 TIP3     15994    TIP3     H1       HT       0.417000       1.00800           0
     70428 TIP3     15994    TIP3     H2       HT       0.417000       1.00800           0
     70429 TIP3     15995    TIP3     OH2      OT      -0.834000       15.9994           0
     70430 TIP3     15995    TIP3     H1       HT       0.417000       1.00800           0
     70431 TIP3     15995    TIP3     H2       HT       0.417000       1.00800           0
     70432 TIP3     15996    TIP3     OH2      OT      -0.834000       15.9994           0
     70433 TIP3     15996    TIP3     H1       HT       0.417000       1.00800           0
     70434 TIP3     15996    TIP3     H2       HT       0.417000       1.00800           0
     70435 TIP3     15997    TIP3     OH2      OT      -0.834000       15.9994           0
     70436 TIP3     15997    TIP3     H1       HT       0.417000       1.00800           0
     70437 TIP3     15997    TIP3     H2       HT       0.417000       1.00800           0
     70438 TIP3     15998    TIP3     OH2      OT      -0.834000       15.9994           0
     70439 TIP3     15998    TIP3     H1       HT       0.417000       1.00800           0
     70440 TIP3     15998    TIP3     H2       HT       0.417000       1.00800           0
     70441 TIP3     15999    TIP3     OH2      OT      -0.834000       15.9994           0
     70442 TIP3     15999    TIP3     H1       HT       0.417000       1.00800           0
     70443 TIP3     15999    TIP3     H2       HT       0.417000       1.00800           0
     70444 TIP3     16000    TIP3     OH2      OT      -0.834000       15.9994           0
     70445 TIP3     16000    TIP3     H1       HT       0.417000       1.00800           0
     70446 TIP3     16000    TIP3     H2       HT       0.417000       1.00800           0
     70447 TIP3     16001    TIP3     OH2      OT      -0.834000       15.9994           0
     70448 TIP3     16001    TIP3     H1       HT       0.417000       1.00800           0
     70449 TIP3     16001    TIP3     H2       HT       0.417000       1.00800           0
     70450 TIP3     16002    TIP3     OH2      OT      -0.834000       15.9994           0
     70451 TIP3     16002    TIP3     H1       HT       0.417000       1.00800           0
     70452 TIP3     16002    TIP3     H2       HT       0.417000       1.00800           0
     70453 TIP3     16003    TIP3     OH2      OT      -0.834000       15.9994           0
     70454 TIP3     16003    TIP3     H1       HT       0.417000       1.00800           0
     70455 TIP3     16003    TIP3     H2       HT       0.417000       1.00800           0
     70456 TIP3     16004    TIP3     OH2      OT      -0.834000       15.9994           0
     70457 TIP3     16004    TIP3     H1       HT       0.417000       1.00800           0
     70458 TIP3     16004    TIP3     H2       HT       0.417000       1.00800           0
     70459 TIP3     16005    TIP3     OH2      OT      -0.834000       15.9994           0
     70460 TIP3     16005    TIP3     H1       HT       0.417000       1.00800           0
     70461 TIP3     16005    TIP3     H2       HT       0.417000       1.00800           0
     70462 TIP3     16006    TIP3     OH2      OT      -0.834000       15.9994           0
     70463 TIP3     16006    TIP3     H1       HT       0.417000       1.00800           0
     70464 TIP3     16006    TIP3     H2       HT       0.417000       1.00800           0
     70465 TIP3     16007    TIP3     OH2      OT      -0.834000       15.9994           0
     70466 TIP3     16007    TIP3     H1       HT       0.417000       1.00800           0
     70467 TIP3     16007    TIP3     H2       HT       0.417000       1.00800           0
     70468 TIP3     16008    TIP3     OH2      OT      -0.834000       15.9994           0
     70469 TIP3     16008    TIP3     H1       HT       0.417000       1.00800           0
     70470 TIP3     16008    TIP3     H2       HT       0.417000       1.00800           0
     70471 TIP3     16009    TIP3     OH2      OT      -0.834000       15.9994           0
     70472 TIP3     16009    TIP3     H1       HT       0.417000       1.00800           0
     70473 TIP3     16009    TIP3     H2       HT       0.417000       1.00800           0
     70474 TIP3     16010    TIP3     OH2      OT      -0.834000       15.9994           0
     70475 TIP3     16010    TIP3     H1       HT       0.417000       1.00800           0
     70476 TIP3     16010    TIP3     H2       HT       0.417000       1.00800           0
     70477 TIP3     16011    TIP3     OH2      OT      -0.834000       15.9994           0
     70478 TIP3     16011    TIP3     H1       HT       0.417000       1.00800           0
     70479 TIP3     16011    TIP3     H2       HT       0.417000       1.00800           0
     70480 TIP3     16012    TIP3     OH2      OT      -0.834000       15.9994           0
     70481 TIP3     16012    TIP3     H1       HT       0.417000       1.00800           0
     70482 TIP3     16012    TIP3     H2       HT       0.417000       1.00800           0
     70483 TIP3     16013    TIP3     OH2      OT      -0.834000       15.9994           0
     70484 TIP3     16013    TIP3     H1       HT       0.417000       1.00800           0
     70485 TIP3     16013    TIP3     H2       HT       0.417000       1.00800           0
     70486 TIP3     16014    TIP3     OH2      OT      -0.834000       15.9994           0
     70487 TIP3     16014    TIP3     H1       HT       0.417000       1.00800           0
     70488 TIP3     16014    TIP3     H2       HT       0.417000       1.00800           0
     70489 TIP3     16015    TIP3     OH2      OT      -0.834000       15.9994           0
     70490 TIP3     16015    TIP3     H1       HT       0.417000       1.00800           0
     70491 TIP3     16015    TIP3     H2       HT       0.417000       1.00800           0
     70492 TIP3     16016    TIP3     OH2      OT      -0.834000       15.9994           0
     70493 TIP3     16016    TIP3     H1       HT       0.417000       1.00800           0
     70494 TIP3     16016    TIP3     H2       HT       0.417000       1.00800           0
     70495 TIP3     16017    TIP3     OH2      OT      -0.834000       15.9994           0
     70496 TIP3     16017    TIP3     H1       HT       0.417000       1.00800           0
     70497 TIP3     16017    TIP3     H2       HT       0.417000       1.00800           0
     70498 TIP3     16018    TIP3     OH2      OT      -0.834000       15.9994           0
     70499 TIP3     16018    TIP3     H1       HT       0.417000       1.00800           0
     70500 TIP3     16018    TIP3     H2       HT       0.417000       1.00800           0
     70501 TIP3     16019    TIP3     OH2      OT      -0.834000       15.9994           0
     70502 TIP3     16019    TIP3     H1       HT       0.417000       1.00800           0
     70503 TIP3     16019    TIP3     H2       HT       0.417000       1.00800           0
     70504 TIP3     16020    TIP3     OH2      OT      -0.834000       15.9994           0
     70505 TIP3     16020    TIP3     H1       HT       0.417000       1.00800           0
     70506 TIP3     16020    TIP3     H2       HT       0.417000       1.00800           0
     70507 TIP3     16021    TIP3     OH2      OT      -0.834000       15.9994           0
     70508 TIP3     16021    TIP3     H1       HT       0.417000       1.00800           0
     70509 TIP3     16021    TIP3     H2       HT       0.417000       1.00800           0
     70510 TIP3     16022    TIP3     OH2      OT      -0.834000       15.9994           0
     70511 TIP3     16022    TIP3     H1       HT       0.417000       1.00800           0
     70512 TIP3     16022    TIP3     H2       HT       0.417000       1.00800           0
     70513 TIP3     16023    TIP3     OH2      OT      -0.834000       15.9994           0
     70514 TIP3     16023    TIP3     H1       HT       0.417000       1.00800           0
     70515 TIP3     16023    TIP3     H2       HT       0.417000       1.00800           0
     70516 TIP3     16024    TIP3     OH2      OT      -0.834000       15.9994           0
     70517 TIP3     16024    TIP3     H1       HT       0.417000       1.00800           0
     70518 TIP3     16024    TIP3     H2       HT       0.417000       1.00800           0
     70519 TIP3     16025    TIP3     OH2      OT      -0.834000       15.9994           0
     70520 TIP3     16025    TIP3     H1       HT       0.417000       1.00800           0
     70521 TIP3     16025    TIP3     H2       HT       0.417000       1.00800           0
     70522 TIP3     16026    TIP3     OH2      OT      -0.834000       15.9994           0
     70523 TIP3     16026    TIP3     H1       HT       0.417000       1.00800           0
     70524 TIP3     16026    TIP3     H2       HT       0.417000       1.00800           0
     70525 TIP3     16027    TIP3     OH2      OT      -0.834000       15.9994           0
     70526 TIP3     16027    TIP3     H1       HT       0.417000       1.00800           0
     70527 TIP3     16027    TIP3     H2       HT       0.417000       1.00800           0
     70528 TIP3     16028    TIP3     OH2      OT      -0.834000       15.9994           0
     70529 TIP3     16028    TIP3     H1       HT       0.417000       1.00800           0
     70530 TIP3     16028    TIP3     H2       HT       0.417000       1.00800           0
     70531 TIP3     16029    TIP3     OH2      OT      -0.834000       15.9994           0
     70532 TIP3     16029    TIP3     H1       HT       0.417000       1.00800           0
     70533 TIP3     16029    TIP3     H2       HT       0.417000       1.00800           0
     70534 TIP3     16030    TIP3     OH2      OT      -0.834000       15.9994           0
     70535 TIP3     16030    TIP3     H1       HT       0.417000       1.00800           0
     70536 TIP3     16030    TIP3     H2       HT       0.417000       1.00800           0
     70537 TIP3     16031    TIP3     OH2      OT      -0.834000       15.9994           0
     70538 TIP3     16031    TIP3     H1       HT       0.417000       1.00800           0
     70539 TIP3     16031    TIP3     H2       HT       0.417000       1.00800           0
     70540 TIP3     16032    TIP3     OH2      OT      -0.834000       15.9994           0
     70541 TIP3     16032    TIP3     H1       HT       0.417000       1.00800           0
     70542 TIP3     16032    TIP3     H2       HT       0.417000       1.00800           0
     70543 TIP3     16033    TIP3     OH2      OT      -0.834000       15.9994           0
     70544 TIP3     16033    TIP3     H1       HT       0.417000       1.00800           0
     70545 TIP3     16033    TIP3     H2       HT       0.417000       1.00800           0
     70546 TIP3     16034    TIP3     OH2      OT      -0.834000       15.9994           0
     70547 TIP3     16034    TIP3     H1       HT       0.417000       1.00800           0
     70548 TIP3     16034    TIP3     H2       HT       0.417000       1.00800           0
     70549 TIP3     16035    TIP3     OH2      OT      -0.834000       15.9994           0
     70550 TIP3     16035    TIP3     H1       HT       0.417000       1.00800           0
     70551 TIP3     16035    TIP3     H2       HT       0.417000       1.00800           0
     70552 TIP3     16036    TIP3     OH2      OT      -0.834000       15.9994           0
     70553 TIP3     16036    TIP3     H1       HT       0.417000       1.00800           0
     70554 TIP3     16036    TIP3     H2       HT       0.417000       1.00800           0
     70555 TIP3     16037    TIP3     OH2      OT      -0.834000       15.9994           0
     70556 TIP3     16037    TIP3     H1       HT       0.417000       1.00800           0
     70557 TIP3     16037    TIP3     H2       HT       0.417000       1.00800           0
     70558 TIP3     16038    TIP3     OH2      OT      -0.834000       15.9994           0
     70559 TIP3     16038    TIP3     H1       HT       0.417000       1.00800           0
     70560 TIP3     16038    TIP3     H2       HT       0.417000       1.00800           0
     70561 TIP3     16039    TIP3     OH2      OT      -0.834000       15.9994           0
     70562 TIP3     16039    TIP3     H1       HT       0.417000       1.00800           0
     70563 TIP3     16039    TIP3     H2       HT       0.417000       1.00800           0
     70564 TIP3     16040    TIP3     OH2      OT      -0.834000       15.9994           0
     70565 TIP3     16040    TIP3     H1       HT       0.417000       1.00800           0
     70566 TIP3     16040    TIP3     H2       HT       0.417000       1.00800           0
     70567 TIP3     16041    TIP3     OH2      OT      -0.834000       15.9994           0
     70568 TIP3     16041    TIP3     H1       HT       0.417000       1.00800           0
     70569 TIP3     16041    TIP3     H2       HT       0.417000       1.00800           0
     70570 TIP3     16042    TIP3     OH2      OT      -0.834000       15.9994           0
     70571 TIP3     16042    TIP3     H1       HT       0.417000       1.00800           0
     70572 TIP3     16042    TIP3     H2       HT       0.417000       1.00800           0
     70573 TIP3     16043    TIP3     OH2      OT      -0.834000       15.9994           0
     70574 TIP3     16043    TIP3     H1       HT       0.417000       1.00800           0
     70575 TIP3     16043    TIP3     H2       HT       0.417000       1.00800           0
     70576 TIP3     16044    TIP3     OH2      OT      -0.834000       15.9994           0
     70577 TIP3     16044    TIP3     H1       HT       0.417000       1.00800           0
     70578 TIP3     16044    TIP3     H2       HT       0.417000       1.00800           0
     70579 TIP3     16045    TIP3     OH2      OT      -0.834000       15.9994           0
     70580 TIP3     16045    TIP3     H1       HT       0.417000       1.00800           0
     70581 TIP3     16045    TIP3     H2       HT       0.417000       1.00800           0
     70582 TIP3     16046    TIP3     OH2      OT      -0.834000       15.9994           0
     70583 TIP3     16046    TIP3     H1       HT       0.417000       1.00800           0
     70584 TIP3     16046    TIP3     H2       HT       0.417000       1.00800           0
     70585 TIP3     16047    TIP3     OH2      OT      -0.834000       15.9994           0
     70586 TIP3     16047    TIP3     H1       HT       0.417000       1.00800           0
     70587 TIP3     16047    TIP3     H2       HT       0.417000       1.00800           0
     70588 TIP3     16048    TIP3     OH2      OT      -0.834000       15.9994           0
     70589 TIP3     16048    TIP3     H1       HT       0.417000       1.00800           0
     70590 TIP3     16048    TIP3     H2       HT       0.417000       1.00800           0
     70591 TIP3     16049    TIP3     OH2      OT      -0.834000       15.9994           0
     70592 TIP3     16049    TIP3     H1       HT       0.417000       1.00800           0
     70593 TIP3     16049    TIP3     H2       HT       0.417000       1.00800           0
     70594 TIP3     16050    TIP3     OH2      OT      -0.834000       15.9994           0
     70595 TIP3     16050    TIP3     H1       HT       0.417000       1.00800           0
     70596 TIP3     16050    TIP3     H2       HT       0.417000       1.00800           0
     70597 TIP3     16051    TIP3     OH2      OT      -0.834000       15.9994           0
     70598 TIP3     16051    TIP3     H1       HT       0.417000       1.00800           0
     70599 TIP3     16051    TIP3     H2       HT       0.417000       1.00800           0
     70600 TIP3     16052    TIP3     OH2      OT      -0.834000       15.9994           0
     70601 TIP3     16052    TIP3     H1       HT       0.417000       1.00800           0
     70602 TIP3     16052    TIP3     H2       HT       0.417000       1.00800           0
     70603 TIP3     16053    TIP3     OH2      OT      -0.834000       15.9994           0
     70604 TIP3     16053    TIP3     H1       HT       0.417000       1.00800           0
     70605 TIP3     16053    TIP3     H2       HT       0.417000       1.00800           0
     70606 TIP3     16054    TIP3     OH2      OT      -0.834000       15.9994           0
     70607 TIP3     16054    TIP3     H1       HT       0.417000       1.00800           0
     70608 TIP3     16054    TIP3     H2       HT       0.417000       1.00800           0
     70609 TIP3     16055    TIP3     OH2      OT      -0.834000       15.9994           0
     70610 TIP3     16055    TIP3     H1       HT       0.417000       1.00800           0
     70611 TIP3     16055    TIP3     H2       HT       0.417000       1.00800           0
     70612 TIP3     16056    TIP3     OH2      OT      -0.834000       15.9994           0
     70613 TIP3     16056    TIP3     H1       HT       0.417000       1.00800           0
     70614 TIP3     16056    TIP3     H2       HT       0.417000       1.00800           0
     70615 TIP3     16057    TIP3     OH2      OT      -0.834000       15.9994           0
     70616 TIP3     16057    TIP3     H1       HT       0.417000       1.00800           0
     70617 TIP3     16057    TIP3     H2       HT       0.417000       1.00800           0
     70618 TIP3     16058    TIP3     OH2      OT      -0.834000       15.9994           0
     70619 TIP3     16058    TIP3     H1       HT       0.417000       1.00800           0
     70620 TIP3     16058    TIP3     H2       HT       0.417000       1.00800           0
     70621 TIP3     16059    TIP3     OH2      OT      -0.834000       15.9994           0
     70622 TIP3     16059    TIP3     H1       HT       0.417000       1.00800           0
     70623 TIP3     16059    TIP3     H2       HT       0.417000       1.00800           0
     70624 TIP3     16060    TIP3     OH2      OT      -0.834000       15.9994           0
     70625 TIP3     16060    TIP3     H1       HT       0.417000       1.00800           0
     70626 TIP3     16060    TIP3     H2       HT       0.417000       1.00800           0
     70627 TIP3     16061    TIP3     OH2      OT      -0.834000       15.9994           0
     70628 TIP3     16061    TIP3     H1       HT       0.417000       1.00800           0
     70629 TIP3     16061    TIP3     H2       HT       0.417000       1.00800           0
     70630 TIP3     16062    TIP3     OH2      OT      -0.834000       15.9994           0
     70631 TIP3     16062    TIP3     H1       HT       0.417000       1.00800           0
     70632 TIP3     16062    TIP3     H2       HT       0.417000       1.00800           0
     70633 TIP3     16063    TIP3     OH2      OT      -0.834000       15.9994           0
     70634 TIP3     16063    TIP3     H1       HT       0.417000       1.00800           0
     70635 TIP3     16063    TIP3     H2       HT       0.417000       1.00800           0
     70636 TIP3     16064    TIP3     OH2      OT      -0.834000       15.9994           0
     70637 TIP3     16064    TIP3     H1       HT       0.417000       1.00800           0
     70638 TIP3     16064    TIP3     H2       HT       0.417000       1.00800           0
     70639 TIP3     16065    TIP3     OH2      OT      -0.834000       15.9994           0
     70640 TIP3     16065    TIP3     H1       HT       0.417000       1.00800           0
     70641 TIP3     16065    TIP3     H2       HT       0.417000       1.00800           0
     70642 TIP3     16066    TIP3     OH2      OT      -0.834000       15.9994           0
     70643 TIP3     16066    TIP3     H1       HT       0.417000       1.00800           0
     70644 TIP3     16066    TIP3     H2       HT       0.417000       1.00800           0
     70645 TIP3     16067    TIP3     OH2      OT      -0.834000       15.9994           0
     70646 TIP3     16067    TIP3     H1       HT       0.417000       1.00800           0
     70647 TIP3     16067    TIP3     H2       HT       0.417000       1.00800           0
     70648 TIP3     16068    TIP3     OH2      OT      -0.834000       15.9994           0
     70649 TIP3     16068    TIP3     H1       HT       0.417000       1.00800           0
     70650 TIP3     16068    TIP3     H2       HT       0.417000       1.00800           0
     70651 TIP3     16069    TIP3     OH2      OT      -0.834000       15.9994           0
     70652 TIP3     16069    TIP3     H1       HT       0.417000       1.00800           0
     70653 TIP3     16069    TIP3     H2       HT       0.417000       1.00800           0
     70654 TIP3     16070    TIP3     OH2      OT      -0.834000       15.9994           0
     70655 TIP3     16070    TIP3     H1       HT       0.417000       1.00800           0
     70656 TIP3     16070    TIP3     H2       HT       0.417000       1.00800           0
     70657 TIP3     16071    TIP3     OH2      OT      -0.834000       15.9994           0
     70658 TIP3     16071    TIP3     H1       HT       0.417000       1.00800           0
     70659 TIP3     16071    TIP3     H2       HT       0.417000       1.00800           0
     70660 TIP3     16072    TIP3     OH2      OT      -0.834000       15.9994           0
     70661 TIP3     16072    TIP3     H1       HT       0.417000       1.00800           0
     70662 TIP3     16072    TIP3     H2       HT       0.417000       1.00800           0
     70663 TIP3     16073    TIP3     OH2      OT      -0.834000       15.9994           0
     70664 TIP3     16073    TIP3     H1       HT       0.417000       1.00800           0
     70665 TIP3     16073    TIP3     H2       HT       0.417000       1.00800           0
     70666 TIP3     16074    TIP3     OH2      OT      -0.834000       15.9994           0
     70667 TIP3     16074    TIP3     H1       HT       0.417000       1.00800           0
     70668 TIP3     16074    TIP3     H2       HT       0.417000       1.00800           0
     70669 TIP3     16075    TIP3     OH2      OT      -0.834000       15.9994           0
     70670 TIP3     16075    TIP3     H1       HT       0.417000       1.00800           0
     70671 TIP3     16075    TIP3     H2       HT       0.417000       1.00800           0
     70672 TIP3     16076    TIP3     OH2      OT      -0.834000       15.9994           0
     70673 TIP3     16076    TIP3     H1       HT       0.417000       1.00800           0
     70674 TIP3     16076    TIP3     H2       HT       0.417000       1.00800           0
     70675 TIP3     16077    TIP3     OH2      OT      -0.834000       15.9994           0
     70676 TIP3     16077    TIP3     H1       HT       0.417000       1.00800           0
     70677 TIP3     16077    TIP3     H2       HT       0.417000       1.00800           0
     70678 TIP3     16078    TIP3     OH2      OT      -0.834000       15.9994           0
     70679 TIP3     16078    TIP3     H1       HT       0.417000       1.00800           0
     70680 TIP3     16078    TIP3     H2       HT       0.417000       1.00800           0
     70681 TIP3     16079    TIP3     OH2      OT      -0.834000       15.9994           0
     70682 TIP3     16079    TIP3     H1       HT       0.417000       1.00800           0
     70683 TIP3     16079    TIP3     H2       HT       0.417000       1.00800           0
     70684 TIP3     16080    TIP3     OH2      OT      -0.834000       15.9994           0
     70685 TIP3     16080    TIP3     H1       HT       0.417000       1.00800           0
     70686 TIP3     16080    TIP3     H2       HT       0.417000       1.00800           0
     70687 TIP3     16081    TIP3     OH2      OT      -0.834000       15.9994           0
     70688 TIP3     16081    TIP3     H1       HT       0.417000       1.00800           0
     70689 TIP3     16081    TIP3     H2       HT       0.417000       1.00800           0
     70690 TIP3     16082    TIP3     OH2      OT      -0.834000       15.9994           0
     70691 TIP3     16082    TIP3     H1       HT       0.417000       1.00800           0
     70692 TIP3     16082    TIP3     H2       HT       0.417000       1.00800           0
     70693 TIP3     16083    TIP3     OH2      OT      -0.834000       15.9994           0
     70694 TIP3     16083    TIP3     H1       HT       0.417000       1.00800           0
     70695 TIP3     16083    TIP3     H2       HT       0.417000       1.00800           0
     70696 TIP3     16084    TIP3     OH2      OT      -0.834000       15.9994           0
     70697 TIP3     16084    TIP3     H1       HT       0.417000       1.00800           0
     70698 TIP3     16084    TIP3     H2       HT       0.417000       1.00800           0
     70699 TIP3     16085    TIP3     OH2      OT      -0.834000       15.9994           0
     70700 TIP3     16085    TIP3     H1       HT       0.417000       1.00800           0
     70701 TIP3     16085    TIP3     H2       HT       0.417000       1.00800           0
     70702 TIP3     16086    TIP3     OH2      OT      -0.834000       15.9994           0
     70703 TIP3     16086    TIP3     H1       HT       0.417000       1.00800           0
     70704 TIP3     16086    TIP3     H2       HT       0.417000       1.00800           0
     70705 TIP3     16087    TIP3     OH2      OT      -0.834000       15.9994           0
     70706 TIP3     16087    TIP3     H1       HT       0.417000       1.00800           0
     70707 TIP3     16087    TIP3     H2       HT       0.417000       1.00800           0
     70708 TIP3     16088    TIP3     OH2      OT      -0.834000       15.9994           0
     70709 TIP3     16088    TIP3     H1       HT       0.417000       1.00800           0
     70710 TIP3     16088    TIP3     H2       HT       0.417000       1.00800           0
     70711 TIP3     16089    TIP3     OH2      OT      -0.834000       15.9994           0
     70712 TIP3     16089    TIP3     H1       HT       0.417000       1.00800           0
     70713 TIP3     16089    TIP3     H2       HT       0.417000       1.00800           0
     70714 TIP3     16090    TIP3     OH2      OT      -0.834000       15.9994           0
     70715 TIP3     16090    TIP3     H1       HT       0.417000       1.00800           0
     70716 TIP3     16090    TIP3     H2       HT       0.417000       1.00800           0
     70717 TIP3     16091    TIP3     OH2      OT      -0.834000       15.9994           0
     70718 TIP3     16091    TIP3     H1       HT       0.417000       1.00800           0
     70719 TIP3     16091    TIP3     H2       HT       0.417000       1.00800           0
     70720 TIP3     16092    TIP3     OH2      OT      -0.834000       15.9994           0
     70721 TIP3     16092    TIP3     H1       HT       0.417000       1.00800           0
     70722 TIP3     16092    TIP3     H2       HT       0.417000       1.00800           0
     70723 TIP3     16093    TIP3     OH2      OT      -0.834000       15.9994           0
     70724 TIP3     16093    TIP3     H1       HT       0.417000       1.00800           0
     70725 TIP3     16093    TIP3     H2       HT       0.417000       1.00800           0
     70726 TIP3     16094    TIP3     OH2      OT      -0.834000       15.9994           0
     70727 TIP3     16094    TIP3     H1       HT       0.417000       1.00800           0
     70728 TIP3     16094    TIP3     H2       HT       0.417000       1.00800           0
     70729 TIP3     16095    TIP3     OH2      OT      -0.834000       15.9994           0
     70730 TIP3     16095    TIP3     H1       HT       0.417000       1.00800           0
     70731 TIP3     16095    TIP3     H2       HT       0.417000       1.00800           0
     70732 TIP3     16096    TIP3     OH2      OT      -0.834000       15.9994           0
     70733 TIP3     16096    TIP3     H1       HT       0.417000       1.00800           0
     70734 TIP3     16096    TIP3     H2       HT       0.417000       1.00800           0
     70735 TIP3     16097    TIP3     OH2      OT      -0.834000       15.9994           0
     70736 TIP3     16097    TIP3     H1       HT       0.417000       1.00800           0
     70737 TIP3     16097    TIP3     H2       HT       0.417000       1.00800           0
     70738 TIP3     16098    TIP3     OH2      OT      -0.834000       15.9994           0
     70739 TIP3     16098    TIP3     H1       HT       0.417000       1.00800           0
     70740 TIP3     16098    TIP3     H2       HT       0.417000       1.00800           0
     70741 TIP3     16099    TIP3     OH2      OT      -0.834000       15.9994           0
     70742 TIP3     16099    TIP3     H1       HT       0.417000       1.00800           0
     70743 TIP3     16099    TIP3     H2       HT       0.417000       1.00800           0
     70744 TIP3     16100    TIP3     OH2      OT      -0.834000       15.9994           0
     70745 TIP3     16100    TIP3     H1       HT       0.417000       1.00800           0
     70746 TIP3     16100    TIP3     H2       HT       0.417000       1.00800           0
     70747 TIP3     16101    TIP3     OH2      OT      -0.834000       15.9994           0
     70748 TIP3     16101    TIP3     H1       HT       0.417000       1.00800           0
     70749 TIP3     16101    TIP3     H2       HT       0.417000       1.00800           0
     70750 TIP3     16102    TIP3     OH2      OT      -0.834000       15.9994           0
     70751 TIP3     16102    TIP3     H1       HT       0.417000       1.00800           0
     70752 TIP3     16102    TIP3     H2       HT       0.417000       1.00800           0
     70753 TIP3     16103    TIP3     OH2      OT      -0.834000       15.9994           0
     70754 TIP3     16103    TIP3     H1       HT       0.417000       1.00800           0
     70755 TIP3     16103    TIP3     H2       HT       0.417000       1.00800           0
     70756 TIP3     16104    TIP3     OH2      OT      -0.834000       15.9994           0
     70757 TIP3     16104    TIP3     H1       HT       0.417000       1.00800           0
     70758 TIP3     16104    TIP3     H2       HT       0.417000       1.00800           0
     70759 TIP3     16105    TIP3     OH2      OT      -0.834000       15.9994           0
     70760 TIP3     16105    TIP3     H1       HT       0.417000       1.00800           0
     70761 TIP3     16105    TIP3     H2       HT       0.417000       1.00800           0
     70762 TIP3     16106    TIP3     OH2      OT      -0.834000       15.9994           0
     70763 TIP3     16106    TIP3     H1       HT       0.417000       1.00800           0
     70764 TIP3     16106    TIP3     H2       HT       0.417000       1.00800           0
     70765 TIP3     16107    TIP3     OH2      OT      -0.834000       15.9994           0
     70766 TIP3     16107    TIP3     H1       HT       0.417000       1.00800           0
     70767 TIP3     16107    TIP3     H2       HT       0.417000       1.00800           0
     70768 TIP3     16108    TIP3     OH2      OT      -0.834000       15.9994           0
     70769 TIP3     16108    TIP3     H1       HT       0.417000       1.00800           0
     70770 TIP3     16108    TIP3     H2       HT       0.417000       1.00800           0
     70771 TIP3     16109    TIP3     OH2      OT      -0.834000       15.9994           0
     70772 TIP3     16109    TIP3     H1       HT       0.417000       1.00800           0
     70773 TIP3     16109    TIP3     H2       HT       0.417000       1.00800           0
     70774 TIP3     16110    TIP3     OH2      OT      -0.834000       15.9994           0
     70775 TIP3     16110    TIP3     H1       HT       0.417000       1.00800           0
     70776 TIP3     16110    TIP3     H2       HT       0.417000       1.00800           0
     70777 TIP3     16111    TIP3     OH2      OT      -0.834000       15.9994           0
     70778 TIP3     16111    TIP3     H1       HT       0.417000       1.00800           0
     70779 TIP3     16111    TIP3     H2       HT       0.417000       1.00800           0
     70780 TIP3     16112    TIP3     OH2      OT      -0.834000       15.9994           0
     70781 TIP3     16112    TIP3     H1       HT       0.417000       1.00800           0
     70782 TIP3     16112    TIP3     H2       HT       0.417000       1.00800           0
     70783 TIP3     16113    TIP3     OH2      OT      -0.834000       15.9994           0
     70784 TIP3     16113    TIP3     H1       HT       0.417000       1.00800           0
     70785 TIP3     16113    TIP3     H2       HT       0.417000       1.00800           0
     70786 TIP3     16114    TIP3     OH2      OT      -0.834000       15.9994           0
     70787 TIP3     16114    TIP3     H1       HT       0.417000       1.00800           0
     70788 TIP3     16114    TIP3     H2       HT       0.417000       1.00800           0
     70789 TIP3     16115    TIP3     OH2      OT      -0.834000       15.9994           0
     70790 TIP3     16115    TIP3     H1       HT       0.417000       1.00800           0
     70791 TIP3     16115    TIP3     H2       HT       0.417000       1.00800           0
     70792 TIP3     16116    TIP3     OH2      OT      -0.834000       15.9994           0
     70793 TIP3     16116    TIP3     H1       HT       0.417000       1.00800           0
     70794 TIP3     16116    TIP3     H2       HT       0.417000       1.00800           0
     70795 TIP3     16117    TIP3     OH2      OT      -0.834000       15.9994           0
     70796 TIP3     16117    TIP3     H1       HT       0.417000       1.00800           0
     70797 TIP3     16117    TIP3     H2       HT       0.417000       1.00800           0
     70798 TIP3     16118    TIP3     OH2      OT      -0.834000       15.9994           0
     70799 TIP3     16118    TIP3     H1       HT       0.417000       1.00800           0
     70800 TIP3     16118    TIP3     H2       HT       0.417000       1.00800           0
     70801 TIP3     16119    TIP3     OH2      OT      -0.834000       15.9994           0
     70802 TIP3     16119    TIP3     H1       HT       0.417000       1.00800           0
     70803 TIP3     16119    TIP3     H2       HT       0.417000       1.00800           0
     70804 TIP3     16120    TIP3     OH2      OT      -0.834000       15.9994           0
     70805 TIP3     16120    TIP3     H1       HT       0.417000       1.00800           0
     70806 TIP3     16120    TIP3     H2       HT       0.417000       1.00800           0
     70807 TIP3     16121    TIP3     OH2      OT      -0.834000       15.9994           0
     70808 TIP3     16121    TIP3     H1       HT       0.417000       1.00800           0
     70809 TIP3     16121    TIP3     H2       HT       0.417000       1.00800           0
     70810 TIP3     16122    TIP3     OH2      OT      -0.834000       15.9994           0
     70811 TIP3     16122    TIP3     H1       HT       0.417000       1.00800           0
     70812 TIP3     16122    TIP3     H2       HT       0.417000       1.00800           0
     70813 TIP3     16123    TIP3     OH2      OT      -0.834000       15.9994           0
     70814 TIP3     16123    TIP3     H1       HT       0.417000       1.00800           0
     70815 TIP3     16123    TIP3     H2       HT       0.417000       1.00800           0
     70816 TIP3     16124    TIP3     OH2      OT      -0.834000       15.9994           0
     70817 TIP3     16124    TIP3     H1       HT       0.417000       1.00800           0
     70818 TIP3     16124    TIP3     H2       HT       0.417000       1.00800           0
     70819 TIP3     16125    TIP3     OH2      OT      -0.834000       15.9994           0
     70820 TIP3     16125    TIP3     H1       HT       0.417000       1.00800           0
     70821 TIP3     16125    TIP3     H2       HT       0.417000       1.00800           0
     70822 TIP3     16126    TIP3     OH2      OT      -0.834000       15.9994           0
     70823 TIP3     16126    TIP3     H1       HT       0.417000       1.00800           0
     70824 TIP3     16126    TIP3     H2       HT       0.417000       1.00800           0
     70825 TIP3     16127    TIP3     OH2      OT      -0.834000       15.9994           0
     70826 TIP3     16127    TIP3     H1       HT       0.417000       1.00800           0
     70827 TIP3     16127    TIP3     H2       HT       0.417000       1.00800           0
     70828 TIP3     16128    TIP3     OH2      OT      -0.834000       15.9994           0
     70829 TIP3     16128    TIP3     H1       HT       0.417000       1.00800           0
     70830 TIP3     16128    TIP3     H2       HT       0.417000       1.00800           0
     70831 TIP3     16129    TIP3     OH2      OT      -0.834000       15.9994           0
     70832 TIP3     16129    TIP3     H1       HT       0.417000       1.00800           0
     70833 TIP3     16129    TIP3     H2       HT       0.417000       1.00800           0
     70834 TIP3     16130    TIP3     OH2      OT      -0.834000       15.9994           0
     70835 TIP3     16130    TIP3     H1       HT       0.417000       1.00800           0
     70836 TIP3     16130    TIP3     H2       HT       0.417000       1.00800           0
     70837 TIP3     16131    TIP3     OH2      OT      -0.834000       15.9994           0
     70838 TIP3     16131    TIP3     H1       HT       0.417000       1.00800           0
     70839 TIP3     16131    TIP3     H2       HT       0.417000       1.00800           0
     70840 TIP3     16132    TIP3     OH2      OT      -0.834000       15.9994           0
     70841 TIP3     16132    TIP3     H1       HT       0.417000       1.00800           0
     70842 TIP3     16132    TIP3     H2       HT       0.417000       1.00800           0
     70843 TIP3     16133    TIP3     OH2      OT      -0.834000       15.9994           0
     70844 TIP3     16133    TIP3     H1       HT       0.417000       1.00800           0
     70845 TIP3     16133    TIP3     H2       HT       0.417000       1.00800           0
     70846 TIP3     16134    TIP3     OH2      OT      -0.834000       15.9994           0
     70847 TIP3     16134    TIP3     H1       HT       0.417000       1.00800           0
     70848 TIP3     16134    TIP3     H2       HT       0.417000       1.00800           0
     70849 TIP3     16135    TIP3     OH2      OT      -0.834000       15.9994           0
     70850 TIP3     16135    TIP3     H1       HT       0.417000       1.00800           0
     70851 TIP3     16135    TIP3     H2       HT       0.417000       1.00800           0
     70852 TIP3     16136    TIP3     OH2      OT      -0.834000       15.9994           0
     70853 TIP3     16136    TIP3     H1       HT       0.417000       1.00800           0
     70854 TIP3     16136    TIP3     H2       HT       0.417000       1.00800           0
     70855 TIP3     16137    TIP3     OH2      OT      -0.834000       15.9994           0
     70856 TIP3     16137    TIP3     H1       HT       0.417000       1.00800           0
     70857 TIP3     16137    TIP3     H2       HT       0.417000       1.00800           0
     70858 TIP3     16138    TIP3     OH2      OT      -0.834000       15.9994           0
     70859 TIP3     16138    TIP3     H1       HT       0.417000       1.00800           0
     70860 TIP3     16138    TIP3     H2       HT       0.417000       1.00800           0
     70861 TIP3     16139    TIP3     OH2      OT      -0.834000       15.9994           0
     70862 TIP3     16139    TIP3     H1       HT       0.417000       1.00800           0
     70863 TIP3     16139    TIP3     H2       HT       0.417000       1.00800           0
     70864 TIP3     16140    TIP3     OH2      OT      -0.834000       15.9994           0
     70865 TIP3     16140    TIP3     H1       HT       0.417000       1.00800           0
     70866 TIP3     16140    TIP3     H2       HT       0.417000       1.00800           0
     70867 TIP3     16141    TIP3     OH2      OT      -0.834000       15.9994           0
     70868 TIP3     16141    TIP3     H1       HT       0.417000       1.00800           0
     70869 TIP3     16141    TIP3     H2       HT       0.417000       1.00800           0
     70870 TIP3     16142    TIP3     OH2      OT      -0.834000       15.9994           0
     70871 TIP3     16142    TIP3     H1       HT       0.417000       1.00800           0
     70872 TIP3     16142    TIP3     H2       HT       0.417000       1.00800           0
     70873 TIP3     16143    TIP3     OH2      OT      -0.834000       15.9994           0
     70874 TIP3     16143    TIP3     H1       HT       0.417000       1.00800           0
     70875 TIP3     16143    TIP3     H2       HT       0.417000       1.00800           0
     70876 TIP3     16144    TIP3     OH2      OT      -0.834000       15.9994           0
     70877 TIP3     16144    TIP3     H1       HT       0.417000       1.00800           0
     70878 TIP3     16144    TIP3     H2       HT       0.417000       1.00800           0
     70879 TIP3     16145    TIP3     OH2      OT      -0.834000       15.9994           0
     70880 TIP3     16145    TIP3     H1       HT       0.417000       1.00800           0
     70881 TIP3     16145    TIP3     H2       HT       0.417000       1.00800           0
     70882 TIP3     16146    TIP3     OH2      OT      -0.834000       15.9994           0
     70883 TIP3     16146    TIP3     H1       HT       0.417000       1.00800           0
     70884 TIP3     16146    TIP3     H2       HT       0.417000       1.00800           0
     70885 TIP3     16147    TIP3     OH2      OT      -0.834000       15.9994           0
     70886 TIP3     16147    TIP3     H1       HT       0.417000       1.00800           0
     70887 TIP3     16147    TIP3     H2       HT       0.417000       1.00800           0
     70888 TIP3     16148    TIP3     OH2      OT      -0.834000       15.9994           0
     70889 TIP3     16148    TIP3     H1       HT       0.417000       1.00800           0
     70890 TIP3     16148    TIP3     H2       HT       0.417000       1.00800           0
     70891 TIP3     16149    TIP3     OH2      OT      -0.834000       15.9994           0
     70892 TIP3     16149    TIP3     H1       HT       0.417000       1.00800           0
     70893 TIP3     16149    TIP3     H2       HT       0.417000       1.00800           0
     70894 TIP3     16150    TIP3     OH2      OT      -0.834000       15.9994           0
     70895 TIP3     16150    TIP3     H1       HT       0.417000       1.00800           0
     70896 TIP3     16150    TIP3     H2       HT       0.417000       1.00800           0
     70897 TIP3     16151    TIP3     OH2      OT      -0.834000       15.9994           0
     70898 TIP3     16151    TIP3     H1       HT       0.417000       1.00800           0
     70899 TIP3     16151    TIP3     H2       HT       0.417000       1.00800           0
     70900 TIP3     16152    TIP3     OH2      OT      -0.834000       15.9994           0
     70901 TIP3     16152    TIP3     H1       HT       0.417000       1.00800           0
     70902 TIP3     16152    TIP3     H2       HT       0.417000       1.00800           0
     70903 TIP3     16153    TIP3     OH2      OT      -0.834000       15.9994           0
     70904 TIP3     16153    TIP3     H1       HT       0.417000       1.00800           0
     70905 TIP3     16153    TIP3     H2       HT       0.417000       1.00800           0
     70906 TIP3     16154    TIP3     OH2      OT      -0.834000       15.9994           0
     70907 TIP3     16154    TIP3     H1       HT       0.417000       1.00800           0
     70908 TIP3     16154    TIP3     H2       HT       0.417000       1.00800           0
     70909 TIP3     16155    TIP3     OH2      OT      -0.834000       15.9994           0
     70910 TIP3     16155    TIP3     H1       HT       0.417000       1.00800           0
     70911 TIP3     16155    TIP3     H2       HT       0.417000       1.00800           0
     70912 TIP3     16156    TIP3     OH2      OT      -0.834000       15.9994           0
     70913 TIP3     16156    TIP3     H1       HT       0.417000       1.00800           0
     70914 TIP3     16156    TIP3     H2       HT       0.417000       1.00800           0
     70915 TIP3     16157    TIP3     OH2      OT      -0.834000       15.9994           0
     70916 TIP3     16157    TIP3     H1       HT       0.417000       1.00800           0
     70917 TIP3     16157    TIP3     H2       HT       0.417000       1.00800           0
     70918 TIP3     16158    TIP3     OH2      OT      -0.834000       15.9994           0
     70919 TIP3     16158    TIP3     H1       HT       0.417000       1.00800           0
     70920 TIP3     16158    TIP3     H2       HT       0.417000       1.00800           0
     70921 TIP3     16159    TIP3     OH2      OT      -0.834000       15.9994           0
     70922 TIP3     16159    TIP3     H1       HT       0.417000       1.00800           0
     70923 TIP3     16159    TIP3     H2       HT       0.417000       1.00800           0
     70924 TIP3     16160    TIP3     OH2      OT      -0.834000       15.9994           0
     70925 TIP3     16160    TIP3     H1       HT       0.417000       1.00800           0
     70926 TIP3     16160    TIP3     H2       HT       0.417000       1.00800           0
     70927 TIP3     16161    TIP3     OH2      OT      -0.834000       15.9994           0
     70928 TIP3     16161    TIP3     H1       HT       0.417000       1.00800           0
     70929 TIP3     16161    TIP3     H2       HT       0.417000       1.00800           0
     70930 TIP3     16162    TIP3     OH2      OT      -0.834000       15.9994           0
     70931 TIP3     16162    TIP3     H1       HT       0.417000       1.00800           0
     70932 TIP3     16162    TIP3     H2       HT       0.417000       1.00800           0
     70933 TIP3     16163    TIP3     OH2      OT      -0.834000       15.9994           0
     70934 TIP3     16163    TIP3     H1       HT       0.417000       1.00800           0
     70935 TIP3     16163    TIP3     H2       HT       0.417000       1.00800           0
     70936 TIP3     16164    TIP3     OH2      OT      -0.834000       15.9994           0
     70937 TIP3     16164    TIP3     H1       HT       0.417000       1.00800           0
     70938 TIP3     16164    TIP3     H2       HT       0.417000       1.00800           0
     70939 TIP3     16165    TIP3     OH2      OT      -0.834000       15.9994           0
     70940 TIP3     16165    TIP3     H1       HT       0.417000       1.00800           0
     70941 TIP3     16165    TIP3     H2       HT       0.417000       1.00800           0
     70942 TIP3     16166    TIP3     OH2      OT      -0.834000       15.9994           0
     70943 TIP3     16166    TIP3     H1       HT       0.417000       1.00800           0
     70944 TIP3     16166    TIP3     H2       HT       0.417000       1.00800           0
     70945 TIP3     16167    TIP3     OH2      OT      -0.834000       15.9994           0
     70946 TIP3     16167    TIP3     H1       HT       0.417000       1.00800           0
     70947 TIP3     16167    TIP3     H2       HT       0.417000       1.00800           0
     70948 TIP3     16168    TIP3     OH2      OT      -0.834000       15.9994           0
     70949 TIP3     16168    TIP3     H1       HT       0.417000       1.00800           0
     70950 TIP3     16168    TIP3     H2       HT       0.417000       1.00800           0
     70951 TIP3     16169    TIP3     OH2      OT      -0.834000       15.9994           0
     70952 TIP3     16169    TIP3     H1       HT       0.417000       1.00800           0
     70953 TIP3     16169    TIP3     H2       HT       0.417000       1.00800           0
     70954 TIP3     16170    TIP3     OH2      OT      -0.834000       15.9994           0
     70955 TIP3     16170    TIP3     H1       HT       0.417000       1.00800           0
     70956 TIP3     16170    TIP3     H2       HT       0.417000       1.00800           0
     70957 TIP3     16171    TIP3     OH2      OT      -0.834000       15.9994           0
     70958 TIP3     16171    TIP3     H1       HT       0.417000       1.00800           0
     70959 TIP3     16171    TIP3     H2       HT       0.417000       1.00800           0
     70960 TIP3     16172    TIP3     OH2      OT      -0.834000       15.9994           0
     70961 TIP3     16172    TIP3     H1       HT       0.417000       1.00800           0
     70962 TIP3     16172    TIP3     H2       HT       0.417000       1.00800           0
     70963 TIP3     16173    TIP3     OH2      OT      -0.834000       15.9994           0
     70964 TIP3     16173    TIP3     H1       HT       0.417000       1.00800           0
     70965 TIP3     16173    TIP3     H2       HT       0.417000       1.00800           0
     70966 TIP3     16174    TIP3     OH2      OT      -0.834000       15.9994           0
     70967 TIP3     16174    TIP3     H1       HT       0.417000       1.00800           0
     70968 TIP3     16174    TIP3     H2       HT       0.417000       1.00800           0
     70969 TIP3     16175    TIP3     OH2      OT      -0.834000       15.9994           0
     70970 TIP3     16175    TIP3     H1       HT       0.417000       1.00800           0
     70971 TIP3     16175    TIP3     H2       HT       0.417000       1.00800           0
     70972 TIP3     16176    TIP3     OH2      OT      -0.834000       15.9994           0
     70973 TIP3     16176    TIP3     H1       HT       0.417000       1.00800           0
     70974 TIP3     16176    TIP3     H2       HT       0.417000       1.00800           0
     70975 TIP3     16177    TIP3     OH2      OT      -0.834000       15.9994           0
     70976 TIP3     16177    TIP3     H1       HT       0.417000       1.00800           0
     70977 TIP3     16177    TIP3     H2       HT       0.417000       1.00800           0
     70978 TIP3     16178    TIP3     OH2      OT      -0.834000       15.9994           0
     70979 TIP3     16178    TIP3     H1       HT       0.417000       1.00800           0
     70980 TIP3     16178    TIP3     H2       HT       0.417000       1.00800           0
     70981 TIP3     16179    TIP3     OH2      OT      -0.834000       15.9994           0
     70982 TIP3     16179    TIP3     H1       HT       0.417000       1.00800           0
     70983 TIP3     16179    TIP3     H2       HT       0.417000       1.00800           0
     70984 TIP3     16180    TIP3     OH2      OT      -0.834000       15.9994           0
     70985 TIP3     16180    TIP3     H1       HT       0.417000       1.00800           0
     70986 TIP3     16180    TIP3     H2       HT       0.417000       1.00800           0
     70987 TIP3     16181    TIP3     OH2      OT      -0.834000       15.9994           0
     70988 TIP3     16181    TIP3     H1       HT       0.417000       1.00800           0
     70989 TIP3     16181    TIP3     H2       HT       0.417000       1.00800           0
     70990 TIP3     16182    TIP3     OH2      OT      -0.834000       15.9994           0
     70991 TIP3     16182    TIP3     H1       HT       0.417000       1.00800           0
     70992 TIP3     16182    TIP3     H2       HT       0.417000       1.00800           0
     70993 TIP3     16183    TIP3     OH2      OT      -0.834000       15.9994           0
     70994 TIP3     16183    TIP3     H1       HT       0.417000       1.00800           0
     70995 TIP3     16183    TIP3     H2       HT       0.417000       1.00800           0
     70996 TIP3     16184    TIP3     OH2      OT      -0.834000       15.9994           0
     70997 TIP3     16184    TIP3     H1       HT       0.417000       1.00800           0
     70998 TIP3     16184    TIP3     H2       HT       0.417000       1.00800           0
     70999 TIP3     16185    TIP3     OH2      OT      -0.834000       15.9994           0
     71000 TIP3     16185    TIP3     H1       HT       0.417000       1.00800           0
     71001 TIP3     16185    TIP3     H2       HT       0.417000       1.00800           0
     71002 TIP3     16186    TIP3     OH2      OT      -0.834000       15.9994           0
     71003 TIP3     16186    TIP3     H1       HT       0.417000       1.00800           0
     71004 TIP3     16186    TIP3     H2       HT       0.417000       1.00800           0
     71005 TIP3     16187    TIP3     OH2      OT      -0.834000       15.9994           0
     71006 TIP3     16187    TIP3     H1       HT       0.417000       1.00800           0
     71007 TIP3     16187    TIP3     H2       HT       0.417000       1.00800           0
     71008 TIP3     16188    TIP3     OH2      OT      -0.834000       15.9994           0
     71009 TIP3     16188    TIP3     H1       HT       0.417000       1.00800           0
     71010 TIP3     16188    TIP3     H2       HT       0.417000       1.00800           0
     71011 TIP3     16189    TIP3     OH2      OT      -0.834000       15.9994           0
     71012 TIP3     16189    TIP3     H1       HT       0.417000       1.00800           0
     71013 TIP3     16189    TIP3     H2       HT       0.417000       1.00800           0
     71014 TIP3     16190    TIP3     OH2      OT      -0.834000       15.9994           0
     71015 TIP3     16190    TIP3     H1       HT       0.417000       1.00800           0
     71016 TIP3     16190    TIP3     H2       HT       0.417000       1.00800           0
     71017 TIP3     16191    TIP3     OH2      OT      -0.834000       15.9994           0
     71018 TIP3     16191    TIP3     H1       HT       0.417000       1.00800           0
     71019 TIP3     16191    TIP3     H2       HT       0.417000       1.00800           0
     71020 TIP3     16192    TIP3     OH2      OT      -0.834000       15.9994           0
     71021 TIP3     16192    TIP3     H1       HT       0.417000       1.00800           0
     71022 TIP3     16192    TIP3     H2       HT       0.417000       1.00800           0
     71023 TIP3     16193    TIP3     OH2      OT      -0.834000       15.9994           0
     71024 TIP3     16193    TIP3     H1       HT       0.417000       1.00800           0
     71025 TIP3     16193    TIP3     H2       HT       0.417000       1.00800           0
     71026 TIP3     16194    TIP3     OH2      OT      -0.834000       15.9994           0
     71027 TIP3     16194    TIP3     H1       HT       0.417000       1.00800           0
     71028 TIP3     16194    TIP3     H2       HT       0.417000       1.00800           0
     71029 TIP3     16195    TIP3     OH2      OT      -0.834000       15.9994           0
     71030 TIP3     16195    TIP3     H1       HT       0.417000       1.00800           0
     71031 TIP3     16195    TIP3     H2       HT       0.417000       1.00800           0
     71032 TIP3     16196    TIP3     OH2      OT      -0.834000       15.9994           0
     71033 TIP3     16196    TIP3     H1       HT       0.417000       1.00800           0
     71034 TIP3     16196    TIP3     H2       HT       0.417000       1.00800           0
     71035 TIP3     16197    TIP3     OH2      OT      -0.834000       15.9994           0
     71036 TIP3     16197    TIP3     H1       HT       0.417000       1.00800           0
     71037 TIP3     16197    TIP3     H2       HT       0.417000       1.00800           0
     71038 TIP3     16198    TIP3     OH2      OT      -0.834000       15.9994           0
     71039 TIP3     16198    TIP3     H1       HT       0.417000       1.00800           0
     71040 TIP3     16198    TIP3     H2       HT       0.417000       1.00800           0
     71041 TIP3     16199    TIP3     OH2      OT      -0.834000       15.9994           0
     71042 TIP3     16199    TIP3     H1       HT       0.417000       1.00800           0
     71043 TIP3     16199    TIP3     H2       HT       0.417000       1.00800           0
     71044 TIP3     16200    TIP3     OH2      OT      -0.834000       15.9994           0
     71045 TIP3     16200    TIP3     H1       HT       0.417000       1.00800           0
     71046 TIP3     16200    TIP3     H2       HT       0.417000       1.00800           0
     71047 TIP3     16201    TIP3     OH2      OT      -0.834000       15.9994           0
     71048 TIP3     16201    TIP3     H1       HT       0.417000       1.00800           0
     71049 TIP3     16201    TIP3     H2       HT       0.417000       1.00800           0
     71050 TIP3     16202    TIP3     OH2      OT      -0.834000       15.9994           0
     71051 TIP3     16202    TIP3     H1       HT       0.417000       1.00800           0
     71052 TIP3     16202    TIP3     H2       HT       0.417000       1.00800           0
     71053 TIP3     16203    TIP3     OH2      OT      -0.834000       15.9994           0
     71054 TIP3     16203    TIP3     H1       HT       0.417000       1.00800           0
     71055 TIP3     16203    TIP3     H2       HT       0.417000       1.00800           0
     71056 TIP3     16204    TIP3     OH2      OT      -0.834000       15.9994           0
     71057 TIP3     16204    TIP3     H1       HT       0.417000       1.00800           0
     71058 TIP3     16204    TIP3     H2       HT       0.417000       1.00800           0
     71059 TIP3     16205    TIP3     OH2      OT      -0.834000       15.9994           0
     71060 TIP3     16205    TIP3     H1       HT       0.417000       1.00800           0
     71061 TIP3     16205    TIP3     H2       HT       0.417000       1.00800           0
     71062 TIP3     16206    TIP3     OH2      OT      -0.834000       15.9994           0
     71063 TIP3     16206    TIP3     H1       HT       0.417000       1.00800           0
     71064 TIP3     16206    TIP3     H2       HT       0.417000       1.00800           0
     71065 TIP3     16207    TIP3     OH2      OT      -0.834000       15.9994           0
     71066 TIP3     16207    TIP3     H1       HT       0.417000       1.00800           0
     71067 TIP3     16207    TIP3     H2       HT       0.417000       1.00800           0
     71068 TIP3     16208    TIP3     OH2      OT      -0.834000       15.9994           0
     71069 TIP3     16208    TIP3     H1       HT       0.417000       1.00800           0
     71070 TIP3     16208    TIP3     H2       HT       0.417000       1.00800           0
     71071 TIP3     16209    TIP3     OH2      OT      -0.834000       15.9994           0
     71072 TIP3     16209    TIP3     H1       HT       0.417000       1.00800           0
     71073 TIP3     16209    TIP3     H2       HT       0.417000       1.00800           0
     71074 TIP3     16210    TIP3     OH2      OT      -0.834000       15.9994           0
     71075 TIP3     16210    TIP3     H1       HT       0.417000       1.00800           0
     71076 TIP3     16210    TIP3     H2       HT       0.417000       1.00800           0
     71077 TIP3     16211    TIP3     OH2      OT      -0.834000       15.9994           0
     71078 TIP3     16211    TIP3     H1       HT       0.417000       1.00800           0
     71079 TIP3     16211    TIP3     H2       HT       0.417000       1.00800           0
     71080 TIP3     16212    TIP3     OH2      OT      -0.834000       15.9994           0
     71081 TIP3     16212    TIP3     H1       HT       0.417000       1.00800           0
     71082 TIP3     16212    TIP3     H2       HT       0.417000       1.00800           0
     71083 TIP3     16213    TIP3     OH2      OT      -0.834000       15.9994           0
     71084 TIP3     16213    TIP3     H1       HT       0.417000       1.00800           0
     71085 TIP3     16213    TIP3     H2       HT       0.417000       1.00800           0
     71086 TIP3     16214    TIP3     OH2      OT      -0.834000       15.9994           0
     71087 TIP3     16214    TIP3     H1       HT       0.417000       1.00800           0
     71088 TIP3     16214    TIP3     H2       HT       0.417000       1.00800           0
     71089 TIP3     16215    TIP3     OH2      OT      -0.834000       15.9994           0
     71090 TIP3     16215    TIP3     H1       HT       0.417000       1.00800           0
     71091 TIP3     16215    TIP3     H2       HT       0.417000       1.00800           0
     71092 TIP3     16216    TIP3     OH2      OT      -0.834000       15.9994           0
     71093 TIP3     16216    TIP3     H1       HT       0.417000       1.00800           0
     71094 TIP3     16216    TIP3     H2       HT       0.417000       1.00800           0
     71095 TIP3     16217    TIP3     OH2      OT      -0.834000       15.9994           0
     71096 TIP3     16217    TIP3     H1       HT       0.417000       1.00800           0
     71097 TIP3     16217    TIP3     H2       HT       0.417000       1.00800           0
     71098 TIP3     16218    TIP3     OH2      OT      -0.834000       15.9994           0
     71099 TIP3     16218    TIP3     H1       HT       0.417000       1.00800           0
     71100 TIP3     16218    TIP3     H2       HT       0.417000       1.00800           0
     71101 TIP3     16219    TIP3     OH2      OT      -0.834000       15.9994           0
     71102 TIP3     16219    TIP3     H1       HT       0.417000       1.00800           0
     71103 TIP3     16219    TIP3     H2       HT       0.417000       1.00800           0
     71104 TIP3     16220    TIP3     OH2      OT      -0.834000       15.9994           0
     71105 TIP3     16220    TIP3     H1       HT       0.417000       1.00800           0
     71106 TIP3     16220    TIP3     H2       HT       0.417000       1.00800           0
     71107 TIP3     16221    TIP3     OH2      OT      -0.834000       15.9994           0
     71108 TIP3     16221    TIP3     H1       HT       0.417000       1.00800           0
     71109 TIP3     16221    TIP3     H2       HT       0.417000       1.00800           0
     71110 TIP3     16222    TIP3     OH2      OT      -0.834000       15.9994           0
     71111 TIP3     16222    TIP3     H1       HT       0.417000       1.00800           0
     71112 TIP3     16222    TIP3     H2       HT       0.417000       1.00800           0
     71113 TIP3     16223    TIP3     OH2      OT      -0.834000       15.9994           0
     71114 TIP3     16223    TIP3     H1       HT       0.417000       1.00800           0
     71115 TIP3     16223    TIP3     H2       HT       0.417000       1.00800           0
     71116 TIP3     16224    TIP3     OH2      OT      -0.834000       15.9994           0
     71117 TIP3     16224    TIP3     H1       HT       0.417000       1.00800           0
     71118 TIP3     16224    TIP3     H2       HT       0.417000       1.00800           0
     71119 TIP3     16225    TIP3     OH2      OT      -0.834000       15.9994           0
     71120 TIP3     16225    TIP3     H1       HT       0.417000       1.00800           0
     71121 TIP3     16225    TIP3     H2       HT       0.417000       1.00800           0
     71122 TIP3     16226    TIP3     OH2      OT      -0.834000       15.9994           0
     71123 TIP3     16226    TIP3     H1       HT       0.417000       1.00800           0
     71124 TIP3     16226    TIP3     H2       HT       0.417000       1.00800           0
     71125 TIP3     16227    TIP3     OH2      OT      -0.834000       15.9994           0
     71126 TIP3     16227    TIP3     H1       HT       0.417000       1.00800           0
     71127 TIP3     16227    TIP3     H2       HT       0.417000       1.00800           0
     71128 TIP3     16228    TIP3     OH2      OT      -0.834000       15.9994           0
     71129 TIP3     16228    TIP3     H1       HT       0.417000       1.00800           0
     71130 TIP3     16228    TIP3     H2       HT       0.417000       1.00800           0
     71131 TIP3     16229    TIP3     OH2      OT      -0.834000       15.9994           0
     71132 TIP3     16229    TIP3     H1       HT       0.417000       1.00800           0
     71133 TIP3     16229    TIP3     H2       HT       0.417000       1.00800           0
     71134 TIP3     16230    TIP3     OH2      OT      -0.834000       15.9994           0
     71135 TIP3     16230    TIP3     H1       HT       0.417000       1.00800           0
     71136 TIP3     16230    TIP3     H2       HT       0.417000       1.00800           0
     71137 TIP3     16231    TIP3     OH2      OT      -0.834000       15.9994           0
     71138 TIP3     16231    TIP3     H1       HT       0.417000       1.00800           0
     71139 TIP3     16231    TIP3     H2       HT       0.417000       1.00800           0
     71140 TIP3     16232    TIP3     OH2      OT      -0.834000       15.9994           0
     71141 TIP3     16232    TIP3     H1       HT       0.417000       1.00800           0
     71142 TIP3     16232    TIP3     H2       HT       0.417000       1.00800           0
     71143 TIP3     16233    TIP3     OH2      OT      -0.834000       15.9994           0
     71144 TIP3     16233    TIP3     H1       HT       0.417000       1.00800           0
     71145 TIP3     16233    TIP3     H2       HT       0.417000       1.00800           0
     71146 TIP3     16234    TIP3     OH2      OT      -0.834000       15.9994           0
     71147 TIP3     16234    TIP3     H1       HT       0.417000       1.00800           0
     71148 TIP3     16234    TIP3     H2       HT       0.417000       1.00800           0
     71149 TIP3     16235    TIP3     OH2      OT      -0.834000       15.9994           0
     71150 TIP3     16235    TIP3     H1       HT       0.417000       1.00800           0
     71151 TIP3     16235    TIP3     H2       HT       0.417000       1.00800           0
     71152 TIP3     16236    TIP3     OH2      OT      -0.834000       15.9994           0
     71153 TIP3     16236    TIP3     H1       HT       0.417000       1.00800           0
     71154 TIP3     16236    TIP3     H2       HT       0.417000       1.00800           0
     71155 TIP3     16237    TIP3     OH2      OT      -0.834000       15.9994           0
     71156 TIP3     16237    TIP3     H1       HT       0.417000       1.00800           0
     71157 TIP3     16237    TIP3     H2       HT       0.417000       1.00800           0
     71158 TIP3     16238    TIP3     OH2      OT      -0.834000       15.9994           0
     71159 TIP3     16238    TIP3     H1       HT       0.417000       1.00800           0
     71160 TIP3     16238    TIP3     H2       HT       0.417000       1.00800           0
     71161 TIP3     16239    TIP3     OH2      OT      -0.834000       15.9994           0
     71162 TIP3     16239    TIP3     H1       HT       0.417000       1.00800           0
     71163 TIP3     16239    TIP3     H2       HT       0.417000       1.00800           0
     71164 TIP3     16240    TIP3     OH2      OT      -0.834000       15.9994           0
     71165 TIP3     16240    TIP3     H1       HT       0.417000       1.00800           0
     71166 TIP3     16240    TIP3     H2       HT       0.417000       1.00800           0
     71167 TIP3     16241    TIP3     OH2      OT      -0.834000       15.9994           0
     71168 TIP3     16241    TIP3     H1       HT       0.417000       1.00800           0
     71169 TIP3     16241    TIP3     H2       HT       0.417000       1.00800           0
     71170 TIP3     16242    TIP3     OH2      OT      -0.834000       15.9994           0
     71171 TIP3     16242    TIP3     H1       HT       0.417000       1.00800           0
     71172 TIP3     16242    TIP3     H2       HT       0.417000       1.00800           0
     71173 TIP3     16243    TIP3     OH2      OT      -0.834000       15.9994           0
     71174 TIP3     16243    TIP3     H1       HT       0.417000       1.00800           0
     71175 TIP3     16243    TIP3     H2       HT       0.417000       1.00800           0
     71176 TIP3     16244    TIP3     OH2      OT      -0.834000       15.9994           0
     71177 TIP3     16244    TIP3     H1       HT       0.417000       1.00800           0
     71178 TIP3     16244    TIP3     H2       HT       0.417000       1.00800           0
     71179 TIP3     16245    TIP3     OH2      OT      -0.834000       15.9994           0
     71180 TIP3     16245    TIP3     H1       HT       0.417000       1.00800           0
     71181 TIP3     16245    TIP3     H2       HT       0.417000       1.00800           0
     71182 TIP3     16246    TIP3     OH2      OT      -0.834000       15.9994           0
     71183 TIP3     16246    TIP3     H1       HT       0.417000       1.00800           0
     71184 TIP3     16246    TIP3     H2       HT       0.417000       1.00800           0
     71185 TIP3     16247    TIP3     OH2      OT      -0.834000       15.9994           0
     71186 TIP3     16247    TIP3     H1       HT       0.417000       1.00800           0
     71187 TIP3     16247    TIP3     H2       HT       0.417000       1.00800           0
     71188 TIP3     16248    TIP3     OH2      OT      -0.834000       15.9994           0
     71189 TIP3     16248    TIP3     H1       HT       0.417000       1.00800           0
     71190 TIP3     16248    TIP3     H2       HT       0.417000       1.00800           0
     71191 TIP3     16249    TIP3     OH2      OT      -0.834000       15.9994           0
     71192 TIP3     16249    TIP3     H1       HT       0.417000       1.00800           0
     71193 TIP3     16249    TIP3     H2       HT       0.417000       1.00800           0
     71194 TIP3     16250    TIP3     OH2      OT      -0.834000       15.9994           0
     71195 TIP3     16250    TIP3     H1       HT       0.417000       1.00800           0
     71196 TIP3     16250    TIP3     H2       HT       0.417000       1.00800           0
     71197 TIP3     16251    TIP3     OH2      OT      -0.834000       15.9994           0
     71198 TIP3     16251    TIP3     H1       HT       0.417000       1.00800           0
     71199 TIP3     16251    TIP3     H2       HT       0.417000       1.00800           0
     71200 TIP3     16252    TIP3     OH2      OT      -0.834000       15.9994           0
     71201 TIP3     16252    TIP3     H1       HT       0.417000       1.00800           0
     71202 TIP3     16252    TIP3     H2       HT       0.417000       1.00800           0
     71203 TIP3     16253    TIP3     OH2      OT      -0.834000       15.9994           0
     71204 TIP3     16253    TIP3     H1       HT       0.417000       1.00800           0
     71205 TIP3     16253    TIP3     H2       HT       0.417000       1.00800           0
     71206 TIP3     16254    TIP3     OH2      OT      -0.834000       15.9994           0
     71207 TIP3     16254    TIP3     H1       HT       0.417000       1.00800           0
     71208 TIP3     16254    TIP3     H2       HT       0.417000       1.00800           0
     71209 TIP3     16255    TIP3     OH2      OT      -0.834000       15.9994           0
     71210 TIP3     16255    TIP3     H1       HT       0.417000       1.00800           0
     71211 TIP3     16255    TIP3     H2       HT       0.417000       1.00800           0
     71212 TIP3     16256    TIP3     OH2      OT      -0.834000       15.9994           0
     71213 TIP3     16256    TIP3     H1       HT       0.417000       1.00800           0
     71214 TIP3     16256    TIP3     H2       HT       0.417000       1.00800           0
     71215 TIP3     16257    TIP3     OH2      OT      -0.834000       15.9994           0
     71216 TIP3     16257    TIP3     H1       HT       0.417000       1.00800           0
     71217 TIP3     16257    TIP3     H2       HT       0.417000       1.00800           0
     71218 TIP3     16258    TIP3     OH2      OT      -0.834000       15.9994           0
     71219 TIP3     16258    TIP3     H1       HT       0.417000       1.00800           0
     71220 TIP3     16258    TIP3     H2       HT       0.417000       1.00800           0
     71221 TIP3     16259    TIP3     OH2      OT      -0.834000       15.9994           0
     71222 TIP3     16259    TIP3     H1       HT       0.417000       1.00800           0
     71223 TIP3     16259    TIP3     H2       HT       0.417000       1.00800           0
     71224 TIP3     16260    TIP3     OH2      OT      -0.834000       15.9994           0
     71225 TIP3     16260    TIP3     H1       HT       0.417000       1.00800           0
     71226 TIP3     16260    TIP3     H2       HT       0.417000       1.00800           0
     71227 TIP3     16261    TIP3     OH2      OT      -0.834000       15.9994           0
     71228 TIP3     16261    TIP3     H1       HT       0.417000       1.00800           0
     71229 TIP3     16261    TIP3     H2       HT       0.417000       1.00800           0
     71230 TIP3     16262    TIP3     OH2      OT      -0.834000       15.9994           0
     71231 TIP3     16262    TIP3     H1       HT       0.417000       1.00800           0
     71232 TIP3     16262    TIP3     H2       HT       0.417000       1.00800           0
     71233 TIP3     16263    TIP3     OH2      OT      -0.834000       15.9994           0
     71234 TIP3     16263    TIP3     H1       HT       0.417000       1.00800           0
     71235 TIP3     16263    TIP3     H2       HT       0.417000       1.00800           0
     71236 TIP3     16264    TIP3     OH2      OT      -0.834000       15.9994           0
     71237 TIP3     16264    TIP3     H1       HT       0.417000       1.00800           0
     71238 TIP3     16264    TIP3     H2       HT       0.417000       1.00800           0
     71239 TIP3     16265    TIP3     OH2      OT      -0.834000       15.9994           0
     71240 TIP3     16265    TIP3     H1       HT       0.417000       1.00800           0
     71241 TIP3     16265    TIP3     H2       HT       0.417000       1.00800           0
     71242 TIP3     16266    TIP3     OH2      OT      -0.834000       15.9994           0
     71243 TIP3     16266    TIP3     H1       HT       0.417000       1.00800           0
     71244 TIP3     16266    TIP3     H2       HT       0.417000       1.00800           0
     71245 TIP3     16267    TIP3     OH2      OT      -0.834000       15.9994           0
     71246 TIP3     16267    TIP3     H1       HT       0.417000       1.00800           0
     71247 TIP3     16267    TIP3     H2       HT       0.417000       1.00800           0
     71248 TIP3     16268    TIP3     OH2      OT      -0.834000       15.9994           0
     71249 TIP3     16268    TIP3     H1       HT       0.417000       1.00800           0
     71250 TIP3     16268    TIP3     H2       HT       0.417000       1.00800           0
     71251 TIP3     16269    TIP3     OH2      OT      -0.834000       15.9994           0
     71252 TIP3     16269    TIP3     H1       HT       0.417000       1.00800           0
     71253 TIP3     16269    TIP3     H2       HT       0.417000       1.00800           0
     71254 TIP3     16270    TIP3     OH2      OT      -0.834000       15.9994           0
     71255 TIP3     16270    TIP3     H1       HT       0.417000       1.00800           0
     71256 TIP3     16270    TIP3     H2       HT       0.417000       1.00800           0
     71257 TIP3     16271    TIP3     OH2      OT      -0.834000       15.9994           0
     71258 TIP3     16271    TIP3     H1       HT       0.417000       1.00800           0
     71259 TIP3     16271    TIP3     H2       HT       0.417000       1.00800           0
     71260 TIP3     16272    TIP3     OH2      OT      -0.834000       15.9994           0
     71261 TIP3     16272    TIP3     H1       HT       0.417000       1.00800           0
     71262 TIP3     16272    TIP3     H2       HT       0.417000       1.00800           0
     71263 TIP3     16273    TIP3     OH2      OT      -0.834000       15.9994           0
     71264 TIP3     16273    TIP3     H1       HT       0.417000       1.00800           0
     71265 TIP3     16273    TIP3     H2       HT       0.417000       1.00800           0
     71266 TIP3     16274    TIP3     OH2      OT      -0.834000       15.9994           0
     71267 TIP3     16274    TIP3     H1       HT       0.417000       1.00800           0
     71268 TIP3     16274    TIP3     H2       HT       0.417000       1.00800           0
     71269 TIP3     16275    TIP3     OH2      OT      -0.834000       15.9994           0
     71270 TIP3     16275    TIP3     H1       HT       0.417000       1.00800           0
     71271 TIP3     16275    TIP3     H2       HT       0.417000       1.00800           0
     71272 TIP3     16276    TIP3     OH2      OT      -0.834000       15.9994           0
     71273 TIP3     16276    TIP3     H1       HT       0.417000       1.00800           0
     71274 TIP3     16276    TIP3     H2       HT       0.417000       1.00800           0
     71275 TIP3     16277    TIP3     OH2      OT      -0.834000       15.9994           0
     71276 TIP3     16277    TIP3     H1       HT       0.417000       1.00800           0
     71277 TIP3     16277    TIP3     H2       HT       0.417000       1.00800           0
     71278 TIP3     16278    TIP3     OH2      OT      -0.834000       15.9994           0
     71279 TIP3     16278    TIP3     H1       HT       0.417000       1.00800           0
     71280 TIP3     16278    TIP3     H2       HT       0.417000       1.00800           0
     71281 TIP3     16279    TIP3     OH2      OT      -0.834000       15.9994           0
     71282 TIP3     16279    TIP3     H1       HT       0.417000       1.00800           0
     71283 TIP3     16279    TIP3     H2       HT       0.417000       1.00800           0
     71284 TIP3     16280    TIP3     OH2      OT      -0.834000       15.9994           0
     71285 TIP3     16280    TIP3     H1       HT       0.417000       1.00800           0
     71286 TIP3     16280    TIP3     H2       HT       0.417000       1.00800           0
     71287 TIP3     16281    TIP3     OH2      OT      -0.834000       15.9994           0
     71288 TIP3     16281    TIP3     H1       HT       0.417000       1.00800           0
     71289 TIP3     16281    TIP3     H2       HT       0.417000       1.00800           0
     71290 TIP3     16282    TIP3     OH2      OT      -0.834000       15.9994           0
     71291 TIP3     16282    TIP3     H1       HT       0.417000       1.00800           0
     71292 TIP3     16282    TIP3     H2       HT       0.417000       1.00800           0
     71293 TIP3     16283    TIP3     OH2      OT      -0.834000       15.9994           0
     71294 TIP3     16283    TIP3     H1       HT       0.417000       1.00800           0
     71295 TIP3     16283    TIP3     H2       HT       0.417000       1.00800           0
     71296 TIP3     16284    TIP3     OH2      OT      -0.834000       15.9994           0
     71297 TIP3     16284    TIP3     H1       HT       0.417000       1.00800           0
     71298 TIP3     16284    TIP3     H2       HT       0.417000       1.00800           0
     71299 TIP3     16285    TIP3     OH2      OT      -0.834000       15.9994           0
     71300 TIP3     16285    TIP3     H1       HT       0.417000       1.00800           0
     71301 TIP3     16285    TIP3     H2       HT       0.417000       1.00800           0
     71302 TIP3     16286    TIP3     OH2      OT      -0.834000       15.9994           0
     71303 TIP3     16286    TIP3     H1       HT       0.417000       1.00800           0
     71304 TIP3     16286    TIP3     H2       HT       0.417000       1.00800           0
     71305 TIP3     16287    TIP3     OH2      OT      -0.834000       15.9994           0
     71306 TIP3     16287    TIP3     H1       HT       0.417000       1.00800           0
     71307 TIP3     16287    TIP3     H2       HT       0.417000       1.00800           0
     71308 TIP3     16288    TIP3     OH2      OT      -0.834000       15.9994           0
     71309 TIP3     16288    TIP3     H1       HT       0.417000       1.00800           0
     71310 TIP3     16288    TIP3     H2       HT       0.417000       1.00800           0
     71311 TIP3     16289    TIP3     OH2      OT      -0.834000       15.9994           0
     71312 TIP3     16289    TIP3     H1       HT       0.417000       1.00800           0
     71313 TIP3     16289    TIP3     H2       HT       0.417000       1.00800           0
     71314 TIP3     16290    TIP3     OH2      OT      -0.834000       15.9994           0
     71315 TIP3     16290    TIP3     H1       HT       0.417000       1.00800           0
     71316 TIP3     16290    TIP3     H2       HT       0.417000       1.00800           0
     71317 TIP3     16291    TIP3     OH2      OT      -0.834000       15.9994           0
     71318 TIP3     16291    TIP3     H1       HT       0.417000       1.00800           0
     71319 TIP3     16291    TIP3     H2       HT       0.417000       1.00800           0
     71320 TIP3     16292    TIP3     OH2      OT      -0.834000       15.9994           0
     71321 TIP3     16292    TIP3     H1       HT       0.417000       1.00800           0
     71322 TIP3     16292    TIP3     H2       HT       0.417000       1.00800           0
     71323 TIP3     16293    TIP3     OH2      OT      -0.834000       15.9994           0
     71324 TIP3     16293    TIP3     H1       HT       0.417000       1.00800           0
     71325 TIP3     16293    TIP3     H2       HT       0.417000       1.00800           0
     71326 TIP3     16294    TIP3     OH2      OT      -0.834000       15.9994           0
     71327 TIP3     16294    TIP3     H1       HT       0.417000       1.00800           0
     71328 TIP3     16294    TIP3     H2       HT       0.417000       1.00800           0
     71329 TIP3     16295    TIP3     OH2      OT      -0.834000       15.9994           0
     71330 TIP3     16295    TIP3     H1       HT       0.417000       1.00800           0
     71331 TIP3     16295    TIP3     H2       HT       0.417000       1.00800           0
     71332 TIP3     16296    TIP3     OH2      OT      -0.834000       15.9994           0
     71333 TIP3     16296    TIP3     H1       HT       0.417000       1.00800           0
     71334 TIP3     16296    TIP3     H2       HT       0.417000       1.00800           0
     71335 TIP3     16297    TIP3     OH2      OT      -0.834000       15.9994           0
     71336 TIP3     16297    TIP3     H1       HT       0.417000       1.00800           0
     71337 TIP3     16297    TIP3     H2       HT       0.417000       1.00800           0
     71338 TIP3     16298    TIP3     OH2      OT      -0.834000       15.9994           0
     71339 TIP3     16298    TIP3     H1       HT       0.417000       1.00800           0
     71340 TIP3     16298    TIP3     H2       HT       0.417000       1.00800           0
     71341 TIP3     16299    TIP3     OH2      OT      -0.834000       15.9994           0
     71342 TIP3     16299    TIP3     H1       HT       0.417000       1.00800           0
     71343 TIP3     16299    TIP3     H2       HT       0.417000       1.00800           0
     71344 TIP3     16300    TIP3     OH2      OT      -0.834000       15.9994           0
     71345 TIP3     16300    TIP3     H1       HT       0.417000       1.00800           0
     71346 TIP3     16300    TIP3     H2       HT       0.417000       1.00800           0
     71347 TIP3     16301    TIP3     OH2      OT      -0.834000       15.9994           0
     71348 TIP3     16301    TIP3     H1       HT       0.417000       1.00800           0
     71349 TIP3     16301    TIP3     H2       HT       0.417000       1.00800           0
     71350 TIP3     16302    TIP3     OH2      OT      -0.834000       15.9994           0
     71351 TIP3     16302    TIP3     H1       HT       0.417000       1.00800           0
     71352 TIP3     16302    TIP3     H2       HT       0.417000       1.00800           0
     71353 TIP3     16303    TIP3     OH2      OT      -0.834000       15.9994           0
     71354 TIP3     16303    TIP3     H1       HT       0.417000       1.00800           0
     71355 TIP3     16303    TIP3     H2       HT       0.417000       1.00800           0
     71356 TIP3     16304    TIP3     OH2      OT      -0.834000       15.9994           0
     71357 TIP3     16304    TIP3     H1       HT       0.417000       1.00800           0
     71358 TIP3     16304    TIP3     H2       HT       0.417000       1.00800           0
     71359 TIP3     16305    TIP3     OH2      OT      -0.834000       15.9994           0
     71360 TIP3     16305    TIP3     H1       HT       0.417000       1.00800           0
     71361 TIP3     16305    TIP3     H2       HT       0.417000       1.00800           0
     71362 TIP3     16306    TIP3     OH2      OT      -0.834000       15.9994           0
     71363 TIP3     16306    TIP3     H1       HT       0.417000       1.00800           0
     71364 TIP3     16306    TIP3     H2       HT       0.417000       1.00800           0
     71365 TIP3     16307    TIP3     OH2      OT      -0.834000       15.9994           0
     71366 TIP3     16307    TIP3     H1       HT       0.417000       1.00800           0
     71367 TIP3     16307    TIP3     H2       HT       0.417000       1.00800           0
     71368 TIP3     16308    TIP3     OH2      OT      -0.834000       15.9994           0
     71369 TIP3     16308    TIP3     H1       HT       0.417000       1.00800           0
     71370 TIP3     16308    TIP3     H2       HT       0.417000       1.00800           0
     71371 TIP3     16309    TIP3     OH2      OT      -0.834000       15.9994           0
     71372 TIP3     16309    TIP3     H1       HT       0.417000       1.00800           0
     71373 TIP3     16309    TIP3     H2       HT       0.417000       1.00800           0
     71374 TIP3     16310    TIP3     OH2      OT      -0.834000       15.9994           0
     71375 TIP3     16310    TIP3     H1       HT       0.417000       1.00800           0
     71376 TIP3     16310    TIP3     H2       HT       0.417000       1.00800           0
     71377 TIP3     16311    TIP3     OH2      OT      -0.834000       15.9994           0
     71378 TIP3     16311    TIP3     H1       HT       0.417000       1.00800           0
     71379 TIP3     16311    TIP3     H2       HT       0.417000       1.00800           0
     71380 TIP3     16312    TIP3     OH2      OT      -0.834000       15.9994           0
     71381 TIP3     16312    TIP3     H1       HT       0.417000       1.00800           0
     71382 TIP3     16312    TIP3     H2       HT       0.417000       1.00800           0
     71383 TIP3     16313    TIP3     OH2      OT      -0.834000       15.9994           0
     71384 TIP3     16313    TIP3     H1       HT       0.417000       1.00800           0
     71385 TIP3     16313    TIP3     H2       HT       0.417000       1.00800           0
     71386 TIP3     16314    TIP3     OH2      OT      -0.834000       15.9994           0
     71387 TIP3     16314    TIP3     H1       HT       0.417000       1.00800           0
     71388 TIP3     16314    TIP3     H2       HT       0.417000       1.00800           0
     71389 TIP3     16315    TIP3     OH2      OT      -0.834000       15.9994           0
     71390 TIP3     16315    TIP3     H1       HT       0.417000       1.00800           0
     71391 TIP3     16315    TIP3     H2       HT       0.417000       1.00800           0
     71392 TIP3     16316    TIP3     OH2      OT      -0.834000       15.9994           0
     71393 TIP3     16316    TIP3     H1       HT       0.417000       1.00800           0
     71394 TIP3     16316    TIP3     H2       HT       0.417000       1.00800           0
     71395 TIP3     16317    TIP3     OH2      OT      -0.834000       15.9994           0
     71396 TIP3     16317    TIP3     H1       HT       0.417000       1.00800           0
     71397 TIP3     16317    TIP3     H2       HT       0.417000       1.00800           0
     71398 TIP3     16318    TIP3     OH2      OT      -0.834000       15.9994           0
     71399 TIP3     16318    TIP3     H1       HT       0.417000       1.00800           0
     71400 TIP3     16318    TIP3     H2       HT       0.417000       1.00800           0
     71401 TIP3     16319    TIP3     OH2      OT      -0.834000       15.9994           0
     71402 TIP3     16319    TIP3     H1       HT       0.417000       1.00800           0
     71403 TIP3     16319    TIP3     H2       HT       0.417000       1.00800           0
     71404 TIP3     16320    TIP3     OH2      OT      -0.834000       15.9994           0
     71405 TIP3     16320    TIP3     H1       HT       0.417000       1.00800           0
     71406 TIP3     16320    TIP3     H2       HT       0.417000       1.00800           0
     71407 TIP3     16321    TIP3     OH2      OT      -0.834000       15.9994           0
     71408 TIP3     16321    TIP3     H1       HT       0.417000       1.00800           0
     71409 TIP3     16321    TIP3     H2       HT       0.417000       1.00800           0
     71410 TIP3     16322    TIP3     OH2      OT      -0.834000       15.9994           0
     71411 TIP3     16322    TIP3     H1       HT       0.417000       1.00800           0
     71412 TIP3     16322    TIP3     H2       HT       0.417000       1.00800           0
     71413 TIP3     16323    TIP3     OH2      OT      -0.834000       15.9994           0
     71414 TIP3     16323    TIP3     H1       HT       0.417000       1.00800           0
     71415 TIP3     16323    TIP3     H2       HT       0.417000       1.00800           0
     71416 TIP3     16324    TIP3     OH2      OT      -0.834000       15.9994           0
     71417 TIP3     16324    TIP3     H1       HT       0.417000       1.00800           0
     71418 TIP3     16324    TIP3     H2       HT       0.417000       1.00800           0
     71419 TIP3     16325    TIP3     OH2      OT      -0.834000       15.9994           0
     71420 TIP3     16325    TIP3     H1       HT       0.417000       1.00800           0
     71421 TIP3     16325    TIP3     H2       HT       0.417000       1.00800           0
     71422 TIP3     16326    TIP3     OH2      OT      -0.834000       15.9994           0
     71423 TIP3     16326    TIP3     H1       HT       0.417000       1.00800           0
     71424 TIP3     16326    TIP3     H2       HT       0.417000       1.00800           0
     71425 TIP3     16327    TIP3     OH2      OT      -0.834000       15.9994           0
     71426 TIP3     16327    TIP3     H1       HT       0.417000       1.00800           0
     71427 TIP3     16327    TIP3     H2       HT       0.417000       1.00800           0
     71428 TIP3     16328    TIP3     OH2      OT      -0.834000       15.9994           0
     71429 TIP3     16328    TIP3     H1       HT       0.417000       1.00800           0
     71430 TIP3     16328    TIP3     H2       HT       0.417000       1.00800           0
     71431 TIP3     16329    TIP3     OH2      OT      -0.834000       15.9994           0
     71432 TIP3     16329    TIP3     H1       HT       0.417000       1.00800           0
     71433 TIP3     16329    TIP3     H2       HT       0.417000       1.00800           0
     71434 TIP3     16330    TIP3     OH2      OT      -0.834000       15.9994           0
     71435 TIP3     16330    TIP3     H1       HT       0.417000       1.00800           0
     71436 TIP3     16330    TIP3     H2       HT       0.417000       1.00800           0
     71437 TIP3     16331    TIP3     OH2      OT      -0.834000       15.9994           0
     71438 TIP3     16331    TIP3     H1       HT       0.417000       1.00800           0
     71439 TIP3     16331    TIP3     H2       HT       0.417000       1.00800           0
     71440 TIP3     16332    TIP3     OH2      OT      -0.834000       15.9994           0
     71441 TIP3     16332    TIP3     H1       HT       0.417000       1.00800           0
     71442 TIP3     16332    TIP3     H2       HT       0.417000       1.00800           0
     71443 TIP3     16333    TIP3     OH2      OT      -0.834000       15.9994           0
     71444 TIP3     16333    TIP3     H1       HT       0.417000       1.00800           0
     71445 TIP3     16333    TIP3     H2       HT       0.417000       1.00800           0
     71446 TIP3     16334    TIP3     OH2      OT      -0.834000       15.9994           0
     71447 TIP3     16334    TIP3     H1       HT       0.417000       1.00800           0
     71448 TIP3     16334    TIP3     H2       HT       0.417000       1.00800           0
     71449 TIP3     16335    TIP3     OH2      OT      -0.834000       15.9994           0
     71450 TIP3     16335    TIP3     H1       HT       0.417000       1.00800           0
     71451 TIP3     16335    TIP3     H2       HT       0.417000       1.00800           0
     71452 TIP3     16336    TIP3     OH2      OT      -0.834000       15.9994           0
     71453 TIP3     16336    TIP3     H1       HT       0.417000       1.00800           0
     71454 TIP3     16336    TIP3     H2       HT       0.417000       1.00800           0
     71455 TIP3     16337    TIP3     OH2      OT      -0.834000       15.9994           0
     71456 TIP3     16337    TIP3     H1       HT       0.417000       1.00800           0
     71457 TIP3     16337    TIP3     H2       HT       0.417000       1.00800           0
     71458 TIP3     16338    TIP3     OH2      OT      -0.834000       15.9994           0
     71459 TIP3     16338    TIP3     H1       HT       0.417000       1.00800           0
     71460 TIP3     16338    TIP3     H2       HT       0.417000       1.00800           0
     71461 TIP3     16339    TIP3     OH2      OT      -0.834000       15.9994           0
     71462 TIP3     16339    TIP3     H1       HT       0.417000       1.00800           0
     71463 TIP3     16339    TIP3     H2       HT       0.417000       1.00800           0
     71464 TIP3     16340    TIP3     OH2      OT      -0.834000       15.9994           0
     71465 TIP3     16340    TIP3     H1       HT       0.417000       1.00800           0
     71466 TIP3     16340    TIP3     H2       HT       0.417000       1.00800           0
     71467 TIP3     16341    TIP3     OH2      OT      -0.834000       15.9994           0
     71468 TIP3     16341    TIP3     H1       HT       0.417000       1.00800           0
     71469 TIP3     16341    TIP3     H2       HT       0.417000       1.00800           0
     71470 TIP3     16342    TIP3     OH2      OT      -0.834000       15.9994           0
     71471 TIP3     16342    TIP3     H1       HT       0.417000       1.00800           0
     71472 TIP3     16342    TIP3     H2       HT       0.417000       1.00800           0
     71473 TIP3     16343    TIP3     OH2      OT      -0.834000       15.9994           0
     71474 TIP3     16343    TIP3     H1       HT       0.417000       1.00800           0
     71475 TIP3     16343    TIP3     H2       HT       0.417000       1.00800           0
     71476 TIP3     16344    TIP3     OH2      OT      -0.834000       15.9994           0
     71477 TIP3     16344    TIP3     H1       HT       0.417000       1.00800           0
     71478 TIP3     16344    TIP3     H2       HT       0.417000       1.00800           0
     71479 TIP3     16345    TIP3     OH2      OT      -0.834000       15.9994           0
     71480 TIP3     16345    TIP3     H1       HT       0.417000       1.00800           0
     71481 TIP3     16345    TIP3     H2       HT       0.417000       1.00800           0
     71482 TIP3     16346    TIP3     OH2      OT      -0.834000       15.9994           0
     71483 TIP3     16346    TIP3     H1       HT       0.417000       1.00800           0
     71484 TIP3     16346    TIP3     H2       HT       0.417000       1.00800           0
     71485 TIP3     16347    TIP3     OH2      OT      -0.834000       15.9994           0
     71486 TIP3     16347    TIP3     H1       HT       0.417000       1.00800           0
     71487 TIP3     16347    TIP3     H2       HT       0.417000       1.00800           0
     71488 TIP3     16348    TIP3     OH2      OT      -0.834000       15.9994           0
     71489 TIP3     16348    TIP3     H1       HT       0.417000       1.00800           0
     71490 TIP3     16348    TIP3     H2       HT       0.417000       1.00800           0
     71491 TIP3     16349    TIP3     OH2      OT      -0.834000       15.9994           0
     71492 TIP3     16349    TIP3     H1       HT       0.417000       1.00800           0
     71493 TIP3     16349    TIP3     H2       HT       0.417000       1.00800           0
     71494 TIP3     16350    TIP3     OH2      OT      -0.834000       15.9994           0
     71495 TIP3     16350    TIP3     H1       HT       0.417000       1.00800           0
     71496 TIP3     16350    TIP3     H2       HT       0.417000       1.00800           0
     71497 TIP3     16351    TIP3     OH2      OT      -0.834000       15.9994           0
     71498 TIP3     16351    TIP3     H1       HT       0.417000       1.00800           0
     71499 TIP3     16351    TIP3     H2       HT       0.417000       1.00800           0
     71500 TIP3     16352    TIP3     OH2      OT      -0.834000       15.9994           0
     71501 TIP3     16352    TIP3     H1       HT       0.417000       1.00800           0
     71502 TIP3     16352    TIP3     H2       HT       0.417000       1.00800           0
     71503 TIP3     16353    TIP3     OH2      OT      -0.834000       15.9994           0
     71504 TIP3     16353    TIP3     H1       HT       0.417000       1.00800           0
     71505 TIP3     16353    TIP3     H2       HT       0.417000       1.00800           0
     71506 TIP3     16354    TIP3     OH2      OT      -0.834000       15.9994           0
     71507 TIP3     16354    TIP3     H1       HT       0.417000       1.00800           0
     71508 TIP3     16354    TIP3     H2       HT       0.417000       1.00800           0
     71509 TIP3     16355    TIP3     OH2      OT      -0.834000       15.9994           0
     71510 TIP3     16355    TIP3     H1       HT       0.417000       1.00800           0
     71511 TIP3     16355    TIP3     H2       HT       0.417000       1.00800           0
     71512 TIP3     16356    TIP3     OH2      OT      -0.834000       15.9994           0
     71513 TIP3     16356    TIP3     H1       HT       0.417000       1.00800           0
     71514 TIP3     16356    TIP3     H2       HT       0.417000       1.00800           0
     71515 TIP3     16357    TIP3     OH2      OT      -0.834000       15.9994           0
     71516 TIP3     16357    TIP3     H1       HT       0.417000       1.00800           0
     71517 TIP3     16357    TIP3     H2       HT       0.417000       1.00800           0
     71518 TIP3     16358    TIP3     OH2      OT      -0.834000       15.9994           0
     71519 TIP3     16358    TIP3     H1       HT       0.417000       1.00800           0
     71520 TIP3     16358    TIP3     H2       HT       0.417000       1.00800           0
     71521 TIP3     16359    TIP3     OH2      OT      -0.834000       15.9994           0
     71522 TIP3     16359    TIP3     H1       HT       0.417000       1.00800           0
     71523 TIP3     16359    TIP3     H2       HT       0.417000       1.00800           0
     71524 TIP3     16360    TIP3     OH2      OT      -0.834000       15.9994           0
     71525 TIP3     16360    TIP3     H1       HT       0.417000       1.00800           0
     71526 TIP3     16360    TIP3     H2       HT       0.417000       1.00800           0
     71527 TIP3     16361    TIP3     OH2      OT      -0.834000       15.9994           0
     71528 TIP3     16361    TIP3     H1       HT       0.417000       1.00800           0
     71529 TIP3     16361    TIP3     H2       HT       0.417000       1.00800           0
     71530 TIP3     16362    TIP3     OH2      OT      -0.834000       15.9994           0
     71531 TIP3     16362    TIP3     H1       HT       0.417000       1.00800           0
     71532 TIP3     16362    TIP3     H2       HT       0.417000       1.00800           0
     71533 TIP3     16363    TIP3     OH2      OT      -0.834000       15.9994           0
     71534 TIP3     16363    TIP3     H1       HT       0.417000       1.00800           0
     71535 TIP3     16363    TIP3     H2       HT       0.417000       1.00800           0
     71536 TIP3     16364    TIP3     OH2      OT      -0.834000       15.9994           0
     71537 TIP3     16364    TIP3     H1       HT       0.417000       1.00800           0
     71538 TIP3     16364    TIP3     H2       HT       0.417000       1.00800           0
     71539 TIP3     16365    TIP3     OH2      OT      -0.834000       15.9994           0
     71540 TIP3     16365    TIP3     H1       HT       0.417000       1.00800           0
     71541 TIP3     16365    TIP3     H2       HT       0.417000       1.00800           0
     71542 TIP3     16366    TIP3     OH2      OT      -0.834000       15.9994           0
     71543 TIP3     16366    TIP3     H1       HT       0.417000       1.00800           0
     71544 TIP3     16366    TIP3     H2       HT       0.417000       1.00800           0
     71545 TIP3     16367    TIP3     OH2      OT      -0.834000       15.9994           0
     71546 TIP3     16367    TIP3     H1       HT       0.417000       1.00800           0
     71547 TIP3     16367    TIP3     H2       HT       0.417000       1.00800           0
     71548 TIP3     16368    TIP3     OH2      OT      -0.834000       15.9994           0
     71549 TIP3     16368    TIP3     H1       HT       0.417000       1.00800           0
     71550 TIP3     16368    TIP3     H2       HT       0.417000       1.00800           0
     71551 TIP3     16369    TIP3     OH2      OT      -0.834000       15.9994           0
     71552 TIP3     16369    TIP3     H1       HT       0.417000       1.00800           0
     71553 TIP3     16369    TIP3     H2       HT       0.417000       1.00800           0
     71554 TIP3     16370    TIP3     OH2      OT      -0.834000       15.9994           0
     71555 TIP3     16370    TIP3     H1       HT       0.417000       1.00800           0
     71556 TIP3     16370    TIP3     H2       HT       0.417000       1.00800           0
     71557 TIP3     16371    TIP3     OH2      OT      -0.834000       15.9994           0
     71558 TIP3     16371    TIP3     H1       HT       0.417000       1.00800           0
     71559 TIP3     16371    TIP3     H2       HT       0.417000       1.00800           0
     71560 TIP3     16372    TIP3     OH2      OT      -0.834000       15.9994           0
     71561 TIP3     16372    TIP3     H1       HT       0.417000       1.00800           0
     71562 TIP3     16372    TIP3     H2       HT       0.417000       1.00800           0
     71563 TIP3     16373    TIP3     OH2      OT      -0.834000       15.9994           0
     71564 TIP3     16373    TIP3     H1       HT       0.417000       1.00800           0
     71565 TIP3     16373    TIP3     H2       HT       0.417000       1.00800           0
     71566 TIP3     16374    TIP3     OH2      OT      -0.834000       15.9994           0
     71567 TIP3     16374    TIP3     H1       HT       0.417000       1.00800           0
     71568 TIP3     16374    TIP3     H2       HT       0.417000       1.00800           0
     71569 TIP3     16375    TIP3     OH2      OT      -0.834000       15.9994           0
     71570 TIP3     16375    TIP3     H1       HT       0.417000       1.00800           0
     71571 TIP3     16375    TIP3     H2       HT       0.417000       1.00800           0
     71572 TIP3     16376    TIP3     OH2      OT      -0.834000       15.9994           0
     71573 TIP3     16376    TIP3     H1       HT       0.417000       1.00800           0
     71574 TIP3     16376    TIP3     H2       HT       0.417000       1.00800           0
     71575 TIP3     16377    TIP3     OH2      OT      -0.834000       15.9994           0
     71576 TIP3     16377    TIP3     H1       HT       0.417000       1.00800           0
     71577 TIP3     16377    TIP3     H2       HT       0.417000       1.00800           0
     71578 TIP3     16378    TIP3     OH2      OT      -0.834000       15.9994           0
     71579 TIP3     16378    TIP3     H1       HT       0.417000       1.00800           0
     71580 TIP3     16378    TIP3     H2       HT       0.417000       1.00800           0
     71581 TIP3     16379    TIP3     OH2      OT      -0.834000       15.9994           0
     71582 TIP3     16379    TIP3     H1       HT       0.417000       1.00800           0
     71583 TIP3     16379    TIP3     H2       HT       0.417000       1.00800           0
     71584 TIP3     16380    TIP3     OH2      OT      -0.834000       15.9994           0
     71585 TIP3     16380    TIP3     H1       HT       0.417000       1.00800           0
     71586 TIP3     16380    TIP3     H2       HT       0.417000       1.00800           0
     71587 TIP3     16381    TIP3     OH2      OT      -0.834000       15.9994           0
     71588 TIP3     16381    TIP3     H1       HT       0.417000       1.00800           0
     71589 TIP3     16381    TIP3     H2       HT       0.417000       1.00800           0
     71590 TIP3     16382    TIP3     OH2      OT      -0.834000       15.9994           0
     71591 TIP3     16382    TIP3     H1       HT       0.417000       1.00800           0
     71592 TIP3     16382    TIP3     H2       HT       0.417000       1.00800           0
     71593 TIP3     16383    TIP3     OH2      OT      -0.834000       15.9994           0
     71594 TIP3     16383    TIP3     H1       HT       0.417000       1.00800           0
     71595 TIP3     16383    TIP3     H2       HT       0.417000       1.00800           0
     71596 TIP3     16384    TIP3     OH2      OT      -0.834000       15.9994           0
     71597 TIP3     16384    TIP3     H1       HT       0.417000       1.00800           0
     71598 TIP3     16384    TIP3     H2       HT       0.417000       1.00800           0
     71599 TIP3     16385    TIP3     OH2      OT      -0.834000       15.9994           0
     71600 TIP3     16385    TIP3     H1       HT       0.417000       1.00800           0
     71601 TIP3     16385    TIP3     H2       HT       0.417000       1.00800           0
     71602 TIP3     16386    TIP3     OH2      OT      -0.834000       15.9994           0
     71603 TIP3     16386    TIP3     H1       HT       0.417000       1.00800           0
     71604 TIP3     16386    TIP3     H2       HT       0.417000       1.00800           0
     71605 TIP3     16387    TIP3     OH2      OT      -0.834000       15.9994           0
     71606 TIP3     16387    TIP3     H1       HT       0.417000       1.00800           0
     71607 TIP3     16387    TIP3     H2       HT       0.417000       1.00800           0
     71608 TIP3     16388    TIP3     OH2      OT      -0.834000       15.9994           0
     71609 TIP3     16388    TIP3     H1       HT       0.417000       1.00800           0
     71610 TIP3     16388    TIP3     H2       HT       0.417000       1.00800           0
     71611 TIP3     16389    TIP3     OH2      OT      -0.834000       15.9994           0
     71612 TIP3     16389    TIP3     H1       HT       0.417000       1.00800           0
     71613 TIP3     16389    TIP3     H2       HT       0.417000       1.00800           0
     71614 TIP3     16390    TIP3     OH2      OT      -0.834000       15.9994           0
     71615 TIP3     16390    TIP3     H1       HT       0.417000       1.00800           0
     71616 TIP3     16390    TIP3     H2       HT       0.417000       1.00800           0
     71617 TIP3     16391    TIP3     OH2      OT      -0.834000       15.9994           0
     71618 TIP3     16391    TIP3     H1       HT       0.417000       1.00800           0
     71619 TIP3     16391    TIP3     H2       HT       0.417000       1.00800           0
     71620 TIP3     16392    TIP3     OH2      OT      -0.834000       15.9994           0
     71621 TIP3     16392    TIP3     H1       HT       0.417000       1.00800           0
     71622 TIP3     16392    TIP3     H2       HT       0.417000       1.00800           0
     71623 TIP3     16393    TIP3     OH2      OT      -0.834000       15.9994           0
     71624 TIP3     16393    TIP3     H1       HT       0.417000       1.00800           0
     71625 TIP3     16393    TIP3     H2       HT       0.417000       1.00800           0
     71626 TIP3     16394    TIP3     OH2      OT      -0.834000       15.9994           0
     71627 TIP3     16394    TIP3     H1       HT       0.417000       1.00800           0
     71628 TIP3     16394    TIP3     H2       HT       0.417000       1.00800           0
     71629 TIP3     16395    TIP3     OH2      OT      -0.834000       15.9994           0
     71630 TIP3     16395    TIP3     H1       HT       0.417000       1.00800           0
     71631 TIP3     16395    TIP3     H2       HT       0.417000       1.00800           0
     71632 TIP3     16396    TIP3     OH2      OT      -0.834000       15.9994           0
     71633 TIP3     16396    TIP3     H1       HT       0.417000       1.00800           0
     71634 TIP3     16396    TIP3     H2       HT       0.417000       1.00800           0
     71635 TIP3     16397    TIP3     OH2      OT      -0.834000       15.9994           0
     71636 TIP3     16397    TIP3     H1       HT       0.417000       1.00800           0
     71637 TIP3     16397    TIP3     H2       HT       0.417000       1.00800           0
     71638 TIP3     16398    TIP3     OH2      OT      -0.834000       15.9994           0
     71639 TIP3     16398    TIP3     H1       HT       0.417000       1.00800           0
     71640 TIP3     16398    TIP3     H2       HT       0.417000       1.00800           0
     71641 TIP3     16399    TIP3     OH2      OT      -0.834000       15.9994           0
     71642 TIP3     16399    TIP3     H1       HT       0.417000       1.00800           0
     71643 TIP3     16399    TIP3     H2       HT       0.417000       1.00800           0
     71644 TIP3     16400    TIP3     OH2      OT      -0.834000       15.9994           0
     71645 TIP3     16400    TIP3     H1       HT       0.417000       1.00800           0
     71646 TIP3     16400    TIP3     H2       HT       0.417000       1.00800           0
     71647 TIP3     16401    TIP3     OH2      OT      -0.834000       15.9994           0
     71648 TIP3     16401    TIP3     H1       HT       0.417000       1.00800           0
     71649 TIP3     16401    TIP3     H2       HT       0.417000       1.00800           0
     71650 TIP3     16402    TIP3     OH2      OT      -0.834000       15.9994           0
     71651 TIP3     16402    TIP3     H1       HT       0.417000       1.00800           0
     71652 TIP3     16402    TIP3     H2       HT       0.417000       1.00800           0
     71653 TIP3     16403    TIP3     OH2      OT      -0.834000       15.9994           0
     71654 TIP3     16403    TIP3     H1       HT       0.417000       1.00800           0
     71655 TIP3     16403    TIP3     H2       HT       0.417000       1.00800           0
     71656 TIP3     16404    TIP3     OH2      OT      -0.834000       15.9994           0
     71657 TIP3     16404    TIP3     H1       HT       0.417000       1.00800           0
     71658 TIP3     16404    TIP3     H2       HT       0.417000       1.00800           0
     71659 TIP3     16405    TIP3     OH2      OT      -0.834000       15.9994           0
     71660 TIP3     16405    TIP3     H1       HT       0.417000       1.00800           0
     71661 TIP3     16405    TIP3     H2       HT       0.417000       1.00800           0
     71662 TIP3     16406    TIP3     OH2      OT      -0.834000       15.9994           0
     71663 TIP3     16406    TIP3     H1       HT       0.417000       1.00800           0
     71664 TIP3     16406    TIP3     H2       HT       0.417000       1.00800           0
     71665 TIP3     16407    TIP3     OH2      OT      -0.834000       15.9994           0
     71666 TIP3     16407    TIP3     H1       HT       0.417000       1.00800           0
     71667 TIP3     16407    TIP3     H2       HT       0.417000       1.00800           0
     71668 TIP3     16408    TIP3     OH2      OT      -0.834000       15.9994           0
     71669 TIP3     16408    TIP3     H1       HT       0.417000       1.00800           0
     71670 TIP3     16408    TIP3     H2       HT       0.417000       1.00800           0
     71671 TIP3     16409    TIP3     OH2      OT      -0.834000       15.9994           0
     71672 TIP3     16409    TIP3     H1       HT       0.417000       1.00800           0
     71673 TIP3     16409    TIP3     H2       HT       0.417000       1.00800           0
     71674 TIP3     16410    TIP3     OH2      OT      -0.834000       15.9994           0
     71675 TIP3     16410    TIP3     H1       HT       0.417000       1.00800           0
     71676 TIP3     16410    TIP3     H2       HT       0.417000       1.00800           0
     71677 TIP3     16411    TIP3     OH2      OT      -0.834000       15.9994           0
     71678 TIP3     16411    TIP3     H1       HT       0.417000       1.00800           0
     71679 TIP3     16411    TIP3     H2       HT       0.417000       1.00800           0
     71680 TIP3     16412    TIP3     OH2      OT      -0.834000       15.9994           0
     71681 TIP3     16412    TIP3     H1       HT       0.417000       1.00800           0
     71682 TIP3     16412    TIP3     H2       HT       0.417000       1.00800           0
     71683 TIP3     16413    TIP3     OH2      OT      -0.834000       15.9994           0
     71684 TIP3     16413    TIP3     H1       HT       0.417000       1.00800           0
     71685 TIP3     16413    TIP3     H2       HT       0.417000       1.00800           0
     71686 TIP3     16414    TIP3     OH2      OT      -0.834000       15.9994           0
     71687 TIP3     16414    TIP3     H1       HT       0.417000       1.00800           0
     71688 TIP3     16414    TIP3     H2       HT       0.417000       1.00800           0
     71689 TIP3     16415    TIP3     OH2      OT      -0.834000       15.9994           0
     71690 TIP3     16415    TIP3     H1       HT       0.417000       1.00800           0
     71691 TIP3     16415    TIP3     H2       HT       0.417000       1.00800           0
     71692 TIP3     16416    TIP3     OH2      OT      -0.834000       15.9994           0
     71693 TIP3     16416    TIP3     H1       HT       0.417000       1.00800           0
     71694 TIP3     16416    TIP3     H2       HT       0.417000       1.00800           0
     71695 TIP3     16417    TIP3     OH2      OT      -0.834000       15.9994           0
     71696 TIP3     16417    TIP3     H1       HT       0.417000       1.00800           0
     71697 TIP3     16417    TIP3     H2       HT       0.417000       1.00800           0
     71698 TIP3     16418    TIP3     OH2      OT      -0.834000       15.9994           0
     71699 TIP3     16418    TIP3     H1       HT       0.417000       1.00800           0
     71700 TIP3     16418    TIP3     H2       HT       0.417000       1.00800           0
     71701 TIP3     16419    TIP3     OH2      OT      -0.834000       15.9994           0
     71702 TIP3     16419    TIP3     H1       HT       0.417000       1.00800           0
     71703 TIP3     16419    TIP3     H2       HT       0.417000       1.00800           0
     71704 TIP3     16420    TIP3     OH2      OT      -0.834000       15.9994           0
     71705 TIP3     16420    TIP3     H1       HT       0.417000       1.00800           0
     71706 TIP3     16420    TIP3     H2       HT       0.417000       1.00800           0
     71707 TIP3     16421    TIP3     OH2      OT      -0.834000       15.9994           0
     71708 TIP3     16421    TIP3     H1       HT       0.417000       1.00800           0
     71709 TIP3     16421    TIP3     H2       HT       0.417000       1.00800           0
     71710 TIP3     16422    TIP3     OH2      OT      -0.834000       15.9994           0
     71711 TIP3     16422    TIP3     H1       HT       0.417000       1.00800           0
     71712 TIP3     16422    TIP3     H2       HT       0.417000       1.00800           0
     71713 TIP3     16423    TIP3     OH2      OT      -0.834000       15.9994           0
     71714 TIP3     16423    TIP3     H1       HT       0.417000       1.00800           0
     71715 TIP3     16423    TIP3     H2       HT       0.417000       1.00800           0
     71716 TIP3     16424    TIP3     OH2      OT      -0.834000       15.9994           0
     71717 TIP3     16424    TIP3     H1       HT       0.417000       1.00800           0
     71718 TIP3     16424    TIP3     H2       HT       0.417000       1.00800           0
     71719 TIP3     16425    TIP3     OH2      OT      -0.834000       15.9994           0
     71720 TIP3     16425    TIP3     H1       HT       0.417000       1.00800           0
     71721 TIP3     16425    TIP3     H2       HT       0.417000       1.00800           0
     71722 TIP3     16426    TIP3     OH2      OT      -0.834000       15.9994           0
     71723 TIP3     16426    TIP3     H1       HT       0.417000       1.00800           0
     71724 TIP3     16426    TIP3     H2       HT       0.417000       1.00800           0
     71725 TIP3     16427    TIP3     OH2      OT      -0.834000       15.9994           0
     71726 TIP3     16427    TIP3     H1       HT       0.417000       1.00800           0
     71727 TIP3     16427    TIP3     H2       HT       0.417000       1.00800           0
     71728 TIP3     16428    TIP3     OH2      OT      -0.834000       15.9994           0
     71729 TIP3     16428    TIP3     H1       HT       0.417000       1.00800           0
     71730 TIP3     16428    TIP3     H2       HT       0.417000       1.00800           0
     71731 TIP3     16429    TIP3     OH2      OT      -0.834000       15.9994           0
     71732 TIP3     16429    TIP3     H1       HT       0.417000       1.00800           0
     71733 TIP3     16429    TIP3     H2       HT       0.417000       1.00800           0
     71734 TIP3     16430    TIP3     OH2      OT      -0.834000       15.9994           0
     71735 TIP3     16430    TIP3     H1       HT       0.417000       1.00800           0
     71736 TIP3     16430    TIP3     H2       HT       0.417000       1.00800           0
     71737 TIP3     16431    TIP3     OH2      OT      -0.834000       15.9994           0
     71738 TIP3     16431    TIP3     H1       HT       0.417000       1.00800           0
     71739 TIP3     16431    TIP3     H2       HT       0.417000       1.00800           0
     71740 TIP3     16432    TIP3     OH2      OT      -0.834000       15.9994           0
     71741 TIP3     16432    TIP3     H1       HT       0.417000       1.00800           0
     71742 TIP3     16432    TIP3     H2       HT       0.417000       1.00800           0
     71743 TIP3     16433    TIP3     OH2      OT      -0.834000       15.9994           0
     71744 TIP3     16433    TIP3     H1       HT       0.417000       1.00800           0
     71745 TIP3     16433    TIP3     H2       HT       0.417000       1.00800           0
     71746 TIP3     16434    TIP3     OH2      OT      -0.834000       15.9994           0
     71747 TIP3     16434    TIP3     H1       HT       0.417000       1.00800           0
     71748 TIP3     16434    TIP3     H2       HT       0.417000       1.00800           0
     71749 TIP3     16435    TIP3     OH2      OT      -0.834000       15.9994           0
     71750 TIP3     16435    TIP3     H1       HT       0.417000       1.00800           0
     71751 TIP3     16435    TIP3     H2       HT       0.417000       1.00800           0
     71752 TIP3     16436    TIP3     OH2      OT      -0.834000       15.9994           0
     71753 TIP3     16436    TIP3     H1       HT       0.417000       1.00800           0
     71754 TIP3     16436    TIP3     H2       HT       0.417000       1.00800           0
     71755 TIP3     16437    TIP3     OH2      OT      -0.834000       15.9994           0
     71756 TIP3     16437    TIP3     H1       HT       0.417000       1.00800           0
     71757 TIP3     16437    TIP3     H2       HT       0.417000       1.00800           0
     71758 TIP3     16438    TIP3     OH2      OT      -0.834000       15.9994           0
     71759 TIP3     16438    TIP3     H1       HT       0.417000       1.00800           0
     71760 TIP3     16438    TIP3     H2       HT       0.417000       1.00800           0
     71761 TIP3     16439    TIP3     OH2      OT      -0.834000       15.9994           0
     71762 TIP3     16439    TIP3     H1       HT       0.417000       1.00800           0
     71763 TIP3     16439    TIP3     H2       HT       0.417000       1.00800           0
     71764 TIP3     16440    TIP3     OH2      OT      -0.834000       15.9994           0
     71765 TIP3     16440    TIP3     H1       HT       0.417000       1.00800           0
     71766 TIP3     16440    TIP3     H2       HT       0.417000       1.00800           0
     71767 TIP3     16441    TIP3     OH2      OT      -0.834000       15.9994           0
     71768 TIP3     16441    TIP3     H1       HT       0.417000       1.00800           0
     71769 TIP3     16441    TIP3     H2       HT       0.417000       1.00800           0
     71770 TIP3     16442    TIP3     OH2      OT      -0.834000       15.9994           0
     71771 TIP3     16442    TIP3     H1       HT       0.417000       1.00800           0
     71772 TIP3     16442    TIP3     H2       HT       0.417000       1.00800           0
     71773 TIP3     16443    TIP3     OH2      OT      -0.834000       15.9994           0
     71774 TIP3     16443    TIP3     H1       HT       0.417000       1.00800           0
     71775 TIP3     16443    TIP3     H2       HT       0.417000       1.00800           0
     71776 TIP3     16444    TIP3     OH2      OT      -0.834000       15.9994           0
     71777 TIP3     16444    TIP3     H1       HT       0.417000       1.00800           0
     71778 TIP3     16444    TIP3     H2       HT       0.417000       1.00800           0
     71779 TIP3     16445    TIP3     OH2      OT      -0.834000       15.9994           0
     71780 TIP3     16445    TIP3     H1       HT       0.417000       1.00800           0
     71781 TIP3     16445    TIP3     H2       HT       0.417000       1.00800           0
     71782 TIP3     16446    TIP3     OH2      OT      -0.834000       15.9994           0
     71783 TIP3     16446    TIP3     H1       HT       0.417000       1.00800           0
     71784 TIP3     16446    TIP3     H2       HT       0.417000       1.00800           0
     71785 TIP3     16447    TIP3     OH2      OT      -0.834000       15.9994           0
     71786 TIP3     16447    TIP3     H1       HT       0.417000       1.00800           0
     71787 TIP3     16447    TIP3     H2       HT       0.417000       1.00800           0
     71788 TIP3     16448    TIP3     OH2      OT      -0.834000       15.9994           0
     71789 TIP3     16448    TIP3     H1       HT       0.417000       1.00800           0
     71790 TIP3     16448    TIP3     H2       HT       0.417000       1.00800           0
     71791 TIP3     16449    TIP3     OH2      OT      -0.834000       15.9994           0
     71792 TIP3     16449    TIP3     H1       HT       0.417000       1.00800           0
     71793 TIP3     16449    TIP3     H2       HT       0.417000       1.00800           0
     71794 TIP3     16450    TIP3     OH2      OT      -0.834000       15.9994           0
     71795 TIP3     16450    TIP3     H1       HT       0.417000       1.00800           0
     71796 TIP3     16450    TIP3     H2       HT       0.417000       1.00800           0
     71797 TIP3     16451    TIP3     OH2      OT      -0.834000       15.9994           0
     71798 TIP3     16451    TIP3     H1       HT       0.417000       1.00800           0
     71799 TIP3     16451    TIP3     H2       HT       0.417000       1.00800           0
     71800 TIP3     16452    TIP3     OH2      OT      -0.834000       15.9994           0
     71801 TIP3     16452    TIP3     H1       HT       0.417000       1.00800           0
     71802 TIP3     16452    TIP3     H2       HT       0.417000       1.00800           0
     71803 TIP3     16453    TIP3     OH2      OT      -0.834000       15.9994           0
     71804 TIP3     16453    TIP3     H1       HT       0.417000       1.00800           0
     71805 TIP3     16453    TIP3     H2       HT       0.417000       1.00800           0
     71806 TIP3     16454    TIP3     OH2      OT      -0.834000       15.9994           0
     71807 TIP3     16454    TIP3     H1       HT       0.417000       1.00800           0
     71808 TIP3     16454    TIP3     H2       HT       0.417000       1.00800           0
     71809 TIP3     16455    TIP3     OH2      OT      -0.834000       15.9994           0
     71810 TIP3     16455    TIP3     H1       HT       0.417000       1.00800           0
     71811 TIP3     16455    TIP3     H2       HT       0.417000       1.00800           0
     71812 TIP3     16456    TIP3     OH2      OT      -0.834000       15.9994           0
     71813 TIP3     16456    TIP3     H1       HT       0.417000       1.00800           0
     71814 TIP3     16456    TIP3     H2       HT       0.417000       1.00800           0
     71815 TIP3     16457    TIP3     OH2      OT      -0.834000       15.9994           0
     71816 TIP3     16457    TIP3     H1       HT       0.417000       1.00800           0
     71817 TIP3     16457    TIP3     H2       HT       0.417000       1.00800           0
     71818 TIP3     16458    TIP3     OH2      OT      -0.834000       15.9994           0
     71819 TIP3     16458    TIP3     H1       HT       0.417000       1.00800           0
     71820 TIP3     16458    TIP3     H2       HT       0.417000       1.00800           0
     71821 TIP3     16459    TIP3     OH2      OT      -0.834000       15.9994           0
     71822 TIP3     16459    TIP3     H1       HT       0.417000       1.00800           0
     71823 TIP3     16459    TIP3     H2       HT       0.417000       1.00800           0
     71824 TIP3     16460    TIP3     OH2      OT      -0.834000       15.9994           0
     71825 TIP3     16460    TIP3     H1       HT       0.417000       1.00800           0
     71826 TIP3     16460    TIP3     H2       HT       0.417000       1.00800           0
     71827 TIP3     16461    TIP3     OH2      OT      -0.834000       15.9994           0
     71828 TIP3     16461    TIP3     H1       HT       0.417000       1.00800           0
     71829 TIP3     16461    TIP3     H2       HT       0.417000       1.00800           0
     71830 TIP3     16462    TIP3     OH2      OT      -0.834000       15.9994           0
     71831 TIP3     16462    TIP3     H1       HT       0.417000       1.00800           0
     71832 TIP3     16462    TIP3     H2       HT       0.417000       1.00800           0
     71833 TIP3     16463    TIP3     OH2      OT      -0.834000       15.9994           0
     71834 TIP3     16463    TIP3     H1       HT       0.417000       1.00800           0
     71835 TIP3     16463    TIP3     H2       HT       0.417000       1.00800           0
     71836 TIP3     16464    TIP3     OH2      OT      -0.834000       15.9994           0
     71837 TIP3     16464    TIP3     H1       HT       0.417000       1.00800           0
     71838 TIP3     16464    TIP3     H2       HT       0.417000       1.00800           0
     71839 TIP3     16465    TIP3     OH2      OT      -0.834000       15.9994           0
     71840 TIP3     16465    TIP3     H1       HT       0.417000       1.00800           0
     71841 TIP3     16465    TIP3     H2       HT       0.417000       1.00800           0
     71842 TIP3     16466    TIP3     OH2      OT      -0.834000       15.9994           0
     71843 TIP3     16466    TIP3     H1       HT       0.417000       1.00800           0
     71844 TIP3     16466    TIP3     H2       HT       0.417000       1.00800           0
     71845 TIP3     16467    TIP3     OH2      OT      -0.834000       15.9994           0
     71846 TIP3     16467    TIP3     H1       HT       0.417000       1.00800           0
     71847 TIP3     16467    TIP3     H2       HT       0.417000       1.00800           0
     71848 TIP3     16468    TIP3     OH2      OT      -0.834000       15.9994           0
     71849 TIP3     16468    TIP3     H1       HT       0.417000       1.00800           0
     71850 TIP3     16468    TIP3     H2       HT       0.417000       1.00800           0
     71851 TIP3     16469    TIP3     OH2      OT      -0.834000       15.9994           0
     71852 TIP3     16469    TIP3     H1       HT       0.417000       1.00800           0
     71853 TIP3     16469    TIP3     H2       HT       0.417000       1.00800           0
     71854 TIP3     16470    TIP3     OH2      OT      -0.834000       15.9994           0
     71855 TIP3     16470    TIP3     H1       HT       0.417000       1.00800           0
     71856 TIP3     16470    TIP3     H2       HT       0.417000       1.00800           0
     71857 TIP3     16471    TIP3     OH2      OT      -0.834000       15.9994           0
     71858 TIP3     16471    TIP3     H1       HT       0.417000       1.00800           0
     71859 TIP3     16471    TIP3     H2       HT       0.417000       1.00800           0
     71860 TIP3     16472    TIP3     OH2      OT      -0.834000       15.9994           0
     71861 TIP3     16472    TIP3     H1       HT       0.417000       1.00800           0
     71862 TIP3     16472    TIP3     H2       HT       0.417000       1.00800           0
     71863 TIP3     16473    TIP3     OH2      OT      -0.834000       15.9994           0
     71864 TIP3     16473    TIP3     H1       HT       0.417000       1.00800           0
     71865 TIP3     16473    TIP3     H2       HT       0.417000       1.00800           0
     71866 TIP3     16474    TIP3     OH2      OT      -0.834000       15.9994           0
     71867 TIP3     16474    TIP3     H1       HT       0.417000       1.00800           0
     71868 TIP3     16474    TIP3     H2       HT       0.417000       1.00800           0
     71869 TIP3     16475    TIP3     OH2      OT      -0.834000       15.9994           0
     71870 TIP3     16475    TIP3     H1       HT       0.417000       1.00800           0
     71871 TIP3     16475    TIP3     H2       HT       0.417000       1.00800           0
     71872 TIP3     16476    TIP3     OH2      OT      -0.834000       15.9994           0
     71873 TIP3     16476    TIP3     H1       HT       0.417000       1.00800           0
     71874 TIP3     16476    TIP3     H2       HT       0.417000       1.00800           0
     71875 TIP3     16477    TIP3     OH2      OT      -0.834000       15.9994           0
     71876 TIP3     16477    TIP3     H1       HT       0.417000       1.00800           0
     71877 TIP3     16477    TIP3     H2       HT       0.417000       1.00800           0
     71878 TIP3     16478    TIP3     OH2      OT      -0.834000       15.9994           0
     71879 TIP3     16478    TIP3     H1       HT       0.417000       1.00800           0
     71880 TIP3     16478    TIP3     H2       HT       0.417000       1.00800           0
     71881 TIP3     16479    TIP3     OH2      OT      -0.834000       15.9994           0
     71882 TIP3     16479    TIP3     H1       HT       0.417000       1.00800           0
     71883 TIP3     16479    TIP3     H2       HT       0.417000       1.00800           0
     71884 TIP3     16480    TIP3     OH2      OT      -0.834000       15.9994           0
     71885 TIP3     16480    TIP3     H1       HT       0.417000       1.00800           0
     71886 TIP3     16480    TIP3     H2       HT       0.417000       1.00800           0
     71887 TIP3     16481    TIP3     OH2      OT      -0.834000       15.9994           0
     71888 TIP3     16481    TIP3     H1       HT       0.417000       1.00800           0
     71889 TIP3     16481    TIP3     H2       HT       0.417000       1.00800           0
     71890 TIP3     16482    TIP3     OH2      OT      -0.834000       15.9994           0
     71891 TIP3     16482    TIP3     H1       HT       0.417000       1.00800           0
     71892 TIP3     16482    TIP3     H2       HT       0.417000       1.00800           0
     71893 TIP3     16483    TIP3     OH2      OT      -0.834000       15.9994           0
     71894 TIP3     16483    TIP3     H1       HT       0.417000       1.00800           0
     71895 TIP3     16483    TIP3     H2       HT       0.417000       1.00800           0
     71896 TIP3     16484    TIP3     OH2      OT      -0.834000       15.9994           0
     71897 TIP3     16484    TIP3     H1       HT       0.417000       1.00800           0
     71898 TIP3     16484    TIP3     H2       HT       0.417000       1.00800           0
     71899 TIP3     16485    TIP3     OH2      OT      -0.834000       15.9994           0
     71900 TIP3     16485    TIP3     H1       HT       0.417000       1.00800           0
     71901 TIP3     16485    TIP3     H2       HT       0.417000       1.00800           0
     71902 TIP3     16486    TIP3     OH2      OT      -0.834000       15.9994           0
     71903 TIP3     16486    TIP3     H1       HT       0.417000       1.00800           0
     71904 TIP3     16486    TIP3     H2       HT       0.417000       1.00800           0
     71905 TIP3     16487    TIP3     OH2      OT      -0.834000       15.9994           0
     71906 TIP3     16487    TIP3     H1       HT       0.417000       1.00800           0
     71907 TIP3     16487    TIP3     H2       HT       0.417000       1.00800           0
     71908 TIP3     16488    TIP3     OH2      OT      -0.834000       15.9994           0
     71909 TIP3     16488    TIP3     H1       HT       0.417000       1.00800           0
     71910 TIP3     16488    TIP3     H2       HT       0.417000       1.00800           0
     71911 TIP3     16489    TIP3     OH2      OT      -0.834000       15.9994           0
     71912 TIP3     16489    TIP3     H1       HT       0.417000       1.00800           0
     71913 TIP3     16489    TIP3     H2       HT       0.417000       1.00800           0
     71914 TIP3     16490    TIP3     OH2      OT      -0.834000       15.9994           0
     71915 TIP3     16490    TIP3     H1       HT       0.417000       1.00800           0
     71916 TIP3     16490    TIP3     H2       HT       0.417000       1.00800           0
     71917 TIP3     16491    TIP3     OH2      OT      -0.834000       15.9994           0
     71918 TIP3     16491    TIP3     H1       HT       0.417000       1.00800           0
     71919 TIP3     16491    TIP3     H2       HT       0.417000       1.00800           0
     71920 TIP3     16492    TIP3     OH2      OT      -0.834000       15.9994           0
     71921 TIP3     16492    TIP3     H1       HT       0.417000       1.00800           0
     71922 TIP3     16492    TIP3     H2       HT       0.417000       1.00800           0
     71923 TIP3     16493    TIP3     OH2      OT      -0.834000       15.9994           0
     71924 TIP3     16493    TIP3     H1       HT       0.417000       1.00800           0
     71925 TIP3     16493    TIP3     H2       HT       0.417000       1.00800           0
     71926 TIP3     16494    TIP3     OH2      OT      -0.834000       15.9994           0
     71927 TIP3     16494    TIP3     H1       HT       0.417000       1.00800           0
     71928 TIP3     16494    TIP3     H2       HT       0.417000       1.00800           0
     71929 TIP3     16495    TIP3     OH2      OT      -0.834000       15.9994           0
     71930 TIP3     16495    TIP3     H1       HT       0.417000       1.00800           0
     71931 TIP3     16495    TIP3     H2       HT       0.417000       1.00800           0
     71932 TIP3     16496    TIP3     OH2      OT      -0.834000       15.9994           0
     71933 TIP3     16496    TIP3     H1       HT       0.417000       1.00800           0
     71934 TIP3     16496    TIP3     H2       HT       0.417000       1.00800           0
     71935 TIP3     16497    TIP3     OH2      OT      -0.834000       15.9994           0
     71936 TIP3     16497    TIP3     H1       HT       0.417000       1.00800           0
     71937 TIP3     16497    TIP3     H2       HT       0.417000       1.00800           0
     71938 TIP3     16498    TIP3     OH2      OT      -0.834000       15.9994           0
     71939 TIP3     16498    TIP3     H1       HT       0.417000       1.00800           0
     71940 TIP3     16498    TIP3     H2       HT       0.417000       1.00800           0
     71941 TIP3     16499    TIP3     OH2      OT      -0.834000       15.9994           0
     71942 TIP3     16499    TIP3     H1       HT       0.417000       1.00800           0
     71943 TIP3     16499    TIP3     H2       HT       0.417000       1.00800           0
     71944 TIP3     16500    TIP3     OH2      OT      -0.834000       15.9994           0
     71945 TIP3     16500    TIP3     H1       HT       0.417000       1.00800           0
     71946 TIP3     16500    TIP3     H2       HT       0.417000       1.00800           0
     71947 TIP3     16501    TIP3     OH2      OT      -0.834000       15.9994           0
     71948 TIP3     16501    TIP3     H1       HT       0.417000       1.00800           0
     71949 TIP3     16501    TIP3     H2       HT       0.417000       1.00800           0
     71950 TIP3     16502    TIP3     OH2      OT      -0.834000       15.9994           0
     71951 TIP3     16502    TIP3     H1       HT       0.417000       1.00800           0
     71952 TIP3     16502    TIP3     H2       HT       0.417000       1.00800           0
     71953 TIP3     16503    TIP3     OH2      OT      -0.834000       15.9994           0
     71954 TIP3     16503    TIP3     H1       HT       0.417000       1.00800           0
     71955 TIP3     16503    TIP3     H2       HT       0.417000       1.00800           0
     71956 TIP3     16504    TIP3     OH2      OT      -0.834000       15.9994           0
     71957 TIP3     16504    TIP3     H1       HT       0.417000       1.00800           0
     71958 TIP3     16504    TIP3     H2       HT       0.417000       1.00800           0
     71959 TIP3     16505    TIP3     OH2      OT      -0.834000       15.9994           0
     71960 TIP3     16505    TIP3     H1       HT       0.417000       1.00800           0
     71961 TIP3     16505    TIP3     H2       HT       0.417000       1.00800           0
     71962 TIP3     16506    TIP3     OH2      OT      -0.834000       15.9994           0
     71963 TIP3     16506    TIP3     H1       HT       0.417000       1.00800           0
     71964 TIP3     16506    TIP3     H2       HT       0.417000       1.00800           0
     71965 TIP3     16507    TIP3     OH2      OT      -0.834000       15.9994           0
     71966 TIP3     16507    TIP3     H1       HT       0.417000       1.00800           0
     71967 TIP3     16507    TIP3     H2       HT       0.417000       1.00800           0
     71968 TIP3     16508    TIP3     OH2      OT      -0.834000       15.9994           0
     71969 TIP3     16508    TIP3     H1       HT       0.417000       1.00800           0
     71970 TIP3     16508    TIP3     H2       HT       0.417000       1.00800           0
     71971 TIP3     16509    TIP3     OH2      OT      -0.834000       15.9994           0
     71972 TIP3     16509    TIP3     H1       HT       0.417000       1.00800           0
     71973 TIP3     16509    TIP3     H2       HT       0.417000       1.00800           0
     71974 TIP3     16510    TIP3     OH2      OT      -0.834000       15.9994           0
     71975 TIP3     16510    TIP3     H1       HT       0.417000       1.00800           0
     71976 TIP3     16510    TIP3     H2       HT       0.417000       1.00800           0
     71977 TIP3     16511    TIP3     OH2      OT      -0.834000       15.9994           0
     71978 TIP3     16511    TIP3     H1       HT       0.417000       1.00800           0
     71979 TIP3     16511    TIP3     H2       HT       0.417000       1.00800           0
     71980 TIP3     16512    TIP3     OH2      OT      -0.834000       15.9994           0
     71981 TIP3     16512    TIP3     H1       HT       0.417000       1.00800           0
     71982 TIP3     16512    TIP3     H2       HT       0.417000       1.00800           0
     71983 TIP3     16513    TIP3     OH2      OT      -0.834000       15.9994           0
     71984 TIP3     16513    TIP3     H1       HT       0.417000       1.00800           0
     71985 TIP3     16513    TIP3     H2       HT       0.417000       1.00800           0
     71986 TIP3     16514    TIP3     OH2      OT      -0.834000       15.9994           0
     71987 TIP3     16514    TIP3     H1       HT       0.417000       1.00800           0
     71988 TIP3     16514    TIP3     H2       HT       0.417000       1.00800           0
     71989 TIP3     16515    TIP3     OH2      OT      -0.834000       15.9994           0
     71990 TIP3     16515    TIP3     H1       HT       0.417000       1.00800           0
     71991 TIP3     16515    TIP3     H2       HT       0.417000       1.00800           0
     71992 TIP3     16516    TIP3     OH2      OT      -0.834000       15.9994           0
     71993 TIP3     16516    TIP3     H1       HT       0.417000       1.00800           0
     71994 TIP3     16516    TIP3     H2       HT       0.417000       1.00800           0
     71995 TIP3     16517    TIP3     OH2      OT      -0.834000       15.9994           0
     71996 TIP3     16517    TIP3     H1       HT       0.417000       1.00800           0
     71997 TIP3     16517    TIP3     H2       HT       0.417000       1.00800           0
     71998 TIP3     16518    TIP3     OH2      OT      -0.834000       15.9994           0
     71999 TIP3     16518    TIP3     H1       HT       0.417000       1.00800           0
     72000 TIP3     16518    TIP3     H2       HT       0.417000       1.00800           0
     72001 TIP3     16519    TIP3     OH2      OT      -0.834000       15.9994           0
     72002 TIP3     16519    TIP3     H1       HT       0.417000       1.00800           0
     72003 TIP3     16519    TIP3     H2       HT       0.417000       1.00800           0
     72004 TIP3     16520    TIP3     OH2      OT      -0.834000       15.9994           0
     72005 TIP3     16520    TIP3     H1       HT       0.417000       1.00800           0
     72006 TIP3     16520    TIP3     H2       HT       0.417000       1.00800           0
     72007 TIP3     16521    TIP3     OH2      OT      -0.834000       15.9994           0
     72008 TIP3     16521    TIP3     H1       HT       0.417000       1.00800           0
     72009 TIP3     16521    TIP3     H2       HT       0.417000       1.00800           0
     72010 TIP3     16522    TIP3     OH2      OT      -0.834000       15.9994           0
     72011 TIP3     16522    TIP3     H1       HT       0.417000       1.00800           0
     72012 TIP3     16522    TIP3     H2       HT       0.417000       1.00800           0
     72013 TIP3     16523    TIP3     OH2      OT      -0.834000       15.9994           0
     72014 TIP3     16523    TIP3     H1       HT       0.417000       1.00800           0
     72015 TIP3     16523    TIP3     H2       HT       0.417000       1.00800           0
     72016 TIP3     16524    TIP3     OH2      OT      -0.834000       15.9994           0
     72017 TIP3     16524    TIP3     H1       HT       0.417000       1.00800           0
     72018 TIP3     16524    TIP3     H2       HT       0.417000       1.00800           0
     72019 TIP3     16525    TIP3     OH2      OT      -0.834000       15.9994           0
     72020 TIP3     16525    TIP3     H1       HT       0.417000       1.00800           0
     72021 TIP3     16525    TIP3     H2       HT       0.417000       1.00800           0
     72022 TIP3     16526    TIP3     OH2      OT      -0.834000       15.9994           0
     72023 TIP3     16526    TIP3     H1       HT       0.417000       1.00800           0
     72024 TIP3     16526    TIP3     H2       HT       0.417000       1.00800           0
     72025 TIP3     16527    TIP3     OH2      OT      -0.834000       15.9994           0
     72026 TIP3     16527    TIP3     H1       HT       0.417000       1.00800           0
     72027 TIP3     16527    TIP3     H2       HT       0.417000       1.00800           0
     72028 TIP3     16528    TIP3     OH2      OT      -0.834000       15.9994           0
     72029 TIP3     16528    TIP3     H1       HT       0.417000       1.00800           0
     72030 TIP3     16528    TIP3     H2       HT       0.417000       1.00800           0
     72031 TIP3     16529    TIP3     OH2      OT      -0.834000       15.9994           0
     72032 TIP3     16529    TIP3     H1       HT       0.417000       1.00800           0
     72033 TIP3     16529    TIP3     H2       HT       0.417000       1.00800           0
     72034 TIP3     16530    TIP3     OH2      OT      -0.834000       15.9994           0
     72035 TIP3     16530    TIP3     H1       HT       0.417000       1.00800           0
     72036 TIP3     16530    TIP3     H2       HT       0.417000       1.00800           0
     72037 TIP3     16531    TIP3     OH2      OT      -0.834000       15.9994           0
     72038 TIP3     16531    TIP3     H1       HT       0.417000       1.00800           0
     72039 TIP3     16531    TIP3     H2       HT       0.417000       1.00800           0
     72040 TIP3     16532    TIP3     OH2      OT      -0.834000       15.9994           0
     72041 TIP3     16532    TIP3     H1       HT       0.417000       1.00800           0
     72042 TIP3     16532    TIP3     H2       HT       0.417000       1.00800           0
     72043 TIP3     16533    TIP3     OH2      OT      -0.834000       15.9994           0
     72044 TIP3     16533    TIP3     H1       HT       0.417000       1.00800           0
     72045 TIP3     16533    TIP3     H2       HT       0.417000       1.00800           0
     72046 TIP3     16534    TIP3     OH2      OT      -0.834000       15.9994           0
     72047 TIP3     16534    TIP3     H1       HT       0.417000       1.00800           0
     72048 TIP3     16534    TIP3     H2       HT       0.417000       1.00800           0
     72049 TIP3     16535    TIP3     OH2      OT      -0.834000       15.9994           0
     72050 TIP3     16535    TIP3     H1       HT       0.417000       1.00800           0
     72051 TIP3     16535    TIP3     H2       HT       0.417000       1.00800           0
     72052 TIP3     16536    TIP3     OH2      OT      -0.834000       15.9994           0
     72053 TIP3     16536    TIP3     H1       HT       0.417000       1.00800           0
     72054 TIP3     16536    TIP3     H2       HT       0.417000       1.00800           0
     72055 TIP3     16537    TIP3     OH2      OT      -0.834000       15.9994           0
     72056 TIP3     16537    TIP3     H1       HT       0.417000       1.00800           0
     72057 TIP3     16537    TIP3     H2       HT       0.417000       1.00800           0
     72058 TIP3     16538    TIP3     OH2      OT      -0.834000       15.9994           0
     72059 TIP3     16538    TIP3     H1       HT       0.417000       1.00800           0
     72060 TIP3     16538    TIP3     H2       HT       0.417000       1.00800           0
     72061 TIP3     16539    TIP3     OH2      OT      -0.834000       15.9994           0
     72062 TIP3     16539    TIP3     H1       HT       0.417000       1.00800           0
     72063 TIP3     16539    TIP3     H2       HT       0.417000       1.00800           0
     72064 TIP3     16540    TIP3     OH2      OT      -0.834000       15.9994           0
     72065 TIP3     16540    TIP3     H1       HT       0.417000       1.00800           0
     72066 TIP3     16540    TIP3     H2       HT       0.417000       1.00800           0
     72067 TIP3     16541    TIP3     OH2      OT      -0.834000       15.9994           0
     72068 TIP3     16541    TIP3     H1       HT       0.417000       1.00800           0
     72069 TIP3     16541    TIP3     H2       HT       0.417000       1.00800           0
     72070 TIP3     16542    TIP3     OH2      OT      -0.834000       15.9994           0
     72071 TIP3     16542    TIP3     H1       HT       0.417000       1.00800           0
     72072 TIP3     16542    TIP3     H2       HT       0.417000       1.00800           0
     72073 TIP3     16543    TIP3     OH2      OT      -0.834000       15.9994           0
     72074 TIP3     16543    TIP3     H1       HT       0.417000       1.00800           0
     72075 TIP3     16543    TIP3     H2       HT       0.417000       1.00800           0
     72076 TIP3     16544    TIP3     OH2      OT      -0.834000       15.9994           0
     72077 TIP3     16544    TIP3     H1       HT       0.417000       1.00800           0
     72078 TIP3     16544    TIP3     H2       HT       0.417000       1.00800           0
     72079 TIP3     16545    TIP3     OH2      OT      -0.834000       15.9994           0
     72080 TIP3     16545    TIP3     H1       HT       0.417000       1.00800           0
     72081 TIP3     16545    TIP3     H2       HT       0.417000       1.00800           0
     72082 TIP3     16546    TIP3     OH2      OT      -0.834000       15.9994           0
     72083 TIP3     16546    TIP3     H1       HT       0.417000       1.00800           0
     72084 TIP3     16546    TIP3     H2       HT       0.417000       1.00800           0
     72085 TIP3     16547    TIP3     OH2      OT      -0.834000       15.9994           0
     72086 TIP3     16547    TIP3     H1       HT       0.417000       1.00800           0
     72087 TIP3     16547    TIP3     H2       HT       0.417000       1.00800           0
     72088 TIP3     16548    TIP3     OH2      OT      -0.834000       15.9994           0
     72089 TIP3     16548    TIP3     H1       HT       0.417000       1.00800           0
     72090 TIP3     16548    TIP3     H2       HT       0.417000       1.00800           0
     72091 TIP3     16549    TIP3     OH2      OT      -0.834000       15.9994           0
     72092 TIP3     16549    TIP3     H1       HT       0.417000       1.00800           0
     72093 TIP3     16549    TIP3     H2       HT       0.417000       1.00800           0
     72094 TIP3     16550    TIP3     OH2      OT      -0.834000       15.9994           0
     72095 TIP3     16550    TIP3     H1       HT       0.417000       1.00800           0
     72096 TIP3     16550    TIP3     H2       HT       0.417000       1.00800           0
     72097 TIP3     16551    TIP3     OH2      OT      -0.834000       15.9994           0
     72098 TIP3     16551    TIP3     H1       HT       0.417000       1.00800           0
     72099 TIP3     16551    TIP3     H2       HT       0.417000       1.00800           0
     72100 TIP3     16552    TIP3     OH2      OT      -0.834000       15.9994           0
     72101 TIP3     16552    TIP3     H1       HT       0.417000       1.00800           0
     72102 TIP3     16552    TIP3     H2       HT       0.417000       1.00800           0
     72103 TIP3     16553    TIP3     OH2      OT      -0.834000       15.9994           0
     72104 TIP3     16553    TIP3     H1       HT       0.417000       1.00800           0
     72105 TIP3     16553    TIP3     H2       HT       0.417000       1.00800           0
     72106 TIP3     16554    TIP3     OH2      OT      -0.834000       15.9994           0
     72107 TIP3     16554    TIP3     H1       HT       0.417000       1.00800           0
     72108 TIP3     16554    TIP3     H2       HT       0.417000       1.00800           0
     72109 TIP3     16555    TIP3     OH2      OT      -0.834000       15.9994           0
     72110 TIP3     16555    TIP3     H1       HT       0.417000       1.00800           0
     72111 TIP3     16555    TIP3     H2       HT       0.417000       1.00800           0
     72112 TIP3     16556    TIP3     OH2      OT      -0.834000       15.9994           0
     72113 TIP3     16556    TIP3     H1       HT       0.417000       1.00800           0
     72114 TIP3     16556    TIP3     H2       HT       0.417000       1.00800           0
     72115 TIP3     16557    TIP3     OH2      OT      -0.834000       15.9994           0
     72116 TIP3     16557    TIP3     H1       HT       0.417000       1.00800           0
     72117 TIP3     16557    TIP3     H2       HT       0.417000       1.00800           0
     72118 TIP3     16558    TIP3     OH2      OT      -0.834000       15.9994           0
     72119 TIP3     16558    TIP3     H1       HT       0.417000       1.00800           0
     72120 TIP3     16558    TIP3     H2       HT       0.417000       1.00800           0
     72121 TIP3     16559    TIP3     OH2      OT      -0.834000       15.9994           0
     72122 TIP3     16559    TIP3     H1       HT       0.417000       1.00800           0
     72123 TIP3     16559    TIP3     H2       HT       0.417000       1.00800           0
     72124 TIP3     16560    TIP3     OH2      OT      -0.834000       15.9994           0
     72125 TIP3     16560    TIP3     H1       HT       0.417000       1.00800           0
     72126 TIP3     16560    TIP3     H2       HT       0.417000       1.00800           0
     72127 TIP3     16561    TIP3     OH2      OT      -0.834000       15.9994           0
     72128 TIP3     16561    TIP3     H1       HT       0.417000       1.00800           0
     72129 TIP3     16561    TIP3     H2       HT       0.417000       1.00800           0
     72130 TIP3     16562    TIP3     OH2      OT      -0.834000       15.9994           0
     72131 TIP3     16562    TIP3     H1       HT       0.417000       1.00800           0
     72132 TIP3     16562    TIP3     H2       HT       0.417000       1.00800           0
     72133 TIP3     16563    TIP3     OH2      OT      -0.834000       15.9994           0
     72134 TIP3     16563    TIP3     H1       HT       0.417000       1.00800           0
     72135 TIP3     16563    TIP3     H2       HT       0.417000       1.00800           0
     72136 TIP3     16564    TIP3     OH2      OT      -0.834000       15.9994           0
     72137 TIP3     16564    TIP3     H1       HT       0.417000       1.00800           0
     72138 TIP3     16564    TIP3     H2       HT       0.417000       1.00800           0
     72139 TIP3     16565    TIP3     OH2      OT      -0.834000       15.9994           0
     72140 TIP3     16565    TIP3     H1       HT       0.417000       1.00800           0
     72141 TIP3     16565    TIP3     H2       HT       0.417000       1.00800           0
     72142 TIP3     16566    TIP3     OH2      OT      -0.834000       15.9994           0
     72143 TIP3     16566    TIP3     H1       HT       0.417000       1.00800           0
     72144 TIP3     16566    TIP3     H2       HT       0.417000       1.00800           0
     72145 TIP3     16567    TIP3     OH2      OT      -0.834000       15.9994           0
     72146 TIP3     16567    TIP3     H1       HT       0.417000       1.00800           0
     72147 TIP3     16567    TIP3     H2       HT       0.417000       1.00800           0
     72148 TIP3     16568    TIP3     OH2      OT      -0.834000       15.9994           0
     72149 TIP3     16568    TIP3     H1       HT       0.417000       1.00800           0
     72150 TIP3     16568    TIP3     H2       HT       0.417000       1.00800           0
     72151 TIP3     16569    TIP3     OH2      OT      -0.834000       15.9994           0
     72152 TIP3     16569    TIP3     H1       HT       0.417000       1.00800           0
     72153 TIP3     16569    TIP3     H2       HT       0.417000       1.00800           0
     72154 TIP3     16570    TIP3     OH2      OT      -0.834000       15.9994           0
     72155 TIP3     16570    TIP3     H1       HT       0.417000       1.00800           0
     72156 TIP3     16570    TIP3     H2       HT       0.417000       1.00800           0
     72157 TIP3     16571    TIP3     OH2      OT      -0.834000       15.9994           0
     72158 TIP3     16571    TIP3     H1       HT       0.417000       1.00800           0
     72159 TIP3     16571    TIP3     H2       HT       0.417000       1.00800           0
     72160 TIP3     16572    TIP3     OH2      OT      -0.834000       15.9994           0
     72161 TIP3     16572    TIP3     H1       HT       0.417000       1.00800           0
     72162 TIP3     16572    TIP3     H2       HT       0.417000       1.00800           0
     72163 TIP3     16573    TIP3     OH2      OT      -0.834000       15.9994           0
     72164 TIP3     16573    TIP3     H1       HT       0.417000       1.00800           0
     72165 TIP3     16573    TIP3     H2       HT       0.417000       1.00800           0
     72166 TIP3     16574    TIP3     OH2      OT      -0.834000       15.9994           0
     72167 TIP3     16574    TIP3     H1       HT       0.417000       1.00800           0
     72168 TIP3     16574    TIP3     H2       HT       0.417000       1.00800           0
     72169 TIP3     16575    TIP3     OH2      OT      -0.834000       15.9994           0
     72170 TIP3     16575    TIP3     H1       HT       0.417000       1.00800           0
     72171 TIP3     16575    TIP3     H2       HT       0.417000       1.00800           0
     72172 TIP3     16576    TIP3     OH2      OT      -0.834000       15.9994           0
     72173 TIP3     16576    TIP3     H1       HT       0.417000       1.00800           0
     72174 TIP3     16576    TIP3     H2       HT       0.417000       1.00800           0
     72175 TIP3     16577    TIP3     OH2      OT      -0.834000       15.9994           0
     72176 TIP3     16577    TIP3     H1       HT       0.417000       1.00800           0
     72177 TIP3     16577    TIP3     H2       HT       0.417000       1.00800           0
     72178 TIP3     16578    TIP3     OH2      OT      -0.834000       15.9994           0
     72179 TIP3     16578    TIP3     H1       HT       0.417000       1.00800           0
     72180 TIP3     16578    TIP3     H2       HT       0.417000       1.00800           0
     72181 TIP3     16579    TIP3     OH2      OT      -0.834000       15.9994           0
     72182 TIP3     16579    TIP3     H1       HT       0.417000       1.00800           0
     72183 TIP3     16579    TIP3     H2       HT       0.417000       1.00800           0
     72184 TIP3     16580    TIP3     OH2      OT      -0.834000       15.9994           0
     72185 TIP3     16580    TIP3     H1       HT       0.417000       1.00800           0
     72186 TIP3     16580    TIP3     H2       HT       0.417000       1.00800           0
     72187 TIP3     16581    TIP3     OH2      OT      -0.834000       15.9994           0
     72188 TIP3     16581    TIP3     H1       HT       0.417000       1.00800           0
     72189 TIP3     16581    TIP3     H2       HT       0.417000       1.00800           0
     72190 TIP3     16582    TIP3     OH2      OT      -0.834000       15.9994           0
     72191 TIP3     16582    TIP3     H1       HT       0.417000       1.00800           0
     72192 TIP3     16582    TIP3     H2       HT       0.417000       1.00800           0
     72193 TIP3     16583    TIP3     OH2      OT      -0.834000       15.9994           0
     72194 TIP3     16583    TIP3     H1       HT       0.417000       1.00800           0
     72195 TIP3     16583    TIP3     H2       HT       0.417000       1.00800           0
     72196 TIP3     16584    TIP3     OH2      OT      -0.834000       15.9994           0
     72197 TIP3     16584    TIP3     H1       HT       0.417000       1.00800           0
     72198 TIP3     16584    TIP3     H2       HT       0.417000       1.00800           0
     72199 TIP3     16585    TIP3     OH2      OT      -0.834000       15.9994           0
     72200 TIP3     16585    TIP3     H1       HT       0.417000       1.00800           0
     72201 TIP3     16585    TIP3     H2       HT       0.417000       1.00800           0
     72202 TIP3     16586    TIP3     OH2      OT      -0.834000       15.9994           0
     72203 TIP3     16586    TIP3     H1       HT       0.417000       1.00800           0
     72204 TIP3     16586    TIP3     H2       HT       0.417000       1.00800           0
     72205 TIP3     16587    TIP3     OH2      OT      -0.834000       15.9994           0
     72206 TIP3     16587    TIP3     H1       HT       0.417000       1.00800           0
     72207 TIP3     16587    TIP3     H2       HT       0.417000       1.00800           0
     72208 TIP3     16588    TIP3     OH2      OT      -0.834000       15.9994           0
     72209 TIP3     16588    TIP3     H1       HT       0.417000       1.00800           0
     72210 TIP3     16588    TIP3     H2       HT       0.417000       1.00800           0
     72211 TIP3     16589    TIP3     OH2      OT      -0.834000       15.9994           0
     72212 TIP3     16589    TIP3     H1       HT       0.417000       1.00800           0
     72213 TIP3     16589    TIP3     H2       HT       0.417000       1.00800           0
     72214 TIP3     16590    TIP3     OH2      OT      -0.834000       15.9994           0
     72215 TIP3     16590    TIP3     H1       HT       0.417000       1.00800           0
     72216 TIP3     16590    TIP3     H2       HT       0.417000       1.00800           0
     72217 TIP3     16591    TIP3     OH2      OT      -0.834000       15.9994           0
     72218 TIP3     16591    TIP3     H1       HT       0.417000       1.00800           0
     72219 TIP3     16591    TIP3     H2       HT       0.417000       1.00800           0
     72220 TIP3     16592    TIP3     OH2      OT      -0.834000       15.9994           0
     72221 TIP3     16592    TIP3     H1       HT       0.417000       1.00800           0
     72222 TIP3     16592    TIP3     H2       HT       0.417000       1.00800           0
     72223 TIP3     16593    TIP3     OH2      OT      -0.834000       15.9994           0
     72224 TIP3     16593    TIP3     H1       HT       0.417000       1.00800           0
     72225 TIP3     16593    TIP3     H2       HT       0.417000       1.00800           0
     72226 TIP3     16594    TIP3     OH2      OT      -0.834000       15.9994           0
     72227 TIP3     16594    TIP3     H1       HT       0.417000       1.00800           0
     72228 TIP3     16594    TIP3     H2       HT       0.417000       1.00800           0
     72229 TIP3     16595    TIP3     OH2      OT      -0.834000       15.9994           0
     72230 TIP3     16595    TIP3     H1       HT       0.417000       1.00800           0
     72231 TIP3     16595    TIP3     H2       HT       0.417000       1.00800           0
     72232 TIP3     16596    TIP3     OH2      OT      -0.834000       15.9994           0
     72233 TIP3     16596    TIP3     H1       HT       0.417000       1.00800           0
     72234 TIP3     16596    TIP3     H2       HT       0.417000       1.00800           0
     72235 TIP3     16597    TIP3     OH2      OT      -0.834000       15.9994           0
     72236 TIP3     16597    TIP3     H1       HT       0.417000       1.00800           0
     72237 TIP3     16597    TIP3     H2       HT       0.417000       1.00800           0
     72238 TIP3     16598    TIP3     OH2      OT      -0.834000       15.9994           0
     72239 TIP3     16598    TIP3     H1       HT       0.417000       1.00800           0
     72240 TIP3     16598    TIP3     H2       HT       0.417000       1.00800           0
     72241 TIP3     16599    TIP3     OH2      OT      -0.834000       15.9994           0
     72242 TIP3     16599    TIP3     H1       HT       0.417000       1.00800           0
     72243 TIP3     16599    TIP3     H2       HT       0.417000       1.00800           0
     72244 TIP3     16600    TIP3     OH2      OT      -0.834000       15.9994           0
     72245 TIP3     16600    TIP3     H1       HT       0.417000       1.00800           0
     72246 TIP3     16600    TIP3     H2       HT       0.417000       1.00800           0
     72247 TIP3     16601    TIP3     OH2      OT      -0.834000       15.9994           0
     72248 TIP3     16601    TIP3     H1       HT       0.417000       1.00800           0
     72249 TIP3     16601    TIP3     H2       HT       0.417000       1.00800           0
     72250 TIP3     16602    TIP3     OH2      OT      -0.834000       15.9994           0
     72251 TIP3     16602    TIP3     H1       HT       0.417000       1.00800           0
     72252 TIP3     16602    TIP3     H2       HT       0.417000       1.00800           0
     72253 TIP3     16603    TIP3     OH2      OT      -0.834000       15.9994           0
     72254 TIP3     16603    TIP3     H1       HT       0.417000       1.00800           0
     72255 TIP3     16603    TIP3     H2       HT       0.417000       1.00800           0
     72256 TIP3     16604    TIP3     OH2      OT      -0.834000       15.9994           0
     72257 TIP3     16604    TIP3     H1       HT       0.417000       1.00800           0
     72258 TIP3     16604    TIP3     H2       HT       0.417000       1.00800           0
     72259 TIP3     16605    TIP3     OH2      OT      -0.834000       15.9994           0
     72260 TIP3     16605    TIP3     H1       HT       0.417000       1.00800           0
     72261 TIP3     16605    TIP3     H2       HT       0.417000       1.00800           0
     72262 TIP3     16606    TIP3     OH2      OT      -0.834000       15.9994           0
     72263 TIP3     16606    TIP3     H1       HT       0.417000       1.00800           0
     72264 TIP3     16606    TIP3     H2       HT       0.417000       1.00800           0
     72265 TIP3     16607    TIP3     OH2      OT      -0.834000       15.9994           0
     72266 TIP3     16607    TIP3     H1       HT       0.417000       1.00800           0
     72267 TIP3     16607    TIP3     H2       HT       0.417000       1.00800           0
     72268 TIP3     16608    TIP3     OH2      OT      -0.834000       15.9994           0
     72269 TIP3     16608    TIP3     H1       HT       0.417000       1.00800           0
     72270 TIP3     16608    TIP3     H2       HT       0.417000       1.00800           0
     72271 TIP3     16609    TIP3     OH2      OT      -0.834000       15.9994           0
     72272 TIP3     16609    TIP3     H1       HT       0.417000       1.00800           0
     72273 TIP3     16609    TIP3     H2       HT       0.417000       1.00800           0
     72274 TIP3     16610    TIP3     OH2      OT      -0.834000       15.9994           0
     72275 TIP3     16610    TIP3     H1       HT       0.417000       1.00800           0
     72276 TIP3     16610    TIP3     H2       HT       0.417000       1.00800           0
     72277 TIP3     16611    TIP3     OH2      OT      -0.834000       15.9994           0
     72278 TIP3     16611    TIP3     H1       HT       0.417000       1.00800           0
     72279 TIP3     16611    TIP3     H2       HT       0.417000       1.00800           0
     72280 TIP3     16612    TIP3     OH2      OT      -0.834000       15.9994           0
     72281 TIP3     16612    TIP3     H1       HT       0.417000       1.00800           0
     72282 TIP3     16612    TIP3     H2       HT       0.417000       1.00800           0
     72283 TIP3     16613    TIP3     OH2      OT      -0.834000       15.9994           0
     72284 TIP3     16613    TIP3     H1       HT       0.417000       1.00800           0
     72285 TIP3     16613    TIP3     H2       HT       0.417000       1.00800           0
     72286 TIP3     16614    TIP3     OH2      OT      -0.834000       15.9994           0
     72287 TIP3     16614    TIP3     H1       HT       0.417000       1.00800           0
     72288 TIP3     16614    TIP3     H2       HT       0.417000       1.00800           0
     72289 TIP3     16615    TIP3     OH2      OT      -0.834000       15.9994           0
     72290 TIP3     16615    TIP3     H1       HT       0.417000       1.00800           0
     72291 TIP3     16615    TIP3     H2       HT       0.417000       1.00800           0
     72292 TIP3     16616    TIP3     OH2      OT      -0.834000       15.9994           0
     72293 TIP3     16616    TIP3     H1       HT       0.417000       1.00800           0
     72294 TIP3     16616    TIP3     H2       HT       0.417000       1.00800           0
     72295 TIP3     16617    TIP3     OH2      OT      -0.834000       15.9994           0
     72296 TIP3     16617    TIP3     H1       HT       0.417000       1.00800           0
     72297 TIP3     16617    TIP3     H2       HT       0.417000       1.00800           0
     72298 TIP3     16618    TIP3     OH2      OT      -0.834000       15.9994           0
     72299 TIP3     16618    TIP3     H1       HT       0.417000       1.00800           0
     72300 TIP3     16618    TIP3     H2       HT       0.417000       1.00800           0
     72301 TIP3     16619    TIP3     OH2      OT      -0.834000       15.9994           0
     72302 TIP3     16619    TIP3     H1       HT       0.417000       1.00800           0
     72303 TIP3     16619    TIP3     H2       HT       0.417000       1.00800           0
     72304 TIP3     16620    TIP3     OH2      OT      -0.834000       15.9994           0
     72305 TIP3     16620    TIP3     H1       HT       0.417000       1.00800           0
     72306 TIP3     16620    TIP3     H2       HT       0.417000       1.00800           0
     72307 TIP3     16621    TIP3     OH2      OT      -0.834000       15.9994           0
     72308 TIP3     16621    TIP3     H1       HT       0.417000       1.00800           0
     72309 TIP3     16621    TIP3     H2       HT       0.417000       1.00800           0
     72310 TIP3     16622    TIP3     OH2      OT      -0.834000       15.9994           0
     72311 TIP3     16622    TIP3     H1       HT       0.417000       1.00800           0
     72312 TIP3     16622    TIP3     H2       HT       0.417000       1.00800           0
     72313 TIP3     16623    TIP3     OH2      OT      -0.834000       15.9994           0
     72314 TIP3     16623    TIP3     H1       HT       0.417000       1.00800           0
     72315 TIP3     16623    TIP3     H2       HT       0.417000       1.00800           0
     72316 TIP3     16624    TIP3     OH2      OT      -0.834000       15.9994           0
     72317 TIP3     16624    TIP3     H1       HT       0.417000       1.00800           0
     72318 TIP3     16624    TIP3     H2       HT       0.417000       1.00800           0
     72319 TIP3     16625    TIP3     OH2      OT      -0.834000       15.9994           0
     72320 TIP3     16625    TIP3     H1       HT       0.417000       1.00800           0
     72321 TIP3     16625    TIP3     H2       HT       0.417000       1.00800           0
     72322 TIP3     16626    TIP3     OH2      OT      -0.834000       15.9994           0
     72323 TIP3     16626    TIP3     H1       HT       0.417000       1.00800           0
     72324 TIP3     16626    TIP3     H2       HT       0.417000       1.00800           0
     72325 TIP3     16627    TIP3     OH2      OT      -0.834000       15.9994           0
     72326 TIP3     16627    TIP3     H1       HT       0.417000       1.00800           0
     72327 TIP3     16627    TIP3     H2       HT       0.417000       1.00800           0
     72328 TIP3     16628    TIP3     OH2      OT      -0.834000       15.9994           0
     72329 TIP3     16628    TIP3     H1       HT       0.417000       1.00800           0
     72330 TIP3     16628    TIP3     H2       HT       0.417000       1.00800           0
     72331 TIP3     16629    TIP3     OH2      OT      -0.834000       15.9994           0
     72332 TIP3     16629    TIP3     H1       HT       0.417000       1.00800           0
     72333 TIP3     16629    TIP3     H2       HT       0.417000       1.00800           0
     72334 TIP3     16630    TIP3     OH2      OT      -0.834000       15.9994           0
     72335 TIP3     16630    TIP3     H1       HT       0.417000       1.00800           0
     72336 TIP3     16630    TIP3     H2       HT       0.417000       1.00800           0
     72337 TIP3     16631    TIP3     OH2      OT      -0.834000       15.9994           0
     72338 TIP3     16631    TIP3     H1       HT       0.417000       1.00800           0
     72339 TIP3     16631    TIP3     H2       HT       0.417000       1.00800           0
     72340 TIP3     16632    TIP3     OH2      OT      -0.834000       15.9994           0
     72341 TIP3     16632    TIP3     H1       HT       0.417000       1.00800           0
     72342 TIP3     16632    TIP3     H2       HT       0.417000       1.00800           0
     72343 TIP3     16633    TIP3     OH2      OT      -0.834000       15.9994           0
     72344 TIP3     16633    TIP3     H1       HT       0.417000       1.00800           0
     72345 TIP3     16633    TIP3     H2       HT       0.417000       1.00800           0
     72346 TIP3     16634    TIP3     OH2      OT      -0.834000       15.9994           0
     72347 TIP3     16634    TIP3     H1       HT       0.417000       1.00800           0
     72348 TIP3     16634    TIP3     H2       HT       0.417000       1.00800           0
     72349 TIP3     16635    TIP3     OH2      OT      -0.834000       15.9994           0
     72350 TIP3     16635    TIP3     H1       HT       0.417000       1.00800           0
     72351 TIP3     16635    TIP3     H2       HT       0.417000       1.00800           0
     72352 TIP3     16636    TIP3     OH2      OT      -0.834000       15.9994           0
     72353 TIP3     16636    TIP3     H1       HT       0.417000       1.00800           0
     72354 TIP3     16636    TIP3     H2       HT       0.417000       1.00800           0
     72355 TIP3     16637    TIP3     OH2      OT      -0.834000       15.9994           0
     72356 TIP3     16637    TIP3     H1       HT       0.417000       1.00800           0
     72357 TIP3     16637    TIP3     H2       HT       0.417000       1.00800           0
     72358 TIP3     16638    TIP3     OH2      OT      -0.834000       15.9994           0
     72359 TIP3     16638    TIP3     H1       HT       0.417000       1.00800           0
     72360 TIP3     16638    TIP3     H2       HT       0.417000       1.00800           0
     72361 TIP3     16639    TIP3     OH2      OT      -0.834000       15.9994           0
     72362 TIP3     16639    TIP3     H1       HT       0.417000       1.00800           0
     72363 TIP3     16639    TIP3     H2       HT       0.417000       1.00800           0
     72364 TIP3     16640    TIP3     OH2      OT      -0.834000       15.9994           0
     72365 TIP3     16640    TIP3     H1       HT       0.417000       1.00800           0
     72366 TIP3     16640    TIP3     H2       HT       0.417000       1.00800           0
     72367 TIP3     16641    TIP3     OH2      OT      -0.834000       15.9994           0
     72368 TIP3     16641    TIP3     H1       HT       0.417000       1.00800           0
     72369 TIP3     16641    TIP3     H2       HT       0.417000       1.00800           0
     72370 TIP3     16642    TIP3     OH2      OT      -0.834000       15.9994           0
     72371 TIP3     16642    TIP3     H1       HT       0.417000       1.00800           0
     72372 TIP3     16642    TIP3     H2       HT       0.417000       1.00800           0
     72373 TIP3     16643    TIP3     OH2      OT      -0.834000       15.9994           0
     72374 TIP3     16643    TIP3     H1       HT       0.417000       1.00800           0
     72375 TIP3     16643    TIP3     H2       HT       0.417000       1.00800           0
     72376 TIP3     16644    TIP3     OH2      OT      -0.834000       15.9994           0
     72377 TIP3     16644    TIP3     H1       HT       0.417000       1.00800           0
     72378 TIP3     16644    TIP3     H2       HT       0.417000       1.00800           0
     72379 TIP3     16645    TIP3     OH2      OT      -0.834000       15.9994           0
     72380 TIP3     16645    TIP3     H1       HT       0.417000       1.00800           0
     72381 TIP3     16645    TIP3     H2       HT       0.417000       1.00800           0
     72382 TIP3     16646    TIP3     OH2      OT      -0.834000       15.9994           0
     72383 TIP3     16646    TIP3     H1       HT       0.417000       1.00800           0
     72384 TIP3     16646    TIP3     H2       HT       0.417000       1.00800           0
     72385 TIP3     16647    TIP3     OH2      OT      -0.834000       15.9994           0
     72386 TIP3     16647    TIP3     H1       HT       0.417000       1.00800           0
     72387 TIP3     16647    TIP3     H2       HT       0.417000       1.00800           0
     72388 TIP3     16648    TIP3     OH2      OT      -0.834000       15.9994           0
     72389 TIP3     16648    TIP3     H1       HT       0.417000       1.00800           0
     72390 TIP3     16648    TIP3     H2       HT       0.417000       1.00800           0
     72391 TIP3     16649    TIP3     OH2      OT      -0.834000       15.9994           0
     72392 TIP3     16649    TIP3     H1       HT       0.417000       1.00800           0
     72393 TIP3     16649    TIP3     H2       HT       0.417000       1.00800           0
     72394 TIP3     16650    TIP3     OH2      OT      -0.834000       15.9994           0
     72395 TIP3     16650    TIP3     H1       HT       0.417000       1.00800           0
     72396 TIP3     16650    TIP3     H2       HT       0.417000       1.00800           0
     72397 TIP3     16651    TIP3     OH2      OT      -0.834000       15.9994           0
     72398 TIP3     16651    TIP3     H1       HT       0.417000       1.00800           0
     72399 TIP3     16651    TIP3     H2       HT       0.417000       1.00800           0
     72400 TIP3     16652    TIP3     OH2      OT      -0.834000       15.9994           0
     72401 TIP3     16652    TIP3     H1       HT       0.417000       1.00800           0
     72402 TIP3     16652    TIP3     H2       HT       0.417000       1.00800           0
     72403 TIP3     16653    TIP3     OH2      OT      -0.834000       15.9994           0
     72404 TIP3     16653    TIP3     H1       HT       0.417000       1.00800           0
     72405 TIP3     16653    TIP3     H2       HT       0.417000       1.00800           0
     72406 TIP3     16654    TIP3     OH2      OT      -0.834000       15.9994           0
     72407 TIP3     16654    TIP3     H1       HT       0.417000       1.00800           0
     72408 TIP3     16654    TIP3     H2       HT       0.417000       1.00800           0
     72409 TIP3     16655    TIP3     OH2      OT      -0.834000       15.9994           0
     72410 TIP3     16655    TIP3     H1       HT       0.417000       1.00800           0
     72411 TIP3     16655    TIP3     H2       HT       0.417000       1.00800           0
     72412 TIP3     16656    TIP3     OH2      OT      -0.834000       15.9994           0
     72413 TIP3     16656    TIP3     H1       HT       0.417000       1.00800           0
     72414 TIP3     16656    TIP3     H2       HT       0.417000       1.00800           0
     72415 TIP3     16657    TIP3     OH2      OT      -0.834000       15.9994           0
     72416 TIP3     16657    TIP3     H1       HT       0.417000       1.00800           0
     72417 TIP3     16657    TIP3     H2       HT       0.417000       1.00800           0
     72418 TIP3     16658    TIP3     OH2      OT      -0.834000       15.9994           0
     72419 TIP3     16658    TIP3     H1       HT       0.417000       1.00800           0
     72420 TIP3     16658    TIP3     H2       HT       0.417000       1.00800           0
     72421 TIP3     16659    TIP3     OH2      OT      -0.834000       15.9994           0
     72422 TIP3     16659    TIP3     H1       HT       0.417000       1.00800           0
     72423 TIP3     16659    TIP3     H2       HT       0.417000       1.00800           0
     72424 TIP3     16660    TIP3     OH2      OT      -0.834000       15.9994           0
     72425 TIP3     16660    TIP3     H1       HT       0.417000       1.00800           0
     72426 TIP3     16660    TIP3     H2       HT       0.417000       1.00800           0
     72427 TIP3     16661    TIP3     OH2      OT      -0.834000       15.9994           0
     72428 TIP3     16661    TIP3     H1       HT       0.417000       1.00800           0
     72429 TIP3     16661    TIP3     H2       HT       0.417000       1.00800           0
     72430 TIP3     16662    TIP3     OH2      OT      -0.834000       15.9994           0
     72431 TIP3     16662    TIP3     H1       HT       0.417000       1.00800           0
     72432 TIP3     16662    TIP3     H2       HT       0.417000       1.00800           0
     72433 TIP3     16663    TIP3     OH2      OT      -0.834000       15.9994           0
     72434 TIP3     16663    TIP3     H1       HT       0.417000       1.00800           0
     72435 TIP3     16663    TIP3     H2       HT       0.417000       1.00800           0
     72436 TIP3     16664    TIP3     OH2      OT      -0.834000       15.9994           0
     72437 TIP3     16664    TIP3     H1       HT       0.417000       1.00800           0
     72438 TIP3     16664    TIP3     H2       HT       0.417000       1.00800           0
     72439 TIP3     16665    TIP3     OH2      OT      -0.834000       15.9994           0
     72440 TIP3     16665    TIP3     H1       HT       0.417000       1.00800           0
     72441 TIP3     16665    TIP3     H2       HT       0.417000       1.00800           0
     72442 TIP3     16666    TIP3     OH2      OT      -0.834000       15.9994           0
     72443 TIP3     16666    TIP3     H1       HT       0.417000       1.00800           0
     72444 TIP3     16666    TIP3     H2       HT       0.417000       1.00800           0
     72445 TIP3     16667    TIP3     OH2      OT      -0.834000       15.9994           0
     72446 TIP3     16667    TIP3     H1       HT       0.417000       1.00800           0
     72447 TIP3     16667    TIP3     H2       HT       0.417000       1.00800           0
     72448 TIP3     16668    TIP3     OH2      OT      -0.834000       15.9994           0
     72449 TIP3     16668    TIP3     H1       HT       0.417000       1.00800           0
     72450 TIP3     16668    TIP3     H2       HT       0.417000       1.00800           0
     72451 TIP3     16669    TIP3     OH2      OT      -0.834000       15.9994           0
     72452 TIP3     16669    TIP3     H1       HT       0.417000       1.00800           0
     72453 TIP3     16669    TIP3     H2       HT       0.417000       1.00800           0
     72454 TIP3     16670    TIP3     OH2      OT      -0.834000       15.9994           0
     72455 TIP3     16670    TIP3     H1       HT       0.417000       1.00800           0
     72456 TIP3     16670    TIP3     H2       HT       0.417000       1.00800           0
     72457 TIP3     16671    TIP3     OH2      OT      -0.834000       15.9994           0
     72458 TIP3     16671    TIP3     H1       HT       0.417000       1.00800           0
     72459 TIP3     16671    TIP3     H2       HT       0.417000       1.00800           0
     72460 TIP3     16672    TIP3     OH2      OT      -0.834000       15.9994           0
     72461 TIP3     16672    TIP3     H1       HT       0.417000       1.00800           0
     72462 TIP3     16672    TIP3     H2       HT       0.417000       1.00800           0
     72463 TIP3     16673    TIP3     OH2      OT      -0.834000       15.9994           0
     72464 TIP3     16673    TIP3     H1       HT       0.417000       1.00800           0
     72465 TIP3     16673    TIP3     H2       HT       0.417000       1.00800           0
     72466 TIP3     16674    TIP3     OH2      OT      -0.834000       15.9994           0
     72467 TIP3     16674    TIP3     H1       HT       0.417000       1.00800           0
     72468 TIP3     16674    TIP3     H2       HT       0.417000       1.00800           0
     72469 TIP3     16675    TIP3     OH2      OT      -0.834000       15.9994           0
     72470 TIP3     16675    TIP3     H1       HT       0.417000       1.00800           0
     72471 TIP3     16675    TIP3     H2       HT       0.417000       1.00800           0
     72472 TIP3     16676    TIP3     OH2      OT      -0.834000       15.9994           0
     72473 TIP3     16676    TIP3     H1       HT       0.417000       1.00800           0
     72474 TIP3     16676    TIP3     H2       HT       0.417000       1.00800           0
     72475 TIP3     16677    TIP3     OH2      OT      -0.834000       15.9994           0
     72476 TIP3     16677    TIP3     H1       HT       0.417000       1.00800           0
     72477 TIP3     16677    TIP3     H2       HT       0.417000       1.00800           0
     72478 TIP3     16678    TIP3     OH2      OT      -0.834000       15.9994           0
     72479 TIP3     16678    TIP3     H1       HT       0.417000       1.00800           0
     72480 TIP3     16678    TIP3     H2       HT       0.417000       1.00800           0
     72481 TIP3     16679    TIP3     OH2      OT      -0.834000       15.9994           0
     72482 TIP3     16679    TIP3     H1       HT       0.417000       1.00800           0
     72483 TIP3     16679    TIP3     H2       HT       0.417000       1.00800           0
     72484 TIP3     16680    TIP3     OH2      OT      -0.834000       15.9994           0
     72485 TIP3     16680    TIP3     H1       HT       0.417000       1.00800           0
     72486 TIP3     16680    TIP3     H2       HT       0.417000       1.00800           0
     72487 TIP3     16681    TIP3     OH2      OT      -0.834000       15.9994           0
     72488 TIP3     16681    TIP3     H1       HT       0.417000       1.00800           0
     72489 TIP3     16681    TIP3     H2       HT       0.417000       1.00800           0
     72490 TIP3     16682    TIP3     OH2      OT      -0.834000       15.9994           0
     72491 TIP3     16682    TIP3     H1       HT       0.417000       1.00800           0
     72492 TIP3     16682    TIP3     H2       HT       0.417000       1.00800           0
     72493 TIP3     16683    TIP3     OH2      OT      -0.834000       15.9994           0
     72494 TIP3     16683    TIP3     H1       HT       0.417000       1.00800           0
     72495 TIP3     16683    TIP3     H2       HT       0.417000       1.00800           0
     72496 TIP3     16684    TIP3     OH2      OT      -0.834000       15.9994           0
     72497 TIP3     16684    TIP3     H1       HT       0.417000       1.00800           0
     72498 TIP3     16684    TIP3     H2       HT       0.417000       1.00800           0
     72499 TIP3     16685    TIP3     OH2      OT      -0.834000       15.9994           0
     72500 TIP3     16685    TIP3     H1       HT       0.417000       1.00800           0
     72501 TIP3     16685    TIP3     H2       HT       0.417000       1.00800           0
     72502 TIP3     16686    TIP3     OH2      OT      -0.834000       15.9994           0
     72503 TIP3     16686    TIP3     H1       HT       0.417000       1.00800           0
     72504 TIP3     16686    TIP3     H2       HT       0.417000       1.00800           0
     72505 TIP3     16687    TIP3     OH2      OT      -0.834000       15.9994           0
     72506 TIP3     16687    TIP3     H1       HT       0.417000       1.00800           0
     72507 TIP3     16687    TIP3     H2       HT       0.417000       1.00800           0
     72508 TIP3     16688    TIP3     OH2      OT      -0.834000       15.9994           0
     72509 TIP3     16688    TIP3     H1       HT       0.417000       1.00800           0
     72510 TIP3     16688    TIP3     H2       HT       0.417000       1.00800           0
     72511 TIP3     16689    TIP3     OH2      OT      -0.834000       15.9994           0
     72512 TIP3     16689    TIP3     H1       HT       0.417000       1.00800           0
     72513 TIP3     16689    TIP3     H2       HT       0.417000       1.00800           0
     72514 TIP3     16690    TIP3     OH2      OT      -0.834000       15.9994           0
     72515 TIP3     16690    TIP3     H1       HT       0.417000       1.00800           0
     72516 TIP3     16690    TIP3     H2       HT       0.417000       1.00800           0
     72517 TIP3     16691    TIP3     OH2      OT      -0.834000       15.9994           0
     72518 TIP3     16691    TIP3     H1       HT       0.417000       1.00800           0
     72519 TIP3     16691    TIP3     H2       HT       0.417000       1.00800           0
     72520 TIP3     16692    TIP3     OH2      OT      -0.834000       15.9994           0
     72521 TIP3     16692    TIP3     H1       HT       0.417000       1.00800           0
     72522 TIP3     16692    TIP3     H2       HT       0.417000       1.00800           0
     72523 TIP3     16693    TIP3     OH2      OT      -0.834000       15.9994           0
     72524 TIP3     16693    TIP3     H1       HT       0.417000       1.00800           0
     72525 TIP3     16693    TIP3     H2       HT       0.417000       1.00800           0
     72526 TIP3     16694    TIP3     OH2      OT      -0.834000       15.9994           0
     72527 TIP3     16694    TIP3     H1       HT       0.417000       1.00800           0
     72528 TIP3     16694    TIP3     H2       HT       0.417000       1.00800           0
     72529 TIP3     16695    TIP3     OH2      OT      -0.834000       15.9994           0
     72530 TIP3     16695    TIP3     H1       HT       0.417000       1.00800           0
     72531 TIP3     16695    TIP3     H2       HT       0.417000       1.00800           0
     72532 TIP3     16696    TIP3     OH2      OT      -0.834000       15.9994           0
     72533 TIP3     16696    TIP3     H1       HT       0.417000       1.00800           0
     72534 TIP3     16696    TIP3     H2       HT       0.417000       1.00800           0
     72535 TIP3     16697    TIP3     OH2      OT      -0.834000       15.9994           0
     72536 TIP3     16697    TIP3     H1       HT       0.417000       1.00800           0
     72537 TIP3     16697    TIP3     H2       HT       0.417000       1.00800           0
     72538 TIP3     16698    TIP3     OH2      OT      -0.834000       15.9994           0
     72539 TIP3     16698    TIP3     H1       HT       0.417000       1.00800           0
     72540 TIP3     16698    TIP3     H2       HT       0.417000       1.00800           0
     72541 TIP3     16699    TIP3     OH2      OT      -0.834000       15.9994           0
     72542 TIP3     16699    TIP3     H1       HT       0.417000       1.00800           0
     72543 TIP3     16699    TIP3     H2       HT       0.417000       1.00800           0
     72544 TIP3     16700    TIP3     OH2      OT      -0.834000       15.9994           0
     72545 TIP3     16700    TIP3     H1       HT       0.417000       1.00800           0
     72546 TIP3     16700    TIP3     H2       HT       0.417000       1.00800           0
     72547 TIP3     16701    TIP3     OH2      OT      -0.834000       15.9994           0
     72548 TIP3     16701    TIP3     H1       HT       0.417000       1.00800           0
     72549 TIP3     16701    TIP3     H2       HT       0.417000       1.00800           0
     72550 TIP3     16702    TIP3     OH2      OT      -0.834000       15.9994           0
     72551 TIP3     16702    TIP3     H1       HT       0.417000       1.00800           0
     72552 TIP3     16702    TIP3     H2       HT       0.417000       1.00800           0
     72553 TIP3     16703    TIP3     OH2      OT      -0.834000       15.9994           0
     72554 TIP3     16703    TIP3     H1       HT       0.417000       1.00800           0
     72555 TIP3     16703    TIP3     H2       HT       0.417000       1.00800           0
     72556 TIP3     16704    TIP3     OH2      OT      -0.834000       15.9994           0
     72557 TIP3     16704    TIP3     H1       HT       0.417000       1.00800           0
     72558 TIP3     16704    TIP3     H2       HT       0.417000       1.00800           0
     72559 TIP3     16705    TIP3     OH2      OT      -0.834000       15.9994           0
     72560 TIP3     16705    TIP3     H1       HT       0.417000       1.00800           0
     72561 TIP3     16705    TIP3     H2       HT       0.417000       1.00800           0
     72562 TIP3     16706    TIP3     OH2      OT      -0.834000       15.9994           0
     72563 TIP3     16706    TIP3     H1       HT       0.417000       1.00800           0
     72564 TIP3     16706    TIP3     H2       HT       0.417000       1.00800           0
     72565 TIP3     16707    TIP3     OH2      OT      -0.834000       15.9994           0
     72566 TIP3     16707    TIP3     H1       HT       0.417000       1.00800           0
     72567 TIP3     16707    TIP3     H2       HT       0.417000       1.00800           0
     72568 TIP3     16708    TIP3     OH2      OT      -0.834000       15.9994           0
     72569 TIP3     16708    TIP3     H1       HT       0.417000       1.00800           0
     72570 TIP3     16708    TIP3     H2       HT       0.417000       1.00800           0
     72571 TIP3     16709    TIP3     OH2      OT      -0.834000       15.9994           0
     72572 TIP3     16709    TIP3     H1       HT       0.417000       1.00800           0
     72573 TIP3     16709    TIP3     H2       HT       0.417000       1.00800           0
     72574 TIP3     16710    TIP3     OH2      OT      -0.834000       15.9994           0
     72575 TIP3     16710    TIP3     H1       HT       0.417000       1.00800           0
     72576 TIP3     16710    TIP3     H2       HT       0.417000       1.00800           0
     72577 TIP3     16711    TIP3     OH2      OT      -0.834000       15.9994           0
     72578 TIP3     16711    TIP3     H1       HT       0.417000       1.00800           0
     72579 TIP3     16711    TIP3     H2       HT       0.417000       1.00800           0
     72580 TIP3     16712    TIP3     OH2      OT      -0.834000       15.9994           0
     72581 TIP3     16712    TIP3     H1       HT       0.417000       1.00800           0
     72582 TIP3     16712    TIP3     H2       HT       0.417000       1.00800           0
     72583 TIP3     16713    TIP3     OH2      OT      -0.834000       15.9994           0
     72584 TIP3     16713    TIP3     H1       HT       0.417000       1.00800           0
     72585 TIP3     16713    TIP3     H2       HT       0.417000       1.00800           0
     72586 TIP3     16714    TIP3     OH2      OT      -0.834000       15.9994           0
     72587 TIP3     16714    TIP3     H1       HT       0.417000       1.00800           0
     72588 TIP3     16714    TIP3     H2       HT       0.417000       1.00800           0
     72589 TIP3     16715    TIP3     OH2      OT      -0.834000       15.9994           0
     72590 TIP3     16715    TIP3     H1       HT       0.417000       1.00800           0
     72591 TIP3     16715    TIP3     H2       HT       0.417000       1.00800           0
     72592 TIP3     16716    TIP3     OH2      OT      -0.834000       15.9994           0
     72593 TIP3     16716    TIP3     H1       HT       0.417000       1.00800           0
     72594 TIP3     16716    TIP3     H2       HT       0.417000       1.00800           0
     72595 TIP3     16717    TIP3     OH2      OT      -0.834000       15.9994           0
     72596 TIP3     16717    TIP3     H1       HT       0.417000       1.00800           0
     72597 TIP3     16717    TIP3     H2       HT       0.417000       1.00800           0
     72598 TIP3     16718    TIP3     OH2      OT      -0.834000       15.9994           0
     72599 TIP3     16718    TIP3     H1       HT       0.417000       1.00800           0
     72600 TIP3     16718    TIP3     H2       HT       0.417000       1.00800           0
     72601 TIP3     16719    TIP3     OH2      OT      -0.834000       15.9994           0
     72602 TIP3     16719    TIP3     H1       HT       0.417000       1.00800           0
     72603 TIP3     16719    TIP3     H2       HT       0.417000       1.00800           0
     72604 TIP3     16720    TIP3     OH2      OT      -0.834000       15.9994           0
     72605 TIP3     16720    TIP3     H1       HT       0.417000       1.00800           0
     72606 TIP3     16720    TIP3     H2       HT       0.417000       1.00800           0
     72607 TIP3     16721    TIP3     OH2      OT      -0.834000       15.9994           0
     72608 TIP3     16721    TIP3     H1       HT       0.417000       1.00800           0
     72609 TIP3     16721    TIP3     H2       HT       0.417000       1.00800           0
     72610 TIP3     16722    TIP3     OH2      OT      -0.834000       15.9994           0
     72611 TIP3     16722    TIP3     H1       HT       0.417000       1.00800           0
     72612 TIP3     16722    TIP3     H2       HT       0.417000       1.00800           0
     72613 TIP3     16723    TIP3     OH2      OT      -0.834000       15.9994           0
     72614 TIP3     16723    TIP3     H1       HT       0.417000       1.00800           0
     72615 TIP3     16723    TIP3     H2       HT       0.417000       1.00800           0
     72616 TIP3     16724    TIP3     OH2      OT      -0.834000       15.9994           0
     72617 TIP3     16724    TIP3     H1       HT       0.417000       1.00800           0
     72618 TIP3     16724    TIP3     H2       HT       0.417000       1.00800           0
     72619 TIP3     16725    TIP3     OH2      OT      -0.834000       15.9994           0
     72620 TIP3     16725    TIP3     H1       HT       0.417000       1.00800           0
     72621 TIP3     16725    TIP3     H2       HT       0.417000       1.00800           0
     72622 TIP3     16726    TIP3     OH2      OT      -0.834000       15.9994           0
     72623 TIP3     16726    TIP3     H1       HT       0.417000       1.00800           0
     72624 TIP3     16726    TIP3     H2       HT       0.417000       1.00800           0
     72625 TIP3     16727    TIP3     OH2      OT      -0.834000       15.9994           0
     72626 TIP3     16727    TIP3     H1       HT       0.417000       1.00800           0
     72627 TIP3     16727    TIP3     H2       HT       0.417000       1.00800           0
     72628 TIP3     16728    TIP3     OH2      OT      -0.834000       15.9994           0
     72629 TIP3     16728    TIP3     H1       HT       0.417000       1.00800           0
     72630 TIP3     16728    TIP3     H2       HT       0.417000       1.00800           0
     72631 TIP3     16729    TIP3     OH2      OT      -0.834000       15.9994           0
     72632 TIP3     16729    TIP3     H1       HT       0.417000       1.00800           0
     72633 TIP3     16729    TIP3     H2       HT       0.417000       1.00800           0
     72634 TIP3     16730    TIP3     OH2      OT      -0.834000       15.9994           0
     72635 TIP3     16730    TIP3     H1       HT       0.417000       1.00800           0
     72636 TIP3     16730    TIP3     H2       HT       0.417000       1.00800           0
     72637 TIP3     16731    TIP3     OH2      OT      -0.834000       15.9994           0
     72638 TIP3     16731    TIP3     H1       HT       0.417000       1.00800           0
     72639 TIP3     16731    TIP3     H2       HT       0.417000       1.00800           0
     72640 TIP3     16732    TIP3     OH2      OT      -0.834000       15.9994           0
     72641 TIP3     16732    TIP3     H1       HT       0.417000       1.00800           0
     72642 TIP3     16732    TIP3     H2       HT       0.417000       1.00800           0
     72643 TIP3     16733    TIP3     OH2      OT      -0.834000       15.9994           0
     72644 TIP3     16733    TIP3     H1       HT       0.417000       1.00800           0
     72645 TIP3     16733    TIP3     H2       HT       0.417000       1.00800           0
     72646 TIP3     16734    TIP3     OH2      OT      -0.834000       15.9994           0
     72647 TIP3     16734    TIP3     H1       HT       0.417000       1.00800           0
     72648 TIP3     16734    TIP3     H2       HT       0.417000       1.00800           0
     72649 TIP3     16735    TIP3     OH2      OT      -0.834000       15.9994           0
     72650 TIP3     16735    TIP3     H1       HT       0.417000       1.00800           0
     72651 TIP3     16735    TIP3     H2       HT       0.417000       1.00800           0
     72652 TIP3     16736    TIP3     OH2      OT      -0.834000       15.9994           0
     72653 TIP3     16736    TIP3     H1       HT       0.417000       1.00800           0
     72654 TIP3     16736    TIP3     H2       HT       0.417000       1.00800           0
     72655 TIP3     16737    TIP3     OH2      OT      -0.834000       15.9994           0
     72656 TIP3     16737    TIP3     H1       HT       0.417000       1.00800           0
     72657 TIP3     16737    TIP3     H2       HT       0.417000       1.00800           0
     72658 TIP3     16738    TIP3     OH2      OT      -0.834000       15.9994           0
     72659 TIP3     16738    TIP3     H1       HT       0.417000       1.00800           0
     72660 TIP3     16738    TIP3     H2       HT       0.417000       1.00800           0
     72661 TIP3     16739    TIP3     OH2      OT      -0.834000       15.9994           0
     72662 TIP3     16739    TIP3     H1       HT       0.417000       1.00800           0
     72663 TIP3     16739    TIP3     H2       HT       0.417000       1.00800           0
     72664 TIP3     16740    TIP3     OH2      OT      -0.834000       15.9994           0
     72665 TIP3     16740    TIP3     H1       HT       0.417000       1.00800           0
     72666 TIP3     16740    TIP3     H2       HT       0.417000       1.00800           0
     72667 TIP3     16741    TIP3     OH2      OT      -0.834000       15.9994           0
     72668 TIP3     16741    TIP3     H1       HT       0.417000       1.00800           0
     72669 TIP3     16741    TIP3     H2       HT       0.417000       1.00800           0
     72670 TIP3     16742    TIP3     OH2      OT      -0.834000       15.9994           0
     72671 TIP3     16742    TIP3     H1       HT       0.417000       1.00800           0
     72672 TIP3     16742    TIP3     H2       HT       0.417000       1.00800           0
     72673 TIP3     16743    TIP3     OH2      OT      -0.834000       15.9994           0
     72674 TIP3     16743    TIP3     H1       HT       0.417000       1.00800           0
     72675 TIP3     16743    TIP3     H2       HT       0.417000       1.00800           0
     72676 TIP3     16744    TIP3     OH2      OT      -0.834000       15.9994           0
     72677 TIP3     16744    TIP3     H1       HT       0.417000       1.00800           0
     72678 TIP3     16744    TIP3     H2       HT       0.417000       1.00800           0
     72679 TIP3     16745    TIP3     OH2      OT      -0.834000       15.9994           0
     72680 TIP3     16745    TIP3     H1       HT       0.417000       1.00800           0
     72681 TIP3     16745    TIP3     H2       HT       0.417000       1.00800           0
     72682 TIP3     16746    TIP3     OH2      OT      -0.834000       15.9994           0
     72683 TIP3     16746    TIP3     H1       HT       0.417000       1.00800           0
     72684 TIP3     16746    TIP3     H2       HT       0.417000       1.00800           0
     72685 TIP3     16747    TIP3     OH2      OT      -0.834000       15.9994           0
     72686 TIP3     16747    TIP3     H1       HT       0.417000       1.00800           0
     72687 TIP3     16747    TIP3     H2       HT       0.417000       1.00800           0
     72688 TIP3     16748    TIP3     OH2      OT      -0.834000       15.9994           0
     72689 TIP3     16748    TIP3     H1       HT       0.417000       1.00800           0
     72690 TIP3     16748    TIP3     H2       HT       0.417000       1.00800           0
     72691 TIP3     16749    TIP3     OH2      OT      -0.834000       15.9994           0
     72692 TIP3     16749    TIP3     H1       HT       0.417000       1.00800           0
     72693 TIP3     16749    TIP3     H2       HT       0.417000       1.00800           0
     72694 TIP3     16750    TIP3     OH2      OT      -0.834000       15.9994           0
     72695 TIP3     16750    TIP3     H1       HT       0.417000       1.00800           0
     72696 TIP3     16750    TIP3     H2       HT       0.417000       1.00800           0
     72697 TIP3     16751    TIP3     OH2      OT      -0.834000       15.9994           0
     72698 TIP3     16751    TIP3     H1       HT       0.417000       1.00800           0
     72699 TIP3     16751    TIP3     H2       HT       0.417000       1.00800           0
     72700 TIP3     16752    TIP3     OH2      OT      -0.834000       15.9994           0
     72701 TIP3     16752    TIP3     H1       HT       0.417000       1.00800           0
     72702 TIP3     16752    TIP3     H2       HT       0.417000       1.00800           0
     72703 TIP3     16753    TIP3     OH2      OT      -0.834000       15.9994           0
     72704 TIP3     16753    TIP3     H1       HT       0.417000       1.00800           0
     72705 TIP3     16753    TIP3     H2       HT       0.417000       1.00800           0
     72706 TIP3     16754    TIP3     OH2      OT      -0.834000       15.9994           0
     72707 TIP3     16754    TIP3     H1       HT       0.417000       1.00800           0
     72708 TIP3     16754    TIP3     H2       HT       0.417000       1.00800           0
     72709 TIP3     16755    TIP3     OH2      OT      -0.834000       15.9994           0
     72710 TIP3     16755    TIP3     H1       HT       0.417000       1.00800           0
     72711 TIP3     16755    TIP3     H2       HT       0.417000       1.00800           0
     72712 TIP3     16756    TIP3     OH2      OT      -0.834000       15.9994           0
     72713 TIP3     16756    TIP3     H1       HT       0.417000       1.00800           0
     72714 TIP3     16756    TIP3     H2       HT       0.417000       1.00800           0
     72715 TIP3     16757    TIP3     OH2      OT      -0.834000       15.9994           0
     72716 TIP3     16757    TIP3     H1       HT       0.417000       1.00800           0
     72717 TIP3     16757    TIP3     H2       HT       0.417000       1.00800           0
     72718 TIP3     16758    TIP3     OH2      OT      -0.834000       15.9994           0
     72719 TIP3     16758    TIP3     H1       HT       0.417000       1.00800           0
     72720 TIP3     16758    TIP3     H2       HT       0.417000       1.00800           0
     72721 TIP3     16759    TIP3     OH2      OT      -0.834000       15.9994           0
     72722 TIP3     16759    TIP3     H1       HT       0.417000       1.00800           0
     72723 TIP3     16759    TIP3     H2       HT       0.417000       1.00800           0
     72724 TIP3     16760    TIP3     OH2      OT      -0.834000       15.9994           0
     72725 TIP3     16760    TIP3     H1       HT       0.417000       1.00800           0
     72726 TIP3     16760    TIP3     H2       HT       0.417000       1.00800           0
     72727 TIP3     16761    TIP3     OH2      OT      -0.834000       15.9994           0
     72728 TIP3     16761    TIP3     H1       HT       0.417000       1.00800           0
     72729 TIP3     16761    TIP3     H2       HT       0.417000       1.00800           0
     72730 TIP3     16762    TIP3     OH2      OT      -0.834000       15.9994           0
     72731 TIP3     16762    TIP3     H1       HT       0.417000       1.00800           0
     72732 TIP3     16762    TIP3     H2       HT       0.417000       1.00800           0
     72733 TIP3     16763    TIP3     OH2      OT      -0.834000       15.9994           0
     72734 TIP3     16763    TIP3     H1       HT       0.417000       1.00800           0
     72735 TIP3     16763    TIP3     H2       HT       0.417000       1.00800           0
     72736 TIP3     16764    TIP3     OH2      OT      -0.834000       15.9994           0
     72737 TIP3     16764    TIP3     H1       HT       0.417000       1.00800           0
     72738 TIP3     16764    TIP3     H2       HT       0.417000       1.00800           0
     72739 TIP3     16765    TIP3     OH2      OT      -0.834000       15.9994           0
     72740 TIP3     16765    TIP3     H1       HT       0.417000       1.00800           0
     72741 TIP3     16765    TIP3     H2       HT       0.417000       1.00800           0
     72742 TIP3     16766    TIP3     OH2      OT      -0.834000       15.9994           0
     72743 TIP3     16766    TIP3     H1       HT       0.417000       1.00800           0
     72744 TIP3     16766    TIP3     H2       HT       0.417000       1.00800           0
     72745 TIP3     16767    TIP3     OH2      OT      -0.834000       15.9994           0
     72746 TIP3     16767    TIP3     H1       HT       0.417000       1.00800           0
     72747 TIP3     16767    TIP3     H2       HT       0.417000       1.00800           0
     72748 TIP3     16768    TIP3     OH2      OT      -0.834000       15.9994           0
     72749 TIP3     16768    TIP3     H1       HT       0.417000       1.00800           0
     72750 TIP3     16768    TIP3     H2       HT       0.417000       1.00800           0
     72751 TIP3     16769    TIP3     OH2      OT      -0.834000       15.9994           0
     72752 TIP3     16769    TIP3     H1       HT       0.417000       1.00800           0
     72753 TIP3     16769    TIP3     H2       HT       0.417000       1.00800           0
     72754 TIP3     16770    TIP3     OH2      OT      -0.834000       15.9994           0
     72755 TIP3     16770    TIP3     H1       HT       0.417000       1.00800           0
     72756 TIP3     16770    TIP3     H2       HT       0.417000       1.00800           0
     72757 TIP3     16771    TIP3     OH2      OT      -0.834000       15.9994           0
     72758 TIP3     16771    TIP3     H1       HT       0.417000       1.00800           0
     72759 TIP3     16771    TIP3     H2       HT       0.417000       1.00800           0
     72760 TIP3     16772    TIP3     OH2      OT      -0.834000       15.9994           0
     72761 TIP3     16772    TIP3     H1       HT       0.417000       1.00800           0
     72762 TIP3     16772    TIP3     H2       HT       0.417000       1.00800           0
     72763 TIP3     16773    TIP3     OH2      OT      -0.834000       15.9994           0
     72764 TIP3     16773    TIP3     H1       HT       0.417000       1.00800           0
     72765 TIP3     16773    TIP3     H2       HT       0.417000       1.00800           0
     72766 TIP3     16774    TIP3     OH2      OT      -0.834000       15.9994           0
     72767 TIP3     16774    TIP3     H1       HT       0.417000       1.00800           0
     72768 TIP3     16774    TIP3     H2       HT       0.417000       1.00800           0
     72769 TIP3     16775    TIP3     OH2      OT      -0.834000       15.9994           0
     72770 TIP3     16775    TIP3     H1       HT       0.417000       1.00800           0
     72771 TIP3     16775    TIP3     H2       HT       0.417000       1.00800           0
     72772 TIP3     16776    TIP3     OH2      OT      -0.834000       15.9994           0
     72773 TIP3     16776    TIP3     H1       HT       0.417000       1.00800           0
     72774 TIP3     16776    TIP3     H2       HT       0.417000       1.00800           0
     72775 TIP3     16777    TIP3     OH2      OT      -0.834000       15.9994           0
     72776 TIP3     16777    TIP3     H1       HT       0.417000       1.00800           0
     72777 TIP3     16777    TIP3     H2       HT       0.417000       1.00800           0
     72778 TIP3     16778    TIP3     OH2      OT      -0.834000       15.9994           0
     72779 TIP3     16778    TIP3     H1       HT       0.417000       1.00800           0
     72780 TIP3     16778    TIP3     H2       HT       0.417000       1.00800           0
     72781 TIP3     16779    TIP3     OH2      OT      -0.834000       15.9994           0
     72782 TIP3     16779    TIP3     H1       HT       0.417000       1.00800           0
     72783 TIP3     16779    TIP3     H2       HT       0.417000       1.00800           0
     72784 TIP3     16780    TIP3     OH2      OT      -0.834000       15.9994           0
     72785 TIP3     16780    TIP3     H1       HT       0.417000       1.00800           0
     72786 TIP3     16780    TIP3     H2       HT       0.417000       1.00800           0
     72787 TIP3     16781    TIP3     OH2      OT      -0.834000       15.9994           0
     72788 TIP3     16781    TIP3     H1       HT       0.417000       1.00800           0
     72789 TIP3     16781    TIP3     H2       HT       0.417000       1.00800           0
     72790 TIP3     16782    TIP3     OH2      OT      -0.834000       15.9994           0
     72791 TIP3     16782    TIP3     H1       HT       0.417000       1.00800           0
     72792 TIP3     16782    TIP3     H2       HT       0.417000       1.00800           0
     72793 TIP3     16783    TIP3     OH2      OT      -0.834000       15.9994           0
     72794 TIP3     16783    TIP3     H1       HT       0.417000       1.00800           0
     72795 TIP3     16783    TIP3     H2       HT       0.417000       1.00800           0
     72796 TIP3     16784    TIP3     OH2      OT      -0.834000       15.9994           0
     72797 TIP3     16784    TIP3     H1       HT       0.417000       1.00800           0
     72798 TIP3     16784    TIP3     H2       HT       0.417000       1.00800           0
     72799 TIP3     16785    TIP3     OH2      OT      -0.834000       15.9994           0
     72800 TIP3     16785    TIP3     H1       HT       0.417000       1.00800           0
     72801 TIP3     16785    TIP3     H2       HT       0.417000       1.00800           0
     72802 TIP3     16786    TIP3     OH2      OT      -0.834000       15.9994           0
     72803 TIP3     16786    TIP3     H1       HT       0.417000       1.00800           0
     72804 TIP3     16786    TIP3     H2       HT       0.417000       1.00800           0
     72805 TIP3     16787    TIP3     OH2      OT      -0.834000       15.9994           0
     72806 TIP3     16787    TIP3     H1       HT       0.417000       1.00800           0
     72807 TIP3     16787    TIP3     H2       HT       0.417000       1.00800           0
     72808 TIP3     16788    TIP3     OH2      OT      -0.834000       15.9994           0
     72809 TIP3     16788    TIP3     H1       HT       0.417000       1.00800           0
     72810 TIP3     16788    TIP3     H2       HT       0.417000       1.00800           0
     72811 TIP3     16789    TIP3     OH2      OT      -0.834000       15.9994           0
     72812 TIP3     16789    TIP3     H1       HT       0.417000       1.00800           0
     72813 TIP3     16789    TIP3     H2       HT       0.417000       1.00800           0
     72814 TIP3     16790    TIP3     OH2      OT      -0.834000       15.9994           0
     72815 TIP3     16790    TIP3     H1       HT       0.417000       1.00800           0
     72816 TIP3     16790    TIP3     H2       HT       0.417000       1.00800           0
     72817 TIP3     16791    TIP3     OH2      OT      -0.834000       15.9994           0
     72818 TIP3     16791    TIP3     H1       HT       0.417000       1.00800           0
     72819 TIP3     16791    TIP3     H2       HT       0.417000       1.00800           0
     72820 TIP3     16792    TIP3     OH2      OT      -0.834000       15.9994           0
     72821 TIP3     16792    TIP3     H1       HT       0.417000       1.00800           0
     72822 TIP3     16792    TIP3     H2       HT       0.417000       1.00800           0
     72823 TIP3     16793    TIP3     OH2      OT      -0.834000       15.9994           0
     72824 TIP3     16793    TIP3     H1       HT       0.417000       1.00800           0
     72825 TIP3     16793    TIP3     H2       HT       0.417000       1.00800           0
     72826 TIP3     16794    TIP3     OH2      OT      -0.834000       15.9994           0
     72827 TIP3     16794    TIP3     H1       HT       0.417000       1.00800           0
     72828 TIP3     16794    TIP3     H2       HT       0.417000       1.00800           0
     72829 TIP3     16795    TIP3     OH2      OT      -0.834000       15.9994           0
     72830 TIP3     16795    TIP3     H1       HT       0.417000       1.00800           0
     72831 TIP3     16795    TIP3     H2       HT       0.417000       1.00800           0
     72832 TIP3     16796    TIP3     OH2      OT      -0.834000       15.9994           0
     72833 TIP3     16796    TIP3     H1       HT       0.417000       1.00800           0
     72834 TIP3     16796    TIP3     H2       HT       0.417000       1.00800           0
     72835 TIP3     16797    TIP3     OH2      OT      -0.834000       15.9994           0
     72836 TIP3     16797    TIP3     H1       HT       0.417000       1.00800           0
     72837 TIP3     16797    TIP3     H2       HT       0.417000       1.00800           0
     72838 TIP3     16798    TIP3     OH2      OT      -0.834000       15.9994           0
     72839 TIP3     16798    TIP3     H1       HT       0.417000       1.00800           0
     72840 TIP3     16798    TIP3     H2       HT       0.417000       1.00800           0
     72841 TIP3     16799    TIP3     OH2      OT      -0.834000       15.9994           0
     72842 TIP3     16799    TIP3     H1       HT       0.417000       1.00800           0
     72843 TIP3     16799    TIP3     H2       HT       0.417000       1.00800           0
     72844 TIP3     16800    TIP3     OH2      OT      -0.834000       15.9994           0
     72845 TIP3     16800    TIP3     H1       HT       0.417000       1.00800           0
     72846 TIP3     16800    TIP3     H2       HT       0.417000       1.00800           0
     72847 TIP3     16801    TIP3     OH2      OT      -0.834000       15.9994           0
     72848 TIP3     16801    TIP3     H1       HT       0.417000       1.00800           0
     72849 TIP3     16801    TIP3     H2       HT       0.417000       1.00800           0
     72850 TIP3     16802    TIP3     OH2      OT      -0.834000       15.9994           0
     72851 TIP3     16802    TIP3     H1       HT       0.417000       1.00800           0
     72852 TIP3     16802    TIP3     H2       HT       0.417000       1.00800           0
     72853 TIP3     16803    TIP3     OH2      OT      -0.834000       15.9994           0
     72854 TIP3     16803    TIP3     H1       HT       0.417000       1.00800           0
     72855 TIP3     16803    TIP3     H2       HT       0.417000       1.00800           0
     72856 TIP3     16804    TIP3     OH2      OT      -0.834000       15.9994           0
     72857 TIP3     16804    TIP3     H1       HT       0.417000       1.00800           0
     72858 TIP3     16804    TIP3     H2       HT       0.417000       1.00800           0
     72859 TIP3     16805    TIP3     OH2      OT      -0.834000       15.9994           0
     72860 TIP3     16805    TIP3     H1       HT       0.417000       1.00800           0
     72861 TIP3     16805    TIP3     H2       HT       0.417000       1.00800           0
     72862 TIP3     16806    TIP3     OH2      OT      -0.834000       15.9994           0
     72863 TIP3     16806    TIP3     H1       HT       0.417000       1.00800           0
     72864 TIP3     16806    TIP3     H2       HT       0.417000       1.00800           0
     72865 TIP3     16807    TIP3     OH2      OT      -0.834000       15.9994           0
     72866 TIP3     16807    TIP3     H1       HT       0.417000       1.00800           0
     72867 TIP3     16807    TIP3     H2       HT       0.417000       1.00800           0
     72868 TIP3     16808    TIP3     OH2      OT      -0.834000       15.9994           0
     72869 TIP3     16808    TIP3     H1       HT       0.417000       1.00800           0
     72870 TIP3     16808    TIP3     H2       HT       0.417000       1.00800           0
     72871 TIP3     16809    TIP3     OH2      OT      -0.834000       15.9994           0
     72872 TIP3     16809    TIP3     H1       HT       0.417000       1.00800           0
     72873 TIP3     16809    TIP3     H2       HT       0.417000       1.00800           0
     72874 TIP3     16810    TIP3     OH2      OT      -0.834000       15.9994           0
     72875 TIP3     16810    TIP3     H1       HT       0.417000       1.00800           0
     72876 TIP3     16810    TIP3     H2       HT       0.417000       1.00800           0
     72877 TIP3     16811    TIP3     OH2      OT      -0.834000       15.9994           0
     72878 TIP3     16811    TIP3     H1       HT       0.417000       1.00800           0
     72879 TIP3     16811    TIP3     H2       HT       0.417000       1.00800           0
     72880 TIP3     16812    TIP3     OH2      OT      -0.834000       15.9994           0
     72881 TIP3     16812    TIP3     H1       HT       0.417000       1.00800           0
     72882 TIP3     16812    TIP3     H2       HT       0.417000       1.00800           0
     72883 TIP3     16813    TIP3     OH2      OT      -0.834000       15.9994           0
     72884 TIP3     16813    TIP3     H1       HT       0.417000       1.00800           0
     72885 TIP3     16813    TIP3     H2       HT       0.417000       1.00800           0
     72886 TIP3     16814    TIP3     OH2      OT      -0.834000       15.9994           0
     72887 TIP3     16814    TIP3     H1       HT       0.417000       1.00800           0
     72888 TIP3     16814    TIP3     H2       HT       0.417000       1.00800           0
     72889 TIP3     16815    TIP3     OH2      OT      -0.834000       15.9994           0
     72890 TIP3     16815    TIP3     H1       HT       0.417000       1.00800           0
     72891 TIP3     16815    TIP3     H2       HT       0.417000       1.00800           0
     72892 TIP3     16816    TIP3     OH2      OT      -0.834000       15.9994           0
     72893 TIP3     16816    TIP3     H1       HT       0.417000       1.00800           0
     72894 TIP3     16816    TIP3     H2       HT       0.417000       1.00800           0
     72895 TIP3     16817    TIP3     OH2      OT      -0.834000       15.9994           0
     72896 TIP3     16817    TIP3     H1       HT       0.417000       1.00800           0
     72897 TIP3     16817    TIP3     H2       HT       0.417000       1.00800           0
     72898 TIP3     16818    TIP3     OH2      OT      -0.834000       15.9994           0
     72899 TIP3     16818    TIP3     H1       HT       0.417000       1.00800           0
     72900 TIP3     16818    TIP3     H2       HT       0.417000       1.00800           0
     72901 TIP3     16819    TIP3     OH2      OT      -0.834000       15.9994           0
     72902 TIP3     16819    TIP3     H1       HT       0.417000       1.00800           0
     72903 TIP3     16819    TIP3     H2       HT       0.417000       1.00800           0
     72904 TIP3     16820    TIP3     OH2      OT      -0.834000       15.9994           0
     72905 TIP3     16820    TIP3     H1       HT       0.417000       1.00800           0
     72906 TIP3     16820    TIP3     H2       HT       0.417000       1.00800           0
     72907 TIP3     16821    TIP3     OH2      OT      -0.834000       15.9994           0
     72908 TIP3     16821    TIP3     H1       HT       0.417000       1.00800           0
     72909 TIP3     16821    TIP3     H2       HT       0.417000       1.00800           0
     72910 TIP3     16822    TIP3     OH2      OT      -0.834000       15.9994           0
     72911 TIP3     16822    TIP3     H1       HT       0.417000       1.00800           0
     72912 TIP3     16822    TIP3     H2       HT       0.417000       1.00800           0
     72913 TIP3     16823    TIP3     OH2      OT      -0.834000       15.9994           0
     72914 TIP3     16823    TIP3     H1       HT       0.417000       1.00800           0
     72915 TIP3     16823    TIP3     H2       HT       0.417000       1.00800           0
     72916 TIP3     16824    TIP3     OH2      OT      -0.834000       15.9994           0
     72917 TIP3     16824    TIP3     H1       HT       0.417000       1.00800           0
     72918 TIP3     16824    TIP3     H2       HT       0.417000       1.00800           0
     72919 TIP3     16825    TIP3     OH2      OT      -0.834000       15.9994           0
     72920 TIP3     16825    TIP3     H1       HT       0.417000       1.00800           0
     72921 TIP3     16825    TIP3     H2       HT       0.417000       1.00800           0
     72922 TIP3     16826    TIP3     OH2      OT      -0.834000       15.9994           0
     72923 TIP3     16826    TIP3     H1       HT       0.417000       1.00800           0
     72924 TIP3     16826    TIP3     H2       HT       0.417000       1.00800           0
     72925 TIP3     16827    TIP3     OH2      OT      -0.834000       15.9994           0
     72926 TIP3     16827    TIP3     H1       HT       0.417000       1.00800           0
     72927 TIP3     16827    TIP3     H2       HT       0.417000       1.00800           0
     72928 TIP3     16828    TIP3     OH2      OT      -0.834000       15.9994           0
     72929 TIP3     16828    TIP3     H1       HT       0.417000       1.00800           0
     72930 TIP3     16828    TIP3     H2       HT       0.417000       1.00800           0
     72931 TIP3     16829    TIP3     OH2      OT      -0.834000       15.9994           0
     72932 TIP3     16829    TIP3     H1       HT       0.417000       1.00800           0
     72933 TIP3     16829    TIP3     H2       HT       0.417000       1.00800           0
     72934 TIP3     16830    TIP3     OH2      OT      -0.834000       15.9994           0
     72935 TIP3     16830    TIP3     H1       HT       0.417000       1.00800           0
     72936 TIP3     16830    TIP3     H2       HT       0.417000       1.00800           0
     72937 TIP3     16831    TIP3     OH2      OT      -0.834000       15.9994           0
     72938 TIP3     16831    TIP3     H1       HT       0.417000       1.00800           0
     72939 TIP3     16831    TIP3     H2       HT       0.417000       1.00800           0
     72940 TIP3     16832    TIP3     OH2      OT      -0.834000       15.9994           0
     72941 TIP3     16832    TIP3     H1       HT       0.417000       1.00800           0
     72942 TIP3     16832    TIP3     H2       HT       0.417000       1.00800           0
     72943 TIP3     16833    TIP3     OH2      OT      -0.834000       15.9994           0
     72944 TIP3     16833    TIP3     H1       HT       0.417000       1.00800           0
     72945 TIP3     16833    TIP3     H2       HT       0.417000       1.00800           0
     72946 TIP3     16834    TIP3     OH2      OT      -0.834000       15.9994           0
     72947 TIP3     16834    TIP3     H1       HT       0.417000       1.00800           0
     72948 TIP3     16834    TIP3     H2       HT       0.417000       1.00800           0
     72949 TIP3     16835    TIP3     OH2      OT      -0.834000       15.9994           0
     72950 TIP3     16835    TIP3     H1       HT       0.417000       1.00800           0
     72951 TIP3     16835    TIP3     H2       HT       0.417000       1.00800           0
     72952 TIP3     16836    TIP3     OH2      OT      -0.834000       15.9994           0
     72953 TIP3     16836    TIP3     H1       HT       0.417000       1.00800           0
     72954 TIP3     16836    TIP3     H2       HT       0.417000       1.00800           0
     72955 TIP3     16837    TIP3     OH2      OT      -0.834000       15.9994           0
     72956 TIP3     16837    TIP3     H1       HT       0.417000       1.00800           0
     72957 TIP3     16837    TIP3     H2       HT       0.417000       1.00800           0
     72958 TIP3     16838    TIP3     OH2      OT      -0.834000       15.9994           0
     72959 TIP3     16838    TIP3     H1       HT       0.417000       1.00800           0
     72960 TIP3     16838    TIP3     H2       HT       0.417000       1.00800           0
     72961 TIP3     16839    TIP3     OH2      OT      -0.834000       15.9994           0
     72962 TIP3     16839    TIP3     H1       HT       0.417000       1.00800           0
     72963 TIP3     16839    TIP3     H2       HT       0.417000       1.00800           0
     72964 TIP3     16840    TIP3     OH2      OT      -0.834000       15.9994           0
     72965 TIP3     16840    TIP3     H1       HT       0.417000       1.00800           0
     72966 TIP3     16840    TIP3     H2       HT       0.417000       1.00800           0
     72967 TIP3     16841    TIP3     OH2      OT      -0.834000       15.9994           0
     72968 TIP3     16841    TIP3     H1       HT       0.417000       1.00800           0
     72969 TIP3     16841    TIP3     H2       HT       0.417000       1.00800           0
     72970 TIP3     16842    TIP3     OH2      OT      -0.834000       15.9994           0
     72971 TIP3     16842    TIP3     H1       HT       0.417000       1.00800           0
     72972 TIP3     16842    TIP3     H2       HT       0.417000       1.00800           0
     72973 TIP3     16843    TIP3     OH2      OT      -0.834000       15.9994           0
     72974 TIP3     16843    TIP3     H1       HT       0.417000       1.00800           0
     72975 TIP3     16843    TIP3     H2       HT       0.417000       1.00800           0
     72976 TIP3     16844    TIP3     OH2      OT      -0.834000       15.9994           0
     72977 TIP3     16844    TIP3     H1       HT       0.417000       1.00800           0
     72978 TIP3     16844    TIP3     H2       HT       0.417000       1.00800           0
     72979 TIP3     16845    TIP3     OH2      OT      -0.834000       15.9994           0
     72980 TIP3     16845    TIP3     H1       HT       0.417000       1.00800           0
     72981 TIP3     16845    TIP3     H2       HT       0.417000       1.00800           0
     72982 TIP3     16846    TIP3     OH2      OT      -0.834000       15.9994           0
     72983 TIP3     16846    TIP3     H1       HT       0.417000       1.00800           0
     72984 TIP3     16846    TIP3     H2       HT       0.417000       1.00800           0
     72985 TIP3     16847    TIP3     OH2      OT      -0.834000       15.9994           0
     72986 TIP3     16847    TIP3     H1       HT       0.417000       1.00800           0
     72987 TIP3     16847    TIP3     H2       HT       0.417000       1.00800           0
     72988 TIP3     16848    TIP3     OH2      OT      -0.834000       15.9994           0
     72989 TIP3     16848    TIP3     H1       HT       0.417000       1.00800           0
     72990 TIP3     16848    TIP3     H2       HT       0.417000       1.00800           0
     72991 TIP3     16849    TIP3     OH2      OT      -0.834000       15.9994           0
     72992 TIP3     16849    TIP3     H1       HT       0.417000       1.00800           0
     72993 TIP3     16849    TIP3     H2       HT       0.417000       1.00800           0
     72994 TIP3     16850    TIP3     OH2      OT      -0.834000       15.9994           0
     72995 TIP3     16850    TIP3     H1       HT       0.417000       1.00800           0
     72996 TIP3     16850    TIP3     H2       HT       0.417000       1.00800           0
     72997 TIP3     16851    TIP3     OH2      OT      -0.834000       15.9994           0
     72998 TIP3     16851    TIP3     H1       HT       0.417000       1.00800           0
     72999 TIP3     16851    TIP3     H2       HT       0.417000       1.00800           0
     73000 TIP3     16852    TIP3     OH2      OT      -0.834000       15.9994           0
     73001 TIP3     16852    TIP3     H1       HT       0.417000       1.00800           0
     73002 TIP3     16852    TIP3     H2       HT       0.417000       1.00800           0
     73003 TIP3     16853    TIP3     OH2      OT      -0.834000       15.9994           0
     73004 TIP3     16853    TIP3     H1       HT       0.417000       1.00800           0
     73005 TIP3     16853    TIP3     H2       HT       0.417000       1.00800           0
     73006 TIP3     16854    TIP3     OH2      OT      -0.834000       15.9994           0
     73007 TIP3     16854    TIP3     H1       HT       0.417000       1.00800           0
     73008 TIP3     16854    TIP3     H2       HT       0.417000       1.00800           0
     73009 TIP3     16855    TIP3     OH2      OT      -0.834000       15.9994           0
     73010 TIP3     16855    TIP3     H1       HT       0.417000       1.00800           0
     73011 TIP3     16855    TIP3     H2       HT       0.417000       1.00800           0
     73012 TIP3     16856    TIP3     OH2      OT      -0.834000       15.9994           0
     73013 TIP3     16856    TIP3     H1       HT       0.417000       1.00800           0
     73014 TIP3     16856    TIP3     H2       HT       0.417000       1.00800           0
     73015 TIP3     16857    TIP3     OH2      OT      -0.834000       15.9994           0
     73016 TIP3     16857    TIP3     H1       HT       0.417000       1.00800           0
     73017 TIP3     16857    TIP3     H2       HT       0.417000       1.00800           0
     73018 TIP3     16858    TIP3     OH2      OT      -0.834000       15.9994           0
     73019 TIP3     16858    TIP3     H1       HT       0.417000       1.00800           0
     73020 TIP3     16858    TIP3     H2       HT       0.417000       1.00800           0
     73021 TIP3     16859    TIP3     OH2      OT      -0.834000       15.9994           0
     73022 TIP3     16859    TIP3     H1       HT       0.417000       1.00800           0
     73023 TIP3     16859    TIP3     H2       HT       0.417000       1.00800           0
     73024 TIP3     16860    TIP3     OH2      OT      -0.834000       15.9994           0
     73025 TIP3     16860    TIP3     H1       HT       0.417000       1.00800           0
     73026 TIP3     16860    TIP3     H2       HT       0.417000       1.00800           0
     73027 TIP3     16861    TIP3     OH2      OT      -0.834000       15.9994           0
     73028 TIP3     16861    TIP3     H1       HT       0.417000       1.00800           0
     73029 TIP3     16861    TIP3     H2       HT       0.417000       1.00800           0
     73030 TIP3     16862    TIP3     OH2      OT      -0.834000       15.9994           0
     73031 TIP3     16862    TIP3     H1       HT       0.417000       1.00800           0
     73032 TIP3     16862    TIP3     H2       HT       0.417000       1.00800           0
     73033 TIP3     16863    TIP3     OH2      OT      -0.834000       15.9994           0
     73034 TIP3     16863    TIP3     H1       HT       0.417000       1.00800           0
     73035 TIP3     16863    TIP3     H2       HT       0.417000       1.00800           0
     73036 TIP3     16864    TIP3     OH2      OT      -0.834000       15.9994           0
     73037 TIP3     16864    TIP3     H1       HT       0.417000       1.00800           0
     73038 TIP3     16864    TIP3     H2       HT       0.417000       1.00800           0
     73039 TIP3     16865    TIP3     OH2      OT      -0.834000       15.9994           0
     73040 TIP3     16865    TIP3     H1       HT       0.417000       1.00800           0
     73041 TIP3     16865    TIP3     H2       HT       0.417000       1.00800           0
     73042 TIP3     16866    TIP3     OH2      OT      -0.834000       15.9994           0
     73043 TIP3     16866    TIP3     H1       HT       0.417000       1.00800           0
     73044 TIP3     16866    TIP3     H2       HT       0.417000       1.00800           0
     73045 TIP3     16867    TIP3     OH2      OT      -0.834000       15.9994           0
     73046 TIP3     16867    TIP3     H1       HT       0.417000       1.00800           0
     73047 TIP3     16867    TIP3     H2       HT       0.417000       1.00800           0
     73048 TIP3     16868    TIP3     OH2      OT      -0.834000       15.9994           0
     73049 TIP3     16868    TIP3     H1       HT       0.417000       1.00800           0
     73050 TIP3     16868    TIP3     H2       HT       0.417000       1.00800           0
     73051 TIP3     16869    TIP3     OH2      OT      -0.834000       15.9994           0
     73052 TIP3     16869    TIP3     H1       HT       0.417000       1.00800           0
     73053 TIP3     16869    TIP3     H2       HT       0.417000       1.00800           0
     73054 TIP3     16870    TIP3     OH2      OT      -0.834000       15.9994           0
     73055 TIP3     16870    TIP3     H1       HT       0.417000       1.00800           0
     73056 TIP3     16870    TIP3     H2       HT       0.417000       1.00800           0
     73057 TIP3     16871    TIP3     OH2      OT      -0.834000       15.9994           0
     73058 TIP3     16871    TIP3     H1       HT       0.417000       1.00800           0
     73059 TIP3     16871    TIP3     H2       HT       0.417000       1.00800           0
     73060 TIP3     16872    TIP3     OH2      OT      -0.834000       15.9994           0
     73061 TIP3     16872    TIP3     H1       HT       0.417000       1.00800           0
     73062 TIP3     16872    TIP3     H2       HT       0.417000       1.00800           0
     73063 TIP3     16873    TIP3     OH2      OT      -0.834000       15.9994           0
     73064 TIP3     16873    TIP3     H1       HT       0.417000       1.00800           0
     73065 TIP3     16873    TIP3     H2       HT       0.417000       1.00800           0
     73066 TIP3     16874    TIP3     OH2      OT      -0.834000       15.9994           0
     73067 TIP3     16874    TIP3     H1       HT       0.417000       1.00800           0
     73068 TIP3     16874    TIP3     H2       HT       0.417000       1.00800           0
     73069 TIP3     16875    TIP3     OH2      OT      -0.834000       15.9994           0
     73070 TIP3     16875    TIP3     H1       HT       0.417000       1.00800           0
     73071 TIP3     16875    TIP3     H2       HT       0.417000       1.00800           0
     73072 TIP3     16876    TIP3     OH2      OT      -0.834000       15.9994           0
     73073 TIP3     16876    TIP3     H1       HT       0.417000       1.00800           0
     73074 TIP3     16876    TIP3     H2       HT       0.417000       1.00800           0
     73075 TIP3     16877    TIP3     OH2      OT      -0.834000       15.9994           0
     73076 TIP3     16877    TIP3     H1       HT       0.417000       1.00800           0
     73077 TIP3     16877    TIP3     H2       HT       0.417000       1.00800           0
     73078 TIP3     16878    TIP3     OH2      OT      -0.834000       15.9994           0
     73079 TIP3     16878    TIP3     H1       HT       0.417000       1.00800           0
     73080 TIP3     16878    TIP3     H2       HT       0.417000       1.00800           0
     73081 TIP3     16879    TIP3     OH2      OT      -0.834000       15.9994           0
     73082 TIP3     16879    TIP3     H1       HT       0.417000       1.00800           0
     73083 TIP3     16879    TIP3     H2       HT       0.417000       1.00800           0
     73084 TIP3     16880    TIP3     OH2      OT      -0.834000       15.9994           0
     73085 TIP3     16880    TIP3     H1       HT       0.417000       1.00800           0
     73086 TIP3     16880    TIP3     H2       HT       0.417000       1.00800           0
     73087 TIP3     16881    TIP3     OH2      OT      -0.834000       15.9994           0
     73088 TIP3     16881    TIP3     H1       HT       0.417000       1.00800           0
     73089 TIP3     16881    TIP3     H2       HT       0.417000       1.00800           0
     73090 TIP3     16882    TIP3     OH2      OT      -0.834000       15.9994           0
     73091 TIP3     16882    TIP3     H1       HT       0.417000       1.00800           0
     73092 TIP3     16882    TIP3     H2       HT       0.417000       1.00800           0
     73093 TIP3     16883    TIP3     OH2      OT      -0.834000       15.9994           0
     73094 TIP3     16883    TIP3     H1       HT       0.417000       1.00800           0
     73095 TIP3     16883    TIP3     H2       HT       0.417000       1.00800           0
     73096 TIP3     16884    TIP3     OH2      OT      -0.834000       15.9994           0
     73097 TIP3     16884    TIP3     H1       HT       0.417000       1.00800           0
     73098 TIP3     16884    TIP3     H2       HT       0.417000       1.00800           0
     73099 TIP3     16885    TIP3     OH2      OT      -0.834000       15.9994           0
     73100 TIP3     16885    TIP3     H1       HT       0.417000       1.00800           0
     73101 TIP3     16885    TIP3     H2       HT       0.417000       1.00800           0
     73102 TIP3     16886    TIP3     OH2      OT      -0.834000       15.9994           0
     73103 TIP3     16886    TIP3     H1       HT       0.417000       1.00800           0
     73104 TIP3     16886    TIP3     H2       HT       0.417000       1.00800           0
     73105 TIP3     16887    TIP3     OH2      OT      -0.834000       15.9994           0
     73106 TIP3     16887    TIP3     H1       HT       0.417000       1.00800           0
     73107 TIP3     16887    TIP3     H2       HT       0.417000       1.00800           0
     73108 TIP3     16888    TIP3     OH2      OT      -0.834000       15.9994           0
     73109 TIP3     16888    TIP3     H1       HT       0.417000       1.00800           0
     73110 TIP3     16888    TIP3     H2       HT       0.417000       1.00800           0
     73111 TIP3     16889    TIP3     OH2      OT      -0.834000       15.9994           0
     73112 TIP3     16889    TIP3     H1       HT       0.417000       1.00800           0
     73113 TIP3     16889    TIP3     H2       HT       0.417000       1.00800           0
     73114 TIP3     16890    TIP3     OH2      OT      -0.834000       15.9994           0
     73115 TIP3     16890    TIP3     H1       HT       0.417000       1.00800           0
     73116 TIP3     16890    TIP3     H2       HT       0.417000       1.00800           0
     73117 TIP3     16891    TIP3     OH2      OT      -0.834000       15.9994           0
     73118 TIP3     16891    TIP3     H1       HT       0.417000       1.00800           0
     73119 TIP3     16891    TIP3     H2       HT       0.417000       1.00800           0
     73120 TIP3     16892    TIP3     OH2      OT      -0.834000       15.9994           0
     73121 TIP3     16892    TIP3     H1       HT       0.417000       1.00800           0
     73122 TIP3     16892    TIP3     H2       HT       0.417000       1.00800           0
     73123 TIP3     16893    TIP3     OH2      OT      -0.834000       15.9994           0
     73124 TIP3     16893    TIP3     H1       HT       0.417000       1.00800           0
     73125 TIP3     16893    TIP3     H2       HT       0.417000       1.00800           0
     73126 TIP3     16894    TIP3     OH2      OT      -0.834000       15.9994           0
     73127 TIP3     16894    TIP3     H1       HT       0.417000       1.00800           0
     73128 TIP3     16894    TIP3     H2       HT       0.417000       1.00800           0
     73129 TIP3     16895    TIP3     OH2      OT      -0.834000       15.9994           0
     73130 TIP3     16895    TIP3     H1       HT       0.417000       1.00800           0
     73131 TIP3     16895    TIP3     H2       HT       0.417000       1.00800           0
     73132 TIP3     16896    TIP3     OH2      OT      -0.834000       15.9994           0
     73133 TIP3     16896    TIP3     H1       HT       0.417000       1.00800           0
     73134 TIP3     16896    TIP3     H2       HT       0.417000       1.00800           0
     73135 TIP3     16897    TIP3     OH2      OT      -0.834000       15.9994           0
     73136 TIP3     16897    TIP3     H1       HT       0.417000       1.00800           0
     73137 TIP3     16897    TIP3     H2       HT       0.417000       1.00800           0
     73138 TIP3     16898    TIP3     OH2      OT      -0.834000       15.9994           0
     73139 TIP3     16898    TIP3     H1       HT       0.417000       1.00800           0
     73140 TIP3     16898    TIP3     H2       HT       0.417000       1.00800           0
     73141 TIP3     16899    TIP3     OH2      OT      -0.834000       15.9994           0
     73142 TIP3     16899    TIP3     H1       HT       0.417000       1.00800           0
     73143 TIP3     16899    TIP3     H2       HT       0.417000       1.00800           0
     73144 TIP3     16900    TIP3     OH2      OT      -0.834000       15.9994           0
     73145 TIP3     16900    TIP3     H1       HT       0.417000       1.00800           0
     73146 TIP3     16900    TIP3     H2       HT       0.417000       1.00800           0
     73147 TIP3     16901    TIP3     OH2      OT      -0.834000       15.9994           0
     73148 TIP3     16901    TIP3     H1       HT       0.417000       1.00800           0
     73149 TIP3     16901    TIP3     H2       HT       0.417000       1.00800           0
     73150 TIP3     16902    TIP3     OH2      OT      -0.834000       15.9994           0
     73151 TIP3     16902    TIP3     H1       HT       0.417000       1.00800           0
     73152 TIP3     16902    TIP3     H2       HT       0.417000       1.00800           0
     73153 TIP3     16903    TIP3     OH2      OT      -0.834000       15.9994           0
     73154 TIP3     16903    TIP3     H1       HT       0.417000       1.00800           0
     73155 TIP3     16903    TIP3     H2       HT       0.417000       1.00800           0
     73156 TIP3     16904    TIP3     OH2      OT      -0.834000       15.9994           0
     73157 TIP3     16904    TIP3     H1       HT       0.417000       1.00800           0
     73158 TIP3     16904    TIP3     H2       HT       0.417000       1.00800           0
     73159 TIP3     16905    TIP3     OH2      OT      -0.834000       15.9994           0
     73160 TIP3     16905    TIP3     H1       HT       0.417000       1.00800           0
     73161 TIP3     16905    TIP3     H2       HT       0.417000       1.00800           0
     73162 TIP3     16906    TIP3     OH2      OT      -0.834000       15.9994           0
     73163 TIP3     16906    TIP3     H1       HT       0.417000       1.00800           0
     73164 TIP3     16906    TIP3     H2       HT       0.417000       1.00800           0
     73165 TIP3     16907    TIP3     OH2      OT      -0.834000       15.9994           0
     73166 TIP3     16907    TIP3     H1       HT       0.417000       1.00800           0
     73167 TIP3     16907    TIP3     H2       HT       0.417000       1.00800           0
     73168 TIP3     16908    TIP3     OH2      OT      -0.834000       15.9994           0
     73169 TIP3     16908    TIP3     H1       HT       0.417000       1.00800           0
     73170 TIP3     16908    TIP3     H2       HT       0.417000       1.00800           0
     73171 TIP3     16909    TIP3     OH2      OT      -0.834000       15.9994           0
     73172 TIP3     16909    TIP3     H1       HT       0.417000       1.00800           0
     73173 TIP3     16909    TIP3     H2       HT       0.417000       1.00800           0
     73174 TIP3     16910    TIP3     OH2      OT      -0.834000       15.9994           0
     73175 TIP3     16910    TIP3     H1       HT       0.417000       1.00800           0
     73176 TIP3     16910    TIP3     H2       HT       0.417000       1.00800           0
     73177 TIP3     16911    TIP3     OH2      OT      -0.834000       15.9994           0
     73178 TIP3     16911    TIP3     H1       HT       0.417000       1.00800           0
     73179 TIP3     16911    TIP3     H2       HT       0.417000       1.00800           0
     73180 TIP3     16912    TIP3     OH2      OT      -0.834000       15.9994           0
     73181 TIP3     16912    TIP3     H1       HT       0.417000       1.00800           0
     73182 TIP3     16912    TIP3     H2       HT       0.417000       1.00800           0
     73183 TIP3     16913    TIP3     OH2      OT      -0.834000       15.9994           0
     73184 TIP3     16913    TIP3     H1       HT       0.417000       1.00800           0
     73185 TIP3     16913    TIP3     H2       HT       0.417000       1.00800           0
     73186 TIP3     16914    TIP3     OH2      OT      -0.834000       15.9994           0
     73187 TIP3     16914    TIP3     H1       HT       0.417000       1.00800           0
     73188 TIP3     16914    TIP3     H2       HT       0.417000       1.00800           0
     73189 TIP3     16915    TIP3     OH2      OT      -0.834000       15.9994           0
     73190 TIP3     16915    TIP3     H1       HT       0.417000       1.00800           0
     73191 TIP3     16915    TIP3     H2       HT       0.417000       1.00800           0
     73192 TIP3     16916    TIP3     OH2      OT      -0.834000       15.9994           0
     73193 TIP3     16916    TIP3     H1       HT       0.417000       1.00800           0
     73194 TIP3     16916    TIP3     H2       HT       0.417000       1.00800           0
     73195 TIP3     16917    TIP3     OH2      OT      -0.834000       15.9994           0
     73196 TIP3     16917    TIP3     H1       HT       0.417000       1.00800           0
     73197 TIP3     16917    TIP3     H2       HT       0.417000       1.00800           0
     73198 TIP3     16918    TIP3     OH2      OT      -0.834000       15.9994           0
     73199 TIP3     16918    TIP3     H1       HT       0.417000       1.00800           0
     73200 TIP3     16918    TIP3     H2       HT       0.417000       1.00800           0
     73201 TIP3     16919    TIP3     OH2      OT      -0.834000       15.9994           0
     73202 TIP3     16919    TIP3     H1       HT       0.417000       1.00800           0
     73203 TIP3     16919    TIP3     H2       HT       0.417000       1.00800           0
     73204 TIP3     16920    TIP3     OH2      OT      -0.834000       15.9994           0
     73205 TIP3     16920    TIP3     H1       HT       0.417000       1.00800           0
     73206 TIP3     16920    TIP3     H2       HT       0.417000       1.00800           0
     73207 TIP3     16921    TIP3     OH2      OT      -0.834000       15.9994           0
     73208 TIP3     16921    TIP3     H1       HT       0.417000       1.00800           0
     73209 TIP3     16921    TIP3     H2       HT       0.417000       1.00800           0
     73210 TIP3     16922    TIP3     OH2      OT      -0.834000       15.9994           0
     73211 TIP3     16922    TIP3     H1       HT       0.417000       1.00800           0
     73212 TIP3     16922    TIP3     H2       HT       0.417000       1.00800           0
     73213 TIP3     16923    TIP3     OH2      OT      -0.834000       15.9994           0
     73214 TIP3     16923    TIP3     H1       HT       0.417000       1.00800           0
     73215 TIP3     16923    TIP3     H2       HT       0.417000       1.00800           0
     73216 TIP3     16924    TIP3     OH2      OT      -0.834000       15.9994           0
     73217 TIP3     16924    TIP3     H1       HT       0.417000       1.00800           0
     73218 TIP3     16924    TIP3     H2       HT       0.417000       1.00800           0
     73219 TIP3     16925    TIP3     OH2      OT      -0.834000       15.9994           0
     73220 TIP3     16925    TIP3     H1       HT       0.417000       1.00800           0
     73221 TIP3     16925    TIP3     H2       HT       0.417000       1.00800           0
     73222 TIP3     16926    TIP3     OH2      OT      -0.834000       15.9994           0
     73223 TIP3     16926    TIP3     H1       HT       0.417000       1.00800           0
     73224 TIP3     16926    TIP3     H2       HT       0.417000       1.00800           0
     73225 TIP3     16927    TIP3     OH2      OT      -0.834000       15.9994           0
     73226 TIP3     16927    TIP3     H1       HT       0.417000       1.00800           0
     73227 TIP3     16927    TIP3     H2       HT       0.417000       1.00800           0
     73228 TIP3     16928    TIP3     OH2      OT      -0.834000       15.9994           0
     73229 TIP3     16928    TIP3     H1       HT       0.417000       1.00800           0
     73230 TIP3     16928    TIP3     H2       HT       0.417000       1.00800           0
     73231 TIP3     16929    TIP3     OH2      OT      -0.834000       15.9994           0
     73232 TIP3     16929    TIP3     H1       HT       0.417000       1.00800           0
     73233 TIP3     16929    TIP3     H2       HT       0.417000       1.00800           0
     73234 TIP3     16930    TIP3     OH2      OT      -0.834000       15.9994           0
     73235 TIP3     16930    TIP3     H1       HT       0.417000       1.00800           0
     73236 TIP3     16930    TIP3     H2       HT       0.417000       1.00800           0
     73237 TIP3     16931    TIP3     OH2      OT      -0.834000       15.9994           0
     73238 TIP3     16931    TIP3     H1       HT       0.417000       1.00800           0
     73239 TIP3     16931    TIP3     H2       HT       0.417000       1.00800           0
     73240 TIP3     16932    TIP3     OH2      OT      -0.834000       15.9994           0
     73241 TIP3     16932    TIP3     H1       HT       0.417000       1.00800           0
     73242 TIP3     16932    TIP3     H2       HT       0.417000       1.00800           0
     73243 TIP3     16933    TIP3     OH2      OT      -0.834000       15.9994           0
     73244 TIP3     16933    TIP3     H1       HT       0.417000       1.00800           0
     73245 TIP3     16933    TIP3     H2       HT       0.417000       1.00800           0
     73246 TIP3     16934    TIP3     OH2      OT      -0.834000       15.9994           0
     73247 TIP3     16934    TIP3     H1       HT       0.417000       1.00800           0
     73248 TIP3     16934    TIP3     H2       HT       0.417000       1.00800           0
     73249 TIP3     16935    TIP3     OH2      OT      -0.834000       15.9994           0
     73250 TIP3     16935    TIP3     H1       HT       0.417000       1.00800           0
     73251 TIP3     16935    TIP3     H2       HT       0.417000       1.00800           0
     73252 TIP3     16936    TIP3     OH2      OT      -0.834000       15.9994           0
     73253 TIP3     16936    TIP3     H1       HT       0.417000       1.00800           0
     73254 TIP3     16936    TIP3     H2       HT       0.417000       1.00800           0
     73255 TIP3     16937    TIP3     OH2      OT      -0.834000       15.9994           0
     73256 TIP3     16937    TIP3     H1       HT       0.417000       1.00800           0
     73257 TIP3     16937    TIP3     H2       HT       0.417000       1.00800           0
     73258 TIP3     16938    TIP3     OH2      OT      -0.834000       15.9994           0
     73259 TIP3     16938    TIP3     H1       HT       0.417000       1.00800           0
     73260 TIP3     16938    TIP3     H2       HT       0.417000       1.00800           0
     73261 TIP3     16939    TIP3     OH2      OT      -0.834000       15.9994           0
     73262 TIP3     16939    TIP3     H1       HT       0.417000       1.00800           0
     73263 TIP3     16939    TIP3     H2       HT       0.417000       1.00800           0
     73264 TIP3     16940    TIP3     OH2      OT      -0.834000       15.9994           0
     73265 TIP3     16940    TIP3     H1       HT       0.417000       1.00800           0
     73266 TIP3     16940    TIP3     H2       HT       0.417000       1.00800           0
     73267 TIP3     16941    TIP3     OH2      OT      -0.834000       15.9994           0
     73268 TIP3     16941    TIP3     H1       HT       0.417000       1.00800           0
     73269 TIP3     16941    TIP3     H2       HT       0.417000       1.00800           0
     73270 TIP3     16942    TIP3     OH2      OT      -0.834000       15.9994           0
     73271 TIP3     16942    TIP3     H1       HT       0.417000       1.00800           0
     73272 TIP3     16942    TIP3     H2       HT       0.417000       1.00800           0
     73273 TIP3     16943    TIP3     OH2      OT      -0.834000       15.9994           0
     73274 TIP3     16943    TIP3     H1       HT       0.417000       1.00800           0
     73275 TIP3     16943    TIP3     H2       HT       0.417000       1.00800           0
     73276 TIP3     16944    TIP3     OH2      OT      -0.834000       15.9994           0
     73277 TIP3     16944    TIP3     H1       HT       0.417000       1.00800           0
     73278 TIP3     16944    TIP3     H2       HT       0.417000       1.00800           0
     73279 TIP3     16945    TIP3     OH2      OT      -0.834000       15.9994           0
     73280 TIP3     16945    TIP3     H1       HT       0.417000       1.00800           0
     73281 TIP3     16945    TIP3     H2       HT       0.417000       1.00800           0
     73282 TIP3     16946    TIP3     OH2      OT      -0.834000       15.9994           0
     73283 TIP3     16946    TIP3     H1       HT       0.417000       1.00800           0
     73284 TIP3     16946    TIP3     H2       HT       0.417000       1.00800           0
     73285 TIP3     16947    TIP3     OH2      OT      -0.834000       15.9994           0
     73286 TIP3     16947    TIP3     H1       HT       0.417000       1.00800           0
     73287 TIP3     16947    TIP3     H2       HT       0.417000       1.00800           0
     73288 TIP3     16948    TIP3     OH2      OT      -0.834000       15.9994           0
     73289 TIP3     16948    TIP3     H1       HT       0.417000       1.00800           0
     73290 TIP3     16948    TIP3     H2       HT       0.417000       1.00800           0
     73291 TIP3     16949    TIP3     OH2      OT      -0.834000       15.9994           0
     73292 TIP3     16949    TIP3     H1       HT       0.417000       1.00800           0
     73293 TIP3     16949    TIP3     H2       HT       0.417000       1.00800           0
     73294 TIP3     16950    TIP3     OH2      OT      -0.834000       15.9994           0
     73295 TIP3     16950    TIP3     H1       HT       0.417000       1.00800           0
     73296 TIP3     16950    TIP3     H2       HT       0.417000       1.00800           0
     73297 TIP3     16951    TIP3     OH2      OT      -0.834000       15.9994           0
     73298 TIP3     16951    TIP3     H1       HT       0.417000       1.00800           0
     73299 TIP3     16951    TIP3     H2       HT       0.417000       1.00800           0
     73300 TIP3     16952    TIP3     OH2      OT      -0.834000       15.9994           0
     73301 TIP3     16952    TIP3     H1       HT       0.417000       1.00800           0
     73302 TIP3     16952    TIP3     H2       HT       0.417000       1.00800           0
     73303 TIP3     16953    TIP3     OH2      OT      -0.834000       15.9994           0
     73304 TIP3     16953    TIP3     H1       HT       0.417000       1.00800           0
     73305 TIP3     16953    TIP3     H2       HT       0.417000       1.00800           0
     73306 TIP3     16954    TIP3     OH2      OT      -0.834000       15.9994           0
     73307 TIP3     16954    TIP3     H1       HT       0.417000       1.00800           0
     73308 TIP3     16954    TIP3     H2       HT       0.417000       1.00800           0
     73309 TIP3     16955    TIP3     OH2      OT      -0.834000       15.9994           0
     73310 TIP3     16955    TIP3     H1       HT       0.417000       1.00800           0
     73311 TIP3     16955    TIP3     H2       HT       0.417000       1.00800           0
     73312 TIP3     16956    TIP3     OH2      OT      -0.834000       15.9994           0
     73313 TIP3     16956    TIP3     H1       HT       0.417000       1.00800           0
     73314 TIP3     16956    TIP3     H2       HT       0.417000       1.00800           0
     73315 TIP3     16957    TIP3     OH2      OT      -0.834000       15.9994           0
     73316 TIP3     16957    TIP3     H1       HT       0.417000       1.00800           0
     73317 TIP3     16957    TIP3     H2       HT       0.417000       1.00800           0
     73318 TIP3     16958    TIP3     OH2      OT      -0.834000       15.9994           0
     73319 TIP3     16958    TIP3     H1       HT       0.417000       1.00800           0
     73320 TIP3     16958    TIP3     H2       HT       0.417000       1.00800           0
     73321 TIP3     16959    TIP3     OH2      OT      -0.834000       15.9994           0
     73322 TIP3     16959    TIP3     H1       HT       0.417000       1.00800           0
     73323 TIP3     16959    TIP3     H2       HT       0.417000       1.00800           0
     73324 TIP3     16960    TIP3     OH2      OT      -0.834000       15.9994           0
     73325 TIP3     16960    TIP3     H1       HT       0.417000       1.00800           0
     73326 TIP3     16960    TIP3     H2       HT       0.417000       1.00800           0
     73327 TIP3     16961    TIP3     OH2      OT      -0.834000       15.9994           0
     73328 TIP3     16961    TIP3     H1       HT       0.417000       1.00800           0
     73329 TIP3     16961    TIP3     H2       HT       0.417000       1.00800           0
     73330 TIP3     16962    TIP3     OH2      OT      -0.834000       15.9994           0
     73331 TIP3     16962    TIP3     H1       HT       0.417000       1.00800           0
     73332 TIP3     16962    TIP3     H2       HT       0.417000       1.00800           0
     73333 TIP3     16963    TIP3     OH2      OT      -0.834000       15.9994           0
     73334 TIP3     16963    TIP3     H1       HT       0.417000       1.00800           0
     73335 TIP3     16963    TIP3     H2       HT       0.417000       1.00800           0
     73336 TIP3     16964    TIP3     OH2      OT      -0.834000       15.9994           0
     73337 TIP3     16964    TIP3     H1       HT       0.417000       1.00800           0
     73338 TIP3     16964    TIP3     H2       HT       0.417000       1.00800           0
     73339 TIP3     16965    TIP3     OH2      OT      -0.834000       15.9994           0
     73340 TIP3     16965    TIP3     H1       HT       0.417000       1.00800           0
     73341 TIP3     16965    TIP3     H2       HT       0.417000       1.00800           0
     73342 TIP3     16966    TIP3     OH2      OT      -0.834000       15.9994           0
     73343 TIP3     16966    TIP3     H1       HT       0.417000       1.00800           0
     73344 TIP3     16966    TIP3     H2       HT       0.417000       1.00800           0
     73345 TIP3     16967    TIP3     OH2      OT      -0.834000       15.9994           0
     73346 TIP3     16967    TIP3     H1       HT       0.417000       1.00800           0
     73347 TIP3     16967    TIP3     H2       HT       0.417000       1.00800           0
     73348 TIP3     16968    TIP3     OH2      OT      -0.834000       15.9994           0
     73349 TIP3     16968    TIP3     H1       HT       0.417000       1.00800           0
     73350 TIP3     16968    TIP3     H2       HT       0.417000       1.00800           0
     73351 TIP3     16969    TIP3     OH2      OT      -0.834000       15.9994           0
     73352 TIP3     16969    TIP3     H1       HT       0.417000       1.00800           0
     73353 TIP3     16969    TIP3     H2       HT       0.417000       1.00800           0
     73354 TIP3     16970    TIP3     OH2      OT      -0.834000       15.9994           0
     73355 TIP3     16970    TIP3     H1       HT       0.417000       1.00800           0
     73356 TIP3     16970    TIP3     H2       HT       0.417000       1.00800           0
     73357 TIP3     16971    TIP3     OH2      OT      -0.834000       15.9994           0
     73358 TIP3     16971    TIP3     H1       HT       0.417000       1.00800           0
     73359 TIP3     16971    TIP3     H2       HT       0.417000       1.00800           0
     73360 TIP3     16972    TIP3     OH2      OT      -0.834000       15.9994           0
     73361 TIP3     16972    TIP3     H1       HT       0.417000       1.00800           0
     73362 TIP3     16972    TIP3     H2       HT       0.417000       1.00800           0
     73363 TIP3     16973    TIP3     OH2      OT      -0.834000       15.9994           0
     73364 TIP3     16973    TIP3     H1       HT       0.417000       1.00800           0
     73365 TIP3     16973    TIP3     H2       HT       0.417000       1.00800           0
     73366 TIP3     16974    TIP3     OH2      OT      -0.834000       15.9994           0
     73367 TIP3     16974    TIP3     H1       HT       0.417000       1.00800           0
     73368 TIP3     16974    TIP3     H2       HT       0.417000       1.00800           0
     73369 TIP3     16975    TIP3     OH2      OT      -0.834000       15.9994           0
     73370 TIP3     16975    TIP3     H1       HT       0.417000       1.00800           0
     73371 TIP3     16975    TIP3     H2       HT       0.417000       1.00800           0
     73372 TIP3     16976    TIP3     OH2      OT      -0.834000       15.9994           0
     73373 TIP3     16976    TIP3     H1       HT       0.417000       1.00800           0
     73374 TIP3     16976    TIP3     H2       HT       0.417000       1.00800           0
     73375 TIP3     16977    TIP3     OH2      OT      -0.834000       15.9994           0
     73376 TIP3     16977    TIP3     H1       HT       0.417000       1.00800           0
     73377 TIP3     16977    TIP3     H2       HT       0.417000       1.00800           0
     73378 TIP3     16978    TIP3     OH2      OT      -0.834000       15.9994           0
     73379 TIP3     16978    TIP3     H1       HT       0.417000       1.00800           0
     73380 TIP3     16978    TIP3     H2       HT       0.417000       1.00800           0
     73381 TIP3     16979    TIP3     OH2      OT      -0.834000       15.9994           0
     73382 TIP3     16979    TIP3     H1       HT       0.417000       1.00800           0
     73383 TIP3     16979    TIP3     H2       HT       0.417000       1.00800           0
     73384 TIP3     16980    TIP3     OH2      OT      -0.834000       15.9994           0
     73385 TIP3     16980    TIP3     H1       HT       0.417000       1.00800           0
     73386 TIP3     16980    TIP3     H2       HT       0.417000       1.00800           0
     73387 TIP3     16981    TIP3     OH2      OT      -0.834000       15.9994           0
     73388 TIP3     16981    TIP3     H1       HT       0.417000       1.00800           0
     73389 TIP3     16981    TIP3     H2       HT       0.417000       1.00800           0
     73390 TIP3     16982    TIP3     OH2      OT      -0.834000       15.9994           0
     73391 TIP3     16982    TIP3     H1       HT       0.417000       1.00800           0
     73392 TIP3     16982    TIP3     H2       HT       0.417000       1.00800           0
     73393 TIP3     16983    TIP3     OH2      OT      -0.834000       15.9994           0
     73394 TIP3     16983    TIP3     H1       HT       0.417000       1.00800           0
     73395 TIP3     16983    TIP3     H2       HT       0.417000       1.00800           0
     73396 TIP3     16984    TIP3     OH2      OT      -0.834000       15.9994           0
     73397 TIP3     16984    TIP3     H1       HT       0.417000       1.00800           0
     73398 TIP3     16984    TIP3     H2       HT       0.417000       1.00800           0
     73399 TIP3     16985    TIP3     OH2      OT      -0.834000       15.9994           0
     73400 TIP3     16985    TIP3     H1       HT       0.417000       1.00800           0
     73401 TIP3     16985    TIP3     H2       HT       0.417000       1.00800           0
     73402 TIP3     16986    TIP3     OH2      OT      -0.834000       15.9994           0
     73403 TIP3     16986    TIP3     H1       HT       0.417000       1.00800           0
     73404 TIP3     16986    TIP3     H2       HT       0.417000       1.00800           0
     73405 TIP3     16987    TIP3     OH2      OT      -0.834000       15.9994           0
     73406 TIP3     16987    TIP3     H1       HT       0.417000       1.00800           0
     73407 TIP3     16987    TIP3     H2       HT       0.417000       1.00800           0
     73408 TIP3     16988    TIP3     OH2      OT      -0.834000       15.9994           0
     73409 TIP3     16988    TIP3     H1       HT       0.417000       1.00800           0
     73410 TIP3     16988    TIP3     H2       HT       0.417000       1.00800           0
     73411 TIP3     16989    TIP3     OH2      OT      -0.834000       15.9994           0
     73412 TIP3     16989    TIP3     H1       HT       0.417000       1.00800           0
     73413 TIP3     16989    TIP3     H2       HT       0.417000       1.00800           0
     73414 TIP3     16990    TIP3     OH2      OT      -0.834000       15.9994           0
     73415 TIP3     16990    TIP3     H1       HT       0.417000       1.00800           0
     73416 TIP3     16990    TIP3     H2       HT       0.417000       1.00800           0
     73417 TIP3     16991    TIP3     OH2      OT      -0.834000       15.9994           0
     73418 TIP3     16991    TIP3     H1       HT       0.417000       1.00800           0
     73419 TIP3     16991    TIP3     H2       HT       0.417000       1.00800           0
     73420 TIP3     16992    TIP3     OH2      OT      -0.834000       15.9994           0
     73421 TIP3     16992    TIP3     H1       HT       0.417000       1.00800           0
     73422 TIP3     16992    TIP3     H2       HT       0.417000       1.00800           0
     73423 TIP3     16993    TIP3     OH2      OT      -0.834000       15.9994           0
     73424 TIP3     16993    TIP3     H1       HT       0.417000       1.00800           0
     73425 TIP3     16993    TIP3     H2       HT       0.417000       1.00800           0
     73426 TIP3     16994    TIP3     OH2      OT      -0.834000       15.9994           0
     73427 TIP3     16994    TIP3     H1       HT       0.417000       1.00800           0
     73428 TIP3     16994    TIP3     H2       HT       0.417000       1.00800           0
     73429 TIP3     16995    TIP3     OH2      OT      -0.834000       15.9994           0
     73430 TIP3     16995    TIP3     H1       HT       0.417000       1.00800           0
     73431 TIP3     16995    TIP3     H2       HT       0.417000       1.00800           0
     73432 TIP3     16996    TIP3     OH2      OT      -0.834000       15.9994           0
     73433 TIP3     16996    TIP3     H1       HT       0.417000       1.00800           0
     73434 TIP3     16996    TIP3     H2       HT       0.417000       1.00800           0
     73435 TIP3     16997    TIP3     OH2      OT      -0.834000       15.9994           0
     73436 TIP3     16997    TIP3     H1       HT       0.417000       1.00800           0
     73437 TIP3     16997    TIP3     H2       HT       0.417000       1.00800           0
     73438 TIP3     16998    TIP3     OH2      OT      -0.834000       15.9994           0
     73439 TIP3     16998    TIP3     H1       HT       0.417000       1.00800           0
     73440 TIP3     16998    TIP3     H2       HT       0.417000       1.00800           0
     73441 TIP3     16999    TIP3     OH2      OT      -0.834000       15.9994           0
     73442 TIP3     16999    TIP3     H1       HT       0.417000       1.00800           0
     73443 TIP3     16999    TIP3     H2       HT       0.417000       1.00800           0
     73444 TIP3     17000    TIP3     OH2      OT      -0.834000       15.9994           0
     73445 TIP3     17000    TIP3     H1       HT       0.417000       1.00800           0
     73446 TIP3     17000    TIP3     H2       HT       0.417000       1.00800           0
     73447 TIP3     17001    TIP3     OH2      OT      -0.834000       15.9994           0
     73448 TIP3     17001    TIP3     H1       HT       0.417000       1.00800           0
     73449 TIP3     17001    TIP3     H2       HT       0.417000       1.00800           0
     73450 TIP3     17002    TIP3     OH2      OT      -0.834000       15.9994           0
     73451 TIP3     17002    TIP3     H1       HT       0.417000       1.00800           0
     73452 TIP3     17002    TIP3     H2       HT       0.417000       1.00800           0
     73453 TIP3     17003    TIP3     OH2      OT      -0.834000       15.9994           0
     73454 TIP3     17003    TIP3     H1       HT       0.417000       1.00800           0
     73455 TIP3     17003    TIP3     H2       HT       0.417000       1.00800           0
     73456 TIP3     17004    TIP3     OH2      OT      -0.834000       15.9994           0
     73457 TIP3     17004    TIP3     H1       HT       0.417000       1.00800           0
     73458 TIP3     17004    TIP3     H2       HT       0.417000       1.00800           0
     73459 TIP3     17005    TIP3     OH2      OT      -0.834000       15.9994           0
     73460 TIP3     17005    TIP3     H1       HT       0.417000       1.00800           0
     73461 TIP3     17005    TIP3     H2       HT       0.417000       1.00800           0
     73462 TIP3     17006    TIP3     OH2      OT      -0.834000       15.9994           0
     73463 TIP3     17006    TIP3     H1       HT       0.417000       1.00800           0
     73464 TIP3     17006    TIP3     H2       HT       0.417000       1.00800           0
     73465 TIP3     17007    TIP3     OH2      OT      -0.834000       15.9994           0
     73466 TIP3     17007    TIP3     H1       HT       0.417000       1.00800           0
     73467 TIP3     17007    TIP3     H2       HT       0.417000       1.00800           0
     73468 TIP3     17008    TIP3     OH2      OT      -0.834000       15.9994           0
     73469 TIP3     17008    TIP3     H1       HT       0.417000       1.00800           0
     73470 TIP3     17008    TIP3     H2       HT       0.417000       1.00800           0
     73471 TIP3     17009    TIP3     OH2      OT      -0.834000       15.9994           0
     73472 TIP3     17009    TIP3     H1       HT       0.417000       1.00800           0
     73473 TIP3     17009    TIP3     H2       HT       0.417000       1.00800           0
     73474 TIP3     17010    TIP3     OH2      OT      -0.834000       15.9994           0
     73475 TIP3     17010    TIP3     H1       HT       0.417000       1.00800           0
     73476 TIP3     17010    TIP3     H2       HT       0.417000       1.00800           0
     73477 TIP3     17011    TIP3     OH2      OT      -0.834000       15.9994           0
     73478 TIP3     17011    TIP3     H1       HT       0.417000       1.00800           0
     73479 TIP3     17011    TIP3     H2       HT       0.417000       1.00800           0
     73480 TIP3     17012    TIP3     OH2      OT      -0.834000       15.9994           0
     73481 TIP3     17012    TIP3     H1       HT       0.417000       1.00800           0
     73482 TIP3     17012    TIP3     H2       HT       0.417000       1.00800           0
     73483 TIP3     17013    TIP3     OH2      OT      -0.834000       15.9994           0
     73484 TIP3     17013    TIP3     H1       HT       0.417000       1.00800           0
     73485 TIP3     17013    TIP3     H2       HT       0.417000       1.00800           0
     73486 TIP3     17014    TIP3     OH2      OT      -0.834000       15.9994           0
     73487 TIP3     17014    TIP3     H1       HT       0.417000       1.00800           0
     73488 TIP3     17014    TIP3     H2       HT       0.417000       1.00800           0
     73489 TIP3     17015    TIP3     OH2      OT      -0.834000       15.9994           0
     73490 TIP3     17015    TIP3     H1       HT       0.417000       1.00800           0
     73491 TIP3     17015    TIP3     H2       HT       0.417000       1.00800           0
     73492 TIP3     17016    TIP3     OH2      OT      -0.834000       15.9994           0
     73493 TIP3     17016    TIP3     H1       HT       0.417000       1.00800           0
     73494 TIP3     17016    TIP3     H2       HT       0.417000       1.00800           0
     73495 TIP3     17017    TIP3     OH2      OT      -0.834000       15.9994           0
     73496 TIP3     17017    TIP3     H1       HT       0.417000       1.00800           0
     73497 TIP3     17017    TIP3     H2       HT       0.417000       1.00800           0
     73498 TIP3     17018    TIP3     OH2      OT      -0.834000       15.9994           0
     73499 TIP3     17018    TIP3     H1       HT       0.417000       1.00800           0
     73500 TIP3     17018    TIP3     H2       HT       0.417000       1.00800           0
     73501 TIP3     17019    TIP3     OH2      OT      -0.834000       15.9994           0
     73502 TIP3     17019    TIP3     H1       HT       0.417000       1.00800           0
     73503 TIP3     17019    TIP3     H2       HT       0.417000       1.00800           0
     73504 TIP3     17020    TIP3     OH2      OT      -0.834000       15.9994           0
     73505 TIP3     17020    TIP3     H1       HT       0.417000       1.00800           0
     73506 TIP3     17020    TIP3     H2       HT       0.417000       1.00800           0
     73507 TIP3     17021    TIP3     OH2      OT      -0.834000       15.9994           0
     73508 TIP3     17021    TIP3     H1       HT       0.417000       1.00800           0
     73509 TIP3     17021    TIP3     H2       HT       0.417000       1.00800           0
     73510 TIP3     17022    TIP3     OH2      OT      -0.834000       15.9994           0
     73511 TIP3     17022    TIP3     H1       HT       0.417000       1.00800           0
     73512 TIP3     17022    TIP3     H2       HT       0.417000       1.00800           0
     73513 TIP3     17023    TIP3     OH2      OT      -0.834000       15.9994           0
     73514 TIP3     17023    TIP3     H1       HT       0.417000       1.00800           0
     73515 TIP3     17023    TIP3     H2       HT       0.417000       1.00800           0
     73516 TIP3     17024    TIP3     OH2      OT      -0.834000       15.9994           0
     73517 TIP3     17024    TIP3     H1       HT       0.417000       1.00800           0
     73518 TIP3     17024    TIP3     H2       HT       0.417000       1.00800           0
     73519 TIP3     17025    TIP3     OH2      OT      -0.834000       15.9994           0
     73520 TIP3     17025    TIP3     H1       HT       0.417000       1.00800           0
     73521 TIP3     17025    TIP3     H2       HT       0.417000       1.00800           0
     73522 TIP3     17026    TIP3     OH2      OT      -0.834000       15.9994           0
     73523 TIP3     17026    TIP3     H1       HT       0.417000       1.00800           0
     73524 TIP3     17026    TIP3     H2       HT       0.417000       1.00800           0
     73525 TIP3     17027    TIP3     OH2      OT      -0.834000       15.9994           0
     73526 TIP3     17027    TIP3     H1       HT       0.417000       1.00800           0
     73527 TIP3     17027    TIP3     H2       HT       0.417000       1.00800           0
     73528 TIP3     17028    TIP3     OH2      OT      -0.834000       15.9994           0
     73529 TIP3     17028    TIP3     H1       HT       0.417000       1.00800           0
     73530 TIP3     17028    TIP3     H2       HT       0.417000       1.00800           0
     73531 TIP3     17029    TIP3     OH2      OT      -0.834000       15.9994           0
     73532 TIP3     17029    TIP3     H1       HT       0.417000       1.00800           0
     73533 TIP3     17029    TIP3     H2       HT       0.417000       1.00800           0
     73534 TIP3     17030    TIP3     OH2      OT      -0.834000       15.9994           0
     73535 TIP3     17030    TIP3     H1       HT       0.417000       1.00800           0
     73536 TIP3     17030    TIP3     H2       HT       0.417000       1.00800           0
     73537 TIP3     17031    TIP3     OH2      OT      -0.834000       15.9994           0
     73538 TIP3     17031    TIP3     H1       HT       0.417000       1.00800           0
     73539 TIP3     17031    TIP3     H2       HT       0.417000       1.00800           0
     73540 TIP3     17032    TIP3     OH2      OT      -0.834000       15.9994           0
     73541 TIP3     17032    TIP3     H1       HT       0.417000       1.00800           0
     73542 TIP3     17032    TIP3     H2       HT       0.417000       1.00800           0
     73543 TIP3     17033    TIP3     OH2      OT      -0.834000       15.9994           0
     73544 TIP3     17033    TIP3     H1       HT       0.417000       1.00800           0
     73545 TIP3     17033    TIP3     H2       HT       0.417000       1.00800           0
     73546 TIP3     17034    TIP3     OH2      OT      -0.834000       15.9994           0
     73547 TIP3     17034    TIP3     H1       HT       0.417000       1.00800           0
     73548 TIP3     17034    TIP3     H2       HT       0.417000       1.00800           0
     73549 TIP3     17035    TIP3     OH2      OT      -0.834000       15.9994           0
     73550 TIP3     17035    TIP3     H1       HT       0.417000       1.00800           0
     73551 TIP3     17035    TIP3     H2       HT       0.417000       1.00800           0
     73552 TIP3     17036    TIP3     OH2      OT      -0.834000       15.9994           0
     73553 TIP3     17036    TIP3     H1       HT       0.417000       1.00800           0
     73554 TIP3     17036    TIP3     H2       HT       0.417000       1.00800           0
     73555 TIP3     17037    TIP3     OH2      OT      -0.834000       15.9994           0
     73556 TIP3     17037    TIP3     H1       HT       0.417000       1.00800           0
     73557 TIP3     17037    TIP3     H2       HT       0.417000       1.00800           0
     73558 TIP3     17038    TIP3     OH2      OT      -0.834000       15.9994           0
     73559 TIP3     17038    TIP3     H1       HT       0.417000       1.00800           0
     73560 TIP3     17038    TIP3     H2       HT       0.417000       1.00800           0
     73561 TIP3     17039    TIP3     OH2      OT      -0.834000       15.9994           0
     73562 TIP3     17039    TIP3     H1       HT       0.417000       1.00800           0
     73563 TIP3     17039    TIP3     H2       HT       0.417000       1.00800           0
     73564 TIP3     17040    TIP3     OH2      OT      -0.834000       15.9994           0
     73565 TIP3     17040    TIP3     H1       HT       0.417000       1.00800           0
     73566 TIP3     17040    TIP3     H2       HT       0.417000       1.00800           0
     73567 TIP3     17041    TIP3     OH2      OT      -0.834000       15.9994           0
     73568 TIP3     17041    TIP3     H1       HT       0.417000       1.00800           0
     73569 TIP3     17041    TIP3     H2       HT       0.417000       1.00800           0
     73570 TIP3     17042    TIP3     OH2      OT      -0.834000       15.9994           0
     73571 TIP3     17042    TIP3     H1       HT       0.417000       1.00800           0
     73572 TIP3     17042    TIP3     H2       HT       0.417000       1.00800           0
     73573 TIP3     17043    TIP3     OH2      OT      -0.834000       15.9994           0
     73574 TIP3     17043    TIP3     H1       HT       0.417000       1.00800           0
     73575 TIP3     17043    TIP3     H2       HT       0.417000       1.00800           0
     73576 TIP3     17044    TIP3     OH2      OT      -0.834000       15.9994           0
     73577 TIP3     17044    TIP3     H1       HT       0.417000       1.00800           0
     73578 TIP3     17044    TIP3     H2       HT       0.417000       1.00800           0
     73579 TIP3     17045    TIP3     OH2      OT      -0.834000       15.9994           0
     73580 TIP3     17045    TIP3     H1       HT       0.417000       1.00800           0
     73581 TIP3     17045    TIP3     H2       HT       0.417000       1.00800           0
     73582 TIP3     17046    TIP3     OH2      OT      -0.834000       15.9994           0
     73583 TIP3     17046    TIP3     H1       HT       0.417000       1.00800           0
     73584 TIP3     17046    TIP3     H2       HT       0.417000       1.00800           0
     73585 TIP3     17047    TIP3     OH2      OT      -0.834000       15.9994           0
     73586 TIP3     17047    TIP3     H1       HT       0.417000       1.00800           0
     73587 TIP3     17047    TIP3     H2       HT       0.417000       1.00800           0
     73588 TIP3     17048    TIP3     OH2      OT      -0.834000       15.9994           0
     73589 TIP3     17048    TIP3     H1       HT       0.417000       1.00800           0
     73590 TIP3     17048    TIP3     H2       HT       0.417000       1.00800           0
     73591 TIP3     17049    TIP3     OH2      OT      -0.834000       15.9994           0
     73592 TIP3     17049    TIP3     H1       HT       0.417000       1.00800           0
     73593 TIP3     17049    TIP3     H2       HT       0.417000       1.00800           0
     73594 TIP3     17050    TIP3     OH2      OT      -0.834000       15.9994           0
     73595 TIP3     17050    TIP3     H1       HT       0.417000       1.00800           0
     73596 TIP3     17050    TIP3     H2       HT       0.417000       1.00800           0
     73597 TIP3     17051    TIP3     OH2      OT      -0.834000       15.9994           0
     73598 TIP3     17051    TIP3     H1       HT       0.417000       1.00800           0
     73599 TIP3     17051    TIP3     H2       HT       0.417000       1.00800           0
     73600 TIP3     17052    TIP3     OH2      OT      -0.834000       15.9994           0
     73601 TIP3     17052    TIP3     H1       HT       0.417000       1.00800           0
     73602 TIP3     17052    TIP3     H2       HT       0.417000       1.00800           0
     73603 TIP3     17053    TIP3     OH2      OT      -0.834000       15.9994           0
     73604 TIP3     17053    TIP3     H1       HT       0.417000       1.00800           0
     73605 TIP3     17053    TIP3     H2       HT       0.417000       1.00800           0
     73606 TIP3     17054    TIP3     OH2      OT      -0.834000       15.9994           0
     73607 TIP3     17054    TIP3     H1       HT       0.417000       1.00800           0
     73608 TIP3     17054    TIP3     H2       HT       0.417000       1.00800           0
     73609 TIP3     17055    TIP3     OH2      OT      -0.834000       15.9994           0
     73610 TIP3     17055    TIP3     H1       HT       0.417000       1.00800           0
     73611 TIP3     17055    TIP3     H2       HT       0.417000       1.00800           0
     73612 TIP3     17056    TIP3     OH2      OT      -0.834000       15.9994           0
     73613 TIP3     17056    TIP3     H1       HT       0.417000       1.00800           0
     73614 TIP3     17056    TIP3     H2       HT       0.417000       1.00800           0
     73615 TIP3     17057    TIP3     OH2      OT      -0.834000       15.9994           0
     73616 TIP3     17057    TIP3     H1       HT       0.417000       1.00800           0
     73617 TIP3     17057    TIP3     H2       HT       0.417000       1.00800           0
     73618 TIP3     17058    TIP3     OH2      OT      -0.834000       15.9994           0
     73619 TIP3     17058    TIP3     H1       HT       0.417000       1.00800           0
     73620 TIP3     17058    TIP3     H2       HT       0.417000       1.00800           0
     73621 TIP3     17059    TIP3     OH2      OT      -0.834000       15.9994           0
     73622 TIP3     17059    TIP3     H1       HT       0.417000       1.00800           0
     73623 TIP3     17059    TIP3     H2       HT       0.417000       1.00800           0
     73624 TIP3     17060    TIP3     OH2      OT      -0.834000       15.9994           0
     73625 TIP3     17060    TIP3     H1       HT       0.417000       1.00800           0
     73626 TIP3     17060    TIP3     H2       HT       0.417000       1.00800           0
     73627 TIP3     17061    TIP3     OH2      OT      -0.834000       15.9994           0
     73628 TIP3     17061    TIP3     H1       HT       0.417000       1.00800           0
     73629 TIP3     17061    TIP3     H2       HT       0.417000       1.00800           0
     73630 TIP3     17062    TIP3     OH2      OT      -0.834000       15.9994           0
     73631 TIP3     17062    TIP3     H1       HT       0.417000       1.00800           0
     73632 TIP3     17062    TIP3     H2       HT       0.417000       1.00800           0
     73633 TIP3     17063    TIP3     OH2      OT      -0.834000       15.9994           0
     73634 TIP3     17063    TIP3     H1       HT       0.417000       1.00800           0
     73635 TIP3     17063    TIP3     H2       HT       0.417000       1.00800           0
     73636 TIP3     17064    TIP3     OH2      OT      -0.834000       15.9994           0
     73637 TIP3     17064    TIP3     H1       HT       0.417000       1.00800           0
     73638 TIP3     17064    TIP3     H2       HT       0.417000       1.00800           0
     73639 TIP3     17065    TIP3     OH2      OT      -0.834000       15.9994           0
     73640 TIP3     17065    TIP3     H1       HT       0.417000       1.00800           0
     73641 TIP3     17065    TIP3     H2       HT       0.417000       1.00800           0
     73642 TIP3     17066    TIP3     OH2      OT      -0.834000       15.9994           0
     73643 TIP3     17066    TIP3     H1       HT       0.417000       1.00800           0
     73644 TIP3     17066    TIP3     H2       HT       0.417000       1.00800           0
     73645 TIP3     17067    TIP3     OH2      OT      -0.834000       15.9994           0
     73646 TIP3     17067    TIP3     H1       HT       0.417000       1.00800           0
     73647 TIP3     17067    TIP3     H2       HT       0.417000       1.00800           0
     73648 TIP3     17068    TIP3     OH2      OT      -0.834000       15.9994           0
     73649 TIP3     17068    TIP3     H1       HT       0.417000       1.00800           0
     73650 TIP3     17068    TIP3     H2       HT       0.417000       1.00800           0
     73651 TIP3     17069    TIP3     OH2      OT      -0.834000       15.9994           0
     73652 TIP3     17069    TIP3     H1       HT       0.417000       1.00800           0
     73653 TIP3     17069    TIP3     H2       HT       0.417000       1.00800           0
     73654 TIP3     17070    TIP3     OH2      OT      -0.834000       15.9994           0
     73655 TIP3     17070    TIP3     H1       HT       0.417000       1.00800           0
     73656 TIP3     17070    TIP3     H2       HT       0.417000       1.00800           0
     73657 TIP3     17071    TIP3     OH2      OT      -0.834000       15.9994           0
     73658 TIP3     17071    TIP3     H1       HT       0.417000       1.00800           0
     73659 TIP3     17071    TIP3     H2       HT       0.417000       1.00800           0
     73660 TIP3     17072    TIP3     OH2      OT      -0.834000       15.9994           0
     73661 TIP3     17072    TIP3     H1       HT       0.417000       1.00800           0
     73662 TIP3     17072    TIP3     H2       HT       0.417000       1.00800           0
     73663 TIP3     17073    TIP3     OH2      OT      -0.834000       15.9994           0
     73664 TIP3     17073    TIP3     H1       HT       0.417000       1.00800           0
     73665 TIP3     17073    TIP3     H2       HT       0.417000       1.00800           0
     73666 TIP3     17074    TIP3     OH2      OT      -0.834000       15.9994           0
     73667 TIP3     17074    TIP3     H1       HT       0.417000       1.00800           0
     73668 TIP3     17074    TIP3     H2       HT       0.417000       1.00800           0
     73669 TIP3     17075    TIP3     OH2      OT      -0.834000       15.9994           0
     73670 TIP3     17075    TIP3     H1       HT       0.417000       1.00800           0
     73671 TIP3     17075    TIP3     H2       HT       0.417000       1.00800           0
     73672 TIP3     17076    TIP3     OH2      OT      -0.834000       15.9994           0
     73673 TIP3     17076    TIP3     H1       HT       0.417000       1.00800           0
     73674 TIP3     17076    TIP3     H2       HT       0.417000       1.00800           0
     73675 TIP3     17077    TIP3     OH2      OT      -0.834000       15.9994           0
     73676 TIP3     17077    TIP3     H1       HT       0.417000       1.00800           0
     73677 TIP3     17077    TIP3     H2       HT       0.417000       1.00800           0
     73678 TIP3     17078    TIP3     OH2      OT      -0.834000       15.9994           0
     73679 TIP3     17078    TIP3     H1       HT       0.417000       1.00800           0
     73680 TIP3     17078    TIP3     H2       HT       0.417000       1.00800           0
     73681 TIP3     17079    TIP3     OH2      OT      -0.834000       15.9994           0
     73682 TIP3     17079    TIP3     H1       HT       0.417000       1.00800           0
     73683 TIP3     17079    TIP3     H2       HT       0.417000       1.00800           0
     73684 TIP3     17080    TIP3     OH2      OT      -0.834000       15.9994           0
     73685 TIP3     17080    TIP3     H1       HT       0.417000       1.00800           0
     73686 TIP3     17080    TIP3     H2       HT       0.417000       1.00800           0
     73687 TIP3     17081    TIP3     OH2      OT      -0.834000       15.9994           0
     73688 TIP3     17081    TIP3     H1       HT       0.417000       1.00800           0
     73689 TIP3     17081    TIP3     H2       HT       0.417000       1.00800           0
     73690 TIP3     17082    TIP3     OH2      OT      -0.834000       15.9994           0
     73691 TIP3     17082    TIP3     H1       HT       0.417000       1.00800           0
     73692 TIP3     17082    TIP3     H2       HT       0.417000       1.00800           0
     73693 TIP3     17083    TIP3     OH2      OT      -0.834000       15.9994           0
     73694 TIP3     17083    TIP3     H1       HT       0.417000       1.00800           0
     73695 TIP3     17083    TIP3     H2       HT       0.417000       1.00800           0
     73696 TIP3     17084    TIP3     OH2      OT      -0.834000       15.9994           0
     73697 TIP3     17084    TIP3     H1       HT       0.417000       1.00800           0
     73698 TIP3     17084    TIP3     H2       HT       0.417000       1.00800           0
     73699 TIP3     17085    TIP3     OH2      OT      -0.834000       15.9994           0
     73700 TIP3     17085    TIP3     H1       HT       0.417000       1.00800           0
     73701 TIP3     17085    TIP3     H2       HT       0.417000       1.00800           0
     73702 TIP3     17086    TIP3     OH2      OT      -0.834000       15.9994           0
     73703 TIP3     17086    TIP3     H1       HT       0.417000       1.00800           0
     73704 TIP3     17086    TIP3     H2       HT       0.417000       1.00800           0
     73705 TIP3     17087    TIP3     OH2      OT      -0.834000       15.9994           0
     73706 TIP3     17087    TIP3     H1       HT       0.417000       1.00800           0
     73707 TIP3     17087    TIP3     H2       HT       0.417000       1.00800           0
     73708 TIP3     17088    TIP3     OH2      OT      -0.834000       15.9994           0
     73709 TIP3     17088    TIP3     H1       HT       0.417000       1.00800           0
     73710 TIP3     17088    TIP3     H2       HT       0.417000       1.00800           0
     73711 TIP3     17089    TIP3     OH2      OT      -0.834000       15.9994           0
     73712 TIP3     17089    TIP3     H1       HT       0.417000       1.00800           0
     73713 TIP3     17089    TIP3     H2       HT       0.417000       1.00800           0
     73714 TIP3     17090    TIP3     OH2      OT      -0.834000       15.9994           0
     73715 TIP3     17090    TIP3     H1       HT       0.417000       1.00800           0
     73716 TIP3     17090    TIP3     H2       HT       0.417000       1.00800           0
     73717 TIP3     17091    TIP3     OH2      OT      -0.834000       15.9994           0
     73718 TIP3     17091    TIP3     H1       HT       0.417000       1.00800           0
     73719 TIP3     17091    TIP3     H2       HT       0.417000       1.00800           0
     73720 TIP3     17092    TIP3     OH2      OT      -0.834000       15.9994           0
     73721 TIP3     17092    TIP3     H1       HT       0.417000       1.00800           0
     73722 TIP3     17092    TIP3     H2       HT       0.417000       1.00800           0
     73723 TIP3     17093    TIP3     OH2      OT      -0.834000       15.9994           0
     73724 TIP3     17093    TIP3     H1       HT       0.417000       1.00800           0
     73725 TIP3     17093    TIP3     H2       HT       0.417000       1.00800           0
     73726 TIP3     17094    TIP3     OH2      OT      -0.834000       15.9994           0
     73727 TIP3     17094    TIP3     H1       HT       0.417000       1.00800           0
     73728 TIP3     17094    TIP3     H2       HT       0.417000       1.00800           0
     73729 TIP3     17095    TIP3     OH2      OT      -0.834000       15.9994           0
     73730 TIP3     17095    TIP3     H1       HT       0.417000       1.00800           0
     73731 TIP3     17095    TIP3     H2       HT       0.417000       1.00800           0
     73732 TIP3     17096    TIP3     OH2      OT      -0.834000       15.9994           0
     73733 TIP3     17096    TIP3     H1       HT       0.417000       1.00800           0
     73734 TIP3     17096    TIP3     H2       HT       0.417000       1.00800           0
     73735 TIP3     17097    TIP3     OH2      OT      -0.834000       15.9994           0
     73736 TIP3     17097    TIP3     H1       HT       0.417000       1.00800           0
     73737 TIP3     17097    TIP3     H2       HT       0.417000       1.00800           0
     73738 TIP3     17098    TIP3     OH2      OT      -0.834000       15.9994           0
     73739 TIP3     17098    TIP3     H1       HT       0.417000       1.00800           0
     73740 TIP3     17098    TIP3     H2       HT       0.417000       1.00800           0
     73741 TIP3     17099    TIP3     OH2      OT      -0.834000       15.9994           0
     73742 TIP3     17099    TIP3     H1       HT       0.417000       1.00800           0
     73743 TIP3     17099    TIP3     H2       HT       0.417000       1.00800           0
     73744 TIP3     17100    TIP3     OH2      OT      -0.834000       15.9994           0
     73745 TIP3     17100    TIP3     H1       HT       0.417000       1.00800           0
     73746 TIP3     17100    TIP3     H2       HT       0.417000       1.00800           0
     73747 TIP3     17101    TIP3     OH2      OT      -0.834000       15.9994           0
     73748 TIP3     17101    TIP3     H1       HT       0.417000       1.00800           0
     73749 TIP3     17101    TIP3     H2       HT       0.417000       1.00800           0
     73750 TIP3     17102    TIP3     OH2      OT      -0.834000       15.9994           0
     73751 TIP3     17102    TIP3     H1       HT       0.417000       1.00800           0
     73752 TIP3     17102    TIP3     H2       HT       0.417000       1.00800           0
     73753 TIP3     17103    TIP3     OH2      OT      -0.834000       15.9994           0
     73754 TIP3     17103    TIP3     H1       HT       0.417000       1.00800           0
     73755 TIP3     17103    TIP3     H2       HT       0.417000       1.00800           0
     73756 TIP3     17104    TIP3     OH2      OT      -0.834000       15.9994           0
     73757 TIP3     17104    TIP3     H1       HT       0.417000       1.00800           0
     73758 TIP3     17104    TIP3     H2       HT       0.417000       1.00800           0
     73759 TIP3     17105    TIP3     OH2      OT      -0.834000       15.9994           0
     73760 TIP3     17105    TIP3     H1       HT       0.417000       1.00800           0
     73761 TIP3     17105    TIP3     H2       HT       0.417000       1.00800           0
     73762 TIP3     17106    TIP3     OH2      OT      -0.834000       15.9994           0
     73763 TIP3     17106    TIP3     H1       HT       0.417000       1.00800           0
     73764 TIP3     17106    TIP3     H2       HT       0.417000       1.00800           0
     73765 TIP3     17107    TIP3     OH2      OT      -0.834000       15.9994           0
     73766 TIP3     17107    TIP3     H1       HT       0.417000       1.00800           0
     73767 TIP3     17107    TIP3     H2       HT       0.417000       1.00800           0
     73768 TIP3     17108    TIP3     OH2      OT      -0.834000       15.9994           0
     73769 TIP3     17108    TIP3     H1       HT       0.417000       1.00800           0
     73770 TIP3     17108    TIP3     H2       HT       0.417000       1.00800           0
     73771 TIP3     17109    TIP3     OH2      OT      -0.834000       15.9994           0
     73772 TIP3     17109    TIP3     H1       HT       0.417000       1.00800           0
     73773 TIP3     17109    TIP3     H2       HT       0.417000       1.00800           0
     73774 TIP3     17110    TIP3     OH2      OT      -0.834000       15.9994           0
     73775 TIP3     17110    TIP3     H1       HT       0.417000       1.00800           0
     73776 TIP3     17110    TIP3     H2       HT       0.417000       1.00800           0
     73777 TIP3     17111    TIP3     OH2      OT      -0.834000       15.9994           0
     73778 TIP3     17111    TIP3     H1       HT       0.417000       1.00800           0
     73779 TIP3     17111    TIP3     H2       HT       0.417000       1.00800           0
     73780 TIP3     17112    TIP3     OH2      OT      -0.834000       15.9994           0
     73781 TIP3     17112    TIP3     H1       HT       0.417000       1.00800           0
     73782 TIP3     17112    TIP3     H2       HT       0.417000       1.00800           0
     73783 TIP3     17113    TIP3     OH2      OT      -0.834000       15.9994           0
     73784 TIP3     17113    TIP3     H1       HT       0.417000       1.00800           0
     73785 TIP3     17113    TIP3     H2       HT       0.417000       1.00800           0
     73786 TIP3     17114    TIP3     OH2      OT      -0.834000       15.9994           0
     73787 TIP3     17114    TIP3     H1       HT       0.417000       1.00800           0
     73788 TIP3     17114    TIP3     H2       HT       0.417000       1.00800           0
     73789 TIP3     17115    TIP3     OH2      OT      -0.834000       15.9994           0
     73790 TIP3     17115    TIP3     H1       HT       0.417000       1.00800           0
     73791 TIP3     17115    TIP3     H2       HT       0.417000       1.00800           0
     73792 TIP3     17116    TIP3     OH2      OT      -0.834000       15.9994           0
     73793 TIP3     17116    TIP3     H1       HT       0.417000       1.00800           0
     73794 TIP3     17116    TIP3     H2       HT       0.417000       1.00800           0
     73795 TIP3     17117    TIP3     OH2      OT      -0.834000       15.9994           0
     73796 TIP3     17117    TIP3     H1       HT       0.417000       1.00800           0
     73797 TIP3     17117    TIP3     H2       HT       0.417000       1.00800           0
     73798 TIP3     17118    TIP3     OH2      OT      -0.834000       15.9994           0
     73799 TIP3     17118    TIP3     H1       HT       0.417000       1.00800           0
     73800 TIP3     17118    TIP3     H2       HT       0.417000       1.00800           0
     73801 TIP3     17119    TIP3     OH2      OT      -0.834000       15.9994           0
     73802 TIP3     17119    TIP3     H1       HT       0.417000       1.00800           0
     73803 TIP3     17119    TIP3     H2       HT       0.417000       1.00800           0
     73804 TIP3     17120    TIP3     OH2      OT      -0.834000       15.9994           0
     73805 TIP3     17120    TIP3     H1       HT       0.417000       1.00800           0
     73806 TIP3     17120    TIP3     H2       HT       0.417000       1.00800           0
     73807 TIP3     17121    TIP3     OH2      OT      -0.834000       15.9994           0
     73808 TIP3     17121    TIP3     H1       HT       0.417000       1.00800           0
     73809 TIP3     17121    TIP3     H2       HT       0.417000       1.00800           0
     73810 TIP3     17122    TIP3     OH2      OT      -0.834000       15.9994           0
     73811 TIP3     17122    TIP3     H1       HT       0.417000       1.00800           0
     73812 TIP3     17122    TIP3     H2       HT       0.417000       1.00800           0
     73813 TIP3     17123    TIP3     OH2      OT      -0.834000       15.9994           0
     73814 TIP3     17123    TIP3     H1       HT       0.417000       1.00800           0
     73815 TIP3     17123    TIP3     H2       HT       0.417000       1.00800           0
     73816 TIP3     17124    TIP3     OH2      OT      -0.834000       15.9994           0
     73817 TIP3     17124    TIP3     H1       HT       0.417000       1.00800           0
     73818 TIP3     17124    TIP3     H2       HT       0.417000       1.00800           0
     73819 TIP3     17125    TIP3     OH2      OT      -0.834000       15.9994           0
     73820 TIP3     17125    TIP3     H1       HT       0.417000       1.00800           0
     73821 TIP3     17125    TIP3     H2       HT       0.417000       1.00800           0
     73822 TIP3     17126    TIP3     OH2      OT      -0.834000       15.9994           0
     73823 TIP3     17126    TIP3     H1       HT       0.417000       1.00800           0
     73824 TIP3     17126    TIP3     H2       HT       0.417000       1.00800           0
     73825 TIP3     17127    TIP3     OH2      OT      -0.834000       15.9994           0
     73826 TIP3     17127    TIP3     H1       HT       0.417000       1.00800           0
     73827 TIP3     17127    TIP3     H2       HT       0.417000       1.00800           0
     73828 TIP3     17128    TIP3     OH2      OT      -0.834000       15.9994           0
     73829 TIP3     17128    TIP3     H1       HT       0.417000       1.00800           0
     73830 TIP3     17128    TIP3     H2       HT       0.417000       1.00800           0
     73831 TIP3     17129    TIP3     OH2      OT      -0.834000       15.9994           0
     73832 TIP3     17129    TIP3     H1       HT       0.417000       1.00800           0
     73833 TIP3     17129    TIP3     H2       HT       0.417000       1.00800           0
     73834 TIP3     17130    TIP3     OH2      OT      -0.834000       15.9994           0
     73835 TIP3     17130    TIP3     H1       HT       0.417000       1.00800           0
     73836 TIP3     17130    TIP3     H2       HT       0.417000       1.00800           0
     73837 TIP3     17131    TIP3     OH2      OT      -0.834000       15.9994           0
     73838 TIP3     17131    TIP3     H1       HT       0.417000       1.00800           0
     73839 TIP3     17131    TIP3     H2       HT       0.417000       1.00800           0
     73840 TIP3     17132    TIP3     OH2      OT      -0.834000       15.9994           0
     73841 TIP3     17132    TIP3     H1       HT       0.417000       1.00800           0
     73842 TIP3     17132    TIP3     H2       HT       0.417000       1.00800           0
     73843 TIP3     17133    TIP3     OH2      OT      -0.834000       15.9994           0
     73844 TIP3     17133    TIP3     H1       HT       0.417000       1.00800           0
     73845 TIP3     17133    TIP3     H2       HT       0.417000       1.00800           0
     73846 TIP3     17134    TIP3     OH2      OT      -0.834000       15.9994           0
     73847 TIP3     17134    TIP3     H1       HT       0.417000       1.00800           0
     73848 TIP3     17134    TIP3     H2       HT       0.417000       1.00800           0
     73849 TIP3     17135    TIP3     OH2      OT      -0.834000       15.9994           0
     73850 TIP3     17135    TIP3     H1       HT       0.417000       1.00800           0
     73851 TIP3     17135    TIP3     H2       HT       0.417000       1.00800           0
     73852 TIP3     17136    TIP3     OH2      OT      -0.834000       15.9994           0
     73853 TIP3     17136    TIP3     H1       HT       0.417000       1.00800           0
     73854 TIP3     17136    TIP3     H2       HT       0.417000       1.00800           0
     73855 TIP3     17137    TIP3     OH2      OT      -0.834000       15.9994           0
     73856 TIP3     17137    TIP3     H1       HT       0.417000       1.00800           0
     73857 TIP3     17137    TIP3     H2       HT       0.417000       1.00800           0
     73858 TIP3     17138    TIP3     OH2      OT      -0.834000       15.9994           0
     73859 TIP3     17138    TIP3     H1       HT       0.417000       1.00800           0
     73860 TIP3     17138    TIP3     H2       HT       0.417000       1.00800           0
     73861 TIP3     17139    TIP3     OH2      OT      -0.834000       15.9994           0
     73862 TIP3     17139    TIP3     H1       HT       0.417000       1.00800           0
     73863 TIP3     17139    TIP3     H2       HT       0.417000       1.00800           0
     73864 TIP3     17140    TIP3     OH2      OT      -0.834000       15.9994           0
     73865 TIP3     17140    TIP3     H1       HT       0.417000       1.00800           0
     73866 TIP3     17140    TIP3     H2       HT       0.417000       1.00800           0
     73867 TIP3     17141    TIP3     OH2      OT      -0.834000       15.9994           0
     73868 TIP3     17141    TIP3     H1       HT       0.417000       1.00800           0
     73869 TIP3     17141    TIP3     H2       HT       0.417000       1.00800           0
     73870 TIP3     17142    TIP3     OH2      OT      -0.834000       15.9994           0
     73871 TIP3     17142    TIP3     H1       HT       0.417000       1.00800           0
     73872 TIP3     17142    TIP3     H2       HT       0.417000       1.00800           0
     73873 TIP3     17143    TIP3     OH2      OT      -0.834000       15.9994           0
     73874 TIP3     17143    TIP3     H1       HT       0.417000       1.00800           0
     73875 TIP3     17143    TIP3     H2       HT       0.417000       1.00800           0
     73876 TIP3     17144    TIP3     OH2      OT      -0.834000       15.9994           0
     73877 TIP3     17144    TIP3     H1       HT       0.417000       1.00800           0
     73878 TIP3     17144    TIP3     H2       HT       0.417000       1.00800           0
     73879 TIP3     17145    TIP3     OH2      OT      -0.834000       15.9994           0
     73880 TIP3     17145    TIP3     H1       HT       0.417000       1.00800           0
     73881 TIP3     17145    TIP3     H2       HT       0.417000       1.00800           0
     73882 TIP3     17146    TIP3     OH2      OT      -0.834000       15.9994           0
     73883 TIP3     17146    TIP3     H1       HT       0.417000       1.00800           0
     73884 TIP3     17146    TIP3     H2       HT       0.417000       1.00800           0
     73885 TIP3     17147    TIP3     OH2      OT      -0.834000       15.9994           0
     73886 TIP3     17147    TIP3     H1       HT       0.417000       1.00800           0
     73887 TIP3     17147    TIP3     H2       HT       0.417000       1.00800           0
     73888 TIP3     17148    TIP3     OH2      OT      -0.834000       15.9994           0
     73889 TIP3     17148    TIP3     H1       HT       0.417000       1.00800           0
     73890 TIP3     17148    TIP3     H2       HT       0.417000       1.00800           0
     73891 TIP3     17149    TIP3     OH2      OT      -0.834000       15.9994           0
     73892 TIP3     17149    TIP3     H1       HT       0.417000       1.00800           0
     73893 TIP3     17149    TIP3     H2       HT       0.417000       1.00800           0
     73894 TIP3     17150    TIP3     OH2      OT      -0.834000       15.9994           0
     73895 TIP3     17150    TIP3     H1       HT       0.417000       1.00800           0
     73896 TIP3     17150    TIP3     H2       HT       0.417000       1.00800           0
     73897 TIP3     17151    TIP3     OH2      OT      -0.834000       15.9994           0
     73898 TIP3     17151    TIP3     H1       HT       0.417000       1.00800           0
     73899 TIP3     17151    TIP3     H2       HT       0.417000       1.00800           0
     73900 TIP3     17152    TIP3     OH2      OT      -0.834000       15.9994           0
     73901 TIP3     17152    TIP3     H1       HT       0.417000       1.00800           0
     73902 TIP3     17152    TIP3     H2       HT       0.417000       1.00800           0
     73903 TIP3     17153    TIP3     OH2      OT      -0.834000       15.9994           0
     73904 TIP3     17153    TIP3     H1       HT       0.417000       1.00800           0
     73905 TIP3     17153    TIP3     H2       HT       0.417000       1.00800           0
     73906 TIP3     17154    TIP3     OH2      OT      -0.834000       15.9994           0
     73907 TIP3     17154    TIP3     H1       HT       0.417000       1.00800           0
     73908 TIP3     17154    TIP3     H2       HT       0.417000       1.00800           0
     73909 TIP3     17155    TIP3     OH2      OT      -0.834000       15.9994           0
     73910 TIP3     17155    TIP3     H1       HT       0.417000       1.00800           0
     73911 TIP3     17155    TIP3     H2       HT       0.417000       1.00800           0
     73912 TIP3     17156    TIP3     OH2      OT      -0.834000       15.9994           0
     73913 TIP3     17156    TIP3     H1       HT       0.417000       1.00800           0
     73914 TIP3     17156    TIP3     H2       HT       0.417000       1.00800           0
     73915 TIP3     17157    TIP3     OH2      OT      -0.834000       15.9994           0
     73916 TIP3     17157    TIP3     H1       HT       0.417000       1.00800           0
     73917 TIP3     17157    TIP3     H2       HT       0.417000       1.00800           0
     73918 TIP3     17158    TIP3     OH2      OT      -0.834000       15.9994           0
     73919 TIP3     17158    TIP3     H1       HT       0.417000       1.00800           0
     73920 TIP3     17158    TIP3     H2       HT       0.417000       1.00800           0
     73921 TIP3     17159    TIP3     OH2      OT      -0.834000       15.9994           0
     73922 TIP3     17159    TIP3     H1       HT       0.417000       1.00800           0
     73923 TIP3     17159    TIP3     H2       HT       0.417000       1.00800           0
     73924 TIP3     17160    TIP3     OH2      OT      -0.834000       15.9994           0
     73925 TIP3     17160    TIP3     H1       HT       0.417000       1.00800           0
     73926 TIP3     17160    TIP3     H2       HT       0.417000       1.00800           0
     73927 TIP3     17161    TIP3     OH2      OT      -0.834000       15.9994           0
     73928 TIP3     17161    TIP3     H1       HT       0.417000       1.00800           0
     73929 TIP3     17161    TIP3     H2       HT       0.417000       1.00800           0
     73930 TIP3     17162    TIP3     OH2      OT      -0.834000       15.9994           0
     73931 TIP3     17162    TIP3     H1       HT       0.417000       1.00800           0
     73932 TIP3     17162    TIP3     H2       HT       0.417000       1.00800           0
     73933 TIP3     17163    TIP3     OH2      OT      -0.834000       15.9994           0
     73934 TIP3     17163    TIP3     H1       HT       0.417000       1.00800           0
     73935 TIP3     17163    TIP3     H2       HT       0.417000       1.00800           0
     73936 TIP3     17164    TIP3     OH2      OT      -0.834000       15.9994           0
     73937 TIP3     17164    TIP3     H1       HT       0.417000       1.00800           0
     73938 TIP3     17164    TIP3     H2       HT       0.417000       1.00800           0
     73939 TIP3     17165    TIP3     OH2      OT      -0.834000       15.9994           0
     73940 TIP3     17165    TIP3     H1       HT       0.417000       1.00800           0
     73941 TIP3     17165    TIP3     H2       HT       0.417000       1.00800           0
     73942 TIP3     17166    TIP3     OH2      OT      -0.834000       15.9994           0
     73943 TIP3     17166    TIP3     H1       HT       0.417000       1.00800           0
     73944 TIP3     17166    TIP3     H2       HT       0.417000       1.00800           0
     73945 TIP3     17167    TIP3     OH2      OT      -0.834000       15.9994           0
     73946 TIP3     17167    TIP3     H1       HT       0.417000       1.00800           0
     73947 TIP3     17167    TIP3     H2       HT       0.417000       1.00800           0
     73948 TIP3     17168    TIP3     OH2      OT      -0.834000       15.9994           0
     73949 TIP3     17168    TIP3     H1       HT       0.417000       1.00800           0
     73950 TIP3     17168    TIP3     H2       HT       0.417000       1.00800           0
     73951 TIP3     17169    TIP3     OH2      OT      -0.834000       15.9994           0
     73952 TIP3     17169    TIP3     H1       HT       0.417000       1.00800           0
     73953 TIP3     17169    TIP3     H2       HT       0.417000       1.00800           0
     73954 TIP3     17170    TIP3     OH2      OT      -0.834000       15.9994           0
     73955 TIP3     17170    TIP3     H1       HT       0.417000       1.00800           0
     73956 TIP3     17170    TIP3     H2       HT       0.417000       1.00800           0
     73957 TIP3     17171    TIP3     OH2      OT      -0.834000       15.9994           0
     73958 TIP3     17171    TIP3     H1       HT       0.417000       1.00800           0
     73959 TIP3     17171    TIP3     H2       HT       0.417000       1.00800           0
     73960 TIP3     17172    TIP3     OH2      OT      -0.834000       15.9994           0
     73961 TIP3     17172    TIP3     H1       HT       0.417000       1.00800           0
     73962 TIP3     17172    TIP3     H2       HT       0.417000       1.00800           0
     73963 TIP3     17173    TIP3     OH2      OT      -0.834000       15.9994           0
     73964 TIP3     17173    TIP3     H1       HT       0.417000       1.00800           0
     73965 TIP3     17173    TIP3     H2       HT       0.417000       1.00800           0
     73966 TIP3     17174    TIP3     OH2      OT      -0.834000       15.9994           0
     73967 TIP3     17174    TIP3     H1       HT       0.417000       1.00800           0
     73968 TIP3     17174    TIP3     H2       HT       0.417000       1.00800           0
     73969 TIP3     17175    TIP3     OH2      OT      -0.834000       15.9994           0
     73970 TIP3     17175    TIP3     H1       HT       0.417000       1.00800           0
     73971 TIP3     17175    TIP3     H2       HT       0.417000       1.00800           0
     73972 TIP3     17176    TIP3     OH2      OT      -0.834000       15.9994           0
     73973 TIP3     17176    TIP3     H1       HT       0.417000       1.00800           0
     73974 TIP3     17176    TIP3     H2       HT       0.417000       1.00800           0
     73975 TIP3     17177    TIP3     OH2      OT      -0.834000       15.9994           0
     73976 TIP3     17177    TIP3     H1       HT       0.417000       1.00800           0
     73977 TIP3     17177    TIP3     H2       HT       0.417000       1.00800           0
     73978 TIP3     17178    TIP3     OH2      OT      -0.834000       15.9994           0
     73979 TIP3     17178    TIP3     H1       HT       0.417000       1.00800           0
     73980 TIP3     17178    TIP3     H2       HT       0.417000       1.00800           0
     73981 TIP3     17179    TIP3     OH2      OT      -0.834000       15.9994           0
     73982 TIP3     17179    TIP3     H1       HT       0.417000       1.00800           0
     73983 TIP3     17179    TIP3     H2       HT       0.417000       1.00800           0
     73984 TIP3     17180    TIP3     OH2      OT      -0.834000       15.9994           0
     73985 TIP3     17180    TIP3     H1       HT       0.417000       1.00800           0
     73986 TIP3     17180    TIP3     H2       HT       0.417000       1.00800           0
     73987 TIP3     17181    TIP3     OH2      OT      -0.834000       15.9994           0
     73988 TIP3     17181    TIP3     H1       HT       0.417000       1.00800           0
     73989 TIP3     17181    TIP3     H2       HT       0.417000       1.00800           0
     73990 TIP3     17182    TIP3     OH2      OT      -0.834000       15.9994           0
     73991 TIP3     17182    TIP3     H1       HT       0.417000       1.00800           0
     73992 TIP3     17182    TIP3     H2       HT       0.417000       1.00800           0
     73993 TIP3     17183    TIP3     OH2      OT      -0.834000       15.9994           0
     73994 TIP3     17183    TIP3     H1       HT       0.417000       1.00800           0
     73995 TIP3     17183    TIP3     H2       HT       0.417000       1.00800           0
     73996 TIP3     17184    TIP3     OH2      OT      -0.834000       15.9994           0
     73997 TIP3     17184    TIP3     H1       HT       0.417000       1.00800           0
     73998 TIP3     17184    TIP3     H2       HT       0.417000       1.00800           0
     73999 TIP3     17185    TIP3     OH2      OT      -0.834000       15.9994           0
     74000 TIP3     17185    TIP3     H1       HT       0.417000       1.00800           0
     74001 TIP3     17185    TIP3     H2       HT       0.417000       1.00800           0
     74002 TIP3     17186    TIP3     OH2      OT      -0.834000       15.9994           0
     74003 TIP3     17186    TIP3     H1       HT       0.417000       1.00800           0
     74004 TIP3     17186    TIP3     H2       HT       0.417000       1.00800           0
     74005 TIP3     17187    TIP3     OH2      OT      -0.834000       15.9994           0
     74006 TIP3     17187    TIP3     H1       HT       0.417000       1.00800           0
     74007 TIP3     17187    TIP3     H2       HT       0.417000       1.00800           0
     74008 TIP3     17188    TIP3     OH2      OT      -0.834000       15.9994           0
     74009 TIP3     17188    TIP3     H1       HT       0.417000       1.00800           0
     74010 TIP3     17188    TIP3     H2       HT       0.417000       1.00800           0
     74011 TIP3     17189    TIP3     OH2      OT      -0.834000       15.9994           0
     74012 TIP3     17189    TIP3     H1       HT       0.417000       1.00800           0
     74013 TIP3     17189    TIP3     H2       HT       0.417000       1.00800           0
     74014 TIP3     17190    TIP3     OH2      OT      -0.834000       15.9994           0
     74015 TIP3     17190    TIP3     H1       HT       0.417000       1.00800           0
     74016 TIP3     17190    TIP3     H2       HT       0.417000       1.00800           0
     74017 TIP3     17191    TIP3     OH2      OT      -0.834000       15.9994           0
     74018 TIP3     17191    TIP3     H1       HT       0.417000       1.00800           0
     74019 TIP3     17191    TIP3     H2       HT       0.417000       1.00800           0
     74020 TIP3     17192    TIP3     OH2      OT      -0.834000       15.9994           0
     74021 TIP3     17192    TIP3     H1       HT       0.417000       1.00800           0
     74022 TIP3     17192    TIP3     H2       HT       0.417000       1.00800           0
     74023 TIP3     17193    TIP3     OH2      OT      -0.834000       15.9994           0
     74024 TIP3     17193    TIP3     H1       HT       0.417000       1.00800           0
     74025 TIP3     17193    TIP3     H2       HT       0.417000       1.00800           0
     74026 TIP3     17194    TIP3     OH2      OT      -0.834000       15.9994           0
     74027 TIP3     17194    TIP3     H1       HT       0.417000       1.00800           0
     74028 TIP3     17194    TIP3     H2       HT       0.417000       1.00800           0
     74029 TIP3     17195    TIP3     OH2      OT      -0.834000       15.9994           0
     74030 TIP3     17195    TIP3     H1       HT       0.417000       1.00800           0
     74031 TIP3     17195    TIP3     H2       HT       0.417000       1.00800           0
     74032 TIP3     17196    TIP3     OH2      OT      -0.834000       15.9994           0
     74033 TIP3     17196    TIP3     H1       HT       0.417000       1.00800           0
     74034 TIP3     17196    TIP3     H2       HT       0.417000       1.00800           0
     74035 TIP3     17197    TIP3     OH2      OT      -0.834000       15.9994           0
     74036 TIP3     17197    TIP3     H1       HT       0.417000       1.00800           0
     74037 TIP3     17197    TIP3     H2       HT       0.417000       1.00800           0
     74038 TIP3     17198    TIP3     OH2      OT      -0.834000       15.9994           0
     74039 TIP3     17198    TIP3     H1       HT       0.417000       1.00800           0
     74040 TIP3     17198    TIP3     H2       HT       0.417000       1.00800           0
     74041 TIP3     17199    TIP3     OH2      OT      -0.834000       15.9994           0
     74042 TIP3     17199    TIP3     H1       HT       0.417000       1.00800           0
     74043 TIP3     17199    TIP3     H2       HT       0.417000       1.00800           0
     74044 TIP3     17200    TIP3     OH2      OT      -0.834000       15.9994           0
     74045 TIP3     17200    TIP3     H1       HT       0.417000       1.00800           0
     74046 TIP3     17200    TIP3     H2       HT       0.417000       1.00800           0
     74047 TIP3     17201    TIP3     OH2      OT      -0.834000       15.9994           0
     74048 TIP3     17201    TIP3     H1       HT       0.417000       1.00800           0
     74049 TIP3     17201    TIP3     H2       HT       0.417000       1.00800           0
     74050 TIP3     17202    TIP3     OH2      OT      -0.834000       15.9994           0
     74051 TIP3     17202    TIP3     H1       HT       0.417000       1.00800           0
     74052 TIP3     17202    TIP3     H2       HT       0.417000       1.00800           0
     74053 TIP3     17203    TIP3     OH2      OT      -0.834000       15.9994           0
     74054 TIP3     17203    TIP3     H1       HT       0.417000       1.00800           0
     74055 TIP3     17203    TIP3     H2       HT       0.417000       1.00800           0
     74056 TIP3     17204    TIP3     OH2      OT      -0.834000       15.9994           0
     74057 TIP3     17204    TIP3     H1       HT       0.417000       1.00800           0
     74058 TIP3     17204    TIP3     H2       HT       0.417000       1.00800           0
     74059 TIP3     17205    TIP3     OH2      OT      -0.834000       15.9994           0
     74060 TIP3     17205    TIP3     H1       HT       0.417000       1.00800           0
     74061 TIP3     17205    TIP3     H2       HT       0.417000       1.00800           0
     74062 TIP3     17206    TIP3     OH2      OT      -0.834000       15.9994           0
     74063 TIP3     17206    TIP3     H1       HT       0.417000       1.00800           0
     74064 TIP3     17206    TIP3     H2       HT       0.417000       1.00800           0
     74065 TIP3     17207    TIP3     OH2      OT      -0.834000       15.9994           0
     74066 TIP3     17207    TIP3     H1       HT       0.417000       1.00800           0
     74067 TIP3     17207    TIP3     H2       HT       0.417000       1.00800           0
     74068 TIP3     17208    TIP3     OH2      OT      -0.834000       15.9994           0
     74069 TIP3     17208    TIP3     H1       HT       0.417000       1.00800           0
     74070 TIP3     17208    TIP3     H2       HT       0.417000       1.00800           0
     74071 TIP3     17209    TIP3     OH2      OT      -0.834000       15.9994           0
     74072 TIP3     17209    TIP3     H1       HT       0.417000       1.00800           0
     74073 TIP3     17209    TIP3     H2       HT       0.417000       1.00800           0
     74074 TIP3     17210    TIP3     OH2      OT      -0.834000       15.9994           0
     74075 TIP3     17210    TIP3     H1       HT       0.417000       1.00800           0
     74076 TIP3     17210    TIP3     H2       HT       0.417000       1.00800           0
     74077 TIP3     17211    TIP3     OH2      OT      -0.834000       15.9994           0
     74078 TIP3     17211    TIP3     H1       HT       0.417000       1.00800           0
     74079 TIP3     17211    TIP3     H2       HT       0.417000       1.00800           0
     74080 TIP3     17212    TIP3     OH2      OT      -0.834000       15.9994           0
     74081 TIP3     17212    TIP3     H1       HT       0.417000       1.00800           0
     74082 TIP3     17212    TIP3     H2       HT       0.417000       1.00800           0
     74083 TIP3     17213    TIP3     OH2      OT      -0.834000       15.9994           0
     74084 TIP3     17213    TIP3     H1       HT       0.417000       1.00800           0
     74085 TIP3     17213    TIP3     H2       HT       0.417000       1.00800           0
     74086 TIP3     17214    TIP3     OH2      OT      -0.834000       15.9994           0
     74087 TIP3     17214    TIP3     H1       HT       0.417000       1.00800           0
     74088 TIP3     17214    TIP3     H2       HT       0.417000       1.00800           0
     74089 TIP3     17215    TIP3     OH2      OT      -0.834000       15.9994           0
     74090 TIP3     17215    TIP3     H1       HT       0.417000       1.00800           0
     74091 TIP3     17215    TIP3     H2       HT       0.417000       1.00800           0
     74092 TIP3     17216    TIP3     OH2      OT      -0.834000       15.9994           0
     74093 TIP3     17216    TIP3     H1       HT       0.417000       1.00800           0
     74094 TIP3     17216    TIP3     H2       HT       0.417000       1.00800           0
     74095 TIP3     17217    TIP3     OH2      OT      -0.834000       15.9994           0
     74096 TIP3     17217    TIP3     H1       HT       0.417000       1.00800           0
     74097 TIP3     17217    TIP3     H2       HT       0.417000       1.00800           0
     74098 TIP3     17218    TIP3     OH2      OT      -0.834000       15.9994           0
     74099 TIP3     17218    TIP3     H1       HT       0.417000       1.00800           0
     74100 TIP3     17218    TIP3     H2       HT       0.417000       1.00800           0
     74101 TIP3     17219    TIP3     OH2      OT      -0.834000       15.9994           0
     74102 TIP3     17219    TIP3     H1       HT       0.417000       1.00800           0
     74103 TIP3     17219    TIP3     H2       HT       0.417000       1.00800           0
     74104 TIP3     17220    TIP3     OH2      OT      -0.834000       15.9994           0
     74105 TIP3     17220    TIP3     H1       HT       0.417000       1.00800           0
     74106 TIP3     17220    TIP3     H2       HT       0.417000       1.00800           0
     74107 TIP3     17221    TIP3     OH2      OT      -0.834000       15.9994           0
     74108 TIP3     17221    TIP3     H1       HT       0.417000       1.00800           0
     74109 TIP3     17221    TIP3     H2       HT       0.417000       1.00800           0
     74110 TIP3     17222    TIP3     OH2      OT      -0.834000       15.9994           0
     74111 TIP3     17222    TIP3     H1       HT       0.417000       1.00800           0
     74112 TIP3     17222    TIP3     H2       HT       0.417000       1.00800           0
     74113 TIP3     17223    TIP3     OH2      OT      -0.834000       15.9994           0
     74114 TIP3     17223    TIP3     H1       HT       0.417000       1.00800           0
     74115 TIP3     17223    TIP3     H2       HT       0.417000       1.00800           0
     74116 TIP3     17224    TIP3     OH2      OT      -0.834000       15.9994           0
     74117 TIP3     17224    TIP3     H1       HT       0.417000       1.00800           0
     74118 TIP3     17224    TIP3     H2       HT       0.417000       1.00800           0
     74119 TIP3     17225    TIP3     OH2      OT      -0.834000       15.9994           0
     74120 TIP3     17225    TIP3     H1       HT       0.417000       1.00800           0
     74121 TIP3     17225    TIP3     H2       HT       0.417000       1.00800           0
     74122 TIP3     17226    TIP3     OH2      OT      -0.834000       15.9994           0
     74123 TIP3     17226    TIP3     H1       HT       0.417000       1.00800           0
     74124 TIP3     17226    TIP3     H2       HT       0.417000       1.00800           0
     74125 TIP3     17227    TIP3     OH2      OT      -0.834000       15.9994           0
     74126 TIP3     17227    TIP3     H1       HT       0.417000       1.00800           0
     74127 TIP3     17227    TIP3     H2       HT       0.417000       1.00800           0
     74128 TIP3     17228    TIP3     OH2      OT      -0.834000       15.9994           0
     74129 TIP3     17228    TIP3     H1       HT       0.417000       1.00800           0
     74130 TIP3     17228    TIP3     H2       HT       0.417000       1.00800           0
     74131 TIP3     17229    TIP3     OH2      OT      -0.834000       15.9994           0
     74132 TIP3     17229    TIP3     H1       HT       0.417000       1.00800           0
     74133 TIP3     17229    TIP3     H2       HT       0.417000       1.00800           0
     74134 TIP3     17230    TIP3     OH2      OT      -0.834000       15.9994           0
     74135 TIP3     17230    TIP3     H1       HT       0.417000       1.00800           0
     74136 TIP3     17230    TIP3     H2       HT       0.417000       1.00800           0
     74137 TIP3     17231    TIP3     OH2      OT      -0.834000       15.9994           0
     74138 TIP3     17231    TIP3     H1       HT       0.417000       1.00800           0
     74139 TIP3     17231    TIP3     H2       HT       0.417000       1.00800           0
     74140 TIP3     17232    TIP3     OH2      OT      -0.834000       15.9994           0
     74141 TIP3     17232    TIP3     H1       HT       0.417000       1.00800           0
     74142 TIP3     17232    TIP3     H2       HT       0.417000       1.00800           0
     74143 TIP3     17233    TIP3     OH2      OT      -0.834000       15.9994           0
     74144 TIP3     17233    TIP3     H1       HT       0.417000       1.00800           0
     74145 TIP3     17233    TIP3     H2       HT       0.417000       1.00800           0
     74146 TIP3     17234    TIP3     OH2      OT      -0.834000       15.9994           0
     74147 TIP3     17234    TIP3     H1       HT       0.417000       1.00800           0
     74148 TIP3     17234    TIP3     H2       HT       0.417000       1.00800           0
     74149 TIP3     17235    TIP3     OH2      OT      -0.834000       15.9994           0
     74150 TIP3     17235    TIP3     H1       HT       0.417000       1.00800           0
     74151 TIP3     17235    TIP3     H2       HT       0.417000       1.00800           0
     74152 TIP3     17236    TIP3     OH2      OT      -0.834000       15.9994           0
     74153 TIP3     17236    TIP3     H1       HT       0.417000       1.00800           0
     74154 TIP3     17236    TIP3     H2       HT       0.417000       1.00800           0
     74155 TIP3     17237    TIP3     OH2      OT      -0.834000       15.9994           0
     74156 TIP3     17237    TIP3     H1       HT       0.417000       1.00800           0
     74157 TIP3     17237    TIP3     H2       HT       0.417000       1.00800           0
     74158 TIP3     17238    TIP3     OH2      OT      -0.834000       15.9994           0
     74159 TIP3     17238    TIP3     H1       HT       0.417000       1.00800           0
     74160 TIP3     17238    TIP3     H2       HT       0.417000       1.00800           0
     74161 TIP3     17239    TIP3     OH2      OT      -0.834000       15.9994           0
     74162 TIP3     17239    TIP3     H1       HT       0.417000       1.00800           0
     74163 TIP3     17239    TIP3     H2       HT       0.417000       1.00800           0
     74164 TIP3     17240    TIP3     OH2      OT      -0.834000       15.9994           0
     74165 TIP3     17240    TIP3     H1       HT       0.417000       1.00800           0
     74166 TIP3     17240    TIP3     H2       HT       0.417000       1.00800           0
     74167 TIP3     17241    TIP3     OH2      OT      -0.834000       15.9994           0
     74168 TIP3     17241    TIP3     H1       HT       0.417000       1.00800           0
     74169 TIP3     17241    TIP3     H2       HT       0.417000       1.00800           0
     74170 TIP3     17242    TIP3     OH2      OT      -0.834000       15.9994           0
     74171 TIP3     17242    TIP3     H1       HT       0.417000       1.00800           0
     74172 TIP3     17242    TIP3     H2       HT       0.417000       1.00800           0
     74173 TIP3     17243    TIP3     OH2      OT      -0.834000       15.9994           0
     74174 TIP3     17243    TIP3     H1       HT       0.417000       1.00800           0
     74175 TIP3     17243    TIP3     H2       HT       0.417000       1.00800           0
     74176 TIP3     17244    TIP3     OH2      OT      -0.834000       15.9994           0
     74177 TIP3     17244    TIP3     H1       HT       0.417000       1.00800           0
     74178 TIP3     17244    TIP3     H2       HT       0.417000       1.00800           0
     74179 TIP3     17245    TIP3     OH2      OT      -0.834000       15.9994           0
     74180 TIP3     17245    TIP3     H1       HT       0.417000       1.00800           0
     74181 TIP3     17245    TIP3     H2       HT       0.417000       1.00800           0
     74182 TIP3     17246    TIP3     OH2      OT      -0.834000       15.9994           0
     74183 TIP3     17246    TIP3     H1       HT       0.417000       1.00800           0
     74184 TIP3     17246    TIP3     H2       HT       0.417000       1.00800           0
     74185 TIP3     17247    TIP3     OH2      OT      -0.834000       15.9994           0
     74186 TIP3     17247    TIP3     H1       HT       0.417000       1.00800           0
     74187 TIP3     17247    TIP3     H2       HT       0.417000       1.00800           0
     74188 TIP3     17248    TIP3     OH2      OT      -0.834000       15.9994           0
     74189 TIP3     17248    TIP3     H1       HT       0.417000       1.00800           0
     74190 TIP3     17248    TIP3     H2       HT       0.417000       1.00800           0
     74191 TIP3     17249    TIP3     OH2      OT      -0.834000       15.9994           0
     74192 TIP3     17249    TIP3     H1       HT       0.417000       1.00800           0
     74193 TIP3     17249    TIP3     H2       HT       0.417000       1.00800           0
     74194 TIP3     17250    TIP3     OH2      OT      -0.834000       15.9994           0
     74195 TIP3     17250    TIP3     H1       HT       0.417000       1.00800           0
     74196 TIP3     17250    TIP3     H2       HT       0.417000       1.00800           0
     74197 TIP3     17251    TIP3     OH2      OT      -0.834000       15.9994           0
     74198 TIP3     17251    TIP3     H1       HT       0.417000       1.00800           0
     74199 TIP3     17251    TIP3     H2       HT       0.417000       1.00800           0
     74200 TIP3     17252    TIP3     OH2      OT      -0.834000       15.9994           0
     74201 TIP3     17252    TIP3     H1       HT       0.417000       1.00800           0
     74202 TIP3     17252    TIP3     H2       HT       0.417000       1.00800           0
     74203 TIP3     17253    TIP3     OH2      OT      -0.834000       15.9994           0
     74204 TIP3     17253    TIP3     H1       HT       0.417000       1.00800           0
     74205 TIP3     17253    TIP3     H2       HT       0.417000       1.00800           0
     74206 TIP3     17254    TIP3     OH2      OT      -0.834000       15.9994           0
     74207 TIP3     17254    TIP3     H1       HT       0.417000       1.00800           0
     74208 TIP3     17254    TIP3     H2       HT       0.417000       1.00800           0
     74209 TIP3     17255    TIP3     OH2      OT      -0.834000       15.9994           0
     74210 TIP3     17255    TIP3     H1       HT       0.417000       1.00800           0
     74211 TIP3     17255    TIP3     H2       HT       0.417000       1.00800           0
     74212 TIP3     17256    TIP3     OH2      OT      -0.834000       15.9994           0
     74213 TIP3     17256    TIP3     H1       HT       0.417000       1.00800           0
     74214 TIP3     17256    TIP3     H2       HT       0.417000       1.00800           0
     74215 TIP3     17257    TIP3     OH2      OT      -0.834000       15.9994           0
     74216 TIP3     17257    TIP3     H1       HT       0.417000       1.00800           0
     74217 TIP3     17257    TIP3     H2       HT       0.417000       1.00800           0
     74218 TIP3     17258    TIP3     OH2      OT      -0.834000       15.9994           0
     74219 TIP3     17258    TIP3     H1       HT       0.417000       1.00800           0
     74220 TIP3     17258    TIP3     H2       HT       0.417000       1.00800           0
     74221 TIP3     17259    TIP3     OH2      OT      -0.834000       15.9994           0
     74222 TIP3     17259    TIP3     H1       HT       0.417000       1.00800           0
     74223 TIP3     17259    TIP3     H2       HT       0.417000       1.00800           0
     74224 TIP3     17260    TIP3     OH2      OT      -0.834000       15.9994           0
     74225 TIP3     17260    TIP3     H1       HT       0.417000       1.00800           0
     74226 TIP3     17260    TIP3     H2       HT       0.417000       1.00800           0
     74227 TIP3     17261    TIP3     OH2      OT      -0.834000       15.9994           0
     74228 TIP3     17261    TIP3     H1       HT       0.417000       1.00800           0
     74229 TIP3     17261    TIP3     H2       HT       0.417000       1.00800           0
     74230 TIP3     17262    TIP3     OH2      OT      -0.834000       15.9994           0
     74231 TIP3     17262    TIP3     H1       HT       0.417000       1.00800           0
     74232 TIP3     17262    TIP3     H2       HT       0.417000       1.00800           0
     74233 TIP3     17263    TIP3     OH2      OT      -0.834000       15.9994           0
     74234 TIP3     17263    TIP3     H1       HT       0.417000       1.00800           0
     74235 TIP3     17263    TIP3     H2       HT       0.417000       1.00800           0
     74236 TIP3     17264    TIP3     OH2      OT      -0.834000       15.9994           0
     74237 TIP3     17264    TIP3     H1       HT       0.417000       1.00800           0
     74238 TIP3     17264    TIP3     H2       HT       0.417000       1.00800           0
     74239 TIP3     17265    TIP3     OH2      OT      -0.834000       15.9994           0
     74240 TIP3     17265    TIP3     H1       HT       0.417000       1.00800           0
     74241 TIP3     17265    TIP3     H2       HT       0.417000       1.00800           0
     74242 TIP3     17266    TIP3     OH2      OT      -0.834000       15.9994           0
     74243 TIP3     17266    TIP3     H1       HT       0.417000       1.00800           0
     74244 TIP3     17266    TIP3     H2       HT       0.417000       1.00800           0
     74245 TIP3     17267    TIP3     OH2      OT      -0.834000       15.9994           0
     74246 TIP3     17267    TIP3     H1       HT       0.417000       1.00800           0
     74247 TIP3     17267    TIP3     H2       HT       0.417000       1.00800           0
     74248 TIP3     17268    TIP3     OH2      OT      -0.834000       15.9994           0
     74249 TIP3     17268    TIP3     H1       HT       0.417000       1.00800           0
     74250 TIP3     17268    TIP3     H2       HT       0.417000       1.00800           0
     74251 TIP3     17269    TIP3     OH2      OT      -0.834000       15.9994           0
     74252 TIP3     17269    TIP3     H1       HT       0.417000       1.00800           0
     74253 TIP3     17269    TIP3     H2       HT       0.417000       1.00800           0
     74254 TIP3     17270    TIP3     OH2      OT      -0.834000       15.9994           0
     74255 TIP3     17270    TIP3     H1       HT       0.417000       1.00800           0
     74256 TIP3     17270    TIP3     H2       HT       0.417000       1.00800           0
     74257 TIP3     17271    TIP3     OH2      OT      -0.834000       15.9994           0
     74258 TIP3     17271    TIP3     H1       HT       0.417000       1.00800           0
     74259 TIP3     17271    TIP3     H2       HT       0.417000       1.00800           0
     74260 TIP3     17272    TIP3     OH2      OT      -0.834000       15.9994           0
     74261 TIP3     17272    TIP3     H1       HT       0.417000       1.00800           0
     74262 TIP3     17272    TIP3     H2       HT       0.417000       1.00800           0
     74263 TIP3     17273    TIP3     OH2      OT      -0.834000       15.9994           0
     74264 TIP3     17273    TIP3     H1       HT       0.417000       1.00800           0
     74265 TIP3     17273    TIP3     H2       HT       0.417000       1.00800           0
     74266 TIP3     17274    TIP3     OH2      OT      -0.834000       15.9994           0
     74267 TIP3     17274    TIP3     H1       HT       0.417000       1.00800           0
     74268 TIP3     17274    TIP3     H2       HT       0.417000       1.00800           0
     74269 TIP3     17275    TIP3     OH2      OT      -0.834000       15.9994           0
     74270 TIP3     17275    TIP3     H1       HT       0.417000       1.00800           0
     74271 TIP3     17275    TIP3     H2       HT       0.417000       1.00800           0
     74272 TIP3     17276    TIP3     OH2      OT      -0.834000       15.9994           0
     74273 TIP3     17276    TIP3     H1       HT       0.417000       1.00800           0
     74274 TIP3     17276    TIP3     H2       HT       0.417000       1.00800           0
     74275 TIP3     17277    TIP3     OH2      OT      -0.834000       15.9994           0
     74276 TIP3     17277    TIP3     H1       HT       0.417000       1.00800           0
     74277 TIP3     17277    TIP3     H2       HT       0.417000       1.00800           0
     74278 TIP3     17278    TIP3     OH2      OT      -0.834000       15.9994           0
     74279 TIP3     17278    TIP3     H1       HT       0.417000       1.00800           0
     74280 TIP3     17278    TIP3     H2       HT       0.417000       1.00800           0
     74281 TIP3     17279    TIP3     OH2      OT      -0.834000       15.9994           0
     74282 TIP3     17279    TIP3     H1       HT       0.417000       1.00800           0
     74283 TIP3     17279    TIP3     H2       HT       0.417000       1.00800           0
     74284 TIP3     17280    TIP3     OH2      OT      -0.834000       15.9994           0
     74285 TIP3     17280    TIP3     H1       HT       0.417000       1.00800           0
     74286 TIP3     17280    TIP3     H2       HT       0.417000       1.00800           0
     74287 TIP3     17281    TIP3     OH2      OT      -0.834000       15.9994           0
     74288 TIP3     17281    TIP3     H1       HT       0.417000       1.00800           0
     74289 TIP3     17281    TIP3     H2       HT       0.417000       1.00800           0
     74290 TIP3     17282    TIP3     OH2      OT      -0.834000       15.9994           0
     74291 TIP3     17282    TIP3     H1       HT       0.417000       1.00800           0
     74292 TIP3     17282    TIP3     H2       HT       0.417000       1.00800           0
     74293 TIP3     17283    TIP3     OH2      OT      -0.834000       15.9994           0
     74294 TIP3     17283    TIP3     H1       HT       0.417000       1.00800           0
     74295 TIP3     17283    TIP3     H2       HT       0.417000       1.00800           0
     74296 TIP3     17284    TIP3     OH2      OT      -0.834000       15.9994           0
     74297 TIP3     17284    TIP3     H1       HT       0.417000       1.00800           0
     74298 TIP3     17284    TIP3     H2       HT       0.417000       1.00800           0
     74299 TIP3     17285    TIP3     OH2      OT      -0.834000       15.9994           0
     74300 TIP3     17285    TIP3     H1       HT       0.417000       1.00800           0
     74301 TIP3     17285    TIP3     H2       HT       0.417000       1.00800           0
     74302 TIP3     17286    TIP3     OH2      OT      -0.834000       15.9994           0
     74303 TIP3     17286    TIP3     H1       HT       0.417000       1.00800           0
     74304 TIP3     17286    TIP3     H2       HT       0.417000       1.00800           0
     74305 TIP3     17287    TIP3     OH2      OT      -0.834000       15.9994           0
     74306 TIP3     17287    TIP3     H1       HT       0.417000       1.00800           0
     74307 TIP3     17287    TIP3     H2       HT       0.417000       1.00800           0
     74308 TIP3     17288    TIP3     OH2      OT      -0.834000       15.9994           0
     74309 TIP3     17288    TIP3     H1       HT       0.417000       1.00800           0
     74310 TIP3     17288    TIP3     H2       HT       0.417000       1.00800           0
     74311 TIP3     17289    TIP3     OH2      OT      -0.834000       15.9994           0
     74312 TIP3     17289    TIP3     H1       HT       0.417000       1.00800           0
     74313 TIP3     17289    TIP3     H2       HT       0.417000       1.00800           0
     74314 TIP3     17290    TIP3     OH2      OT      -0.834000       15.9994           0
     74315 TIP3     17290    TIP3     H1       HT       0.417000       1.00800           0
     74316 TIP3     17290    TIP3     H2       HT       0.417000       1.00800           0
     74317 TIP3     17291    TIP3     OH2      OT      -0.834000       15.9994           0
     74318 TIP3     17291    TIP3     H1       HT       0.417000       1.00800           0
     74319 TIP3     17291    TIP3     H2       HT       0.417000       1.00800           0
     74320 TIP3     17292    TIP3     OH2      OT      -0.834000       15.9994           0
     74321 TIP3     17292    TIP3     H1       HT       0.417000       1.00800           0
     74322 TIP3     17292    TIP3     H2       HT       0.417000       1.00800           0
     74323 TIP3     17293    TIP3     OH2      OT      -0.834000       15.9994           0
     74324 TIP3     17293    TIP3     H1       HT       0.417000       1.00800           0
     74325 TIP3     17293    TIP3     H2       HT       0.417000       1.00800           0
     74326 TIP3     17294    TIP3     OH2      OT      -0.834000       15.9994           0
     74327 TIP3     17294    TIP3     H1       HT       0.417000       1.00800           0
     74328 TIP3     17294    TIP3     H2       HT       0.417000       1.00800           0
     74329 TIP3     17295    TIP3     OH2      OT      -0.834000       15.9994           0
     74330 TIP3     17295    TIP3     H1       HT       0.417000       1.00800           0
     74331 TIP3     17295    TIP3     H2       HT       0.417000       1.00800           0
     74332 TIP3     17296    TIP3     OH2      OT      -0.834000       15.9994           0
     74333 TIP3     17296    TIP3     H1       HT       0.417000       1.00800           0
     74334 TIP3     17296    TIP3     H2       HT       0.417000       1.00800           0
     74335 TIP3     17297    TIP3     OH2      OT      -0.834000       15.9994           0
     74336 TIP3     17297    TIP3     H1       HT       0.417000       1.00800           0
     74337 TIP3     17297    TIP3     H2       HT       0.417000       1.00800           0
     74338 TIP3     17298    TIP3     OH2      OT      -0.834000       15.9994           0
     74339 TIP3     17298    TIP3     H1       HT       0.417000       1.00800           0
     74340 TIP3     17298    TIP3     H2       HT       0.417000       1.00800           0
     74341 TIP3     17299    TIP3     OH2      OT      -0.834000       15.9994           0
     74342 TIP3     17299    TIP3     H1       HT       0.417000       1.00800           0
     74343 TIP3     17299    TIP3     H2       HT       0.417000       1.00800           0
     74344 TIP3     17300    TIP3     OH2      OT      -0.834000       15.9994           0
     74345 TIP3     17300    TIP3     H1       HT       0.417000       1.00800           0
     74346 TIP3     17300    TIP3     H2       HT       0.417000       1.00800           0
     74347 TIP3     17301    TIP3     OH2      OT      -0.834000       15.9994           0
     74348 TIP3     17301    TIP3     H1       HT       0.417000       1.00800           0
     74349 TIP3     17301    TIP3     H2       HT       0.417000       1.00800           0
     74350 TIP3     17302    TIP3     OH2      OT      -0.834000       15.9994           0
     74351 TIP3     17302    TIP3     H1       HT       0.417000       1.00800           0
     74352 TIP3     17302    TIP3     H2       HT       0.417000       1.00800           0
     74353 TIP3     17303    TIP3     OH2      OT      -0.834000       15.9994           0
     74354 TIP3     17303    TIP3     H1       HT       0.417000       1.00800           0
     74355 TIP3     17303    TIP3     H2       HT       0.417000       1.00800           0
     74356 TIP3     17304    TIP3     OH2      OT      -0.834000       15.9994           0
     74357 TIP3     17304    TIP3     H1       HT       0.417000       1.00800           0
     74358 TIP3     17304    TIP3     H2       HT       0.417000       1.00800           0
     74359 TIP3     17305    TIP3     OH2      OT      -0.834000       15.9994           0
     74360 TIP3     17305    TIP3     H1       HT       0.417000       1.00800           0
     74361 TIP3     17305    TIP3     H2       HT       0.417000       1.00800           0
     74362 TIP3     17306    TIP3     OH2      OT      -0.834000       15.9994           0
     74363 TIP3     17306    TIP3     H1       HT       0.417000       1.00800           0
     74364 TIP3     17306    TIP3     H2       HT       0.417000       1.00800           0
     74365 TIP3     17307    TIP3     OH2      OT      -0.834000       15.9994           0
     74366 TIP3     17307    TIP3     H1       HT       0.417000       1.00800           0
     74367 TIP3     17307    TIP3     H2       HT       0.417000       1.00800           0
     74368 TIP3     17308    TIP3     OH2      OT      -0.834000       15.9994           0
     74369 TIP3     17308    TIP3     H1       HT       0.417000       1.00800           0
     74370 TIP3     17308    TIP3     H2       HT       0.417000       1.00800           0
     74371 TIP3     17309    TIP3     OH2      OT      -0.834000       15.9994           0
     74372 TIP3     17309    TIP3     H1       HT       0.417000       1.00800           0
     74373 TIP3     17309    TIP3     H2       HT       0.417000       1.00800           0
     74374 TIP3     17310    TIP3     OH2      OT      -0.834000       15.9994           0
     74375 TIP3     17310    TIP3     H1       HT       0.417000       1.00800           0
     74376 TIP3     17310    TIP3     H2       HT       0.417000       1.00800           0
     74377 TIP3     17311    TIP3     OH2      OT      -0.834000       15.9994           0
     74378 TIP3     17311    TIP3     H1       HT       0.417000       1.00800           0
     74379 TIP3     17311    TIP3     H2       HT       0.417000       1.00800           0
     74380 TIP3     17312    TIP3     OH2      OT      -0.834000       15.9994           0
     74381 TIP3     17312    TIP3     H1       HT       0.417000       1.00800           0
     74382 TIP3     17312    TIP3     H2       HT       0.417000       1.00800           0
     74383 TIP3     17313    TIP3     OH2      OT      -0.834000       15.9994           0
     74384 TIP3     17313    TIP3     H1       HT       0.417000       1.00800           0
     74385 TIP3     17313    TIP3     H2       HT       0.417000       1.00800           0
     74386 TIP3     17314    TIP3     OH2      OT      -0.834000       15.9994           0
     74387 TIP3     17314    TIP3     H1       HT       0.417000       1.00800           0
     74388 TIP3     17314    TIP3     H2       HT       0.417000       1.00800           0
     74389 TIP3     17315    TIP3     OH2      OT      -0.834000       15.9994           0
     74390 TIP3     17315    TIP3     H1       HT       0.417000       1.00800           0
     74391 TIP3     17315    TIP3     H2       HT       0.417000       1.00800           0
     74392 TIP3     17316    TIP3     OH2      OT      -0.834000       15.9994           0
     74393 TIP3     17316    TIP3     H1       HT       0.417000       1.00800           0
     74394 TIP3     17316    TIP3     H2       HT       0.417000       1.00800           0
     74395 TIP3     17317    TIP3     OH2      OT      -0.834000       15.9994           0
     74396 TIP3     17317    TIP3     H1       HT       0.417000       1.00800           0
     74397 TIP3     17317    TIP3     H2       HT       0.417000       1.00800           0
     74398 TIP3     17318    TIP3     OH2      OT      -0.834000       15.9994           0
     74399 TIP3     17318    TIP3     H1       HT       0.417000       1.00800           0
     74400 TIP3     17318    TIP3     H2       HT       0.417000       1.00800           0
     74401 TIP3     17319    TIP3     OH2      OT      -0.834000       15.9994           0
     74402 TIP3     17319    TIP3     H1       HT       0.417000       1.00800           0
     74403 TIP3     17319    TIP3     H2       HT       0.417000       1.00800           0
     74404 TIP3     17320    TIP3     OH2      OT      -0.834000       15.9994           0
     74405 TIP3     17320    TIP3     H1       HT       0.417000       1.00800           0
     74406 TIP3     17320    TIP3     H2       HT       0.417000       1.00800           0
     74407 TIP3     17321    TIP3     OH2      OT      -0.834000       15.9994           0
     74408 TIP3     17321    TIP3     H1       HT       0.417000       1.00800           0
     74409 TIP3     17321    TIP3     H2       HT       0.417000       1.00800           0
     74410 TIP3     17322    TIP3     OH2      OT      -0.834000       15.9994           0
     74411 TIP3     17322    TIP3     H1       HT       0.417000       1.00800           0
     74412 TIP3     17322    TIP3     H2       HT       0.417000       1.00800           0
     74413 TIP3     17323    TIP3     OH2      OT      -0.834000       15.9994           0
     74414 TIP3     17323    TIP3     H1       HT       0.417000       1.00800           0
     74415 TIP3     17323    TIP3     H2       HT       0.417000       1.00800           0
     74416 TIP3     17324    TIP3     OH2      OT      -0.834000       15.9994           0
     74417 TIP3     17324    TIP3     H1       HT       0.417000       1.00800           0
     74418 TIP3     17324    TIP3     H2       HT       0.417000       1.00800           0
     74419 TIP3     17325    TIP3     OH2      OT      -0.834000       15.9994           0
     74420 TIP3     17325    TIP3     H1       HT       0.417000       1.00800           0
     74421 TIP3     17325    TIP3     H2       HT       0.417000       1.00800           0
     74422 TIP3     17326    TIP3     OH2      OT      -0.834000       15.9994           0
     74423 TIP3     17326    TIP3     H1       HT       0.417000       1.00800           0
     74424 TIP3     17326    TIP3     H2       HT       0.417000       1.00800           0
     74425 TIP3     17327    TIP3     OH2      OT      -0.834000       15.9994           0
     74426 TIP3     17327    TIP3     H1       HT       0.417000       1.00800           0
     74427 TIP3     17327    TIP3     H2       HT       0.417000       1.00800           0
     74428 TIP3     17328    TIP3     OH2      OT      -0.834000       15.9994           0
     74429 TIP3     17328    TIP3     H1       HT       0.417000       1.00800           0
     74430 TIP3     17328    TIP3     H2       HT       0.417000       1.00800           0
     74431 TIP3     17329    TIP3     OH2      OT      -0.834000       15.9994           0
     74432 TIP3     17329    TIP3     H1       HT       0.417000       1.00800           0
     74433 TIP3     17329    TIP3     H2       HT       0.417000       1.00800           0
     74434 TIP3     17330    TIP3     OH2      OT      -0.834000       15.9994           0
     74435 TIP3     17330    TIP3     H1       HT       0.417000       1.00800           0
     74436 TIP3     17330    TIP3     H2       HT       0.417000       1.00800           0
     74437 TIP3     17331    TIP3     OH2      OT      -0.834000       15.9994           0
     74438 TIP3     17331    TIP3     H1       HT       0.417000       1.00800           0
     74439 TIP3     17331    TIP3     H2       HT       0.417000       1.00800           0
     74440 TIP3     17332    TIP3     OH2      OT      -0.834000       15.9994           0
     74441 TIP3     17332    TIP3     H1       HT       0.417000       1.00800           0
     74442 TIP3     17332    TIP3     H2       HT       0.417000       1.00800           0
     74443 TIP3     17333    TIP3     OH2      OT      -0.834000       15.9994           0
     74444 TIP3     17333    TIP3     H1       HT       0.417000       1.00800           0
     74445 TIP3     17333    TIP3     H2       HT       0.417000       1.00800           0
     74446 TIP3     17334    TIP3     OH2      OT      -0.834000       15.9994           0
     74447 TIP3     17334    TIP3     H1       HT       0.417000       1.00800           0
     74448 TIP3     17334    TIP3     H2       HT       0.417000       1.00800           0
     74449 TIP3     17335    TIP3     OH2      OT      -0.834000       15.9994           0
     74450 TIP3     17335    TIP3     H1       HT       0.417000       1.00800           0
     74451 TIP3     17335    TIP3     H2       HT       0.417000       1.00800           0
     74452 TIP3     17336    TIP3     OH2      OT      -0.834000       15.9994           0
     74453 TIP3     17336    TIP3     H1       HT       0.417000       1.00800           0
     74454 TIP3     17336    TIP3     H2       HT       0.417000       1.00800           0
     74455 TIP3     17337    TIP3     OH2      OT      -0.834000       15.9994           0
     74456 TIP3     17337    TIP3     H1       HT       0.417000       1.00800           0
     74457 TIP3     17337    TIP3     H2       HT       0.417000       1.00800           0
     74458 TIP3     17338    TIP3     OH2      OT      -0.834000       15.9994           0
     74459 TIP3     17338    TIP3     H1       HT       0.417000       1.00800           0
     74460 TIP3     17338    TIP3     H2       HT       0.417000       1.00800           0
     74461 TIP3     17339    TIP3     OH2      OT      -0.834000       15.9994           0
     74462 TIP3     17339    TIP3     H1       HT       0.417000       1.00800           0
     74463 TIP3     17339    TIP3     H2       HT       0.417000       1.00800           0
     74464 TIP3     17340    TIP3     OH2      OT      -0.834000       15.9994           0
     74465 TIP3     17340    TIP3     H1       HT       0.417000       1.00800           0
     74466 TIP3     17340    TIP3     H2       HT       0.417000       1.00800           0
     74467 TIP3     17341    TIP3     OH2      OT      -0.834000       15.9994           0
     74468 TIP3     17341    TIP3     H1       HT       0.417000       1.00800           0
     74469 TIP3     17341    TIP3     H2       HT       0.417000       1.00800           0
     74470 TIP3     17342    TIP3     OH2      OT      -0.834000       15.9994           0
     74471 TIP3     17342    TIP3     H1       HT       0.417000       1.00800           0
     74472 TIP3     17342    TIP3     H2       HT       0.417000       1.00800           0
     74473 TIP3     17343    TIP3     OH2      OT      -0.834000       15.9994           0
     74474 TIP3     17343    TIP3     H1       HT       0.417000       1.00800           0
     74475 TIP3     17343    TIP3     H2       HT       0.417000       1.00800           0
     74476 TIP3     17344    TIP3     OH2      OT      -0.834000       15.9994           0
     74477 TIP3     17344    TIP3     H1       HT       0.417000       1.00800           0
     74478 TIP3     17344    TIP3     H2       HT       0.417000       1.00800           0
     74479 TIP3     17345    TIP3     OH2      OT      -0.834000       15.9994           0
     74480 TIP3     17345    TIP3     H1       HT       0.417000       1.00800           0
     74481 TIP3     17345    TIP3     H2       HT       0.417000       1.00800           0
     74482 TIP3     17346    TIP3     OH2      OT      -0.834000       15.9994           0
     74483 TIP3     17346    TIP3     H1       HT       0.417000       1.00800           0
     74484 TIP3     17346    TIP3     H2       HT       0.417000       1.00800           0
     74485 TIP3     17347    TIP3     OH2      OT      -0.834000       15.9994           0
     74486 TIP3     17347    TIP3     H1       HT       0.417000       1.00800           0
     74487 TIP3     17347    TIP3     H2       HT       0.417000       1.00800           0
     74488 TIP3     17348    TIP3     OH2      OT      -0.834000       15.9994           0
     74489 TIP3     17348    TIP3     H1       HT       0.417000       1.00800           0
     74490 TIP3     17348    TIP3     H2       HT       0.417000       1.00800           0
     74491 TIP3     17349    TIP3     OH2      OT      -0.834000       15.9994           0
     74492 TIP3     17349    TIP3     H1       HT       0.417000       1.00800           0
     74493 TIP3     17349    TIP3     H2       HT       0.417000       1.00800           0
     74494 TIP3     17350    TIP3     OH2      OT      -0.834000       15.9994           0
     74495 TIP3     17350    TIP3     H1       HT       0.417000       1.00800           0
     74496 TIP3     17350    TIP3     H2       HT       0.417000       1.00800           0
     74497 TIP3     17351    TIP3     OH2      OT      -0.834000       15.9994           0
     74498 TIP3     17351    TIP3     H1       HT       0.417000       1.00800           0
     74499 TIP3     17351    TIP3     H2       HT       0.417000       1.00800           0
     74500 TIP3     17352    TIP3     OH2      OT      -0.834000       15.9994           0
     74501 TIP3     17352    TIP3     H1       HT       0.417000       1.00800           0
     74502 TIP3     17352    TIP3     H2       HT       0.417000       1.00800           0
     74503 TIP3     17353    TIP3     OH2      OT      -0.834000       15.9994           0
     74504 TIP3     17353    TIP3     H1       HT       0.417000       1.00800           0
     74505 TIP3     17353    TIP3     H2       HT       0.417000       1.00800           0
     74506 TIP3     17354    TIP3     OH2      OT      -0.834000       15.9994           0
     74507 TIP3     17354    TIP3     H1       HT       0.417000       1.00800           0
     74508 TIP3     17354    TIP3     H2       HT       0.417000       1.00800           0
     74509 TIP3     17355    TIP3     OH2      OT      -0.834000       15.9994           0
     74510 TIP3     17355    TIP3     H1       HT       0.417000       1.00800           0
     74511 TIP3     17355    TIP3     H2       HT       0.417000       1.00800           0
     74512 TIP3     17356    TIP3     OH2      OT      -0.834000       15.9994           0
     74513 TIP3     17356    TIP3     H1       HT       0.417000       1.00800           0
     74514 TIP3     17356    TIP3     H2       HT       0.417000       1.00800           0
     74515 TIP3     17357    TIP3     OH2      OT      -0.834000       15.9994           0
     74516 TIP3     17357    TIP3     H1       HT       0.417000       1.00800           0
     74517 TIP3     17357    TIP3     H2       HT       0.417000       1.00800           0
     74518 TIP3     17358    TIP3     OH2      OT      -0.834000       15.9994           0
     74519 TIP3     17358    TIP3     H1       HT       0.417000       1.00800           0
     74520 TIP3     17358    TIP3     H2       HT       0.417000       1.00800           0
     74521 TIP3     17359    TIP3     OH2      OT      -0.834000       15.9994           0
     74522 TIP3     17359    TIP3     H1       HT       0.417000       1.00800           0
     74523 TIP3     17359    TIP3     H2       HT       0.417000       1.00800           0
     74524 TIP3     17360    TIP3     OH2      OT      -0.834000       15.9994           0
     74525 TIP3     17360    TIP3     H1       HT       0.417000       1.00800           0
     74526 TIP3     17360    TIP3     H2       HT       0.417000       1.00800           0
     74527 TIP3     17361    TIP3     OH2      OT      -0.834000       15.9994           0
     74528 TIP3     17361    TIP3     H1       HT       0.417000       1.00800           0
     74529 TIP3     17361    TIP3     H2       HT       0.417000       1.00800           0
     74530 TIP3     17362    TIP3     OH2      OT      -0.834000       15.9994           0
     74531 TIP3     17362    TIP3     H1       HT       0.417000       1.00800           0
     74532 TIP3     17362    TIP3     H2       HT       0.417000       1.00800           0
     74533 TIP3     17363    TIP3     OH2      OT      -0.834000       15.9994           0
     74534 TIP3     17363    TIP3     H1       HT       0.417000       1.00800           0
     74535 TIP3     17363    TIP3     H2       HT       0.417000       1.00800           0
     74536 TIP3     17364    TIP3     OH2      OT      -0.834000       15.9994           0
     74537 TIP3     17364    TIP3     H1       HT       0.417000       1.00800           0
     74538 TIP3     17364    TIP3     H2       HT       0.417000       1.00800           0
     74539 TIP3     17365    TIP3     OH2      OT      -0.834000       15.9994           0
     74540 TIP3     17365    TIP3     H1       HT       0.417000       1.00800           0
     74541 TIP3     17365    TIP3     H2       HT       0.417000       1.00800           0
     74542 TIP3     17366    TIP3     OH2      OT      -0.834000       15.9994           0
     74543 TIP3     17366    TIP3     H1       HT       0.417000       1.00800           0
     74544 TIP3     17366    TIP3     H2       HT       0.417000       1.00800           0
     74545 TIP3     17367    TIP3     OH2      OT      -0.834000       15.9994           0
     74546 TIP3     17367    TIP3     H1       HT       0.417000       1.00800           0
     74547 TIP3     17367    TIP3     H2       HT       0.417000       1.00800           0
     74548 TIP3     17368    TIP3     OH2      OT      -0.834000       15.9994           0
     74549 TIP3     17368    TIP3     H1       HT       0.417000       1.00800           0
     74550 TIP3     17368    TIP3     H2       HT       0.417000       1.00800           0
     74551 TIP3     17369    TIP3     OH2      OT      -0.834000       15.9994           0
     74552 TIP3     17369    TIP3     H1       HT       0.417000       1.00800           0
     74553 TIP3     17369    TIP3     H2       HT       0.417000       1.00800           0
     74554 TIP3     17370    TIP3     OH2      OT      -0.834000       15.9994           0
     74555 TIP3     17370    TIP3     H1       HT       0.417000       1.00800           0
     74556 TIP3     17370    TIP3     H2       HT       0.417000       1.00800           0
     74557 TIP3     17371    TIP3     OH2      OT      -0.834000       15.9994           0
     74558 TIP3     17371    TIP3     H1       HT       0.417000       1.00800           0
     74559 TIP3     17371    TIP3     H2       HT       0.417000       1.00800           0
     74560 TIP3     17372    TIP3     OH2      OT      -0.834000       15.9994           0
     74561 TIP3     17372    TIP3     H1       HT       0.417000       1.00800           0
     74562 TIP3     17372    TIP3     H2       HT       0.417000       1.00800           0
     74563 TIP3     17373    TIP3     OH2      OT      -0.834000       15.9994           0
     74564 TIP3     17373    TIP3     H1       HT       0.417000       1.00800           0
     74565 TIP3     17373    TIP3     H2       HT       0.417000       1.00800           0
     74566 TIP3     17374    TIP3     OH2      OT      -0.834000       15.9994           0
     74567 TIP3     17374    TIP3     H1       HT       0.417000       1.00800           0
     74568 TIP3     17374    TIP3     H2       HT       0.417000       1.00800           0
     74569 TIP3     17375    TIP3     OH2      OT      -0.834000       15.9994           0
     74570 TIP3     17375    TIP3     H1       HT       0.417000       1.00800           0
     74571 TIP3     17375    TIP3     H2       HT       0.417000       1.00800           0
     74572 TIP3     17376    TIP3     OH2      OT      -0.834000       15.9994           0
     74573 TIP3     17376    TIP3     H1       HT       0.417000       1.00800           0
     74574 TIP3     17376    TIP3     H2       HT       0.417000       1.00800           0
     74575 TIP3     17377    TIP3     OH2      OT      -0.834000       15.9994           0
     74576 TIP3     17377    TIP3     H1       HT       0.417000       1.00800           0
     74577 TIP3     17377    TIP3     H2       HT       0.417000       1.00800           0
     74578 TIP3     17378    TIP3     OH2      OT      -0.834000       15.9994           0
     74579 TIP3     17378    TIP3     H1       HT       0.417000       1.00800           0
     74580 TIP3     17378    TIP3     H2       HT       0.417000       1.00800           0
     74581 TIP3     17379    TIP3     OH2      OT      -0.834000       15.9994           0
     74582 TIP3     17379    TIP3     H1       HT       0.417000       1.00800           0
     74583 TIP3     17379    TIP3     H2       HT       0.417000       1.00800           0
     74584 TIP3     17380    TIP3     OH2      OT      -0.834000       15.9994           0
     74585 TIP3     17380    TIP3     H1       HT       0.417000       1.00800           0
     74586 TIP3     17380    TIP3     H2       HT       0.417000       1.00800           0
     74587 TIP3     17381    TIP3     OH2      OT      -0.834000       15.9994           0
     74588 TIP3     17381    TIP3     H1       HT       0.417000       1.00800           0
     74589 TIP3     17381    TIP3     H2       HT       0.417000       1.00800           0
     74590 TIP3     17382    TIP3     OH2      OT      -0.834000       15.9994           0
     74591 TIP3     17382    TIP3     H1       HT       0.417000       1.00800           0
     74592 TIP3     17382    TIP3     H2       HT       0.417000       1.00800           0
     74593 TIP3     17383    TIP3     OH2      OT      -0.834000       15.9994           0
     74594 TIP3     17383    TIP3     H1       HT       0.417000       1.00800           0
     74595 TIP3     17383    TIP3     H2       HT       0.417000       1.00800           0
     74596 TIP3     17384    TIP3     OH2      OT      -0.834000       15.9994           0
     74597 TIP3     17384    TIP3     H1       HT       0.417000       1.00800           0
     74598 TIP3     17384    TIP3     H2       HT       0.417000       1.00800           0
     74599 TIP3     17385    TIP3     OH2      OT      -0.834000       15.9994           0
     74600 TIP3     17385    TIP3     H1       HT       0.417000       1.00800           0
     74601 TIP3     17385    TIP3     H2       HT       0.417000       1.00800           0
     74602 TIP3     17386    TIP3     OH2      OT      -0.834000       15.9994           0
     74603 TIP3     17386    TIP3     H1       HT       0.417000       1.00800           0
     74604 TIP3     17386    TIP3     H2       HT       0.417000       1.00800           0
     74605 TIP3     17387    TIP3     OH2      OT      -0.834000       15.9994           0
     74606 TIP3     17387    TIP3     H1       HT       0.417000       1.00800           0
     74607 TIP3     17387    TIP3     H2       HT       0.417000       1.00800           0
     74608 TIP3     17388    TIP3     OH2      OT      -0.834000       15.9994           0
     74609 TIP3     17388    TIP3     H1       HT       0.417000       1.00800           0
     74610 TIP3     17388    TIP3     H2       HT       0.417000       1.00800           0
     74611 TIP3     17389    TIP3     OH2      OT      -0.834000       15.9994           0
     74612 TIP3     17389    TIP3     H1       HT       0.417000       1.00800           0
     74613 TIP3     17389    TIP3     H2       HT       0.417000       1.00800           0
     74614 TIP3     17390    TIP3     OH2      OT      -0.834000       15.9994           0
     74615 TIP3     17390    TIP3     H1       HT       0.417000       1.00800           0
     74616 TIP3     17390    TIP3     H2       HT       0.417000       1.00800           0
     74617 TIP3     17391    TIP3     OH2      OT      -0.834000       15.9994           0
     74618 TIP3     17391    TIP3     H1       HT       0.417000       1.00800           0
     74619 TIP3     17391    TIP3     H2       HT       0.417000       1.00800           0
     74620 TIP3     17392    TIP3     OH2      OT      -0.834000       15.9994           0
     74621 TIP3     17392    TIP3     H1       HT       0.417000       1.00800           0
     74622 TIP3     17392    TIP3     H2       HT       0.417000       1.00800           0
     74623 TIP3     17393    TIP3     OH2      OT      -0.834000       15.9994           0
     74624 TIP3     17393    TIP3     H1       HT       0.417000       1.00800           0
     74625 TIP3     17393    TIP3     H2       HT       0.417000       1.00800           0
     74626 TIP3     17394    TIP3     OH2      OT      -0.834000       15.9994           0
     74627 TIP3     17394    TIP3     H1       HT       0.417000       1.00800           0
     74628 TIP3     17394    TIP3     H2       HT       0.417000       1.00800           0
     74629 TIP3     17395    TIP3     OH2      OT      -0.834000       15.9994           0
     74630 TIP3     17395    TIP3     H1       HT       0.417000       1.00800           0
     74631 TIP3     17395    TIP3     H2       HT       0.417000       1.00800           0
     74632 TIP3     17396    TIP3     OH2      OT      -0.834000       15.9994           0
     74633 TIP3     17396    TIP3     H1       HT       0.417000       1.00800           0
     74634 TIP3     17396    TIP3     H2       HT       0.417000       1.00800           0
     74635 TIP3     17397    TIP3     OH2      OT      -0.834000       15.9994           0
     74636 TIP3     17397    TIP3     H1       HT       0.417000       1.00800           0
     74637 TIP3     17397    TIP3     H2       HT       0.417000       1.00800           0
     74638 TIP3     17398    TIP3     OH2      OT      -0.834000       15.9994           0
     74639 TIP3     17398    TIP3     H1       HT       0.417000       1.00800           0
     74640 TIP3     17398    TIP3     H2       HT       0.417000       1.00800           0
     74641 TIP3     17399    TIP3     OH2      OT      -0.834000       15.9994           0
     74642 TIP3     17399    TIP3     H1       HT       0.417000       1.00800           0
     74643 TIP3     17399    TIP3     H2       HT       0.417000       1.00800           0
     74644 TIP3     17400    TIP3     OH2      OT      -0.834000       15.9994           0
     74645 TIP3     17400    TIP3     H1       HT       0.417000       1.00800           0
     74646 TIP3     17400    TIP3     H2       HT       0.417000       1.00800           0
     74647 TIP3     17401    TIP3     OH2      OT      -0.834000       15.9994           0
     74648 TIP3     17401    TIP3     H1       HT       0.417000       1.00800           0
     74649 TIP3     17401    TIP3     H2       HT       0.417000       1.00800           0
     74650 TIP3     17402    TIP3     OH2      OT      -0.834000       15.9994           0
     74651 TIP3     17402    TIP3     H1       HT       0.417000       1.00800           0
     74652 TIP3     17402    TIP3     H2       HT       0.417000       1.00800           0
     74653 TIP3     17403    TIP3     OH2      OT      -0.834000       15.9994           0
     74654 TIP3     17403    TIP3     H1       HT       0.417000       1.00800           0
     74655 TIP3     17403    TIP3     H2       HT       0.417000       1.00800           0
     74656 TIP3     17404    TIP3     OH2      OT      -0.834000       15.9994           0
     74657 TIP3     17404    TIP3     H1       HT       0.417000       1.00800           0
     74658 TIP3     17404    TIP3     H2       HT       0.417000       1.00800           0
     74659 TIP3     17405    TIP3     OH2      OT      -0.834000       15.9994           0
     74660 TIP3     17405    TIP3     H1       HT       0.417000       1.00800           0
     74661 TIP3     17405    TIP3     H2       HT       0.417000       1.00800           0
     74662 TIP3     17406    TIP3     OH2      OT      -0.834000       15.9994           0
     74663 TIP3     17406    TIP3     H1       HT       0.417000       1.00800           0
     74664 TIP3     17406    TIP3     H2       HT       0.417000       1.00800           0
     74665 TIP3     17407    TIP3     OH2      OT      -0.834000       15.9994           0
     74666 TIP3     17407    TIP3     H1       HT       0.417000       1.00800           0
     74667 TIP3     17407    TIP3     H2       HT       0.417000       1.00800           0
     74668 TIP3     17408    TIP3     OH2      OT      -0.834000       15.9994           0
     74669 TIP3     17408    TIP3     H1       HT       0.417000       1.00800           0
     74670 TIP3     17408    TIP3     H2       HT       0.417000       1.00800           0
     74671 TIP3     17409    TIP3     OH2      OT      -0.834000       15.9994           0
     74672 TIP3     17409    TIP3     H1       HT       0.417000       1.00800           0
     74673 TIP3     17409    TIP3     H2       HT       0.417000       1.00800           0
     74674 TIP3     17410    TIP3     OH2      OT      -0.834000       15.9994           0
     74675 TIP3     17410    TIP3     H1       HT       0.417000       1.00800           0
     74676 TIP3     17410    TIP3     H2       HT       0.417000       1.00800           0
     74677 TIP3     17411    TIP3     OH2      OT      -0.834000       15.9994           0
     74678 TIP3     17411    TIP3     H1       HT       0.417000       1.00800           0
     74679 TIP3     17411    TIP3     H2       HT       0.417000       1.00800           0
     74680 TIP3     17412    TIP3     OH2      OT      -0.834000       15.9994           0
     74681 TIP3     17412    TIP3     H1       HT       0.417000       1.00800           0
     74682 TIP3     17412    TIP3     H2       HT       0.417000       1.00800           0
     74683 TIP3     17413    TIP3     OH2      OT      -0.834000       15.9994           0
     74684 TIP3     17413    TIP3     H1       HT       0.417000       1.00800           0
     74685 TIP3     17413    TIP3     H2       HT       0.417000       1.00800           0
     74686 TIP3     17414    TIP3     OH2      OT      -0.834000       15.9994           0
     74687 TIP3     17414    TIP3     H1       HT       0.417000       1.00800           0
     74688 TIP3     17414    TIP3     H2       HT       0.417000       1.00800           0
     74689 TIP3     17415    TIP3     OH2      OT      -0.834000       15.9994           0
     74690 TIP3     17415    TIP3     H1       HT       0.417000       1.00800           0
     74691 TIP3     17415    TIP3     H2       HT       0.417000       1.00800           0
     74692 TIP3     17416    TIP3     OH2      OT      -0.834000       15.9994           0
     74693 TIP3     17416    TIP3     H1       HT       0.417000       1.00800           0
     74694 TIP3     17416    TIP3     H2       HT       0.417000       1.00800           0
     74695 TIP3     17417    TIP3     OH2      OT      -0.834000       15.9994           0
     74696 TIP3     17417    TIP3     H1       HT       0.417000       1.00800           0
     74697 TIP3     17417    TIP3     H2       HT       0.417000       1.00800           0
     74698 TIP3     17418    TIP3     OH2      OT      -0.834000       15.9994           0
     74699 TIP3     17418    TIP3     H1       HT       0.417000       1.00800           0
     74700 TIP3     17418    TIP3     H2       HT       0.417000       1.00800           0
     74701 TIP3     17419    TIP3     OH2      OT      -0.834000       15.9994           0
     74702 TIP3     17419    TIP3     H1       HT       0.417000       1.00800           0
     74703 TIP3     17419    TIP3     H2       HT       0.417000       1.00800           0
     74704 TIP3     17420    TIP3     OH2      OT      -0.834000       15.9994           0
     74705 TIP3     17420    TIP3     H1       HT       0.417000       1.00800           0
     74706 TIP3     17420    TIP3     H2       HT       0.417000       1.00800           0
     74707 TIP3     17421    TIP3     OH2      OT      -0.834000       15.9994           0
     74708 TIP3     17421    TIP3     H1       HT       0.417000       1.00800           0
     74709 TIP3     17421    TIP3     H2       HT       0.417000       1.00800           0
     74710 TIP3     17422    TIP3     OH2      OT      -0.834000       15.9994           0
     74711 TIP3     17422    TIP3     H1       HT       0.417000       1.00800           0
     74712 TIP3     17422    TIP3     H2       HT       0.417000       1.00800           0
     74713 TIP3     17423    TIP3     OH2      OT      -0.834000       15.9994           0
     74714 TIP3     17423    TIP3     H1       HT       0.417000       1.00800           0
     74715 TIP3     17423    TIP3     H2       HT       0.417000       1.00800           0
     74716 TIP3     17424    TIP3     OH2      OT      -0.834000       15.9994           0
     74717 TIP3     17424    TIP3     H1       HT       0.417000       1.00800           0
     74718 TIP3     17424    TIP3     H2       HT       0.417000       1.00800           0
     74719 TIP3     17425    TIP3     OH2      OT      -0.834000       15.9994           0
     74720 TIP3     17425    TIP3     H1       HT       0.417000       1.00800           0
     74721 TIP3     17425    TIP3     H2       HT       0.417000       1.00800           0
     74722 TIP3     17426    TIP3     OH2      OT      -0.834000       15.9994           0
     74723 TIP3     17426    TIP3     H1       HT       0.417000       1.00800           0
     74724 TIP3     17426    TIP3     H2       HT       0.417000       1.00800           0
     74725 TIP3     17427    TIP3     OH2      OT      -0.834000       15.9994           0
     74726 TIP3     17427    TIP3     H1       HT       0.417000       1.00800           0
     74727 TIP3     17427    TIP3     H2       HT       0.417000       1.00800           0
     74728 TIP3     17428    TIP3     OH2      OT      -0.834000       15.9994           0
     74729 TIP3     17428    TIP3     H1       HT       0.417000       1.00800           0
     74730 TIP3     17428    TIP3     H2       HT       0.417000       1.00800           0
     74731 TIP3     17429    TIP3     OH2      OT      -0.834000       15.9994           0
     74732 TIP3     17429    TIP3     H1       HT       0.417000       1.00800           0
     74733 TIP3     17429    TIP3     H2       HT       0.417000       1.00800           0
     74734 TIP3     17430    TIP3     OH2      OT      -0.834000       15.9994           0
     74735 TIP3     17430    TIP3     H1       HT       0.417000       1.00800           0
     74736 TIP3     17430    TIP3     H2       HT       0.417000       1.00800           0
     74737 TIP3     17431    TIP3     OH2      OT      -0.834000       15.9994           0
     74738 TIP3     17431    TIP3     H1       HT       0.417000       1.00800           0
     74739 TIP3     17431    TIP3     H2       HT       0.417000       1.00800           0
     74740 TIP3     17432    TIP3     OH2      OT      -0.834000       15.9994           0
     74741 TIP3     17432    TIP3     H1       HT       0.417000       1.00800           0
     74742 TIP3     17432    TIP3     H2       HT       0.417000       1.00800           0
     74743 TIP3     17433    TIP3     OH2      OT      -0.834000       15.9994           0
     74744 TIP3     17433    TIP3     H1       HT       0.417000       1.00800           0
     74745 TIP3     17433    TIP3     H2       HT       0.417000       1.00800           0
     74746 TIP3     17434    TIP3     OH2      OT      -0.834000       15.9994           0
     74747 TIP3     17434    TIP3     H1       HT       0.417000       1.00800           0
     74748 TIP3     17434    TIP3     H2       HT       0.417000       1.00800           0
     74749 TIP3     17435    TIP3     OH2      OT      -0.834000       15.9994           0
     74750 TIP3     17435    TIP3     H1       HT       0.417000       1.00800           0
     74751 TIP3     17435    TIP3     H2       HT       0.417000       1.00800           0
     74752 TIP3     17436    TIP3     OH2      OT      -0.834000       15.9994           0
     74753 TIP3     17436    TIP3     H1       HT       0.417000       1.00800           0
     74754 TIP3     17436    TIP3     H2       HT       0.417000       1.00800           0
     74755 TIP3     17437    TIP3     OH2      OT      -0.834000       15.9994           0
     74756 TIP3     17437    TIP3     H1       HT       0.417000       1.00800           0
     74757 TIP3     17437    TIP3     H2       HT       0.417000       1.00800           0
     74758 TIP3     17438    TIP3     OH2      OT      -0.834000       15.9994           0
     74759 TIP3     17438    TIP3     H1       HT       0.417000       1.00800           0
     74760 TIP3     17438    TIP3     H2       HT       0.417000       1.00800           0
     74761 TIP3     17439    TIP3     OH2      OT      -0.834000       15.9994           0
     74762 TIP3     17439    TIP3     H1       HT       0.417000       1.00800           0
     74763 TIP3     17439    TIP3     H2       HT       0.417000       1.00800           0
     74764 TIP3     17440    TIP3     OH2      OT      -0.834000       15.9994           0
     74765 TIP3     17440    TIP3     H1       HT       0.417000       1.00800           0
     74766 TIP3     17440    TIP3     H2       HT       0.417000       1.00800           0
     74767 TIP3     17441    TIP3     OH2      OT      -0.834000       15.9994           0
     74768 TIP3     17441    TIP3     H1       HT       0.417000       1.00800           0
     74769 TIP3     17441    TIP3     H2       HT       0.417000       1.00800           0
     74770 TIP3     17442    TIP3     OH2      OT      -0.834000       15.9994           0
     74771 TIP3     17442    TIP3     H1       HT       0.417000       1.00800           0
     74772 TIP3     17442    TIP3     H2       HT       0.417000       1.00800           0
     74773 TIP3     17443    TIP3     OH2      OT      -0.834000       15.9994           0
     74774 TIP3     17443    TIP3     H1       HT       0.417000       1.00800           0
     74775 TIP3     17443    TIP3     H2       HT       0.417000       1.00800           0
     74776 TIP3     17444    TIP3     OH2      OT      -0.834000       15.9994           0
     74777 TIP3     17444    TIP3     H1       HT       0.417000       1.00800           0
     74778 TIP3     17444    TIP3     H2       HT       0.417000       1.00800           0
     74779 TIP3     17445    TIP3     OH2      OT      -0.834000       15.9994           0
     74780 TIP3     17445    TIP3     H1       HT       0.417000       1.00800           0
     74781 TIP3     17445    TIP3     H2       HT       0.417000       1.00800           0
     74782 TIP3     17446    TIP3     OH2      OT      -0.834000       15.9994           0
     74783 TIP3     17446    TIP3     H1       HT       0.417000       1.00800           0
     74784 TIP3     17446    TIP3     H2       HT       0.417000       1.00800           0
     74785 TIP3     17447    TIP3     OH2      OT      -0.834000       15.9994           0
     74786 TIP3     17447    TIP3     H1       HT       0.417000       1.00800           0
     74787 TIP3     17447    TIP3     H2       HT       0.417000       1.00800           0
     74788 TIP3     17448    TIP3     OH2      OT      -0.834000       15.9994           0
     74789 TIP3     17448    TIP3     H1       HT       0.417000       1.00800           0
     74790 TIP3     17448    TIP3     H2       HT       0.417000       1.00800           0
     74791 TIP3     17449    TIP3     OH2      OT      -0.834000       15.9994           0
     74792 TIP3     17449    TIP3     H1       HT       0.417000       1.00800           0
     74793 TIP3     17449    TIP3     H2       HT       0.417000       1.00800           0
     74794 TIP3     17450    TIP3     OH2      OT      -0.834000       15.9994           0
     74795 TIP3     17450    TIP3     H1       HT       0.417000       1.00800           0
     74796 TIP3     17450    TIP3     H2       HT       0.417000       1.00800           0
     74797 TIP3     17451    TIP3     OH2      OT      -0.834000       15.9994           0
     74798 TIP3     17451    TIP3     H1       HT       0.417000       1.00800           0
     74799 TIP3     17451    TIP3     H2       HT       0.417000       1.00800           0
     74800 TIP3     17452    TIP3     OH2      OT      -0.834000       15.9994           0
     74801 TIP3     17452    TIP3     H1       HT       0.417000       1.00800           0
     74802 TIP3     17452    TIP3     H2       HT       0.417000       1.00800           0
     74803 TIP3     17453    TIP3     OH2      OT      -0.834000       15.9994           0
     74804 TIP3     17453    TIP3     H1       HT       0.417000       1.00800           0
     74805 TIP3     17453    TIP3     H2       HT       0.417000       1.00800           0
     74806 TIP3     17454    TIP3     OH2      OT      -0.834000       15.9994           0
     74807 TIP3     17454    TIP3     H1       HT       0.417000       1.00800           0
     74808 TIP3     17454    TIP3     H2       HT       0.417000       1.00800           0
     74809 TIP3     17455    TIP3     OH2      OT      -0.834000       15.9994           0
     74810 TIP3     17455    TIP3     H1       HT       0.417000       1.00800           0
     74811 TIP3     17455    TIP3     H2       HT       0.417000       1.00800           0
     74812 TIP3     17456    TIP3     OH2      OT      -0.834000       15.9994           0
     74813 TIP3     17456    TIP3     H1       HT       0.417000       1.00800           0
     74814 TIP3     17456    TIP3     H2       HT       0.417000       1.00800           0
     74815 TIP3     17457    TIP3     OH2      OT      -0.834000       15.9994           0
     74816 TIP3     17457    TIP3     H1       HT       0.417000       1.00800           0
     74817 TIP3     17457    TIP3     H2       HT       0.417000       1.00800           0
     74818 TIP3     17458    TIP3     OH2      OT      -0.834000       15.9994           0
     74819 TIP3     17458    TIP3     H1       HT       0.417000       1.00800           0
     74820 TIP3     17458    TIP3     H2       HT       0.417000       1.00800           0
     74821 TIP3     17459    TIP3     OH2      OT      -0.834000       15.9994           0
     74822 TIP3     17459    TIP3     H1       HT       0.417000       1.00800           0
     74823 TIP3     17459    TIP3     H2       HT       0.417000       1.00800           0
     74824 TIP3     17460    TIP3     OH2      OT      -0.834000       15.9994           0
     74825 TIP3     17460    TIP3     H1       HT       0.417000       1.00800           0
     74826 TIP3     17460    TIP3     H2       HT       0.417000       1.00800           0
     74827 TIP3     17461    TIP3     OH2      OT      -0.834000       15.9994           0
     74828 TIP3     17461    TIP3     H1       HT       0.417000       1.00800           0
     74829 TIP3     17461    TIP3     H2       HT       0.417000       1.00800           0
     74830 TIP3     17462    TIP3     OH2      OT      -0.834000       15.9994           0
     74831 TIP3     17462    TIP3     H1       HT       0.417000       1.00800           0
     74832 TIP3     17462    TIP3     H2       HT       0.417000       1.00800           0
     74833 TIP3     17463    TIP3     OH2      OT      -0.834000       15.9994           0
     74834 TIP3     17463    TIP3     H1       HT       0.417000       1.00800           0
     74835 TIP3     17463    TIP3     H2       HT       0.417000       1.00800           0
     74836 TIP3     17464    TIP3     OH2      OT      -0.834000       15.9994           0
     74837 TIP3     17464    TIP3     H1       HT       0.417000       1.00800           0
     74838 TIP3     17464    TIP3     H2       HT       0.417000       1.00800           0
     74839 TIP3     17465    TIP3     OH2      OT      -0.834000       15.9994           0
     74840 TIP3     17465    TIP3     H1       HT       0.417000       1.00800           0
     74841 TIP3     17465    TIP3     H2       HT       0.417000       1.00800           0
     74842 TIP3     17466    TIP3     OH2      OT      -0.834000       15.9994           0
     74843 TIP3     17466    TIP3     H1       HT       0.417000       1.00800           0
     74844 TIP3     17466    TIP3     H2       HT       0.417000       1.00800           0
     74845 TIP3     17467    TIP3     OH2      OT      -0.834000       15.9994           0
     74846 TIP3     17467    TIP3     H1       HT       0.417000       1.00800           0
     74847 TIP3     17467    TIP3     H2       HT       0.417000       1.00800           0
     74848 TIP3     17468    TIP3     OH2      OT      -0.834000       15.9994           0
     74849 TIP3     17468    TIP3     H1       HT       0.417000       1.00800           0
     74850 TIP3     17468    TIP3     H2       HT       0.417000       1.00800           0
     74851 TIP3     17469    TIP3     OH2      OT      -0.834000       15.9994           0
     74852 TIP3     17469    TIP3     H1       HT       0.417000       1.00800           0
     74853 TIP3     17469    TIP3     H2       HT       0.417000       1.00800           0
     74854 TIP3     17470    TIP3     OH2      OT      -0.834000       15.9994           0
     74855 TIP3     17470    TIP3     H1       HT       0.417000       1.00800           0
     74856 TIP3     17470    TIP3     H2       HT       0.417000       1.00800           0
     74857 TIP3     17471    TIP3     OH2      OT      -0.834000       15.9994           0
     74858 TIP3     17471    TIP3     H1       HT       0.417000       1.00800           0
     74859 TIP3     17471    TIP3     H2       HT       0.417000       1.00800           0
     74860 TIP3     17472    TIP3     OH2      OT      -0.834000       15.9994           0
     74861 TIP3     17472    TIP3     H1       HT       0.417000       1.00800           0
     74862 TIP3     17472    TIP3     H2       HT       0.417000       1.00800           0
     74863 TIP3     17473    TIP3     OH2      OT      -0.834000       15.9994           0
     74864 TIP3     17473    TIP3     H1       HT       0.417000       1.00800           0
     74865 TIP3     17473    TIP3     H2       HT       0.417000       1.00800           0
     74866 TIP3     17474    TIP3     OH2      OT      -0.834000       15.9994           0
     74867 TIP3     17474    TIP3     H1       HT       0.417000       1.00800           0
     74868 TIP3     17474    TIP3     H2       HT       0.417000       1.00800           0
     74869 TIP3     17475    TIP3     OH2      OT      -0.834000       15.9994           0
     74870 TIP3     17475    TIP3     H1       HT       0.417000       1.00800           0
     74871 TIP3     17475    TIP3     H2       HT       0.417000       1.00800           0
     74872 TIP3     17476    TIP3     OH2      OT      -0.834000       15.9994           0
     74873 TIP3     17476    TIP3     H1       HT       0.417000       1.00800           0
     74874 TIP3     17476    TIP3     H2       HT       0.417000       1.00800           0
     74875 TIP3     17477    TIP3     OH2      OT      -0.834000       15.9994           0
     74876 TIP3     17477    TIP3     H1       HT       0.417000       1.00800           0
     74877 TIP3     17477    TIP3     H2       HT       0.417000       1.00800           0
     74878 TIP3     17478    TIP3     OH2      OT      -0.834000       15.9994           0
     74879 TIP3     17478    TIP3     H1       HT       0.417000       1.00800           0
     74880 TIP3     17478    TIP3     H2       HT       0.417000       1.00800           0
     74881 TIP3     17479    TIP3     OH2      OT      -0.834000       15.9994           0
     74882 TIP3     17479    TIP3     H1       HT       0.417000       1.00800           0
     74883 TIP3     17479    TIP3     H2       HT       0.417000       1.00800           0
     74884 TIP3     17480    TIP3     OH2      OT      -0.834000       15.9994           0
     74885 TIP3     17480    TIP3     H1       HT       0.417000       1.00800           0
     74886 TIP3     17480    TIP3     H2       HT       0.417000       1.00800           0
     74887 TIP3     17481    TIP3     OH2      OT      -0.834000       15.9994           0
     74888 TIP3     17481    TIP3     H1       HT       0.417000       1.00800           0
     74889 TIP3     17481    TIP3     H2       HT       0.417000       1.00800           0
     74890 TIP3     17482    TIP3     OH2      OT      -0.834000       15.9994           0
     74891 TIP3     17482    TIP3     H1       HT       0.417000       1.00800           0
     74892 TIP3     17482    TIP3     H2       HT       0.417000       1.00800           0
     74893 TIP3     17483    TIP3     OH2      OT      -0.834000       15.9994           0
     74894 TIP3     17483    TIP3     H1       HT       0.417000       1.00800           0
     74895 TIP3     17483    TIP3     H2       HT       0.417000       1.00800           0
     74896 TIP3     17484    TIP3     OH2      OT      -0.834000       15.9994           0
     74897 TIP3     17484    TIP3     H1       HT       0.417000       1.00800           0
     74898 TIP3     17484    TIP3     H2       HT       0.417000       1.00800           0
     74899 TIP3     17485    TIP3     OH2      OT      -0.834000       15.9994           0
     74900 TIP3     17485    TIP3     H1       HT       0.417000       1.00800           0
     74901 TIP3     17485    TIP3     H2       HT       0.417000       1.00800           0
     74902 TIP3     17486    TIP3     OH2      OT      -0.834000       15.9994           0
     74903 TIP3     17486    TIP3     H1       HT       0.417000       1.00800           0
     74904 TIP3     17486    TIP3     H2       HT       0.417000       1.00800           0
     74905 TIP3     17487    TIP3     OH2      OT      -0.834000       15.9994           0
     74906 TIP3     17487    TIP3     H1       HT       0.417000       1.00800           0
     74907 TIP3     17487    TIP3     H2       HT       0.417000       1.00800           0
     74908 TIP3     17488    TIP3     OH2      OT      -0.834000       15.9994           0
     74909 TIP3     17488    TIP3     H1       HT       0.417000       1.00800           0
     74910 TIP3     17488    TIP3     H2       HT       0.417000       1.00800           0
     74911 TIP3     17489    TIP3     OH2      OT      -0.834000       15.9994           0
     74912 TIP3     17489    TIP3     H1       HT       0.417000       1.00800           0
     74913 TIP3     17489    TIP3     H2       HT       0.417000       1.00800           0
     74914 TIP3     17490    TIP3     OH2      OT      -0.834000       15.9994           0
     74915 TIP3     17490    TIP3     H1       HT       0.417000       1.00800           0
     74916 TIP3     17490    TIP3     H2       HT       0.417000       1.00800           0
     74917 TIP3     17491    TIP3     OH2      OT      -0.834000       15.9994           0
     74918 TIP3     17491    TIP3     H1       HT       0.417000       1.00800           0
     74919 TIP3     17491    TIP3     H2       HT       0.417000       1.00800           0
     74920 TIP3     17492    TIP3     OH2      OT      -0.834000       15.9994           0
     74921 TIP3     17492    TIP3     H1       HT       0.417000       1.00800           0
     74922 TIP3     17492    TIP3     H2       HT       0.417000       1.00800           0
     74923 TIP3     17493    TIP3     OH2      OT      -0.834000       15.9994           0
     74924 TIP3     17493    TIP3     H1       HT       0.417000       1.00800           0
     74925 TIP3     17493    TIP3     H2       HT       0.417000       1.00800           0
     74926 TIP3     17494    TIP3     OH2      OT      -0.834000       15.9994           0
     74927 TIP3     17494    TIP3     H1       HT       0.417000       1.00800           0
     74928 TIP3     17494    TIP3     H2       HT       0.417000       1.00800           0
     74929 TIP3     17495    TIP3     OH2      OT      -0.834000       15.9994           0
     74930 TIP3     17495    TIP3     H1       HT       0.417000       1.00800           0
     74931 TIP3     17495    TIP3     H2       HT       0.417000       1.00800           0
     74932 TIP3     17496    TIP3     OH2      OT      -0.834000       15.9994           0
     74933 TIP3     17496    TIP3     H1       HT       0.417000       1.00800           0
     74934 TIP3     17496    TIP3     H2       HT       0.417000       1.00800           0
     74935 TIP3     17497    TIP3     OH2      OT      -0.834000       15.9994           0
     74936 TIP3     17497    TIP3     H1       HT       0.417000       1.00800           0
     74937 TIP3     17497    TIP3     H2       HT       0.417000       1.00800           0
     74938 TIP3     17498    TIP3     OH2      OT      -0.834000       15.9994           0
     74939 TIP3     17498    TIP3     H1       HT       0.417000       1.00800           0
     74940 TIP3     17498    TIP3     H2       HT       0.417000       1.00800           0
     74941 TIP3     17499    TIP3     OH2      OT      -0.834000       15.9994           0
     74942 TIP3     17499    TIP3     H1       HT       0.417000       1.00800           0
     74943 TIP3     17499    TIP3     H2       HT       0.417000       1.00800           0
     74944 TIP3     17500    TIP3     OH2      OT      -0.834000       15.9994           0
     74945 TIP3     17500    TIP3     H1       HT       0.417000       1.00800           0
     74946 TIP3     17500    TIP3     H2       HT       0.417000       1.00800           0
     74947 TIP3     17501    TIP3     OH2      OT      -0.834000       15.9994           0
     74948 TIP3     17501    TIP3     H1       HT       0.417000       1.00800           0
     74949 TIP3     17501    TIP3     H2       HT       0.417000       1.00800           0
     74950 TIP3     17502    TIP3     OH2      OT      -0.834000       15.9994           0
     74951 TIP3     17502    TIP3     H1       HT       0.417000       1.00800           0
     74952 TIP3     17502    TIP3     H2       HT       0.417000       1.00800           0
     74953 TIP3     17503    TIP3     OH2      OT      -0.834000       15.9994           0
     74954 TIP3     17503    TIP3     H1       HT       0.417000       1.00800           0
     74955 TIP3     17503    TIP3     H2       HT       0.417000       1.00800           0
     74956 TIP3     17504    TIP3     OH2      OT      -0.834000       15.9994           0
     74957 TIP3     17504    TIP3     H1       HT       0.417000       1.00800           0
     74958 TIP3     17504    TIP3     H2       HT       0.417000       1.00800           0
     74959 TIP3     17505    TIP3     OH2      OT      -0.834000       15.9994           0
     74960 TIP3     17505    TIP3     H1       HT       0.417000       1.00800           0
     74961 TIP3     17505    TIP3     H2       HT       0.417000       1.00800           0
     74962 TIP3     17506    TIP3     OH2      OT      -0.834000       15.9994           0
     74963 TIP3     17506    TIP3     H1       HT       0.417000       1.00800           0
     74964 TIP3     17506    TIP3     H2       HT       0.417000       1.00800           0
     74965 TIP3     17507    TIP3     OH2      OT      -0.834000       15.9994           0
     74966 TIP3     17507    TIP3     H1       HT       0.417000       1.00800           0
     74967 TIP3     17507    TIP3     H2       HT       0.417000       1.00800           0
     74968 TIP3     17508    TIP3     OH2      OT      -0.834000       15.9994           0
     74969 TIP3     17508    TIP3     H1       HT       0.417000       1.00800           0
     74970 TIP3     17508    TIP3     H2       HT       0.417000       1.00800           0
     74971 TIP3     17509    TIP3     OH2      OT      -0.834000       15.9994           0
     74972 TIP3     17509    TIP3     H1       HT       0.417000       1.00800           0
     74973 TIP3     17509    TIP3     H2       HT       0.417000       1.00800           0
     74974 TIP3     17510    TIP3     OH2      OT      -0.834000       15.9994           0
     74975 TIP3     17510    TIP3     H1       HT       0.417000       1.00800           0
     74976 TIP3     17510    TIP3     H2       HT       0.417000       1.00800           0
     74977 TIP3     17511    TIP3     OH2      OT      -0.834000       15.9994           0
     74978 TIP3     17511    TIP3     H1       HT       0.417000       1.00800           0
     74979 TIP3     17511    TIP3     H2       HT       0.417000       1.00800           0
     74980 TIP3     17512    TIP3     OH2      OT      -0.834000       15.9994           0
     74981 TIP3     17512    TIP3     H1       HT       0.417000       1.00800           0
     74982 TIP3     17512    TIP3     H2       HT       0.417000       1.00800           0
     74983 TIP3     17513    TIP3     OH2      OT      -0.834000       15.9994           0
     74984 TIP3     17513    TIP3     H1       HT       0.417000       1.00800           0
     74985 TIP3     17513    TIP3     H2       HT       0.417000       1.00800           0
     74986 TIP3     17514    TIP3     OH2      OT      -0.834000       15.9994           0
     74987 TIP3     17514    TIP3     H1       HT       0.417000       1.00800           0
     74988 TIP3     17514    TIP3     H2       HT       0.417000       1.00800           0
     74989 TIP3     17515    TIP3     OH2      OT      -0.834000       15.9994           0
     74990 TIP3     17515    TIP3     H1       HT       0.417000       1.00800           0
     74991 TIP3     17515    TIP3     H2       HT       0.417000       1.00800           0
     74992 TIP3     17516    TIP3     OH2      OT      -0.834000       15.9994           0
     74993 TIP3     17516    TIP3     H1       HT       0.417000       1.00800           0
     74994 TIP3     17516    TIP3     H2       HT       0.417000       1.00800           0
     74995 TIP3     17517    TIP3     OH2      OT      -0.834000       15.9994           0
     74996 TIP3     17517    TIP3     H1       HT       0.417000       1.00800           0
     74997 TIP3     17517    TIP3     H2       HT       0.417000       1.00800           0
     74998 TIP3     17518    TIP3     OH2      OT      -0.834000       15.9994           0
     74999 TIP3     17518    TIP3     H1       HT       0.417000       1.00800           0
     75000 TIP3     17518    TIP3     H2       HT       0.417000       1.00800           0
     75001 TIP3     17519    TIP3     OH2      OT      -0.834000       15.9994           0
     75002 TIP3     17519    TIP3     H1       HT       0.417000       1.00800           0
     75003 TIP3     17519    TIP3     H2       HT       0.417000       1.00800           0
     75004 TIP3     17520    TIP3     OH2      OT      -0.834000       15.9994           0
     75005 TIP3     17520    TIP3     H1       HT       0.417000       1.00800           0
     75006 TIP3     17520    TIP3     H2       HT       0.417000       1.00800           0
     75007 TIP3     17521    TIP3     OH2      OT      -0.834000       15.9994           0
     75008 TIP3     17521    TIP3     H1       HT       0.417000       1.00800           0
     75009 TIP3     17521    TIP3     H2       HT       0.417000       1.00800           0
     75010 TIP3     17522    TIP3     OH2      OT      -0.834000       15.9994           0
     75011 TIP3     17522    TIP3     H1       HT       0.417000       1.00800           0
     75012 TIP3     17522    TIP3     H2       HT       0.417000       1.00800           0
     75013 TIP3     17523    TIP3     OH2      OT      -0.834000       15.9994           0
     75014 TIP3     17523    TIP3     H1       HT       0.417000       1.00800           0
     75015 TIP3     17523    TIP3     H2       HT       0.417000       1.00800           0
     75016 TIP3     17524    TIP3     OH2      OT      -0.834000       15.9994           0
     75017 TIP3     17524    TIP3     H1       HT       0.417000       1.00800           0
     75018 TIP3     17524    TIP3     H2       HT       0.417000       1.00800           0
     75019 TIP3     17525    TIP3     OH2      OT      -0.834000       15.9994           0
     75020 TIP3     17525    TIP3     H1       HT       0.417000       1.00800           0
     75021 TIP3     17525    TIP3     H2       HT       0.417000       1.00800           0
     75022 TIP3     17526    TIP3     OH2      OT      -0.834000       15.9994           0
     75023 TIP3     17526    TIP3     H1       HT       0.417000       1.00800           0
     75024 TIP3     17526    TIP3     H2       HT       0.417000       1.00800           0
     75025 TIP3     17527    TIP3     OH2      OT      -0.834000       15.9994           0
     75026 TIP3     17527    TIP3     H1       HT       0.417000       1.00800           0
     75027 TIP3     17527    TIP3     H2       HT       0.417000       1.00800           0
     75028 TIP3     17528    TIP3     OH2      OT      -0.834000       15.9994           0
     75029 TIP3     17528    TIP3     H1       HT       0.417000       1.00800           0
     75030 TIP3     17528    TIP3     H2       HT       0.417000       1.00800           0
     75031 TIP3     17529    TIP3     OH2      OT      -0.834000       15.9994           0
     75032 TIP3     17529    TIP3     H1       HT       0.417000       1.00800           0
     75033 TIP3     17529    TIP3     H2       HT       0.417000       1.00800           0
     75034 TIP3     17530    TIP3     OH2      OT      -0.834000       15.9994           0
     75035 TIP3     17530    TIP3     H1       HT       0.417000       1.00800           0
     75036 TIP3     17530    TIP3     H2       HT       0.417000       1.00800           0
     75037 TIP3     17531    TIP3     OH2      OT      -0.834000       15.9994           0
     75038 TIP3     17531    TIP3     H1       HT       0.417000       1.00800           0
     75039 TIP3     17531    TIP3     H2       HT       0.417000       1.00800           0
     75040 TIP3     17532    TIP3     OH2      OT      -0.834000       15.9994           0
     75041 TIP3     17532    TIP3     H1       HT       0.417000       1.00800           0
     75042 TIP3     17532    TIP3     H2       HT       0.417000       1.00800           0
     75043 TIP3     17533    TIP3     OH2      OT      -0.834000       15.9994           0
     75044 TIP3     17533    TIP3     H1       HT       0.417000       1.00800           0
     75045 TIP3     17533    TIP3     H2       HT       0.417000       1.00800           0
     75046 TIP3     17534    TIP3     OH2      OT      -0.834000       15.9994           0
     75047 TIP3     17534    TIP3     H1       HT       0.417000       1.00800           0
     75048 TIP3     17534    TIP3     H2       HT       0.417000       1.00800           0
     75049 TIP3     17535    TIP3     OH2      OT      -0.834000       15.9994           0
     75050 TIP3     17535    TIP3     H1       HT       0.417000       1.00800           0
     75051 TIP3     17535    TIP3     H2       HT       0.417000       1.00800           0
     75052 TIP3     17536    TIP3     OH2      OT      -0.834000       15.9994           0
     75053 TIP3     17536    TIP3     H1       HT       0.417000       1.00800           0
     75054 TIP3     17536    TIP3     H2       HT       0.417000       1.00800           0
     75055 TIP3     17537    TIP3     OH2      OT      -0.834000       15.9994           0
     75056 TIP3     17537    TIP3     H1       HT       0.417000       1.00800           0
     75057 TIP3     17537    TIP3     H2       HT       0.417000       1.00800           0
     75058 TIP3     17538    TIP3     OH2      OT      -0.834000       15.9994           0
     75059 TIP3     17538    TIP3     H1       HT       0.417000       1.00800           0
     75060 TIP3     17538    TIP3     H2       HT       0.417000       1.00800           0
     75061 TIP3     17539    TIP3     OH2      OT      -0.834000       15.9994           0
     75062 TIP3     17539    TIP3     H1       HT       0.417000       1.00800           0
     75063 TIP3     17539    TIP3     H2       HT       0.417000       1.00800           0
     75064 TIP3     17540    TIP3     OH2      OT      -0.834000       15.9994           0
     75065 TIP3     17540    TIP3     H1       HT       0.417000       1.00800           0
     75066 TIP3     17540    TIP3     H2       HT       0.417000       1.00800           0
     75067 TIP3     17541    TIP3     OH2      OT      -0.834000       15.9994           0
     75068 TIP3     17541    TIP3     H1       HT       0.417000       1.00800           0
     75069 TIP3     17541    TIP3     H2       HT       0.417000       1.00800           0
     75070 TIP3     17542    TIP3     OH2      OT      -0.834000       15.9994           0
     75071 TIP3     17542    TIP3     H1       HT       0.417000       1.00800           0
     75072 TIP3     17542    TIP3     H2       HT       0.417000       1.00800           0
     75073 TIP3     17543    TIP3     OH2      OT      -0.834000       15.9994           0
     75074 TIP3     17543    TIP3     H1       HT       0.417000       1.00800           0
     75075 TIP3     17543    TIP3     H2       HT       0.417000       1.00800           0
     75076 TIP3     17544    TIP3     OH2      OT      -0.834000       15.9994           0
     75077 TIP3     17544    TIP3     H1       HT       0.417000       1.00800           0
     75078 TIP3     17544    TIP3     H2       HT       0.417000       1.00800           0
     75079 TIP3     17545    TIP3     OH2      OT      -0.834000       15.9994           0
     75080 TIP3     17545    TIP3     H1       HT       0.417000       1.00800           0
     75081 TIP3     17545    TIP3     H2       HT       0.417000       1.00800           0
     75082 TIP3     17546    TIP3     OH2      OT      -0.834000       15.9994           0
     75083 TIP3     17546    TIP3     H1       HT       0.417000       1.00800           0
     75084 TIP3     17546    TIP3     H2       HT       0.417000       1.00800           0
     75085 TIP3     17547    TIP3     OH2      OT      -0.834000       15.9994           0
     75086 TIP3     17547    TIP3     H1       HT       0.417000       1.00800           0
     75087 TIP3     17547    TIP3     H2       HT       0.417000       1.00800           0
     75088 TIP3     17548    TIP3     OH2      OT      -0.834000       15.9994           0
     75089 TIP3     17548    TIP3     H1       HT       0.417000       1.00800           0
     75090 TIP3     17548    TIP3     H2       HT       0.417000       1.00800           0
     75091 TIP3     17549    TIP3     OH2      OT      -0.834000       15.9994           0
     75092 TIP3     17549    TIP3     H1       HT       0.417000       1.00800           0
     75093 TIP3     17549    TIP3     H2       HT       0.417000       1.00800           0
     75094 TIP3     17550    TIP3     OH2      OT      -0.834000       15.9994           0
     75095 TIP3     17550    TIP3     H1       HT       0.417000       1.00800           0
     75096 TIP3     17550    TIP3     H2       HT       0.417000       1.00800           0
     75097 TIP3     17551    TIP3     OH2      OT      -0.834000       15.9994           0
     75098 TIP3     17551    TIP3     H1       HT       0.417000       1.00800           0
     75099 TIP3     17551    TIP3     H2       HT       0.417000       1.00800           0
     75100 TIP3     17552    TIP3     OH2      OT      -0.834000       15.9994           0
     75101 TIP3     17552    TIP3     H1       HT       0.417000       1.00800           0
     75102 TIP3     17552    TIP3     H2       HT       0.417000       1.00800           0
     75103 TIP3     17553    TIP3     OH2      OT      -0.834000       15.9994           0
     75104 TIP3     17553    TIP3     H1       HT       0.417000       1.00800           0
     75105 TIP3     17553    TIP3     H2       HT       0.417000       1.00800           0
     75106 TIP3     17554    TIP3     OH2      OT      -0.834000       15.9994           0
     75107 TIP3     17554    TIP3     H1       HT       0.417000       1.00800           0
     75108 TIP3     17554    TIP3     H2       HT       0.417000       1.00800           0
     75109 TIP3     17555    TIP3     OH2      OT      -0.834000       15.9994           0
     75110 TIP3     17555    TIP3     H1       HT       0.417000       1.00800           0
     75111 TIP3     17555    TIP3     H2       HT       0.417000       1.00800           0
     75112 TIP3     17556    TIP3     OH2      OT      -0.834000       15.9994           0
     75113 TIP3     17556    TIP3     H1       HT       0.417000       1.00800           0
     75114 TIP3     17556    TIP3     H2       HT       0.417000       1.00800           0
     75115 TIP3     17557    TIP3     OH2      OT      -0.834000       15.9994           0
     75116 TIP3     17557    TIP3     H1       HT       0.417000       1.00800           0
     75117 TIP3     17557    TIP3     H2       HT       0.417000       1.00800           0
     75118 TIP3     17558    TIP3     OH2      OT      -0.834000       15.9994           0
     75119 TIP3     17558    TIP3     H1       HT       0.417000       1.00800           0
     75120 TIP3     17558    TIP3     H2       HT       0.417000       1.00800           0
     75121 TIP3     17559    TIP3     OH2      OT      -0.834000       15.9994           0
     75122 TIP3     17559    TIP3     H1       HT       0.417000       1.00800           0
     75123 TIP3     17559    TIP3     H2       HT       0.417000       1.00800           0
     75124 TIP3     17560    TIP3     OH2      OT      -0.834000       15.9994           0
     75125 TIP3     17560    TIP3     H1       HT       0.417000       1.00800           0
     75126 TIP3     17560    TIP3     H2       HT       0.417000       1.00800           0
     75127 TIP3     17561    TIP3     OH2      OT      -0.834000       15.9994           0
     75128 TIP3     17561    TIP3     H1       HT       0.417000       1.00800           0
     75129 TIP3     17561    TIP3     H2       HT       0.417000       1.00800           0
     75130 TIP3     17562    TIP3     OH2      OT      -0.834000       15.9994           0
     75131 TIP3     17562    TIP3     H1       HT       0.417000       1.00800           0
     75132 TIP3     17562    TIP3     H2       HT       0.417000       1.00800           0
     75133 TIP3     17563    TIP3     OH2      OT      -0.834000       15.9994           0
     75134 TIP3     17563    TIP3     H1       HT       0.417000       1.00800           0
     75135 TIP3     17563    TIP3     H2       HT       0.417000       1.00800           0
     75136 TIP3     17564    TIP3     OH2      OT      -0.834000       15.9994           0
     75137 TIP3     17564    TIP3     H1       HT       0.417000       1.00800           0
     75138 TIP3     17564    TIP3     H2       HT       0.417000       1.00800           0
     75139 TIP3     17565    TIP3     OH2      OT      -0.834000       15.9994           0
     75140 TIP3     17565    TIP3     H1       HT       0.417000       1.00800           0
     75141 TIP3     17565    TIP3     H2       HT       0.417000       1.00800           0
     75142 TIP3     17566    TIP3     OH2      OT      -0.834000       15.9994           0
     75143 TIP3     17566    TIP3     H1       HT       0.417000       1.00800           0
     75144 TIP3     17566    TIP3     H2       HT       0.417000       1.00800           0
     75145 TIP3     17567    TIP3     OH2      OT      -0.834000       15.9994           0
     75146 TIP3     17567    TIP3     H1       HT       0.417000       1.00800           0
     75147 TIP3     17567    TIP3     H2       HT       0.417000       1.00800           0
     75148 TIP3     17568    TIP3     OH2      OT      -0.834000       15.9994           0
     75149 TIP3     17568    TIP3     H1       HT       0.417000       1.00800           0
     75150 TIP3     17568    TIP3     H2       HT       0.417000       1.00800           0
     75151 TIP3     17569    TIP3     OH2      OT      -0.834000       15.9994           0
     75152 TIP3     17569    TIP3     H1       HT       0.417000       1.00800           0
     75153 TIP3     17569    TIP3     H2       HT       0.417000       1.00800           0
     75154 TIP3     17570    TIP3     OH2      OT      -0.834000       15.9994           0
     75155 TIP3     17570    TIP3     H1       HT       0.417000       1.00800           0
     75156 TIP3     17570    TIP3     H2       HT       0.417000       1.00800           0
     75157 TIP3     17571    TIP3     OH2      OT      -0.834000       15.9994           0
     75158 TIP3     17571    TIP3     H1       HT       0.417000       1.00800           0
     75159 TIP3     17571    TIP3     H2       HT       0.417000       1.00800           0
     75160 TIP3     17572    TIP3     OH2      OT      -0.834000       15.9994           0
     75161 TIP3     17572    TIP3     H1       HT       0.417000       1.00800           0
     75162 TIP3     17572    TIP3     H2       HT       0.417000       1.00800           0
     75163 TIP3     17573    TIP3     OH2      OT      -0.834000       15.9994           0
     75164 TIP3     17573    TIP3     H1       HT       0.417000       1.00800           0
     75165 TIP3     17573    TIP3     H2       HT       0.417000       1.00800           0
     75166 TIP3     17574    TIP3     OH2      OT      -0.834000       15.9994           0
     75167 TIP3     17574    TIP3     H1       HT       0.417000       1.00800           0
     75168 TIP3     17574    TIP3     H2       HT       0.417000       1.00800           0
     75169 TIP3     17575    TIP3     OH2      OT      -0.834000       15.9994           0
     75170 TIP3     17575    TIP3     H1       HT       0.417000       1.00800           0
     75171 TIP3     17575    TIP3     H2       HT       0.417000       1.00800           0
     75172 TIP3     17576    TIP3     OH2      OT      -0.834000       15.9994           0
     75173 TIP3     17576    TIP3     H1       HT       0.417000       1.00800           0
     75174 TIP3     17576    TIP3     H2       HT       0.417000       1.00800           0
     75175 TIP3     17577    TIP3     OH2      OT      -0.834000       15.9994           0
     75176 TIP3     17577    TIP3     H1       HT       0.417000       1.00800           0
     75177 TIP3     17577    TIP3     H2       HT       0.417000       1.00800           0
     75178 TIP3     17578    TIP3     OH2      OT      -0.834000       15.9994           0
     75179 TIP3     17578    TIP3     H1       HT       0.417000       1.00800           0
     75180 TIP3     17578    TIP3     H2       HT       0.417000       1.00800           0
     75181 TIP3     17579    TIP3     OH2      OT      -0.834000       15.9994           0
     75182 TIP3     17579    TIP3     H1       HT       0.417000       1.00800           0
     75183 TIP3     17579    TIP3     H2       HT       0.417000       1.00800           0
     75184 TIP3     17580    TIP3     OH2      OT      -0.834000       15.9994           0
     75185 TIP3     17580    TIP3     H1       HT       0.417000       1.00800           0
     75186 TIP3     17580    TIP3     H2       HT       0.417000       1.00800           0
     75187 TIP3     17581    TIP3     OH2      OT      -0.834000       15.9994           0
     75188 TIP3     17581    TIP3     H1       HT       0.417000       1.00800           0
     75189 TIP3     17581    TIP3     H2       HT       0.417000       1.00800           0
     75190 TIP3     17582    TIP3     OH2      OT      -0.834000       15.9994           0
     75191 TIP3     17582    TIP3     H1       HT       0.417000       1.00800           0
     75192 TIP3     17582    TIP3     H2       HT       0.417000       1.00800           0
     75193 TIP3     17583    TIP3     OH2      OT      -0.834000       15.9994           0
     75194 TIP3     17583    TIP3     H1       HT       0.417000       1.00800           0
     75195 TIP3     17583    TIP3     H2       HT       0.417000       1.00800           0
     75196 TIP3     17584    TIP3     OH2      OT      -0.834000       15.9994           0
     75197 TIP3     17584    TIP3     H1       HT       0.417000       1.00800           0
     75198 TIP3     17584    TIP3     H2       HT       0.417000       1.00800           0
     75199 TIP3     17585    TIP3     OH2      OT      -0.834000       15.9994           0
     75200 TIP3     17585    TIP3     H1       HT       0.417000       1.00800           0
     75201 TIP3     17585    TIP3     H2       HT       0.417000       1.00800           0
     75202 TIP3     17586    TIP3     OH2      OT      -0.834000       15.9994           0
     75203 TIP3     17586    TIP3     H1       HT       0.417000       1.00800           0
     75204 TIP3     17586    TIP3     H2       HT       0.417000       1.00800           0
     75205 TIP3     17587    TIP3     OH2      OT      -0.834000       15.9994           0
     75206 TIP3     17587    TIP3     H1       HT       0.417000       1.00800           0
     75207 TIP3     17587    TIP3     H2       HT       0.417000       1.00800           0
     75208 TIP3     17588    TIP3     OH2      OT      -0.834000       15.9994           0
     75209 TIP3     17588    TIP3     H1       HT       0.417000       1.00800           0
     75210 TIP3     17588    TIP3     H2       HT       0.417000       1.00800           0
     75211 TIP3     17589    TIP3     OH2      OT      -0.834000       15.9994           0
     75212 TIP3     17589    TIP3     H1       HT       0.417000       1.00800           0
     75213 TIP3     17589    TIP3     H2       HT       0.417000       1.00800           0
     75214 TIP3     17590    TIP3     OH2      OT      -0.834000       15.9994           0
     75215 TIP3     17590    TIP3     H1       HT       0.417000       1.00800           0
     75216 TIP3     17590    TIP3     H2       HT       0.417000       1.00800           0
     75217 TIP3     17591    TIP3     OH2      OT      -0.834000       15.9994           0
     75218 TIP3     17591    TIP3     H1       HT       0.417000       1.00800           0
     75219 TIP3     17591    TIP3     H2       HT       0.417000       1.00800           0
     75220 TIP3     17592    TIP3     OH2      OT      -0.834000       15.9994           0
     75221 TIP3     17592    TIP3     H1       HT       0.417000       1.00800           0
     75222 TIP3     17592    TIP3     H2       HT       0.417000       1.00800           0
     75223 TIP3     17593    TIP3     OH2      OT      -0.834000       15.9994           0
     75224 TIP3     17593    TIP3     H1       HT       0.417000       1.00800           0
     75225 TIP3     17593    TIP3     H2       HT       0.417000       1.00800           0
     75226 TIP3     17594    TIP3     OH2      OT      -0.834000       15.9994           0
     75227 TIP3     17594    TIP3     H1       HT       0.417000       1.00800           0
     75228 TIP3     17594    TIP3     H2       HT       0.417000       1.00800           0
     75229 TIP3     17595    TIP3     OH2      OT      -0.834000       15.9994           0
     75230 TIP3     17595    TIP3     H1       HT       0.417000       1.00800           0
     75231 TIP3     17595    TIP3     H2       HT       0.417000       1.00800           0
     75232 TIP3     17596    TIP3     OH2      OT      -0.834000       15.9994           0
     75233 TIP3     17596    TIP3     H1       HT       0.417000       1.00800           0
     75234 TIP3     17596    TIP3     H2       HT       0.417000       1.00800           0
     75235 TIP3     17597    TIP3     OH2      OT      -0.834000       15.9994           0
     75236 TIP3     17597    TIP3     H1       HT       0.417000       1.00800           0
     75237 TIP3     17597    TIP3     H2       HT       0.417000       1.00800           0
     75238 TIP3     17598    TIP3     OH2      OT      -0.834000       15.9994           0
     75239 TIP3     17598    TIP3     H1       HT       0.417000       1.00800           0
     75240 TIP3     17598    TIP3     H2       HT       0.417000       1.00800           0
     75241 TIP3     17599    TIP3     OH2      OT      -0.834000       15.9994           0
     75242 TIP3     17599    TIP3     H1       HT       0.417000       1.00800           0
     75243 TIP3     17599    TIP3     H2       HT       0.417000       1.00800           0
     75244 TIP3     17600    TIP3     OH2      OT      -0.834000       15.9994           0
     75245 TIP3     17600    TIP3     H1       HT       0.417000       1.00800           0
     75246 TIP3     17600    TIP3     H2       HT       0.417000       1.00800           0
     75247 TIP3     17601    TIP3     OH2      OT      -0.834000       15.9994           0
     75248 TIP3     17601    TIP3     H1       HT       0.417000       1.00800           0
     75249 TIP3     17601    TIP3     H2       HT       0.417000       1.00800           0
     75250 TIP3     17602    TIP3     OH2      OT      -0.834000       15.9994           0
     75251 TIP3     17602    TIP3     H1       HT       0.417000       1.00800           0
     75252 TIP3     17602    TIP3     H2       HT       0.417000       1.00800           0
     75253 TIP3     17603    TIP3     OH2      OT      -0.834000       15.9994           0
     75254 TIP3     17603    TIP3     H1       HT       0.417000       1.00800           0
     75255 TIP3     17603    TIP3     H2       HT       0.417000       1.00800           0
     75256 TIP3     17604    TIP3     OH2      OT      -0.834000       15.9994           0
     75257 TIP3     17604    TIP3     H1       HT       0.417000       1.00800           0
     75258 TIP3     17604    TIP3     H2       HT       0.417000       1.00800           0
     75259 TIP3     17605    TIP3     OH2      OT      -0.834000       15.9994           0
     75260 TIP3     17605    TIP3     H1       HT       0.417000       1.00800           0
     75261 TIP3     17605    TIP3     H2       HT       0.417000       1.00800           0
     75262 TIP3     17606    TIP3     OH2      OT      -0.834000       15.9994           0
     75263 TIP3     17606    TIP3     H1       HT       0.417000       1.00800           0
     75264 TIP3     17606    TIP3     H2       HT       0.417000       1.00800           0
     75265 TIP3     17607    TIP3     OH2      OT      -0.834000       15.9994           0
     75266 TIP3     17607    TIP3     H1       HT       0.417000       1.00800           0
     75267 TIP3     17607    TIP3     H2       HT       0.417000       1.00800           0
     75268 TIP3     17608    TIP3     OH2      OT      -0.834000       15.9994           0
     75269 TIP3     17608    TIP3     H1       HT       0.417000       1.00800           0
     75270 TIP3     17608    TIP3     H2       HT       0.417000       1.00800           0
     75271 TIP3     17609    TIP3     OH2      OT      -0.834000       15.9994           0
     75272 TIP3     17609    TIP3     H1       HT       0.417000       1.00800           0
     75273 TIP3     17609    TIP3     H2       HT       0.417000       1.00800           0
     75274 TIP3     17610    TIP3     OH2      OT      -0.834000       15.9994           0
     75275 TIP3     17610    TIP3     H1       HT       0.417000       1.00800           0
     75276 TIP3     17610    TIP3     H2       HT       0.417000       1.00800           0
     75277 TIP3     17611    TIP3     OH2      OT      -0.834000       15.9994           0
     75278 TIP3     17611    TIP3     H1       HT       0.417000       1.00800           0
     75279 TIP3     17611    TIP3     H2       HT       0.417000       1.00800           0
     75280 TIP3     17612    TIP3     OH2      OT      -0.834000       15.9994           0
     75281 TIP3     17612    TIP3     H1       HT       0.417000       1.00800           0
     75282 TIP3     17612    TIP3     H2       HT       0.417000       1.00800           0
     75283 TIP3     17613    TIP3     OH2      OT      -0.834000       15.9994           0
     75284 TIP3     17613    TIP3     H1       HT       0.417000       1.00800           0
     75285 TIP3     17613    TIP3     H2       HT       0.417000       1.00800           0
     75286 TIP3     17614    TIP3     OH2      OT      -0.834000       15.9994           0
     75287 TIP3     17614    TIP3     H1       HT       0.417000       1.00800           0
     75288 TIP3     17614    TIP3     H2       HT       0.417000       1.00800           0
     75289 TIP3     17615    TIP3     OH2      OT      -0.834000       15.9994           0
     75290 TIP3     17615    TIP3     H1       HT       0.417000       1.00800           0
     75291 TIP3     17615    TIP3     H2       HT       0.417000       1.00800           0
     75292 TIP3     17616    TIP3     OH2      OT      -0.834000       15.9994           0
     75293 TIP3     17616    TIP3     H1       HT       0.417000       1.00800           0
     75294 TIP3     17616    TIP3     H2       HT       0.417000       1.00800           0
     75295 TIP3     17617    TIP3     OH2      OT      -0.834000       15.9994           0
     75296 TIP3     17617    TIP3     H1       HT       0.417000       1.00800           0
     75297 TIP3     17617    TIP3     H2       HT       0.417000       1.00800           0
     75298 TIP3     17618    TIP3     OH2      OT      -0.834000       15.9994           0
     75299 TIP3     17618    TIP3     H1       HT       0.417000       1.00800           0
     75300 TIP3     17618    TIP3     H2       HT       0.417000       1.00800           0
     75301 TIP3     17619    TIP3     OH2      OT      -0.834000       15.9994           0
     75302 TIP3     17619    TIP3     H1       HT       0.417000       1.00800           0
     75303 TIP3     17619    TIP3     H2       HT       0.417000       1.00800           0
     75304 TIP3     17620    TIP3     OH2      OT      -0.834000       15.9994           0
     75305 TIP3     17620    TIP3     H1       HT       0.417000       1.00800           0
     75306 TIP3     17620    TIP3     H2       HT       0.417000       1.00800           0
     75307 TIP3     17621    TIP3     OH2      OT      -0.834000       15.9994           0
     75308 TIP3     17621    TIP3     H1       HT       0.417000       1.00800           0
     75309 TIP3     17621    TIP3     H2       HT       0.417000       1.00800           0
     75310 TIP3     17622    TIP3     OH2      OT      -0.834000       15.9994           0
     75311 TIP3     17622    TIP3     H1       HT       0.417000       1.00800           0
     75312 TIP3     17622    TIP3     H2       HT       0.417000       1.00800           0
     75313 TIP3     17623    TIP3     OH2      OT      -0.834000       15.9994           0
     75314 TIP3     17623    TIP3     H1       HT       0.417000       1.00800           0
     75315 TIP3     17623    TIP3     H2       HT       0.417000       1.00800           0
     75316 TIP3     17624    TIP3     OH2      OT      -0.834000       15.9994           0
     75317 TIP3     17624    TIP3     H1       HT       0.417000       1.00800           0
     75318 TIP3     17624    TIP3     H2       HT       0.417000       1.00800           0
     75319 TIP3     17625    TIP3     OH2      OT      -0.834000       15.9994           0
     75320 TIP3     17625    TIP3     H1       HT       0.417000       1.00800           0
     75321 TIP3     17625    TIP3     H2       HT       0.417000       1.00800           0
     75322 TIP3     17626    TIP3     OH2      OT      -0.834000       15.9994           0
     75323 TIP3     17626    TIP3     H1       HT       0.417000       1.00800           0
     75324 TIP3     17626    TIP3     H2       HT       0.417000       1.00800           0
     75325 TIP3     17627    TIP3     OH2      OT      -0.834000       15.9994           0
     75326 TIP3     17627    TIP3     H1       HT       0.417000       1.00800           0
     75327 TIP3     17627    TIP3     H2       HT       0.417000       1.00800           0
     75328 TIP3     17628    TIP3     OH2      OT      -0.834000       15.9994           0
     75329 TIP3     17628    TIP3     H1       HT       0.417000       1.00800           0
     75330 TIP3     17628    TIP3     H2       HT       0.417000       1.00800           0
     75331 TIP3     17629    TIP3     OH2      OT      -0.834000       15.9994           0
     75332 TIP3     17629    TIP3     H1       HT       0.417000       1.00800           0
     75333 TIP3     17629    TIP3     H2       HT       0.417000       1.00800           0
     75334 TIP3     17630    TIP3     OH2      OT      -0.834000       15.9994           0
     75335 TIP3     17630    TIP3     H1       HT       0.417000       1.00800           0
     75336 TIP3     17630    TIP3     H2       HT       0.417000       1.00800           0
     75337 TIP3     17631    TIP3     OH2      OT      -0.834000       15.9994           0
     75338 TIP3     17631    TIP3     H1       HT       0.417000       1.00800           0
     75339 TIP3     17631    TIP3     H2       HT       0.417000       1.00800           0
     75340 TIP3     17632    TIP3     OH2      OT      -0.834000       15.9994           0
     75341 TIP3     17632    TIP3     H1       HT       0.417000       1.00800           0
     75342 TIP3     17632    TIP3     H2       HT       0.417000       1.00800           0
     75343 TIP3     17633    TIP3     OH2      OT      -0.834000       15.9994           0
     75344 TIP3     17633    TIP3     H1       HT       0.417000       1.00800           0
     75345 TIP3     17633    TIP3     H2       HT       0.417000       1.00800           0
     75346 TIP3     17634    TIP3     OH2      OT      -0.834000       15.9994           0
     75347 TIP3     17634    TIP3     H1       HT       0.417000       1.00800           0
     75348 TIP3     17634    TIP3     H2       HT       0.417000       1.00800           0
     75349 TIP3     17635    TIP3     OH2      OT      -0.834000       15.9994           0
     75350 TIP3     17635    TIP3     H1       HT       0.417000       1.00800           0
     75351 TIP3     17635    TIP3     H2       HT       0.417000       1.00800           0
     75352 TIP3     17636    TIP3     OH2      OT      -0.834000       15.9994           0
     75353 TIP3     17636    TIP3     H1       HT       0.417000       1.00800           0
     75354 TIP3     17636    TIP3     H2       HT       0.417000       1.00800           0
     75355 TIP3     17637    TIP3     OH2      OT      -0.834000       15.9994           0
     75356 TIP3     17637    TIP3     H1       HT       0.417000       1.00800           0
     75357 TIP3     17637    TIP3     H2       HT       0.417000       1.00800           0
     75358 TIP3     17638    TIP3     OH2      OT      -0.834000       15.9994           0
     75359 TIP3     17638    TIP3     H1       HT       0.417000       1.00800           0
     75360 TIP3     17638    TIP3     H2       HT       0.417000       1.00800           0
     75361 TIP3     17639    TIP3     OH2      OT      -0.834000       15.9994           0
     75362 TIP3     17639    TIP3     H1       HT       0.417000       1.00800           0
     75363 TIP3     17639    TIP3     H2       HT       0.417000       1.00800           0
     75364 TIP3     17640    TIP3     OH2      OT      -0.834000       15.9994           0
     75365 TIP3     17640    TIP3     H1       HT       0.417000       1.00800           0
     75366 TIP3     17640    TIP3     H2       HT       0.417000       1.00800           0
     75367 TIP3     17641    TIP3     OH2      OT      -0.834000       15.9994           0
     75368 TIP3     17641    TIP3     H1       HT       0.417000       1.00800           0
     75369 TIP3     17641    TIP3     H2       HT       0.417000       1.00800           0
     75370 TIP3     17642    TIP3     OH2      OT      -0.834000       15.9994           0
     75371 TIP3     17642    TIP3     H1       HT       0.417000       1.00800           0
     75372 TIP3     17642    TIP3     H2       HT       0.417000       1.00800           0
     75373 TIP3     17643    TIP3     OH2      OT      -0.834000       15.9994           0
     75374 TIP3     17643    TIP3     H1       HT       0.417000       1.00800           0
     75375 TIP3     17643    TIP3     H2       HT       0.417000       1.00800           0
     75376 TIP3     17644    TIP3     OH2      OT      -0.834000       15.9994           0
     75377 TIP3     17644    TIP3     H1       HT       0.417000       1.00800           0
     75378 TIP3     17644    TIP3     H2       HT       0.417000       1.00800           0
     75379 TIP3     17645    TIP3     OH2      OT      -0.834000       15.9994           0
     75380 TIP3     17645    TIP3     H1       HT       0.417000       1.00800           0
     75381 TIP3     17645    TIP3     H2       HT       0.417000       1.00800           0
     75382 TIP3     17646    TIP3     OH2      OT      -0.834000       15.9994           0
     75383 TIP3     17646    TIP3     H1       HT       0.417000       1.00800           0
     75384 TIP3     17646    TIP3     H2       HT       0.417000       1.00800           0
     75385 TIP3     17647    TIP3     OH2      OT      -0.834000       15.9994           0
     75386 TIP3     17647    TIP3     H1       HT       0.417000       1.00800           0
     75387 TIP3     17647    TIP3     H2       HT       0.417000       1.00800           0
     75388 TIP3     17648    TIP3     OH2      OT      -0.834000       15.9994           0
     75389 TIP3     17648    TIP3     H1       HT       0.417000       1.00800           0
     75390 TIP3     17648    TIP3     H2       HT       0.417000       1.00800           0
     75391 TIP3     17649    TIP3     OH2      OT      -0.834000       15.9994           0
     75392 TIP3     17649    TIP3     H1       HT       0.417000       1.00800           0
     75393 TIP3     17649    TIP3     H2       HT       0.417000       1.00800           0
     75394 TIP3     17650    TIP3     OH2      OT      -0.834000       15.9994           0
     75395 TIP3     17650    TIP3     H1       HT       0.417000       1.00800           0
     75396 TIP3     17650    TIP3     H2       HT       0.417000       1.00800           0
     75397 TIP3     17651    TIP3     OH2      OT      -0.834000       15.9994           0
     75398 TIP3     17651    TIP3     H1       HT       0.417000       1.00800           0
     75399 TIP3     17651    TIP3     H2       HT       0.417000       1.00800           0
     75400 TIP3     17652    TIP3     OH2      OT      -0.834000       15.9994           0
     75401 TIP3     17652    TIP3     H1       HT       0.417000       1.00800           0
     75402 TIP3     17652    TIP3     H2       HT       0.417000       1.00800           0
     75403 TIP3     17653    TIP3     OH2      OT      -0.834000       15.9994           0
     75404 TIP3     17653    TIP3     H1       HT       0.417000       1.00800           0
     75405 TIP3     17653    TIP3     H2       HT       0.417000       1.00800           0
     75406 TIP3     17654    TIP3     OH2      OT      -0.834000       15.9994           0
     75407 TIP3     17654    TIP3     H1       HT       0.417000       1.00800           0
     75408 TIP3     17654    TIP3     H2       HT       0.417000       1.00800           0
     75409 TIP3     17655    TIP3     OH2      OT      -0.834000       15.9994           0
     75410 TIP3     17655    TIP3     H1       HT       0.417000       1.00800           0
     75411 TIP3     17655    TIP3     H2       HT       0.417000       1.00800           0
     75412 TIP3     17656    TIP3     OH2      OT      -0.834000       15.9994           0
     75413 TIP3     17656    TIP3     H1       HT       0.417000       1.00800           0
     75414 TIP3     17656    TIP3     H2       HT       0.417000       1.00800           0
     75415 TIP3     17657    TIP3     OH2      OT      -0.834000       15.9994           0
     75416 TIP3     17657    TIP3     H1       HT       0.417000       1.00800           0
     75417 TIP3     17657    TIP3     H2       HT       0.417000       1.00800           0
     75418 TIP3     17658    TIP3     OH2      OT      -0.834000       15.9994           0
     75419 TIP3     17658    TIP3     H1       HT       0.417000       1.00800           0
     75420 TIP3     17658    TIP3     H2       HT       0.417000       1.00800           0
     75421 TIP3     17659    TIP3     OH2      OT      -0.834000       15.9994           0
     75422 TIP3     17659    TIP3     H1       HT       0.417000       1.00800           0
     75423 TIP3     17659    TIP3     H2       HT       0.417000       1.00800           0
     75424 TIP3     17660    TIP3     OH2      OT      -0.834000       15.9994           0
     75425 TIP3     17660    TIP3     H1       HT       0.417000       1.00800           0
     75426 TIP3     17660    TIP3     H2       HT       0.417000       1.00800           0
     75427 TIP3     17661    TIP3     OH2      OT      -0.834000       15.9994           0
     75428 TIP3     17661    TIP3     H1       HT       0.417000       1.00800           0
     75429 TIP3     17661    TIP3     H2       HT       0.417000       1.00800           0
     75430 TIP3     17662    TIP3     OH2      OT      -0.834000       15.9994           0
     75431 TIP3     17662    TIP3     H1       HT       0.417000       1.00800           0
     75432 TIP3     17662    TIP3     H2       HT       0.417000       1.00800           0
     75433 TIP3     17663    TIP3     OH2      OT      -0.834000       15.9994           0
     75434 TIP3     17663    TIP3     H1       HT       0.417000       1.00800           0
     75435 TIP3     17663    TIP3     H2       HT       0.417000       1.00800           0
     75436 TIP3     17664    TIP3     OH2      OT      -0.834000       15.9994           0
     75437 TIP3     17664    TIP3     H1       HT       0.417000       1.00800           0
     75438 TIP3     17664    TIP3     H2       HT       0.417000       1.00800           0
     75439 TIP3     17665    TIP3     OH2      OT      -0.834000       15.9994           0
     75440 TIP3     17665    TIP3     H1       HT       0.417000       1.00800           0
     75441 TIP3     17665    TIP3     H2       HT       0.417000       1.00800           0
     75442 TIP3     17666    TIP3     OH2      OT      -0.834000       15.9994           0
     75443 TIP3     17666    TIP3     H1       HT       0.417000       1.00800           0
     75444 TIP3     17666    TIP3     H2       HT       0.417000       1.00800           0
     75445 TIP3     17667    TIP3     OH2      OT      -0.834000       15.9994           0
     75446 TIP3     17667    TIP3     H1       HT       0.417000       1.00800           0
     75447 TIP3     17667    TIP3     H2       HT       0.417000       1.00800           0
     75448 TIP3     17668    TIP3     OH2      OT      -0.834000       15.9994           0
     75449 TIP3     17668    TIP3     H1       HT       0.417000       1.00800           0
     75450 TIP3     17668    TIP3     H2       HT       0.417000       1.00800           0
     75451 TIP3     17669    TIP3     OH2      OT      -0.834000       15.9994           0
     75452 TIP3     17669    TIP3     H1       HT       0.417000       1.00800           0
     75453 TIP3     17669    TIP3     H2       HT       0.417000       1.00800           0
     75454 TIP3     17670    TIP3     OH2      OT      -0.834000       15.9994           0
     75455 TIP3     17670    TIP3     H1       HT       0.417000       1.00800           0
     75456 TIP3     17670    TIP3     H2       HT       0.417000       1.00800           0
     75457 TIP3     17671    TIP3     OH2      OT      -0.834000       15.9994           0
     75458 TIP3     17671    TIP3     H1       HT       0.417000       1.00800           0
     75459 TIP3     17671    TIP3     H2       HT       0.417000       1.00800           0
     75460 TIP3     17672    TIP3     OH2      OT      -0.834000       15.9994           0
     75461 TIP3     17672    TIP3     H1       HT       0.417000       1.00800           0
     75462 TIP3     17672    TIP3     H2       HT       0.417000       1.00800           0
     75463 TIP3     17673    TIP3     OH2      OT      -0.834000       15.9994           0
     75464 TIP3     17673    TIP3     H1       HT       0.417000       1.00800           0
     75465 TIP3     17673    TIP3     H2       HT       0.417000       1.00800           0
     75466 TIP3     17674    TIP3     OH2      OT      -0.834000       15.9994           0
     75467 TIP3     17674    TIP3     H1       HT       0.417000       1.00800           0
     75468 TIP3     17674    TIP3     H2       HT       0.417000       1.00800           0
     75469 TIP3     17675    TIP3     OH2      OT      -0.834000       15.9994           0
     75470 TIP3     17675    TIP3     H1       HT       0.417000       1.00800           0
     75471 TIP3     17675    TIP3     H2       HT       0.417000       1.00800           0
     75472 TIP3     17676    TIP3     OH2      OT      -0.834000       15.9994           0
     75473 TIP3     17676    TIP3     H1       HT       0.417000       1.00800           0
     75474 TIP3     17676    TIP3     H2       HT       0.417000       1.00800           0
     75475 TIP3     17677    TIP3     OH2      OT      -0.834000       15.9994           0
     75476 TIP3     17677    TIP3     H1       HT       0.417000       1.00800           0
     75477 TIP3     17677    TIP3     H2       HT       0.417000       1.00800           0
     75478 TIP3     17678    TIP3     OH2      OT      -0.834000       15.9994           0
     75479 TIP3     17678    TIP3     H1       HT       0.417000       1.00800           0
     75480 TIP3     17678    TIP3     H2       HT       0.417000       1.00800           0
     75481 TIP3     17679    TIP3     OH2      OT      -0.834000       15.9994           0
     75482 TIP3     17679    TIP3     H1       HT       0.417000       1.00800           0
     75483 TIP3     17679    TIP3     H2       HT       0.417000       1.00800           0
     75484 TIP3     17680    TIP3     OH2      OT      -0.834000       15.9994           0
     75485 TIP3     17680    TIP3     H1       HT       0.417000       1.00800           0
     75486 TIP3     17680    TIP3     H2       HT       0.417000       1.00800           0
     75487 TIP3     17681    TIP3     OH2      OT      -0.834000       15.9994           0
     75488 TIP3     17681    TIP3     H1       HT       0.417000       1.00800           0
     75489 TIP3     17681    TIP3     H2       HT       0.417000       1.00800           0
     75490 TIP3     17682    TIP3     OH2      OT      -0.834000       15.9994           0
     75491 TIP3     17682    TIP3     H1       HT       0.417000       1.00800           0
     75492 TIP3     17682    TIP3     H2       HT       0.417000       1.00800           0
     75493 TIP3     17683    TIP3     OH2      OT      -0.834000       15.9994           0
     75494 TIP3     17683    TIP3     H1       HT       0.417000       1.00800           0
     75495 TIP3     17683    TIP3     H2       HT       0.417000       1.00800           0
     75496 TIP3     17684    TIP3     OH2      OT      -0.834000       15.9994           0
     75497 TIP3     17684    TIP3     H1       HT       0.417000       1.00800           0
     75498 TIP3     17684    TIP3     H2       HT       0.417000       1.00800           0
     75499 TIP3     17685    TIP3     OH2      OT      -0.834000       15.9994           0
     75500 TIP3     17685    TIP3     H1       HT       0.417000       1.00800           0
     75501 TIP3     17685    TIP3     H2       HT       0.417000       1.00800           0
     75502 TIP3     17686    TIP3     OH2      OT      -0.834000       15.9994           0
     75503 TIP3     17686    TIP3     H1       HT       0.417000       1.00800           0
     75504 TIP3     17686    TIP3     H2       HT       0.417000       1.00800           0
     75505 TIP3     17687    TIP3     OH2      OT      -0.834000       15.9994           0
     75506 TIP3     17687    TIP3     H1       HT       0.417000       1.00800           0
     75507 TIP3     17687    TIP3     H2       HT       0.417000       1.00800           0
     75508 TIP3     17688    TIP3     OH2      OT      -0.834000       15.9994           0
     75509 TIP3     17688    TIP3     H1       HT       0.417000       1.00800           0
     75510 TIP3     17688    TIP3     H2       HT       0.417000       1.00800           0
     75511 TIP3     17689    TIP3     OH2      OT      -0.834000       15.9994           0
     75512 TIP3     17689    TIP3     H1       HT       0.417000       1.00800           0
     75513 TIP3     17689    TIP3     H2       HT       0.417000       1.00800           0
     75514 TIP3     17690    TIP3     OH2      OT      -0.834000       15.9994           0
     75515 TIP3     17690    TIP3     H1       HT       0.417000       1.00800           0
     75516 TIP3     17690    TIP3     H2       HT       0.417000       1.00800           0
     75517 TIP3     17691    TIP3     OH2      OT      -0.834000       15.9994           0
     75518 TIP3     17691    TIP3     H1       HT       0.417000       1.00800           0
     75519 TIP3     17691    TIP3     H2       HT       0.417000       1.00800           0
     75520 TIP3     17692    TIP3     OH2      OT      -0.834000       15.9994           0
     75521 TIP3     17692    TIP3     H1       HT       0.417000       1.00800           0
     75522 TIP3     17692    TIP3     H2       HT       0.417000       1.00800           0
     75523 TIP3     17693    TIP3     OH2      OT      -0.834000       15.9994           0
     75524 TIP3     17693    TIP3     H1       HT       0.417000       1.00800           0
     75525 TIP3     17693    TIP3     H2       HT       0.417000       1.00800           0
     75526 TIP3     17694    TIP3     OH2      OT      -0.834000       15.9994           0
     75527 TIP3     17694    TIP3     H1       HT       0.417000       1.00800           0
     75528 TIP3     17694    TIP3     H2       HT       0.417000       1.00800           0
     75529 TIP3     17695    TIP3     OH2      OT      -0.834000       15.9994           0
     75530 TIP3     17695    TIP3     H1       HT       0.417000       1.00800           0
     75531 TIP3     17695    TIP3     H2       HT       0.417000       1.00800           0
     75532 TIP3     17696    TIP3     OH2      OT      -0.834000       15.9994           0
     75533 TIP3     17696    TIP3     H1       HT       0.417000       1.00800           0
     75534 TIP3     17696    TIP3     H2       HT       0.417000       1.00800           0
     75535 TIP3     17697    TIP3     OH2      OT      -0.834000       15.9994           0
     75536 TIP3     17697    TIP3     H1       HT       0.417000       1.00800           0
     75537 TIP3     17697    TIP3     H2       HT       0.417000       1.00800           0
     75538 TIP3     17698    TIP3     OH2      OT      -0.834000       15.9994           0
     75539 TIP3     17698    TIP3     H1       HT       0.417000       1.00800           0
     75540 TIP3     17698    TIP3     H2       HT       0.417000       1.00800           0
     75541 TIP3     17699    TIP3     OH2      OT      -0.834000       15.9994           0
     75542 TIP3     17699    TIP3     H1       HT       0.417000       1.00800           0
     75543 TIP3     17699    TIP3     H2       HT       0.417000       1.00800           0
     75544 TIP3     17700    TIP3     OH2      OT      -0.834000       15.9994           0
     75545 TIP3     17700    TIP3     H1       HT       0.417000       1.00800           0
     75546 TIP3     17700    TIP3     H2       HT       0.417000       1.00800           0
     75547 TIP3     17701    TIP3     OH2      OT      -0.834000       15.9994           0
     75548 TIP3     17701    TIP3     H1       HT       0.417000       1.00800           0
     75549 TIP3     17701    TIP3     H2       HT       0.417000       1.00800           0
     75550 TIP3     17702    TIP3     OH2      OT      -0.834000       15.9994           0
     75551 TIP3     17702    TIP3     H1       HT       0.417000       1.00800           0
     75552 TIP3     17702    TIP3     H2       HT       0.417000       1.00800           0
     75553 TIP3     17703    TIP3     OH2      OT      -0.834000       15.9994           0
     75554 TIP3     17703    TIP3     H1       HT       0.417000       1.00800           0
     75555 TIP3     17703    TIP3     H2       HT       0.417000       1.00800           0
     75556 TIP3     17704    TIP3     OH2      OT      -0.834000       15.9994           0
     75557 TIP3     17704    TIP3     H1       HT       0.417000       1.00800           0
     75558 TIP3     17704    TIP3     H2       HT       0.417000       1.00800           0
     75559 TIP3     17705    TIP3     OH2      OT      -0.834000       15.9994           0
     75560 TIP3     17705    TIP3     H1       HT       0.417000       1.00800           0
     75561 TIP3     17705    TIP3     H2       HT       0.417000       1.00800           0
     75562 TIP3     17706    TIP3     OH2      OT      -0.834000       15.9994           0
     75563 TIP3     17706    TIP3     H1       HT       0.417000       1.00800           0
     75564 TIP3     17706    TIP3     H2       HT       0.417000       1.00800           0
     75565 TIP3     17707    TIP3     OH2      OT      -0.834000       15.9994           0
     75566 TIP3     17707    TIP3     H1       HT       0.417000       1.00800           0
     75567 TIP3     17707    TIP3     H2       HT       0.417000       1.00800           0
     75568 TIP3     17708    TIP3     OH2      OT      -0.834000       15.9994           0
     75569 TIP3     17708    TIP3     H1       HT       0.417000       1.00800           0
     75570 TIP3     17708    TIP3     H2       HT       0.417000       1.00800           0
     75571 TIP3     17709    TIP3     OH2      OT      -0.834000       15.9994           0
     75572 TIP3     17709    TIP3     H1       HT       0.417000       1.00800           0
     75573 TIP3     17709    TIP3     H2       HT       0.417000       1.00800           0
     75574 TIP3     17710    TIP3     OH2      OT      -0.834000       15.9994           0
     75575 TIP3     17710    TIP3     H1       HT       0.417000       1.00800           0
     75576 TIP3     17710    TIP3     H2       HT       0.417000       1.00800           0
     75577 TIP3     17711    TIP3     OH2      OT      -0.834000       15.9994           0
     75578 TIP3     17711    TIP3     H1       HT       0.417000       1.00800           0
     75579 TIP3     17711    TIP3     H2       HT       0.417000       1.00800           0
     75580 TIP3     17712    TIP3     OH2      OT      -0.834000       15.9994           0
     75581 TIP3     17712    TIP3     H1       HT       0.417000       1.00800           0
     75582 TIP3     17712    TIP3     H2       HT       0.417000       1.00800           0
     75583 TIP3     17713    TIP3     OH2      OT      -0.834000       15.9994           0
     75584 TIP3     17713    TIP3     H1       HT       0.417000       1.00800           0
     75585 TIP3     17713    TIP3     H2       HT       0.417000       1.00800           0
     75586 TIP3     17714    TIP3     OH2      OT      -0.834000       15.9994           0
     75587 TIP3     17714    TIP3     H1       HT       0.417000       1.00800           0
     75588 TIP3     17714    TIP3     H2       HT       0.417000       1.00800           0
     75589 TIP3     17715    TIP3     OH2      OT      -0.834000       15.9994           0
     75590 TIP3     17715    TIP3     H1       HT       0.417000       1.00800           0
     75591 TIP3     17715    TIP3     H2       HT       0.417000       1.00800           0
     75592 TIP3     17716    TIP3     OH2      OT      -0.834000       15.9994           0
     75593 TIP3     17716    TIP3     H1       HT       0.417000       1.00800           0
     75594 TIP3     17716    TIP3     H2       HT       0.417000       1.00800           0
     75595 TIP3     17717    TIP3     OH2      OT      -0.834000       15.9994           0
     75596 TIP3     17717    TIP3     H1       HT       0.417000       1.00800           0
     75597 TIP3     17717    TIP3     H2       HT       0.417000       1.00800           0
     75598 TIP3     17718    TIP3     OH2      OT      -0.834000       15.9994           0
     75599 TIP3     17718    TIP3     H1       HT       0.417000       1.00800           0
     75600 TIP3     17718    TIP3     H2       HT       0.417000       1.00800           0
     75601 TIP3     17719    TIP3     OH2      OT      -0.834000       15.9994           0
     75602 TIP3     17719    TIP3     H1       HT       0.417000       1.00800           0
     75603 TIP3     17719    TIP3     H2       HT       0.417000       1.00800           0
     75604 TIP3     17720    TIP3     OH2      OT      -0.834000       15.9994           0
     75605 TIP3     17720    TIP3     H1       HT       0.417000       1.00800           0
     75606 TIP3     17720    TIP3     H2       HT       0.417000       1.00800           0
     75607 TIP3     17721    TIP3     OH2      OT      -0.834000       15.9994           0
     75608 TIP3     17721    TIP3     H1       HT       0.417000       1.00800           0
     75609 TIP3     17721    TIP3     H2       HT       0.417000       1.00800           0
     75610 TIP3     17722    TIP3     OH2      OT      -0.834000       15.9994           0
     75611 TIP3     17722    TIP3     H1       HT       0.417000       1.00800           0
     75612 TIP3     17722    TIP3     H2       HT       0.417000       1.00800           0
     75613 TIP3     17723    TIP3     OH2      OT      -0.834000       15.9994           0
     75614 TIP3     17723    TIP3     H1       HT       0.417000       1.00800           0
     75615 TIP3     17723    TIP3     H2       HT       0.417000       1.00800           0
     75616 TIP3     17724    TIP3     OH2      OT      -0.834000       15.9994           0
     75617 TIP3     17724    TIP3     H1       HT       0.417000       1.00800           0
     75618 TIP3     17724    TIP3     H2       HT       0.417000       1.00800           0
     75619 TIP3     17725    TIP3     OH2      OT      -0.834000       15.9994           0
     75620 TIP3     17725    TIP3     H1       HT       0.417000       1.00800           0
     75621 TIP3     17725    TIP3     H2       HT       0.417000       1.00800           0
     75622 TIP3     17726    TIP3     OH2      OT      -0.834000       15.9994           0
     75623 TIP3     17726    TIP3     H1       HT       0.417000       1.00800           0
     75624 TIP3     17726    TIP3     H2       HT       0.417000       1.00800           0
     75625 TIP3     17727    TIP3     OH2      OT      -0.834000       15.9994           0
     75626 TIP3     17727    TIP3     H1       HT       0.417000       1.00800           0
     75627 TIP3     17727    TIP3     H2       HT       0.417000       1.00800           0
     75628 TIP3     17728    TIP3     OH2      OT      -0.834000       15.9994           0
     75629 TIP3     17728    TIP3     H1       HT       0.417000       1.00800           0
     75630 TIP3     17728    TIP3     H2       HT       0.417000       1.00800           0
     75631 TIP3     17729    TIP3     OH2      OT      -0.834000       15.9994           0
     75632 TIP3     17729    TIP3     H1       HT       0.417000       1.00800           0
     75633 TIP3     17729    TIP3     H2       HT       0.417000       1.00800           0
     75634 TIP3     17730    TIP3     OH2      OT      -0.834000       15.9994           0
     75635 TIP3     17730    TIP3     H1       HT       0.417000       1.00800           0
     75636 TIP3     17730    TIP3     H2       HT       0.417000       1.00800           0
     75637 TIP3     17731    TIP3     OH2      OT      -0.834000       15.9994           0
     75638 TIP3     17731    TIP3     H1       HT       0.417000       1.00800           0
     75639 TIP3     17731    TIP3     H2       HT       0.417000       1.00800           0
     75640 TIP3     17732    TIP3     OH2      OT      -0.834000       15.9994           0
     75641 TIP3     17732    TIP3     H1       HT       0.417000       1.00800           0
     75642 TIP3     17732    TIP3     H2       HT       0.417000       1.00800           0
     75643 TIP3     17733    TIP3     OH2      OT      -0.834000       15.9994           0
     75644 TIP3     17733    TIP3     H1       HT       0.417000       1.00800           0
     75645 TIP3     17733    TIP3     H2       HT       0.417000       1.00800           0
     75646 TIP3     17734    TIP3     OH2      OT      -0.834000       15.9994           0
     75647 TIP3     17734    TIP3     H1       HT       0.417000       1.00800           0
     75648 TIP3     17734    TIP3     H2       HT       0.417000       1.00800           0
     75649 TIP3     17735    TIP3     OH2      OT      -0.834000       15.9994           0
     75650 TIP3     17735    TIP3     H1       HT       0.417000       1.00800           0
     75651 TIP3     17735    TIP3     H2       HT       0.417000       1.00800           0
     75652 TIP3     17736    TIP3     OH2      OT      -0.834000       15.9994           0
     75653 TIP3     17736    TIP3     H1       HT       0.417000       1.00800           0
     75654 TIP3     17736    TIP3     H2       HT       0.417000       1.00800           0
     75655 TIP3     17737    TIP3     OH2      OT      -0.834000       15.9994           0
     75656 TIP3     17737    TIP3     H1       HT       0.417000       1.00800           0
     75657 TIP3     17737    TIP3     H2       HT       0.417000       1.00800           0
     75658 TIP3     17738    TIP3     OH2      OT      -0.834000       15.9994           0
     75659 TIP3     17738    TIP3     H1       HT       0.417000       1.00800           0
     75660 TIP3     17738    TIP3     H2       HT       0.417000       1.00800           0
     75661 TIP3     17739    TIP3     OH2      OT      -0.834000       15.9994           0
     75662 TIP3     17739    TIP3     H1       HT       0.417000       1.00800           0
     75663 TIP3     17739    TIP3     H2       HT       0.417000       1.00800           0
     75664 TIP3     17740    TIP3     OH2      OT      -0.834000       15.9994           0
     75665 TIP3     17740    TIP3     H1       HT       0.417000       1.00800           0
     75666 TIP3     17740    TIP3     H2       HT       0.417000       1.00800           0
     75667 TIP3     17741    TIP3     OH2      OT      -0.834000       15.9994           0
     75668 TIP3     17741    TIP3     H1       HT       0.417000       1.00800           0
     75669 TIP3     17741    TIP3     H2       HT       0.417000       1.00800           0
     75670 TIP3     17742    TIP3     OH2      OT      -0.834000       15.9994           0
     75671 TIP3     17742    TIP3     H1       HT       0.417000       1.00800           0
     75672 TIP3     17742    TIP3     H2       HT       0.417000       1.00800           0
     75673 TIP3     17743    TIP3     OH2      OT      -0.834000       15.9994           0
     75674 TIP3     17743    TIP3     H1       HT       0.417000       1.00800           0
     75675 TIP3     17743    TIP3     H2       HT       0.417000       1.00800           0
     75676 TIP3     17744    TIP3     OH2      OT      -0.834000       15.9994           0
     75677 TIP3     17744    TIP3     H1       HT       0.417000       1.00800           0
     75678 TIP3     17744    TIP3     H2       HT       0.417000       1.00800           0
     75679 TIP3     17745    TIP3     OH2      OT      -0.834000       15.9994           0
     75680 TIP3     17745    TIP3     H1       HT       0.417000       1.00800           0
     75681 TIP3     17745    TIP3     H2       HT       0.417000       1.00800           0
     75682 TIP3     17746    TIP3     OH2      OT      -0.834000       15.9994           0
     75683 TIP3     17746    TIP3     H1       HT       0.417000       1.00800           0
     75684 TIP3     17746    TIP3     H2       HT       0.417000       1.00800           0
     75685 TIP3     17747    TIP3     OH2      OT      -0.834000       15.9994           0
     75686 TIP3     17747    TIP3     H1       HT       0.417000       1.00800           0
     75687 TIP3     17747    TIP3     H2       HT       0.417000       1.00800           0
     75688 TIP3     17748    TIP3     OH2      OT      -0.834000       15.9994           0
     75689 TIP3     17748    TIP3     H1       HT       0.417000       1.00800           0
     75690 TIP3     17748    TIP3     H2       HT       0.417000       1.00800           0
     75691 TIP3     17749    TIP3     OH2      OT      -0.834000       15.9994           0
     75692 TIP3     17749    TIP3     H1       HT       0.417000       1.00800           0
     75693 TIP3     17749    TIP3     H2       HT       0.417000       1.00800           0
     75694 TIP3     17750    TIP3     OH2      OT      -0.834000       15.9994           0
     75695 TIP3     17750    TIP3     H1       HT       0.417000       1.00800           0
     75696 TIP3     17750    TIP3     H2       HT       0.417000       1.00800           0
     75697 TIP3     17751    TIP3     OH2      OT      -0.834000       15.9994           0
     75698 TIP3     17751    TIP3     H1       HT       0.417000       1.00800           0
     75699 TIP3     17751    TIP3     H2       HT       0.417000       1.00800           0
     75700 TIP3     17752    TIP3     OH2      OT      -0.834000       15.9994           0
     75701 TIP3     17752    TIP3     H1       HT       0.417000       1.00800           0
     75702 TIP3     17752    TIP3     H2       HT       0.417000       1.00800           0
     75703 TIP3     17753    TIP3     OH2      OT      -0.834000       15.9994           0
     75704 TIP3     17753    TIP3     H1       HT       0.417000       1.00800           0
     75705 TIP3     17753    TIP3     H2       HT       0.417000       1.00800           0
     75706 TIP3     17754    TIP3     OH2      OT      -0.834000       15.9994           0
     75707 TIP3     17754    TIP3     H1       HT       0.417000       1.00800           0
     75708 TIP3     17754    TIP3     H2       HT       0.417000       1.00800           0
     75709 TIP3     17755    TIP3     OH2      OT      -0.834000       15.9994           0
     75710 TIP3     17755    TIP3     H1       HT       0.417000       1.00800           0
     75711 TIP3     17755    TIP3     H2       HT       0.417000       1.00800           0
     75712 TIP3     17756    TIP3     OH2      OT      -0.834000       15.9994           0
     75713 TIP3     17756    TIP3     H1       HT       0.417000       1.00800           0
     75714 TIP3     17756    TIP3     H2       HT       0.417000       1.00800           0
     75715 TIP3     17757    TIP3     OH2      OT      -0.834000       15.9994           0
     75716 TIP3     17757    TIP3     H1       HT       0.417000       1.00800           0
     75717 TIP3     17757    TIP3     H2       HT       0.417000       1.00800           0
     75718 TIP3     17758    TIP3     OH2      OT      -0.834000       15.9994           0
     75719 TIP3     17758    TIP3     H1       HT       0.417000       1.00800           0
     75720 TIP3     17758    TIP3     H2       HT       0.417000       1.00800           0
     75721 TIP3     17759    TIP3     OH2      OT      -0.834000       15.9994           0
     75722 TIP3     17759    TIP3     H1       HT       0.417000       1.00800           0
     75723 TIP3     17759    TIP3     H2       HT       0.417000       1.00800           0
     75724 TIP3     17760    TIP3     OH2      OT      -0.834000       15.9994           0
     75725 TIP3     17760    TIP3     H1       HT       0.417000       1.00800           0
     75726 TIP3     17760    TIP3     H2       HT       0.417000       1.00800           0
     75727 TIP3     17761    TIP3     OH2      OT      -0.834000       15.9994           0
     75728 TIP3     17761    TIP3     H1       HT       0.417000       1.00800           0
     75729 TIP3     17761    TIP3     H2       HT       0.417000       1.00800           0
     75730 TIP3     17762    TIP3     OH2      OT      -0.834000       15.9994           0
     75731 TIP3     17762    TIP3     H1       HT       0.417000       1.00800           0
     75732 TIP3     17762    TIP3     H2       HT       0.417000       1.00800           0
     75733 TIP3     17763    TIP3     OH2      OT      -0.834000       15.9994           0
     75734 TIP3     17763    TIP3     H1       HT       0.417000       1.00800           0
     75735 TIP3     17763    TIP3     H2       HT       0.417000       1.00800           0
     75736 TIP3     17764    TIP3     OH2      OT      -0.834000       15.9994           0
     75737 TIP3     17764    TIP3     H1       HT       0.417000       1.00800           0
     75738 TIP3     17764    TIP3     H2       HT       0.417000       1.00800           0
     75739 TIP3     17765    TIP3     OH2      OT      -0.834000       15.9994           0
     75740 TIP3     17765    TIP3     H1       HT       0.417000       1.00800           0
     75741 TIP3     17765    TIP3     H2       HT       0.417000       1.00800           0
     75742 TIP3     17766    TIP3     OH2      OT      -0.834000       15.9994           0
     75743 TIP3     17766    TIP3     H1       HT       0.417000       1.00800           0
     75744 TIP3     17766    TIP3     H2       HT       0.417000       1.00800           0
     75745 TIP3     17767    TIP3     OH2      OT      -0.834000       15.9994           0
     75746 TIP3     17767    TIP3     H1       HT       0.417000       1.00800           0
     75747 TIP3     17767    TIP3     H2       HT       0.417000       1.00800           0
     75748 TIP3     17768    TIP3     OH2      OT      -0.834000       15.9994           0
     75749 TIP3     17768    TIP3     H1       HT       0.417000       1.00800           0
     75750 TIP3     17768    TIP3     H2       HT       0.417000       1.00800           0
     75751 TIP3     17769    TIP3     OH2      OT      -0.834000       15.9994           0
     75752 TIP3     17769    TIP3     H1       HT       0.417000       1.00800           0
     75753 TIP3     17769    TIP3     H2       HT       0.417000       1.00800           0
     75754 TIP3     17770    TIP3     OH2      OT      -0.834000       15.9994           0
     75755 TIP3     17770    TIP3     H1       HT       0.417000       1.00800           0
     75756 TIP3     17770    TIP3     H2       HT       0.417000       1.00800           0
     75757 TIP3     17771    TIP3     OH2      OT      -0.834000       15.9994           0
     75758 TIP3     17771    TIP3     H1       HT       0.417000       1.00800           0
     75759 TIP3     17771    TIP3     H2       HT       0.417000       1.00800           0
     75760 TIP3     17772    TIP3     OH2      OT      -0.834000       15.9994           0
     75761 TIP3     17772    TIP3     H1       HT       0.417000       1.00800           0
     75762 TIP3     17772    TIP3     H2       HT       0.417000       1.00800           0
     75763 TIP3     17773    TIP3     OH2      OT      -0.834000       15.9994           0
     75764 TIP3     17773    TIP3     H1       HT       0.417000       1.00800           0
     75765 TIP3     17773    TIP3     H2       HT       0.417000       1.00800           0
     75766 TIP3     17774    TIP3     OH2      OT      -0.834000       15.9994           0
     75767 TIP3     17774    TIP3     H1       HT       0.417000       1.00800           0
     75768 TIP3     17774    TIP3     H2       HT       0.417000       1.00800           0
     75769 TIP3     17775    TIP3     OH2      OT      -0.834000       15.9994           0
     75770 TIP3     17775    TIP3     H1       HT       0.417000       1.00800           0
     75771 TIP3     17775    TIP3     H2       HT       0.417000       1.00800           0
     75772 TIP3     17776    TIP3     OH2      OT      -0.834000       15.9994           0
     75773 TIP3     17776    TIP3     H1       HT       0.417000       1.00800           0
     75774 TIP3     17776    TIP3     H2       HT       0.417000       1.00800           0
     75775 TIP3     17777    TIP3     OH2      OT      -0.834000       15.9994           0
     75776 TIP3     17777    TIP3     H1       HT       0.417000       1.00800           0
     75777 TIP3     17777    TIP3     H2       HT       0.417000       1.00800           0
     75778 TIP3     17778    TIP3     OH2      OT      -0.834000       15.9994           0
     75779 TIP3     17778    TIP3     H1       HT       0.417000       1.00800           0
     75780 TIP3     17778    TIP3     H2       HT       0.417000       1.00800           0
     75781 TIP3     17779    TIP3     OH2      OT      -0.834000       15.9994           0
     75782 TIP3     17779    TIP3     H1       HT       0.417000       1.00800           0
     75783 TIP3     17779    TIP3     H2       HT       0.417000       1.00800           0
     75784 TIP3     17780    TIP3     OH2      OT      -0.834000       15.9994           0
     75785 TIP3     17780    TIP3     H1       HT       0.417000       1.00800           0
     75786 TIP3     17780    TIP3     H2       HT       0.417000       1.00800           0
     75787 TIP3     17781    TIP3     OH2      OT      -0.834000       15.9994           0
     75788 TIP3     17781    TIP3     H1       HT       0.417000       1.00800           0
     75789 TIP3     17781    TIP3     H2       HT       0.417000       1.00800           0
     75790 TIP3     17782    TIP3     OH2      OT      -0.834000       15.9994           0
     75791 TIP3     17782    TIP3     H1       HT       0.417000       1.00800           0
     75792 TIP3     17782    TIP3     H2       HT       0.417000       1.00800           0
     75793 TIP3     17783    TIP3     OH2      OT      -0.834000       15.9994           0
     75794 TIP3     17783    TIP3     H1       HT       0.417000       1.00800           0
     75795 TIP3     17783    TIP3     H2       HT       0.417000       1.00800           0
     75796 TIP3     17784    TIP3     OH2      OT      -0.834000       15.9994           0
     75797 TIP3     17784    TIP3     H1       HT       0.417000       1.00800           0
     75798 TIP3     17784    TIP3     H2       HT       0.417000       1.00800           0
     75799 TIP3     17785    TIP3     OH2      OT      -0.834000       15.9994           0
     75800 TIP3     17785    TIP3     H1       HT       0.417000       1.00800           0
     75801 TIP3     17785    TIP3     H2       HT       0.417000       1.00800           0
     75802 TIP3     17786    TIP3     OH2      OT      -0.834000       15.9994           0
     75803 TIP3     17786    TIP3     H1       HT       0.417000       1.00800           0
     75804 TIP3     17786    TIP3     H2       HT       0.417000       1.00800           0
     75805 TIP3     17787    TIP3     OH2      OT      -0.834000       15.9994           0
     75806 TIP3     17787    TIP3     H1       HT       0.417000       1.00800           0
     75807 TIP3     17787    TIP3     H2       HT       0.417000       1.00800           0
     75808 TIP3     17788    TIP3     OH2      OT      -0.834000       15.9994           0
     75809 TIP3     17788    TIP3     H1       HT       0.417000       1.00800           0
     75810 TIP3     17788    TIP3     H2       HT       0.417000       1.00800           0
     75811 TIP3     17789    TIP3     OH2      OT      -0.834000       15.9994           0
     75812 TIP3     17789    TIP3     H1       HT       0.417000       1.00800           0
     75813 TIP3     17789    TIP3     H2       HT       0.417000       1.00800           0
     75814 TIP3     17790    TIP3     OH2      OT      -0.834000       15.9994           0
     75815 TIP3     17790    TIP3     H1       HT       0.417000       1.00800           0
     75816 TIP3     17790    TIP3     H2       HT       0.417000       1.00800           0
     75817 TIP3     17791    TIP3     OH2      OT      -0.834000       15.9994           0
     75818 TIP3     17791    TIP3     H1       HT       0.417000       1.00800           0
     75819 TIP3     17791    TIP3     H2       HT       0.417000       1.00800           0
     75820 TIP3     17792    TIP3     OH2      OT      -0.834000       15.9994           0
     75821 TIP3     17792    TIP3     H1       HT       0.417000       1.00800           0
     75822 TIP3     17792    TIP3     H2       HT       0.417000       1.00800           0
     75823 TIP3     17793    TIP3     OH2      OT      -0.834000       15.9994           0
     75824 TIP3     17793    TIP3     H1       HT       0.417000       1.00800           0
     75825 TIP3     17793    TIP3     H2       HT       0.417000       1.00800           0
     75826 TIP3     17794    TIP3     OH2      OT      -0.834000       15.9994           0
     75827 TIP3     17794    TIP3     H1       HT       0.417000       1.00800           0
     75828 TIP3     17794    TIP3     H2       HT       0.417000       1.00800           0
     75829 TIP3     17795    TIP3     OH2      OT      -0.834000       15.9994           0
     75830 TIP3     17795    TIP3     H1       HT       0.417000       1.00800           0
     75831 TIP3     17795    TIP3     H2       HT       0.417000       1.00800           0
     75832 TIP3     17796    TIP3     OH2      OT      -0.834000       15.9994           0
     75833 TIP3     17796    TIP3     H1       HT       0.417000       1.00800           0
     75834 TIP3     17796    TIP3     H2       HT       0.417000       1.00800           0
     75835 TIP3     17797    TIP3     OH2      OT      -0.834000       15.9994           0
     75836 TIP3     17797    TIP3     H1       HT       0.417000       1.00800           0
     75837 TIP3     17797    TIP3     H2       HT       0.417000       1.00800           0
     75838 TIP3     17798    TIP3     OH2      OT      -0.834000       15.9994           0
     75839 TIP3     17798    TIP3     H1       HT       0.417000       1.00800           0
     75840 TIP3     17798    TIP3     H2       HT       0.417000       1.00800           0
     75841 TIP3     17799    TIP3     OH2      OT      -0.834000       15.9994           0
     75842 TIP3     17799    TIP3     H1       HT       0.417000       1.00800           0
     75843 TIP3     17799    TIP3     H2       HT       0.417000       1.00800           0
     75844 TIP3     17800    TIP3     OH2      OT      -0.834000       15.9994           0
     75845 TIP3     17800    TIP3     H1       HT       0.417000       1.00800           0
     75846 TIP3     17800    TIP3     H2       HT       0.417000       1.00800           0
     75847 TIP3     17801    TIP3     OH2      OT      -0.834000       15.9994           0
     75848 TIP3     17801    TIP3     H1       HT       0.417000       1.00800           0
     75849 TIP3     17801    TIP3     H2       HT       0.417000       1.00800           0
     75850 TIP3     17802    TIP3     OH2      OT      -0.834000       15.9994           0
     75851 TIP3     17802    TIP3     H1       HT       0.417000       1.00800           0
     75852 TIP3     17802    TIP3     H2       HT       0.417000       1.00800           0
     75853 TIP3     17803    TIP3     OH2      OT      -0.834000       15.9994           0
     75854 TIP3     17803    TIP3     H1       HT       0.417000       1.00800           0
     75855 TIP3     17803    TIP3     H2       HT       0.417000       1.00800           0
     75856 TIP3     17804    TIP3     OH2      OT      -0.834000       15.9994           0
     75857 TIP3     17804    TIP3     H1       HT       0.417000       1.00800           0
     75858 TIP3     17804    TIP3     H2       HT       0.417000       1.00800           0
     75859 TIP3     17805    TIP3     OH2      OT      -0.834000       15.9994           0
     75860 TIP3     17805    TIP3     H1       HT       0.417000       1.00800           0
     75861 TIP3     17805    TIP3     H2       HT       0.417000       1.00800           0
     75862 TIP3     17806    TIP3     OH2      OT      -0.834000       15.9994           0
     75863 TIP3     17806    TIP3     H1       HT       0.417000       1.00800           0
     75864 TIP3     17806    TIP3     H2       HT       0.417000       1.00800           0
     75865 TIP3     17807    TIP3     OH2      OT      -0.834000       15.9994           0
     75866 TIP3     17807    TIP3     H1       HT       0.417000       1.00800           0
     75867 TIP3     17807    TIP3     H2       HT       0.417000       1.00800           0
     75868 TIP3     17808    TIP3     OH2      OT      -0.834000       15.9994           0
     75869 TIP3     17808    TIP3     H1       HT       0.417000       1.00800           0
     75870 TIP3     17808    TIP3     H2       HT       0.417000       1.00800           0
     75871 TIP3     17809    TIP3     OH2      OT      -0.834000       15.9994           0
     75872 TIP3     17809    TIP3     H1       HT       0.417000       1.00800           0
     75873 TIP3     17809    TIP3     H2       HT       0.417000       1.00800           0
     75874 TIP3     17810    TIP3     OH2      OT      -0.834000       15.9994           0
     75875 TIP3     17810    TIP3     H1       HT       0.417000       1.00800           0
     75876 TIP3     17810    TIP3     H2       HT       0.417000       1.00800           0
     75877 TIP3     17811    TIP3     OH2      OT      -0.834000       15.9994           0
     75878 TIP3     17811    TIP3     H1       HT       0.417000       1.00800           0
     75879 TIP3     17811    TIP3     H2       HT       0.417000       1.00800           0
     75880 TIP3     17812    TIP3     OH2      OT      -0.834000       15.9994           0
     75881 TIP3     17812    TIP3     H1       HT       0.417000       1.00800           0
     75882 TIP3     17812    TIP3     H2       HT       0.417000       1.00800           0
     75883 TIP3     17813    TIP3     OH2      OT      -0.834000       15.9994           0
     75884 TIP3     17813    TIP3     H1       HT       0.417000       1.00800           0
     75885 TIP3     17813    TIP3     H2       HT       0.417000       1.00800           0
     75886 TIP3     17814    TIP3     OH2      OT      -0.834000       15.9994           0
     75887 TIP3     17814    TIP3     H1       HT       0.417000       1.00800           0
     75888 TIP3     17814    TIP3     H2       HT       0.417000       1.00800           0
     75889 TIP3     17815    TIP3     OH2      OT      -0.834000       15.9994           0
     75890 TIP3     17815    TIP3     H1       HT       0.417000       1.00800           0
     75891 TIP3     17815    TIP3     H2       HT       0.417000       1.00800           0
     75892 TIP3     17816    TIP3     OH2      OT      -0.834000       15.9994           0
     75893 TIP3     17816    TIP3     H1       HT       0.417000       1.00800           0
     75894 TIP3     17816    TIP3     H2       HT       0.417000       1.00800           0
     75895 TIP3     17817    TIP3     OH2      OT      -0.834000       15.9994           0
     75896 TIP3     17817    TIP3     H1       HT       0.417000       1.00800           0
     75897 TIP3     17817    TIP3     H2       HT       0.417000       1.00800           0
     75898 TIP3     17818    TIP3     OH2      OT      -0.834000       15.9994           0
     75899 TIP3     17818    TIP3     H1       HT       0.417000       1.00800           0
     75900 TIP3     17818    TIP3     H2       HT       0.417000       1.00800           0
     75901 TIP3     17819    TIP3     OH2      OT      -0.834000       15.9994           0
     75902 TIP3     17819    TIP3     H1       HT       0.417000       1.00800           0
     75903 TIP3     17819    TIP3     H2       HT       0.417000       1.00800           0
     75904 TIP3     17820    TIP3     OH2      OT      -0.834000       15.9994           0
     75905 TIP3     17820    TIP3     H1       HT       0.417000       1.00800           0
     75906 TIP3     17820    TIP3     H2       HT       0.417000       1.00800           0
     75907 TIP3     17821    TIP3     OH2      OT      -0.834000       15.9994           0
     75908 TIP3     17821    TIP3     H1       HT       0.417000       1.00800           0
     75909 TIP3     17821    TIP3     H2       HT       0.417000       1.00800           0
     75910 TIP3     17822    TIP3     OH2      OT      -0.834000       15.9994           0
     75911 TIP3     17822    TIP3     H1       HT       0.417000       1.00800           0
     75912 TIP3     17822    TIP3     H2       HT       0.417000       1.00800           0
     75913 TIP3     17823    TIP3     OH2      OT      -0.834000       15.9994           0
     75914 TIP3     17823    TIP3     H1       HT       0.417000       1.00800           0
     75915 TIP3     17823    TIP3     H2       HT       0.417000       1.00800           0
     75916 TIP3     17824    TIP3     OH2      OT      -0.834000       15.9994           0
     75917 TIP3     17824    TIP3     H1       HT       0.417000       1.00800           0
     75918 TIP3     17824    TIP3     H2       HT       0.417000       1.00800           0
     75919 TIP3     17825    TIP3     OH2      OT      -0.834000       15.9994           0
     75920 TIP3     17825    TIP3     H1       HT       0.417000       1.00800           0
     75921 TIP3     17825    TIP3     H2       HT       0.417000       1.00800           0
     75922 TIP3     17826    TIP3     OH2      OT      -0.834000       15.9994           0
     75923 TIP3     17826    TIP3     H1       HT       0.417000       1.00800           0
     75924 TIP3     17826    TIP3     H2       HT       0.417000       1.00800           0
     75925 TIP3     17827    TIP3     OH2      OT      -0.834000       15.9994           0
     75926 TIP3     17827    TIP3     H1       HT       0.417000       1.00800           0
     75927 TIP3     17827    TIP3     H2       HT       0.417000       1.00800           0
     75928 TIP3     17828    TIP3     OH2      OT      -0.834000       15.9994           0
     75929 TIP3     17828    TIP3     H1       HT       0.417000       1.00800           0
     75930 TIP3     17828    TIP3     H2       HT       0.417000       1.00800           0
     75931 TIP3     17829    TIP3     OH2      OT      -0.834000       15.9994           0
     75932 TIP3     17829    TIP3     H1       HT       0.417000       1.00800           0
     75933 TIP3     17829    TIP3     H2       HT       0.417000       1.00800           0
     75934 TIP3     17830    TIP3     OH2      OT      -0.834000       15.9994           0
     75935 TIP3     17830    TIP3     H1       HT       0.417000       1.00800           0
     75936 TIP3     17830    TIP3     H2       HT       0.417000       1.00800           0
     75937 TIP3     17831    TIP3     OH2      OT      -0.834000       15.9994           0
     75938 TIP3     17831    TIP3     H1       HT       0.417000       1.00800           0
     75939 TIP3     17831    TIP3     H2       HT       0.417000       1.00800           0
     75940 TIP3     17832    TIP3     OH2      OT      -0.834000       15.9994           0
     75941 TIP3     17832    TIP3     H1       HT       0.417000       1.00800           0
     75942 TIP3     17832    TIP3     H2       HT       0.417000       1.00800           0
     75943 TIP3     17833    TIP3     OH2      OT      -0.834000       15.9994           0
     75944 TIP3     17833    TIP3     H1       HT       0.417000       1.00800           0
     75945 TIP3     17833    TIP3     H2       HT       0.417000       1.00800           0
     75946 TIP3     17834    TIP3     OH2      OT      -0.834000       15.9994           0
     75947 TIP3     17834    TIP3     H1       HT       0.417000       1.00800           0
     75948 TIP3     17834    TIP3     H2       HT       0.417000       1.00800           0
     75949 TIP3     17835    TIP3     OH2      OT      -0.834000       15.9994           0
     75950 TIP3     17835    TIP3     H1       HT       0.417000       1.00800           0
     75951 TIP3     17835    TIP3     H2       HT       0.417000       1.00800           0
     75952 TIP3     17836    TIP3     OH2      OT      -0.834000       15.9994           0
     75953 TIP3     17836    TIP3     H1       HT       0.417000       1.00800           0
     75954 TIP3     17836    TIP3     H2       HT       0.417000       1.00800           0
     75955 TIP3     17837    TIP3     OH2      OT      -0.834000       15.9994           0
     75956 TIP3     17837    TIP3     H1       HT       0.417000       1.00800           0
     75957 TIP3     17837    TIP3     H2       HT       0.417000       1.00800           0
     75958 TIP3     17838    TIP3     OH2      OT      -0.834000       15.9994           0
     75959 TIP3     17838    TIP3     H1       HT       0.417000       1.00800           0
     75960 TIP3     17838    TIP3     H2       HT       0.417000       1.00800           0
     75961 TIP3     17839    TIP3     OH2      OT      -0.834000       15.9994           0
     75962 TIP3     17839    TIP3     H1       HT       0.417000       1.00800           0
     75963 TIP3     17839    TIP3     H2       HT       0.417000       1.00800           0
     75964 TIP3     17840    TIP3     OH2      OT      -0.834000       15.9994           0
     75965 TIP3     17840    TIP3     H1       HT       0.417000       1.00800           0
     75966 TIP3     17840    TIP3     H2       HT       0.417000       1.00800           0
     75967 TIP3     17841    TIP3     OH2      OT      -0.834000       15.9994           0
     75968 TIP3     17841    TIP3     H1       HT       0.417000       1.00800           0
     75969 TIP3     17841    TIP3     H2       HT       0.417000       1.00800           0
     75970 TIP3     17842    TIP3     OH2      OT      -0.834000       15.9994           0
     75971 TIP3     17842    TIP3     H1       HT       0.417000       1.00800           0
     75972 TIP3     17842    TIP3     H2       HT       0.417000       1.00800           0
     75973 TIP3     17843    TIP3     OH2      OT      -0.834000       15.9994           0
     75974 TIP3     17843    TIP3     H1       HT       0.417000       1.00800           0
     75975 TIP3     17843    TIP3     H2       HT       0.417000       1.00800           0
     75976 TIP3     17844    TIP3     OH2      OT      -0.834000       15.9994           0
     75977 TIP3     17844    TIP3     H1       HT       0.417000       1.00800           0
     75978 TIP3     17844    TIP3     H2       HT       0.417000       1.00800           0
     75979 TIP3     17845    TIP3     OH2      OT      -0.834000       15.9994           0
     75980 TIP3     17845    TIP3     H1       HT       0.417000       1.00800           0
     75981 TIP3     17845    TIP3     H2       HT       0.417000       1.00800           0
     75982 TIP3     17846    TIP3     OH2      OT      -0.834000       15.9994           0
     75983 TIP3     17846    TIP3     H1       HT       0.417000       1.00800           0
     75984 TIP3     17846    TIP3     H2       HT       0.417000       1.00800           0
     75985 TIP3     17847    TIP3     OH2      OT      -0.834000       15.9994           0
     75986 TIP3     17847    TIP3     H1       HT       0.417000       1.00800           0
     75987 TIP3     17847    TIP3     H2       HT       0.417000       1.00800           0
     75988 TIP3     17848    TIP3     OH2      OT      -0.834000       15.9994           0
     75989 TIP3     17848    TIP3     H1       HT       0.417000       1.00800           0
     75990 TIP3     17848    TIP3     H2       HT       0.417000       1.00800           0
     75991 TIP3     17849    TIP3     OH2      OT      -0.834000       15.9994           0
     75992 TIP3     17849    TIP3     H1       HT       0.417000       1.00800           0
     75993 TIP3     17849    TIP3     H2       HT       0.417000       1.00800           0
     75994 TIP3     17850    TIP3     OH2      OT      -0.834000       15.9994           0
     75995 TIP3     17850    TIP3     H1       HT       0.417000       1.00800           0
     75996 TIP3     17850    TIP3     H2       HT       0.417000       1.00800           0
     75997 TIP3     17851    TIP3     OH2      OT      -0.834000       15.9994           0
     75998 TIP3     17851    TIP3     H1       HT       0.417000       1.00800           0
     75999 TIP3     17851    TIP3     H2       HT       0.417000       1.00800           0
     76000 TIP3     17852    TIP3     OH2      OT      -0.834000       15.9994           0
     76001 TIP3     17852    TIP3     H1       HT       0.417000       1.00800           0
     76002 TIP3     17852    TIP3     H2       HT       0.417000       1.00800           0
     76003 TIP3     17853    TIP3     OH2      OT      -0.834000       15.9994           0
     76004 TIP3     17853    TIP3     H1       HT       0.417000       1.00800           0
     76005 TIP3     17853    TIP3     H2       HT       0.417000       1.00800           0
     76006 TIP3     17854    TIP3     OH2      OT      -0.834000       15.9994           0
     76007 TIP3     17854    TIP3     H1       HT       0.417000       1.00800           0
     76008 TIP3     17854    TIP3     H2       HT       0.417000       1.00800           0
     76009 TIP3     17855    TIP3     OH2      OT      -0.834000       15.9994           0
     76010 TIP3     17855    TIP3     H1       HT       0.417000       1.00800           0
     76011 TIP3     17855    TIP3     H2       HT       0.417000       1.00800           0
     76012 TIP3     17856    TIP3     OH2      OT      -0.834000       15.9994           0
     76013 TIP3     17856    TIP3     H1       HT       0.417000       1.00800           0
     76014 TIP3     17856    TIP3     H2       HT       0.417000       1.00800           0
     76015 TIP3     17857    TIP3     OH2      OT      -0.834000       15.9994           0
     76016 TIP3     17857    TIP3     H1       HT       0.417000       1.00800           0
     76017 TIP3     17857    TIP3     H2       HT       0.417000       1.00800           0
     76018 TIP3     17858    TIP3     OH2      OT      -0.834000       15.9994           0
     76019 TIP3     17858    TIP3     H1       HT       0.417000       1.00800           0
     76020 TIP3     17858    TIP3     H2       HT       0.417000       1.00800           0
     76021 TIP3     17859    TIP3     OH2      OT      -0.834000       15.9994           0
     76022 TIP3     17859    TIP3     H1       HT       0.417000       1.00800           0
     76023 TIP3     17859    TIP3     H2       HT       0.417000       1.00800           0
     76024 TIP3     17860    TIP3     OH2      OT      -0.834000       15.9994           0
     76025 TIP3     17860    TIP3     H1       HT       0.417000       1.00800           0
     76026 TIP3     17860    TIP3     H2       HT       0.417000       1.00800           0
     76027 TIP3     17861    TIP3     OH2      OT      -0.834000       15.9994           0
     76028 TIP3     17861    TIP3     H1       HT       0.417000       1.00800           0
     76029 TIP3     17861    TIP3     H2       HT       0.417000       1.00800           0
     76030 TIP3     17862    TIP3     OH2      OT      -0.834000       15.9994           0
     76031 TIP3     17862    TIP3     H1       HT       0.417000       1.00800           0
     76032 TIP3     17862    TIP3     H2       HT       0.417000       1.00800           0
     76033 TIP3     17863    TIP3     OH2      OT      -0.834000       15.9994           0
     76034 TIP3     17863    TIP3     H1       HT       0.417000       1.00800           0
     76035 TIP3     17863    TIP3     H2       HT       0.417000       1.00800           0
     76036 TIP3     17864    TIP3     OH2      OT      -0.834000       15.9994           0
     76037 TIP3     17864    TIP3     H1       HT       0.417000       1.00800           0
     76038 TIP3     17864    TIP3     H2       HT       0.417000       1.00800           0
     76039 TIP3     17865    TIP3     OH2      OT      -0.834000       15.9994           0
     76040 TIP3     17865    TIP3     H1       HT       0.417000       1.00800           0
     76041 TIP3     17865    TIP3     H2       HT       0.417000       1.00800           0
     76042 TIP3     17866    TIP3     OH2      OT      -0.834000       15.9994           0
     76043 TIP3     17866    TIP3     H1       HT       0.417000       1.00800           0
     76044 TIP3     17866    TIP3     H2       HT       0.417000       1.00800           0
     76045 TIP3     17867    TIP3     OH2      OT      -0.834000       15.9994           0
     76046 TIP3     17867    TIP3     H1       HT       0.417000       1.00800           0
     76047 TIP3     17867    TIP3     H2       HT       0.417000       1.00800           0
     76048 TIP3     17868    TIP3     OH2      OT      -0.834000       15.9994           0
     76049 TIP3     17868    TIP3     H1       HT       0.417000       1.00800           0
     76050 TIP3     17868    TIP3     H2       HT       0.417000       1.00800           0
     76051 TIP3     17869    TIP3     OH2      OT      -0.834000       15.9994           0
     76052 TIP3     17869    TIP3     H1       HT       0.417000       1.00800           0
     76053 TIP3     17869    TIP3     H2       HT       0.417000       1.00800           0
     76054 TIP3     17870    TIP3     OH2      OT      -0.834000       15.9994           0
     76055 TIP3     17870    TIP3     H1       HT       0.417000       1.00800           0
     76056 TIP3     17870    TIP3     H2       HT       0.417000       1.00800           0
     76057 TIP3     17871    TIP3     OH2      OT      -0.834000       15.9994           0
     76058 TIP3     17871    TIP3     H1       HT       0.417000       1.00800           0
     76059 TIP3     17871    TIP3     H2       HT       0.417000       1.00800           0
     76060 TIP3     17872    TIP3     OH2      OT      -0.834000       15.9994           0
     76061 TIP3     17872    TIP3     H1       HT       0.417000       1.00800           0
     76062 TIP3     17872    TIP3     H2       HT       0.417000       1.00800           0
     76063 TIP3     17873    TIP3     OH2      OT      -0.834000       15.9994           0
     76064 TIP3     17873    TIP3     H1       HT       0.417000       1.00800           0
     76065 TIP3     17873    TIP3     H2       HT       0.417000       1.00800           0
     76066 TIP3     17874    TIP3     OH2      OT      -0.834000       15.9994           0
     76067 TIP3     17874    TIP3     H1       HT       0.417000       1.00800           0
     76068 TIP3     17874    TIP3     H2       HT       0.417000       1.00800           0
     76069 TIP3     17875    TIP3     OH2      OT      -0.834000       15.9994           0
     76070 TIP3     17875    TIP3     H1       HT       0.417000       1.00800           0
     76071 TIP3     17875    TIP3     H2       HT       0.417000       1.00800           0
     76072 TIP3     17876    TIP3     OH2      OT      -0.834000       15.9994           0
     76073 TIP3     17876    TIP3     H1       HT       0.417000       1.00800           0
     76074 TIP3     17876    TIP3     H2       HT       0.417000       1.00800           0
     76075 TIP3     17877    TIP3     OH2      OT      -0.834000       15.9994           0
     76076 TIP3     17877    TIP3     H1       HT       0.417000       1.00800           0
     76077 TIP3     17877    TIP3     H2       HT       0.417000       1.00800           0
     76078 TIP3     17878    TIP3     OH2      OT      -0.834000       15.9994           0
     76079 TIP3     17878    TIP3     H1       HT       0.417000       1.00800           0
     76080 TIP3     17878    TIP3     H2       HT       0.417000       1.00800           0
     76081 TIP3     17879    TIP3     OH2      OT      -0.834000       15.9994           0
     76082 TIP3     17879    TIP3     H1       HT       0.417000       1.00800           0
     76083 TIP3     17879    TIP3     H2       HT       0.417000       1.00800           0
     76084 TIP3     17880    TIP3     OH2      OT      -0.834000       15.9994           0
     76085 TIP3     17880    TIP3     H1       HT       0.417000       1.00800           0
     76086 TIP3     17880    TIP3     H2       HT       0.417000       1.00800           0
     76087 TIP3     17881    TIP3     OH2      OT      -0.834000       15.9994           0
     76088 TIP3     17881    TIP3     H1       HT       0.417000       1.00800           0
     76089 TIP3     17881    TIP3     H2       HT       0.417000       1.00800           0
     76090 TIP3     17882    TIP3     OH2      OT      -0.834000       15.9994           0
     76091 TIP3     17882    TIP3     H1       HT       0.417000       1.00800           0
     76092 TIP3     17882    TIP3     H2       HT       0.417000       1.00800           0
     76093 TIP3     17883    TIP3     OH2      OT      -0.834000       15.9994           0
     76094 TIP3     17883    TIP3     H1       HT       0.417000       1.00800           0
     76095 TIP3     17883    TIP3     H2       HT       0.417000       1.00800           0
     76096 TIP3     17884    TIP3     OH2      OT      -0.834000       15.9994           0
     76097 TIP3     17884    TIP3     H1       HT       0.417000       1.00800           0
     76098 TIP3     17884    TIP3     H2       HT       0.417000       1.00800           0
     76099 TIP3     17885    TIP3     OH2      OT      -0.834000       15.9994           0
     76100 TIP3     17885    TIP3     H1       HT       0.417000       1.00800           0
     76101 TIP3     17885    TIP3     H2       HT       0.417000       1.00800           0
     76102 TIP3     17886    TIP3     OH2      OT      -0.834000       15.9994           0
     76103 TIP3     17886    TIP3     H1       HT       0.417000       1.00800           0
     76104 TIP3     17886    TIP3     H2       HT       0.417000       1.00800           0
     76105 TIP3     17887    TIP3     OH2      OT      -0.834000       15.9994           0
     76106 TIP3     17887    TIP3     H1       HT       0.417000       1.00800           0
     76107 TIP3     17887    TIP3     H2       HT       0.417000       1.00800           0
     76108 TIP3     17888    TIP3     OH2      OT      -0.834000       15.9994           0
     76109 TIP3     17888    TIP3     H1       HT       0.417000       1.00800           0
     76110 TIP3     17888    TIP3     H2       HT       0.417000       1.00800           0
     76111 TIP3     17889    TIP3     OH2      OT      -0.834000       15.9994           0
     76112 TIP3     17889    TIP3     H1       HT       0.417000       1.00800           0
     76113 TIP3     17889    TIP3     H2       HT       0.417000       1.00800           0
     76114 TIP3     17890    TIP3     OH2      OT      -0.834000       15.9994           0
     76115 TIP3     17890    TIP3     H1       HT       0.417000       1.00800           0
     76116 TIP3     17890    TIP3     H2       HT       0.417000       1.00800           0
     76117 TIP3     17891    TIP3     OH2      OT      -0.834000       15.9994           0
     76118 TIP3     17891    TIP3     H1       HT       0.417000       1.00800           0
     76119 TIP3     17891    TIP3     H2       HT       0.417000       1.00800           0
     76120 TIP3     17892    TIP3     OH2      OT      -0.834000       15.9994           0
     76121 TIP3     17892    TIP3     H1       HT       0.417000       1.00800           0
     76122 TIP3     17892    TIP3     H2       HT       0.417000       1.00800           0
     76123 TIP3     17893    TIP3     OH2      OT      -0.834000       15.9994           0
     76124 TIP3     17893    TIP3     H1       HT       0.417000       1.00800           0
     76125 TIP3     17893    TIP3     H2       HT       0.417000       1.00800           0
     76126 TIP3     17894    TIP3     OH2      OT      -0.834000       15.9994           0
     76127 TIP3     17894    TIP3     H1       HT       0.417000       1.00800           0
     76128 TIP3     17894    TIP3     H2       HT       0.417000       1.00800           0
     76129 TIP3     17895    TIP3     OH2      OT      -0.834000       15.9994           0
     76130 TIP3     17895    TIP3     H1       HT       0.417000       1.00800           0
     76131 TIP3     17895    TIP3     H2       HT       0.417000       1.00800           0
     76132 TIP3     17896    TIP3     OH2      OT      -0.834000       15.9994           0
     76133 TIP3     17896    TIP3     H1       HT       0.417000       1.00800           0
     76134 TIP3     17896    TIP3     H2       HT       0.417000       1.00800           0
     76135 TIP3     17897    TIP3     OH2      OT      -0.834000       15.9994           0
     76136 TIP3     17897    TIP3     H1       HT       0.417000       1.00800           0
     76137 TIP3     17897    TIP3     H2       HT       0.417000       1.00800           0
     76138 TIP3     17898    TIP3     OH2      OT      -0.834000       15.9994           0
     76139 TIP3     17898    TIP3     H1       HT       0.417000       1.00800           0
     76140 TIP3     17898    TIP3     H2       HT       0.417000       1.00800           0
     76141 TIP3     17899    TIP3     OH2      OT      -0.834000       15.9994           0
     76142 TIP3     17899    TIP3     H1       HT       0.417000       1.00800           0
     76143 TIP3     17899    TIP3     H2       HT       0.417000       1.00800           0
     76144 TIP3     17900    TIP3     OH2      OT      -0.834000       15.9994           0
     76145 TIP3     17900    TIP3     H1       HT       0.417000       1.00800           0
     76146 TIP3     17900    TIP3     H2       HT       0.417000       1.00800           0
     76147 TIP3     17901    TIP3     OH2      OT      -0.834000       15.9994           0
     76148 TIP3     17901    TIP3     H1       HT       0.417000       1.00800           0
     76149 TIP3     17901    TIP3     H2       HT       0.417000       1.00800           0
     76150 TIP3     17902    TIP3     OH2      OT      -0.834000       15.9994           0
     76151 TIP3     17902    TIP3     H1       HT       0.417000       1.00800           0
     76152 TIP3     17902    TIP3     H2       HT       0.417000       1.00800           0
     76153 TIP3     17903    TIP3     OH2      OT      -0.834000       15.9994           0
     76154 TIP3     17903    TIP3     H1       HT       0.417000       1.00800           0
     76155 TIP3     17903    TIP3     H2       HT       0.417000       1.00800           0
     76156 TIP3     17904    TIP3     OH2      OT      -0.834000       15.9994           0
     76157 TIP3     17904    TIP3     H1       HT       0.417000       1.00800           0
     76158 TIP3     17904    TIP3     H2       HT       0.417000       1.00800           0
     76159 TIP3     17905    TIP3     OH2      OT      -0.834000       15.9994           0
     76160 TIP3     17905    TIP3     H1       HT       0.417000       1.00800           0
     76161 TIP3     17905    TIP3     H2       HT       0.417000       1.00800           0
     76162 TIP3     17906    TIP3     OH2      OT      -0.834000       15.9994           0
     76163 TIP3     17906    TIP3     H1       HT       0.417000       1.00800           0
     76164 TIP3     17906    TIP3     H2       HT       0.417000       1.00800           0
     76165 TIP3     17907    TIP3     OH2      OT      -0.834000       15.9994           0
     76166 TIP3     17907    TIP3     H1       HT       0.417000       1.00800           0
     76167 TIP3     17907    TIP3     H2       HT       0.417000       1.00800           0
     76168 TIP3     17908    TIP3     OH2      OT      -0.834000       15.9994           0
     76169 TIP3     17908    TIP3     H1       HT       0.417000       1.00800           0
     76170 TIP3     17908    TIP3     H2       HT       0.417000       1.00800           0
     76171 TIP3     17909    TIP3     OH2      OT      -0.834000       15.9994           0
     76172 TIP3     17909    TIP3     H1       HT       0.417000       1.00800           0
     76173 TIP3     17909    TIP3     H2       HT       0.417000       1.00800           0
     76174 TIP3     17910    TIP3     OH2      OT      -0.834000       15.9994           0
     76175 TIP3     17910    TIP3     H1       HT       0.417000       1.00800           0
     76176 TIP3     17910    TIP3     H2       HT       0.417000       1.00800           0
     76177 TIP3     17911    TIP3     OH2      OT      -0.834000       15.9994           0
     76178 TIP3     17911    TIP3     H1       HT       0.417000       1.00800           0
     76179 TIP3     17911    TIP3     H2       HT       0.417000       1.00800           0
     76180 TIP3     17912    TIP3     OH2      OT      -0.834000       15.9994           0
     76181 TIP3     17912    TIP3     H1       HT       0.417000       1.00800           0
     76182 TIP3     17912    TIP3     H2       HT       0.417000       1.00800           0
     76183 TIP3     17913    TIP3     OH2      OT      -0.834000       15.9994           0
     76184 TIP3     17913    TIP3     H1       HT       0.417000       1.00800           0
     76185 TIP3     17913    TIP3     H2       HT       0.417000       1.00800           0
     76186 TIP3     17914    TIP3     OH2      OT      -0.834000       15.9994           0
     76187 TIP3     17914    TIP3     H1       HT       0.417000       1.00800           0
     76188 TIP3     17914    TIP3     H2       HT       0.417000       1.00800           0
     76189 TIP3     17915    TIP3     OH2      OT      -0.834000       15.9994           0
     76190 TIP3     17915    TIP3     H1       HT       0.417000       1.00800           0
     76191 TIP3     17915    TIP3     H2       HT       0.417000       1.00800           0
     76192 TIP3     17916    TIP3     OH2      OT      -0.834000       15.9994           0
     76193 TIP3     17916    TIP3     H1       HT       0.417000       1.00800           0
     76194 TIP3     17916    TIP3     H2       HT       0.417000       1.00800           0
     76195 TIP3     17917    TIP3     OH2      OT      -0.834000       15.9994           0
     76196 TIP3     17917    TIP3     H1       HT       0.417000       1.00800           0
     76197 TIP3     17917    TIP3     H2       HT       0.417000       1.00800           0
     76198 TIP3     17918    TIP3     OH2      OT      -0.834000       15.9994           0
     76199 TIP3     17918    TIP3     H1       HT       0.417000       1.00800           0
     76200 TIP3     17918    TIP3     H2       HT       0.417000       1.00800           0
     76201 TIP3     17919    TIP3     OH2      OT      -0.834000       15.9994           0
     76202 TIP3     17919    TIP3     H1       HT       0.417000       1.00800           0
     76203 TIP3     17919    TIP3     H2       HT       0.417000       1.00800           0
     76204 TIP3     17920    TIP3     OH2      OT      -0.834000       15.9994           0
     76205 TIP3     17920    TIP3     H1       HT       0.417000       1.00800           0
     76206 TIP3     17920    TIP3     H2       HT       0.417000       1.00800           0
     76207 TIP3     17921    TIP3     OH2      OT      -0.834000       15.9994           0
     76208 TIP3     17921    TIP3     H1       HT       0.417000       1.00800           0
     76209 TIP3     17921    TIP3     H2       HT       0.417000       1.00800           0
     76210 TIP3     17922    TIP3     OH2      OT      -0.834000       15.9994           0
     76211 TIP3     17922    TIP3     H1       HT       0.417000       1.00800           0
     76212 TIP3     17922    TIP3     H2       HT       0.417000       1.00800           0
     76213 TIP3     17923    TIP3     OH2      OT      -0.834000       15.9994           0
     76214 TIP3     17923    TIP3     H1       HT       0.417000       1.00800           0
     76215 TIP3     17923    TIP3     H2       HT       0.417000       1.00800           0
     76216 TIP3     17924    TIP3     OH2      OT      -0.834000       15.9994           0
     76217 TIP3     17924    TIP3     H1       HT       0.417000       1.00800           0
     76218 TIP3     17924    TIP3     H2       HT       0.417000       1.00800           0
     76219 TIP3     17925    TIP3     OH2      OT      -0.834000       15.9994           0
     76220 TIP3     17925    TIP3     H1       HT       0.417000       1.00800           0
     76221 TIP3     17925    TIP3     H2       HT       0.417000       1.00800           0
     76222 TIP3     17926    TIP3     OH2      OT      -0.834000       15.9994           0
     76223 TIP3     17926    TIP3     H1       HT       0.417000       1.00800           0
     76224 TIP3     17926    TIP3     H2       HT       0.417000       1.00800           0
     76225 TIP3     17927    TIP3     OH2      OT      -0.834000       15.9994           0
     76226 TIP3     17927    TIP3     H1       HT       0.417000       1.00800           0
     76227 TIP3     17927    TIP3     H2       HT       0.417000       1.00800           0
     76228 TIP3     17928    TIP3     OH2      OT      -0.834000       15.9994           0
     76229 TIP3     17928    TIP3     H1       HT       0.417000       1.00800           0
     76230 TIP3     17928    TIP3     H2       HT       0.417000       1.00800           0
     76231 TIP3     17929    TIP3     OH2      OT      -0.834000       15.9994           0
     76232 TIP3     17929    TIP3     H1       HT       0.417000       1.00800           0
     76233 TIP3     17929    TIP3     H2       HT       0.417000       1.00800           0
     76234 TIP3     17930    TIP3     OH2      OT      -0.834000       15.9994           0
     76235 TIP3     17930    TIP3     H1       HT       0.417000       1.00800           0
     76236 TIP3     17930    TIP3     H2       HT       0.417000       1.00800           0
     76237 TIP3     17931    TIP3     OH2      OT      -0.834000       15.9994           0
     76238 TIP3     17931    TIP3     H1       HT       0.417000       1.00800           0
     76239 TIP3     17931    TIP3     H2       HT       0.417000       1.00800           0
     76240 TIP3     17932    TIP3     OH2      OT      -0.834000       15.9994           0
     76241 TIP3     17932    TIP3     H1       HT       0.417000       1.00800           0
     76242 TIP3     17932    TIP3     H2       HT       0.417000       1.00800           0
     76243 TIP3     17933    TIP3     OH2      OT      -0.834000       15.9994           0
     76244 TIP3     17933    TIP3     H1       HT       0.417000       1.00800           0
     76245 TIP3     17933    TIP3     H2       HT       0.417000       1.00800           0
     76246 TIP3     17934    TIP3     OH2      OT      -0.834000       15.9994           0
     76247 TIP3     17934    TIP3     H1       HT       0.417000       1.00800           0
     76248 TIP3     17934    TIP3     H2       HT       0.417000       1.00800           0
     76249 TIP3     17935    TIP3     OH2      OT      -0.834000       15.9994           0
     76250 TIP3     17935    TIP3     H1       HT       0.417000       1.00800           0
     76251 TIP3     17935    TIP3     H2       HT       0.417000       1.00800           0
     76252 TIP3     17936    TIP3     OH2      OT      -0.834000       15.9994           0
     76253 TIP3     17936    TIP3     H1       HT       0.417000       1.00800           0
     76254 TIP3     17936    TIP3     H2       HT       0.417000       1.00800           0
     76255 TIP3     17937    TIP3     OH2      OT      -0.834000       15.9994           0
     76256 TIP3     17937    TIP3     H1       HT       0.417000       1.00800           0
     76257 TIP3     17937    TIP3     H2       HT       0.417000       1.00800           0
     76258 TIP3     17938    TIP3     OH2      OT      -0.834000       15.9994           0
     76259 TIP3     17938    TIP3     H1       HT       0.417000       1.00800           0
     76260 TIP3     17938    TIP3     H2       HT       0.417000       1.00800           0
     76261 TIP3     17939    TIP3     OH2      OT      -0.834000       15.9994           0
     76262 TIP3     17939    TIP3     H1       HT       0.417000       1.00800           0
     76263 TIP3     17939    TIP3     H2       HT       0.417000       1.00800           0
     76264 TIP3     17940    TIP3     OH2      OT      -0.834000       15.9994           0
     76265 TIP3     17940    TIP3     H1       HT       0.417000       1.00800           0
     76266 TIP3     17940    TIP3     H2       HT       0.417000       1.00800           0
     76267 TIP3     17941    TIP3     OH2      OT      -0.834000       15.9994           0
     76268 TIP3     17941    TIP3     H1       HT       0.417000       1.00800           0
     76269 TIP3     17941    TIP3     H2       HT       0.417000       1.00800           0
     76270 TIP3     17942    TIP3     OH2      OT      -0.834000       15.9994           0
     76271 TIP3     17942    TIP3     H1       HT       0.417000       1.00800           0
     76272 TIP3     17942    TIP3     H2       HT       0.417000       1.00800           0
     76273 TIP3     17943    TIP3     OH2      OT      -0.834000       15.9994           0
     76274 TIP3     17943    TIP3     H1       HT       0.417000       1.00800           0
     76275 TIP3     17943    TIP3     H2       HT       0.417000       1.00800           0
     76276 TIP3     17944    TIP3     OH2      OT      -0.834000       15.9994           0
     76277 TIP3     17944    TIP3     H1       HT       0.417000       1.00800           0
     76278 TIP3     17944    TIP3     H2       HT       0.417000       1.00800           0
     76279 TIP3     17945    TIP3     OH2      OT      -0.834000       15.9994           0
     76280 TIP3     17945    TIP3     H1       HT       0.417000       1.00800           0
     76281 TIP3     17945    TIP3     H2       HT       0.417000       1.00800           0
     76282 TIP3     17946    TIP3     OH2      OT      -0.834000       15.9994           0
     76283 TIP3     17946    TIP3     H1       HT       0.417000       1.00800           0
     76284 TIP3     17946    TIP3     H2       HT       0.417000       1.00800           0
     76285 TIP3     17947    TIP3     OH2      OT      -0.834000       15.9994           0
     76286 TIP3     17947    TIP3     H1       HT       0.417000       1.00800           0
     76287 TIP3     17947    TIP3     H2       HT       0.417000       1.00800           0
     76288 TIP3     17948    TIP3     OH2      OT      -0.834000       15.9994           0
     76289 TIP3     17948    TIP3     H1       HT       0.417000       1.00800           0
     76290 TIP3     17948    TIP3     H2       HT       0.417000       1.00800           0
     76291 TIP3     17949    TIP3     OH2      OT      -0.834000       15.9994           0
     76292 TIP3     17949    TIP3     H1       HT       0.417000       1.00800           0
     76293 TIP3     17949    TIP3     H2       HT       0.417000       1.00800           0
     76294 TIP3     17950    TIP3     OH2      OT      -0.834000       15.9994           0
     76295 TIP3     17950    TIP3     H1       HT       0.417000       1.00800           0
     76296 TIP3     17950    TIP3     H2       HT       0.417000       1.00800           0
     76297 TIP3     17951    TIP3     OH2      OT      -0.834000       15.9994           0
     76298 TIP3     17951    TIP3     H1       HT       0.417000       1.00800           0
     76299 TIP3     17951    TIP3     H2       HT       0.417000       1.00800           0
     76300 TIP3     17952    TIP3     OH2      OT      -0.834000       15.9994           0
     76301 TIP3     17952    TIP3     H1       HT       0.417000       1.00800           0
     76302 TIP3     17952    TIP3     H2       HT       0.417000       1.00800           0
     76303 TIP3     17953    TIP3     OH2      OT      -0.834000       15.9994           0
     76304 TIP3     17953    TIP3     H1       HT       0.417000       1.00800           0
     76305 TIP3     17953    TIP3     H2       HT       0.417000       1.00800           0
     76306 TIP3     17954    TIP3     OH2      OT      -0.834000       15.9994           0
     76307 TIP3     17954    TIP3     H1       HT       0.417000       1.00800           0
     76308 TIP3     17954    TIP3     H2       HT       0.417000       1.00800           0
     76309 TIP3     17955    TIP3     OH2      OT      -0.834000       15.9994           0
     76310 TIP3     17955    TIP3     H1       HT       0.417000       1.00800           0
     76311 TIP3     17955    TIP3     H2       HT       0.417000       1.00800           0
     76312 TIP3     17956    TIP3     OH2      OT      -0.834000       15.9994           0
     76313 TIP3     17956    TIP3     H1       HT       0.417000       1.00800           0
     76314 TIP3     17956    TIP3     H2       HT       0.417000       1.00800           0
     76315 TIP3     17957    TIP3     OH2      OT      -0.834000       15.9994           0
     76316 TIP3     17957    TIP3     H1       HT       0.417000       1.00800           0
     76317 TIP3     17957    TIP3     H2       HT       0.417000       1.00800           0
     76318 TIP3     17958    TIP3     OH2      OT      -0.834000       15.9994           0
     76319 TIP3     17958    TIP3     H1       HT       0.417000       1.00800           0
     76320 TIP3     17958    TIP3     H2       HT       0.417000       1.00800           0
     76321 TIP3     17959    TIP3     OH2      OT      -0.834000       15.9994           0
     76322 TIP3     17959    TIP3     H1       HT       0.417000       1.00800           0
     76323 TIP3     17959    TIP3     H2       HT       0.417000       1.00800           0
     76324 TIP3     17960    TIP3     OH2      OT      -0.834000       15.9994           0
     76325 TIP3     17960    TIP3     H1       HT       0.417000       1.00800           0
     76326 TIP3     17960    TIP3     H2       HT       0.417000       1.00800           0
     76327 TIP3     17961    TIP3     OH2      OT      -0.834000       15.9994           0
     76328 TIP3     17961    TIP3     H1       HT       0.417000       1.00800           0
     76329 TIP3     17961    TIP3     H2       HT       0.417000       1.00800           0
     76330 TIP3     17962    TIP3     OH2      OT      -0.834000       15.9994           0
     76331 TIP3     17962    TIP3     H1       HT       0.417000       1.00800           0
     76332 TIP3     17962    TIP3     H2       HT       0.417000       1.00800           0
     76333 TIP3     17963    TIP3     OH2      OT      -0.834000       15.9994           0
     76334 TIP3     17963    TIP3     H1       HT       0.417000       1.00800           0
     76335 TIP3     17963    TIP3     H2       HT       0.417000       1.00800           0
     76336 TIP3     17964    TIP3     OH2      OT      -0.834000       15.9994           0
     76337 TIP3     17964    TIP3     H1       HT       0.417000       1.00800           0
     76338 TIP3     17964    TIP3     H2       HT       0.417000       1.00800           0
     76339 TIP3     17965    TIP3     OH2      OT      -0.834000       15.9994           0
     76340 TIP3     17965    TIP3     H1       HT       0.417000       1.00800           0
     76341 TIP3     17965    TIP3     H2       HT       0.417000       1.00800           0
     76342 TIP3     17966    TIP3     OH2      OT      -0.834000       15.9994           0
     76343 TIP3     17966    TIP3     H1       HT       0.417000       1.00800           0
     76344 TIP3     17966    TIP3     H2       HT       0.417000       1.00800           0
     76345 TIP3     17967    TIP3     OH2      OT      -0.834000       15.9994           0
     76346 TIP3     17967    TIP3     H1       HT       0.417000       1.00800           0
     76347 TIP3     17967    TIP3     H2       HT       0.417000       1.00800           0
     76348 TIP3     17968    TIP3     OH2      OT      -0.834000       15.9994           0
     76349 TIP3     17968    TIP3     H1       HT       0.417000       1.00800           0
     76350 TIP3     17968    TIP3     H2       HT       0.417000       1.00800           0
     76351 TIP3     17969    TIP3     OH2      OT      -0.834000       15.9994           0
     76352 TIP3     17969    TIP3     H1       HT       0.417000       1.00800           0
     76353 TIP3     17969    TIP3     H2       HT       0.417000       1.00800           0
     76354 TIP3     17970    TIP3     OH2      OT      -0.834000       15.9994           0
     76355 TIP3     17970    TIP3     H1       HT       0.417000       1.00800           0
     76356 TIP3     17970    TIP3     H2       HT       0.417000       1.00800           0
     76357 TIP3     17971    TIP3     OH2      OT      -0.834000       15.9994           0
     76358 TIP3     17971    TIP3     H1       HT       0.417000       1.00800           0
     76359 TIP3     17971    TIP3     H2       HT       0.417000       1.00800           0
     76360 TIP3     17972    TIP3     OH2      OT      -0.834000       15.9994           0
     76361 TIP3     17972    TIP3     H1       HT       0.417000       1.00800           0
     76362 TIP3     17972    TIP3     H2       HT       0.417000       1.00800           0
     76363 TIP3     17973    TIP3     OH2      OT      -0.834000       15.9994           0
     76364 TIP3     17973    TIP3     H1       HT       0.417000       1.00800           0
     76365 TIP3     17973    TIP3     H2       HT       0.417000       1.00800           0
     76366 TIP3     17974    TIP3     OH2      OT      -0.834000       15.9994           0
     76367 TIP3     17974    TIP3     H1       HT       0.417000       1.00800           0
     76368 TIP3     17974    TIP3     H2       HT       0.417000       1.00800           0
     76369 TIP3     17975    TIP3     OH2      OT      -0.834000       15.9994           0
     76370 TIP3     17975    TIP3     H1       HT       0.417000       1.00800           0
     76371 TIP3     17975    TIP3     H2       HT       0.417000       1.00800           0
     76372 TIP3     17976    TIP3     OH2      OT      -0.834000       15.9994           0
     76373 TIP3     17976    TIP3     H1       HT       0.417000       1.00800           0
     76374 TIP3     17976    TIP3     H2       HT       0.417000       1.00800           0
     76375 TIP3     17977    TIP3     OH2      OT      -0.834000       15.9994           0
     76376 TIP3     17977    TIP3     H1       HT       0.417000       1.00800           0
     76377 TIP3     17977    TIP3     H2       HT       0.417000       1.00800           0
     76378 TIP3     17978    TIP3     OH2      OT      -0.834000       15.9994           0
     76379 TIP3     17978    TIP3     H1       HT       0.417000       1.00800           0
     76380 TIP3     17978    TIP3     H2       HT       0.417000       1.00800           0
     76381 TIP3     17979    TIP3     OH2      OT      -0.834000       15.9994           0
     76382 TIP3     17979    TIP3     H1       HT       0.417000       1.00800           0
     76383 TIP3     17979    TIP3     H2       HT       0.417000       1.00800           0
     76384 TIP3     17980    TIP3     OH2      OT      -0.834000       15.9994           0
     76385 TIP3     17980    TIP3     H1       HT       0.417000       1.00800           0
     76386 TIP3     17980    TIP3     H2       HT       0.417000       1.00800           0
     76387 TIP3     17981    TIP3     OH2      OT      -0.834000       15.9994           0
     76388 TIP3     17981    TIP3     H1       HT       0.417000       1.00800           0
     76389 TIP3     17981    TIP3     H2       HT       0.417000       1.00800           0
     76390 TIP3     17982    TIP3     OH2      OT      -0.834000       15.9994           0
     76391 TIP3     17982    TIP3     H1       HT       0.417000       1.00800           0
     76392 TIP3     17982    TIP3     H2       HT       0.417000       1.00800           0
     76393 TIP3     17983    TIP3     OH2      OT      -0.834000       15.9994           0
     76394 TIP3     17983    TIP3     H1       HT       0.417000       1.00800           0
     76395 TIP3     17983    TIP3     H2       HT       0.417000       1.00800           0
     76396 TIP3     17984    TIP3     OH2      OT      -0.834000       15.9994           0
     76397 TIP3     17984    TIP3     H1       HT       0.417000       1.00800           0
     76398 TIP3     17984    TIP3     H2       HT       0.417000       1.00800           0
     76399 TIP3     17985    TIP3     OH2      OT      -0.834000       15.9994           0
     76400 TIP3     17985    TIP3     H1       HT       0.417000       1.00800           0
     76401 TIP3     17985    TIP3     H2       HT       0.417000       1.00800           0
     76402 TIP3     17986    TIP3     OH2      OT      -0.834000       15.9994           0
     76403 TIP3     17986    TIP3     H1       HT       0.417000       1.00800           0
     76404 TIP3     17986    TIP3     H2       HT       0.417000       1.00800           0
     76405 TIP3     17987    TIP3     OH2      OT      -0.834000       15.9994           0
     76406 TIP3     17987    TIP3     H1       HT       0.417000       1.00800           0
     76407 TIP3     17987    TIP3     H2       HT       0.417000       1.00800           0
     76408 TIP3     17988    TIP3     OH2      OT      -0.834000       15.9994           0
     76409 TIP3     17988    TIP3     H1       HT       0.417000       1.00800           0
     76410 TIP3     17988    TIP3     H2       HT       0.417000       1.00800           0
     76411 TIP3     17989    TIP3     OH2      OT      -0.834000       15.9994           0
     76412 TIP3     17989    TIP3     H1       HT       0.417000       1.00800           0
     76413 TIP3     17989    TIP3     H2       HT       0.417000       1.00800           0
     76414 TIP3     17990    TIP3     OH2      OT      -0.834000       15.9994           0
     76415 TIP3     17990    TIP3     H1       HT       0.417000       1.00800           0
     76416 TIP3     17990    TIP3     H2       HT       0.417000       1.00800           0
     76417 TIP3     17991    TIP3     OH2      OT      -0.834000       15.9994           0
     76418 TIP3     17991    TIP3     H1       HT       0.417000       1.00800           0
     76419 TIP3     17991    TIP3     H2       HT       0.417000       1.00800           0
     76420 TIP3     17992    TIP3     OH2      OT      -0.834000       15.9994           0
     76421 TIP3     17992    TIP3     H1       HT       0.417000       1.00800           0
     76422 TIP3     17992    TIP3     H2       HT       0.417000       1.00800           0
     76423 TIP3     17993    TIP3     OH2      OT      -0.834000       15.9994           0
     76424 TIP3     17993    TIP3     H1       HT       0.417000       1.00800           0
     76425 TIP3     17993    TIP3     H2       HT       0.417000       1.00800           0
     76426 TIP3     17994    TIP3     OH2      OT      -0.834000       15.9994           0
     76427 TIP3     17994    TIP3     H1       HT       0.417000       1.00800           0
     76428 TIP3     17994    TIP3     H2       HT       0.417000       1.00800           0
     76429 TIP3     17995    TIP3     OH2      OT      -0.834000       15.9994           0
     76430 TIP3     17995    TIP3     H1       HT       0.417000       1.00800           0
     76431 TIP3     17995    TIP3     H2       HT       0.417000       1.00800           0
     76432 TIP3     17996    TIP3     OH2      OT      -0.834000       15.9994           0
     76433 TIP3     17996    TIP3     H1       HT       0.417000       1.00800           0
     76434 TIP3     17996    TIP3     H2       HT       0.417000       1.00800           0
     76435 TIP3     17997    TIP3     OH2      OT      -0.834000       15.9994           0
     76436 TIP3     17997    TIP3     H1       HT       0.417000       1.00800           0
     76437 TIP3     17997    TIP3     H2       HT       0.417000       1.00800           0
     76438 TIP3     17998    TIP3     OH2      OT      -0.834000       15.9994           0
     76439 TIP3     17998    TIP3     H1       HT       0.417000       1.00800           0
     76440 TIP3     17998    TIP3     H2       HT       0.417000       1.00800           0
     76441 TIP3     17999    TIP3     OH2      OT      -0.834000       15.9994           0
     76442 TIP3     17999    TIP3     H1       HT       0.417000       1.00800           0
     76443 TIP3     17999    TIP3     H2       HT       0.417000       1.00800           0
     76444 TIP3     18000    TIP3     OH2      OT      -0.834000       15.9994           0
     76445 TIP3     18000    TIP3     H1       HT       0.417000       1.00800           0
     76446 TIP3     18000    TIP3     H2       HT       0.417000       1.00800           0
     76447 TIP3     18001    TIP3     OH2      OT      -0.834000       15.9994           0
     76448 TIP3     18001    TIP3     H1       HT       0.417000       1.00800           0
     76449 TIP3     18001    TIP3     H2       HT       0.417000       1.00800           0
     76450 TIP3     18002    TIP3     OH2      OT      -0.834000       15.9994           0
     76451 TIP3     18002    TIP3     H1       HT       0.417000       1.00800           0
     76452 TIP3     18002    TIP3     H2       HT       0.417000       1.00800           0
     76453 TIP3     18003    TIP3     OH2      OT      -0.834000       15.9994           0
     76454 TIP3     18003    TIP3     H1       HT       0.417000       1.00800           0
     76455 TIP3     18003    TIP3     H2       HT       0.417000       1.00800           0
     76456 TIP3     18004    TIP3     OH2      OT      -0.834000       15.9994           0
     76457 TIP3     18004    TIP3     H1       HT       0.417000       1.00800           0
     76458 TIP3     18004    TIP3     H2       HT       0.417000       1.00800           0
     76459 TIP3     18005    TIP3     OH2      OT      -0.834000       15.9994           0
     76460 TIP3     18005    TIP3     H1       HT       0.417000       1.00800           0
     76461 TIP3     18005    TIP3     H2       HT       0.417000       1.00800           0
     76462 TIP3     18006    TIP3     OH2      OT      -0.834000       15.9994           0
     76463 TIP3     18006    TIP3     H1       HT       0.417000       1.00800           0
     76464 TIP3     18006    TIP3     H2       HT       0.417000       1.00800           0
     76465 TIP3     18007    TIP3     OH2      OT      -0.834000       15.9994           0
     76466 TIP3     18007    TIP3     H1       HT       0.417000       1.00800           0
     76467 TIP3     18007    TIP3     H2       HT       0.417000       1.00800           0
     76468 TIP3     18008    TIP3     OH2      OT      -0.834000       15.9994           0
     76469 TIP3     18008    TIP3     H1       HT       0.417000       1.00800           0
     76470 TIP3     18008    TIP3     H2       HT       0.417000       1.00800           0
     76471 TIP3     18009    TIP3     OH2      OT      -0.834000       15.9994           0
     76472 TIP3     18009    TIP3     H1       HT       0.417000       1.00800           0
     76473 TIP3     18009    TIP3     H2       HT       0.417000       1.00800           0
     76474 TIP3     18010    TIP3     OH2      OT      -0.834000       15.9994           0
     76475 TIP3     18010    TIP3     H1       HT       0.417000       1.00800           0
     76476 TIP3     18010    TIP3     H2       HT       0.417000       1.00800           0
     76477 TIP3     18011    TIP3     OH2      OT      -0.834000       15.9994           0
     76478 TIP3     18011    TIP3     H1       HT       0.417000       1.00800           0
     76479 TIP3     18011    TIP3     H2       HT       0.417000       1.00800           0
     76480 TIP3     18012    TIP3     OH2      OT      -0.834000       15.9994           0
     76481 TIP3     18012    TIP3     H1       HT       0.417000       1.00800           0
     76482 TIP3     18012    TIP3     H2       HT       0.417000       1.00800           0
     76483 TIP3     18013    TIP3     OH2      OT      -0.834000       15.9994           0
     76484 TIP3     18013    TIP3     H1       HT       0.417000       1.00800           0
     76485 TIP3     18013    TIP3     H2       HT       0.417000       1.00800           0
     76486 TIP3     18014    TIP3     OH2      OT      -0.834000       15.9994           0
     76487 TIP3     18014    TIP3     H1       HT       0.417000       1.00800           0
     76488 TIP3     18014    TIP3     H2       HT       0.417000       1.00800           0
     76489 TIP3     18015    TIP3     OH2      OT      -0.834000       15.9994           0
     76490 TIP3     18015    TIP3     H1       HT       0.417000       1.00800           0
     76491 TIP3     18015    TIP3     H2       HT       0.417000       1.00800           0
     76492 TIP3     18016    TIP3     OH2      OT      -0.834000       15.9994           0
     76493 TIP3     18016    TIP3     H1       HT       0.417000       1.00800           0
     76494 TIP3     18016    TIP3     H2       HT       0.417000       1.00800           0
     76495 TIP3     18017    TIP3     OH2      OT      -0.834000       15.9994           0
     76496 TIP3     18017    TIP3     H1       HT       0.417000       1.00800           0
     76497 TIP3     18017    TIP3     H2       HT       0.417000       1.00800           0
     76498 TIP3     18018    TIP3     OH2      OT      -0.834000       15.9994           0
     76499 TIP3     18018    TIP3     H1       HT       0.417000       1.00800           0
     76500 TIP3     18018    TIP3     H2       HT       0.417000       1.00800           0
     76501 TIP3     18019    TIP3     OH2      OT      -0.834000       15.9994           0
     76502 TIP3     18019    TIP3     H1       HT       0.417000       1.00800           0
     76503 TIP3     18019    TIP3     H2       HT       0.417000       1.00800           0
     76504 TIP3     18020    TIP3     OH2      OT      -0.834000       15.9994           0
     76505 TIP3     18020    TIP3     H1       HT       0.417000       1.00800           0
     76506 TIP3     18020    TIP3     H2       HT       0.417000       1.00800           0
     76507 TIP3     18021    TIP3     OH2      OT      -0.834000       15.9994           0
     76508 TIP3     18021    TIP3     H1       HT       0.417000       1.00800           0
     76509 TIP3     18021    TIP3     H2       HT       0.417000       1.00800           0
     76510 TIP3     18022    TIP3     OH2      OT      -0.834000       15.9994           0
     76511 TIP3     18022    TIP3     H1       HT       0.417000       1.00800           0
     76512 TIP3     18022    TIP3     H2       HT       0.417000       1.00800           0
     76513 TIP3     18023    TIP3     OH2      OT      -0.834000       15.9994           0
     76514 TIP3     18023    TIP3     H1       HT       0.417000       1.00800           0
     76515 TIP3     18023    TIP3     H2       HT       0.417000       1.00800           0
     76516 TIP3     18024    TIP3     OH2      OT      -0.834000       15.9994           0
     76517 TIP3     18024    TIP3     H1       HT       0.417000       1.00800           0
     76518 TIP3     18024    TIP3     H2       HT       0.417000       1.00800           0
     76519 TIP3     18025    TIP3     OH2      OT      -0.834000       15.9994           0
     76520 TIP3     18025    TIP3     H1       HT       0.417000       1.00800           0
     76521 TIP3     18025    TIP3     H2       HT       0.417000       1.00800           0
     76522 TIP3     18026    TIP3     OH2      OT      -0.834000       15.9994           0
     76523 TIP3     18026    TIP3     H1       HT       0.417000       1.00800           0
     76524 TIP3     18026    TIP3     H2       HT       0.417000       1.00800           0
     76525 TIP3     18027    TIP3     OH2      OT      -0.834000       15.9994           0
     76526 TIP3     18027    TIP3     H1       HT       0.417000       1.00800           0
     76527 TIP3     18027    TIP3     H2       HT       0.417000       1.00800           0
     76528 TIP3     18028    TIP3     OH2      OT      -0.834000       15.9994           0
     76529 TIP3     18028    TIP3     H1       HT       0.417000       1.00800           0
     76530 TIP3     18028    TIP3     H2       HT       0.417000       1.00800           0
     76531 TIP3     18029    TIP3     OH2      OT      -0.834000       15.9994           0
     76532 TIP3     18029    TIP3     H1       HT       0.417000       1.00800           0
     76533 TIP3     18029    TIP3     H2       HT       0.417000       1.00800           0
     76534 TIP3     18030    TIP3     OH2      OT      -0.834000       15.9994           0
     76535 TIP3     18030    TIP3     H1       HT       0.417000       1.00800           0
     76536 TIP3     18030    TIP3     H2       HT       0.417000       1.00800           0
     76537 TIP3     18031    TIP3     OH2      OT      -0.834000       15.9994           0
     76538 TIP3     18031    TIP3     H1       HT       0.417000       1.00800           0
     76539 TIP3     18031    TIP3     H2       HT       0.417000       1.00800           0
     76540 TIP3     18032    TIP3     OH2      OT      -0.834000       15.9994           0
     76541 TIP3     18032    TIP3     H1       HT       0.417000       1.00800           0
     76542 TIP3     18032    TIP3     H2       HT       0.417000       1.00800           0
     76543 TIP3     18033    TIP3     OH2      OT      -0.834000       15.9994           0
     76544 TIP3     18033    TIP3     H1       HT       0.417000       1.00800           0
     76545 TIP3     18033    TIP3     H2       HT       0.417000       1.00800           0
     76546 TIP3     18034    TIP3     OH2      OT      -0.834000       15.9994           0
     76547 TIP3     18034    TIP3     H1       HT       0.417000       1.00800           0
     76548 TIP3     18034    TIP3     H2       HT       0.417000       1.00800           0
     76549 TIP3     18035    TIP3     OH2      OT      -0.834000       15.9994           0
     76550 TIP3     18035    TIP3     H1       HT       0.417000       1.00800           0
     76551 TIP3     18035    TIP3     H2       HT       0.417000       1.00800           0
     76552 TIP3     18036    TIP3     OH2      OT      -0.834000       15.9994           0
     76553 TIP3     18036    TIP3     H1       HT       0.417000       1.00800           0
     76554 TIP3     18036    TIP3     H2       HT       0.417000       1.00800           0
     76555 TIP3     18037    TIP3     OH2      OT      -0.834000       15.9994           0
     76556 TIP3     18037    TIP3     H1       HT       0.417000       1.00800           0
     76557 TIP3     18037    TIP3     H2       HT       0.417000       1.00800           0
     76558 TIP3     18038    TIP3     OH2      OT      -0.834000       15.9994           0
     76559 TIP3     18038    TIP3     H1       HT       0.417000       1.00800           0
     76560 TIP3     18038    TIP3     H2       HT       0.417000       1.00800           0
     76561 TIP3     18039    TIP3     OH2      OT      -0.834000       15.9994           0
     76562 TIP3     18039    TIP3     H1       HT       0.417000       1.00800           0
     76563 TIP3     18039    TIP3     H2       HT       0.417000       1.00800           0
     76564 TIP3     18040    TIP3     OH2      OT      -0.834000       15.9994           0
     76565 TIP3     18040    TIP3     H1       HT       0.417000       1.00800           0
     76566 TIP3     18040    TIP3     H2       HT       0.417000       1.00800           0
     76567 TIP3     18041    TIP3     OH2      OT      -0.834000       15.9994           0
     76568 TIP3     18041    TIP3     H1       HT       0.417000       1.00800           0
     76569 TIP3     18041    TIP3     H2       HT       0.417000       1.00800           0
     76570 TIP3     18042    TIP3     OH2      OT      -0.834000       15.9994           0
     76571 TIP3     18042    TIP3     H1       HT       0.417000       1.00800           0
     76572 TIP3     18042    TIP3     H2       HT       0.417000       1.00800           0
     76573 TIP3     18043    TIP3     OH2      OT      -0.834000       15.9994           0
     76574 TIP3     18043    TIP3     H1       HT       0.417000       1.00800           0
     76575 TIP3     18043    TIP3     H2       HT       0.417000       1.00800           0
     76576 TIP3     18044    TIP3     OH2      OT      -0.834000       15.9994           0
     76577 TIP3     18044    TIP3     H1       HT       0.417000       1.00800           0
     76578 TIP3     18044    TIP3     H2       HT       0.417000       1.00800           0
     76579 TIP3     18045    TIP3     OH2      OT      -0.834000       15.9994           0
     76580 TIP3     18045    TIP3     H1       HT       0.417000       1.00800           0
     76581 TIP3     18045    TIP3     H2       HT       0.417000       1.00800           0
     76582 TIP3     18046    TIP3     OH2      OT      -0.834000       15.9994           0
     76583 TIP3     18046    TIP3     H1       HT       0.417000       1.00800           0
     76584 TIP3     18046    TIP3     H2       HT       0.417000       1.00800           0
     76585 TIP3     18047    TIP3     OH2      OT      -0.834000       15.9994           0
     76586 TIP3     18047    TIP3     H1       HT       0.417000       1.00800           0
     76587 TIP3     18047    TIP3     H2       HT       0.417000       1.00800           0
     76588 TIP3     18048    TIP3     OH2      OT      -0.834000       15.9994           0
     76589 TIP3     18048    TIP3     H1       HT       0.417000       1.00800           0
     76590 TIP3     18048    TIP3     H2       HT       0.417000       1.00800           0
     76591 TIP3     18049    TIP3     OH2      OT      -0.834000       15.9994           0
     76592 TIP3     18049    TIP3     H1       HT       0.417000       1.00800           0
     76593 TIP3     18049    TIP3     H2       HT       0.417000       1.00800           0
     76594 TIP3     18050    TIP3     OH2      OT      -0.834000       15.9994           0
     76595 TIP3     18050    TIP3     H1       HT       0.417000       1.00800           0
     76596 TIP3     18050    TIP3     H2       HT       0.417000       1.00800           0
     76597 TIP3     18051    TIP3     OH2      OT      -0.834000       15.9994           0
     76598 TIP3     18051    TIP3     H1       HT       0.417000       1.00800           0
     76599 TIP3     18051    TIP3     H2       HT       0.417000       1.00800           0
     76600 TIP3     18052    TIP3     OH2      OT      -0.834000       15.9994           0
     76601 TIP3     18052    TIP3     H1       HT       0.417000       1.00800           0
     76602 TIP3     18052    TIP3     H2       HT       0.417000       1.00800           0
     76603 TIP3     18053    TIP3     OH2      OT      -0.834000       15.9994           0
     76604 TIP3     18053    TIP3     H1       HT       0.417000       1.00800           0
     76605 TIP3     18053    TIP3     H2       HT       0.417000       1.00800           0
     76606 TIP3     18054    TIP3     OH2      OT      -0.834000       15.9994           0
     76607 TIP3     18054    TIP3     H1       HT       0.417000       1.00800           0
     76608 TIP3     18054    TIP3     H2       HT       0.417000       1.00800           0
     76609 TIP3     18055    TIP3     OH2      OT      -0.834000       15.9994           0
     76610 TIP3     18055    TIP3     H1       HT       0.417000       1.00800           0
     76611 TIP3     18055    TIP3     H2       HT       0.417000       1.00800           0
     76612 TIP3     18056    TIP3     OH2      OT      -0.834000       15.9994           0
     76613 TIP3     18056    TIP3     H1       HT       0.417000       1.00800           0
     76614 TIP3     18056    TIP3     H2       HT       0.417000       1.00800           0
     76615 TIP3     18057    TIP3     OH2      OT      -0.834000       15.9994           0
     76616 TIP3     18057    TIP3     H1       HT       0.417000       1.00800           0
     76617 TIP3     18057    TIP3     H2       HT       0.417000       1.00800           0
     76618 TIP3     18058    TIP3     OH2      OT      -0.834000       15.9994           0
     76619 TIP3     18058    TIP3     H1       HT       0.417000       1.00800           0
     76620 TIP3     18058    TIP3     H2       HT       0.417000       1.00800           0
     76621 TIP3     18059    TIP3     OH2      OT      -0.834000       15.9994           0
     76622 TIP3     18059    TIP3     H1       HT       0.417000       1.00800           0
     76623 TIP3     18059    TIP3     H2       HT       0.417000       1.00800           0
     76624 TIP3     18060    TIP3     OH2      OT      -0.834000       15.9994           0
     76625 TIP3     18060    TIP3     H1       HT       0.417000       1.00800           0
     76626 TIP3     18060    TIP3     H2       HT       0.417000       1.00800           0
     76627 TIP3     18061    TIP3     OH2      OT      -0.834000       15.9994           0
     76628 TIP3     18061    TIP3     H1       HT       0.417000       1.00800           0
     76629 TIP3     18061    TIP3     H2       HT       0.417000       1.00800           0
     76630 TIP3     18062    TIP3     OH2      OT      -0.834000       15.9994           0
     76631 TIP3     18062    TIP3     H1       HT       0.417000       1.00800           0
     76632 TIP3     18062    TIP3     H2       HT       0.417000       1.00800           0
     76633 TIP3     18063    TIP3     OH2      OT      -0.834000       15.9994           0
     76634 TIP3     18063    TIP3     H1       HT       0.417000       1.00800           0
     76635 TIP3     18063    TIP3     H2       HT       0.417000       1.00800           0
     76636 TIP3     18064    TIP3     OH2      OT      -0.834000       15.9994           0
     76637 TIP3     18064    TIP3     H1       HT       0.417000       1.00800           0
     76638 TIP3     18064    TIP3     H2       HT       0.417000       1.00800           0
     76639 TIP3     18065    TIP3     OH2      OT      -0.834000       15.9994           0
     76640 TIP3     18065    TIP3     H1       HT       0.417000       1.00800           0
     76641 TIP3     18065    TIP3     H2       HT       0.417000       1.00800           0
     76642 TIP3     18066    TIP3     OH2      OT      -0.834000       15.9994           0
     76643 TIP3     18066    TIP3     H1       HT       0.417000       1.00800           0
     76644 TIP3     18066    TIP3     H2       HT       0.417000       1.00800           0
     76645 TIP3     18067    TIP3     OH2      OT      -0.834000       15.9994           0
     76646 TIP3     18067    TIP3     H1       HT       0.417000       1.00800           0
     76647 TIP3     18067    TIP3     H2       HT       0.417000       1.00800           0
     76648 TIP3     18068    TIP3     OH2      OT      -0.834000       15.9994           0
     76649 TIP3     18068    TIP3     H1       HT       0.417000       1.00800           0
     76650 TIP3     18068    TIP3     H2       HT       0.417000       1.00800           0
     76651 TIP3     18069    TIP3     OH2      OT      -0.834000       15.9994           0
     76652 TIP3     18069    TIP3     H1       HT       0.417000       1.00800           0
     76653 TIP3     18069    TIP3     H2       HT       0.417000       1.00800           0
     76654 TIP3     18070    TIP3     OH2      OT      -0.834000       15.9994           0
     76655 TIP3     18070    TIP3     H1       HT       0.417000       1.00800           0
     76656 TIP3     18070    TIP3     H2       HT       0.417000       1.00800           0
     76657 TIP3     18071    TIP3     OH2      OT      -0.834000       15.9994           0
     76658 TIP3     18071    TIP3     H1       HT       0.417000       1.00800           0
     76659 TIP3     18071    TIP3     H2       HT       0.417000       1.00800           0
     76660 TIP3     18072    TIP3     OH2      OT      -0.834000       15.9994           0
     76661 TIP3     18072    TIP3     H1       HT       0.417000       1.00800           0
     76662 TIP3     18072    TIP3     H2       HT       0.417000       1.00800           0
     76663 TIP3     18073    TIP3     OH2      OT      -0.834000       15.9994           0
     76664 TIP3     18073    TIP3     H1       HT       0.417000       1.00800           0
     76665 TIP3     18073    TIP3     H2       HT       0.417000       1.00800           0
     76666 TIP3     18074    TIP3     OH2      OT      -0.834000       15.9994           0
     76667 TIP3     18074    TIP3     H1       HT       0.417000       1.00800           0
     76668 TIP3     18074    TIP3     H2       HT       0.417000       1.00800           0
     76669 TIP3     18075    TIP3     OH2      OT      -0.834000       15.9994           0
     76670 TIP3     18075    TIP3     H1       HT       0.417000       1.00800           0
     76671 TIP3     18075    TIP3     H2       HT       0.417000       1.00800           0
     76672 TIP3     18076    TIP3     OH2      OT      -0.834000       15.9994           0
     76673 TIP3     18076    TIP3     H1       HT       0.417000       1.00800           0
     76674 TIP3     18076    TIP3     H2       HT       0.417000       1.00800           0
     76675 TIP3     18077    TIP3     OH2      OT      -0.834000       15.9994           0
     76676 TIP3     18077    TIP3     H1       HT       0.417000       1.00800           0
     76677 TIP3     18077    TIP3     H2       HT       0.417000       1.00800           0
     76678 TIP3     18078    TIP3     OH2      OT      -0.834000       15.9994           0
     76679 TIP3     18078    TIP3     H1       HT       0.417000       1.00800           0
     76680 TIP3     18078    TIP3     H2       HT       0.417000       1.00800           0
     76681 TIP3     18079    TIP3     OH2      OT      -0.834000       15.9994           0
     76682 TIP3     18079    TIP3     H1       HT       0.417000       1.00800           0
     76683 TIP3     18079    TIP3     H2       HT       0.417000       1.00800           0
     76684 TIP3     18080    TIP3     OH2      OT      -0.834000       15.9994           0
     76685 TIP3     18080    TIP3     H1       HT       0.417000       1.00800           0
     76686 TIP3     18080    TIP3     H2       HT       0.417000       1.00800           0
     76687 TIP3     18081    TIP3     OH2      OT      -0.834000       15.9994           0
     76688 TIP3     18081    TIP3     H1       HT       0.417000       1.00800           0
     76689 TIP3     18081    TIP3     H2       HT       0.417000       1.00800           0
     76690 TIP3     18082    TIP3     OH2      OT      -0.834000       15.9994           0
     76691 TIP3     18082    TIP3     H1       HT       0.417000       1.00800           0
     76692 TIP3     18082    TIP3     H2       HT       0.417000       1.00800           0
     76693 TIP3     18083    TIP3     OH2      OT      -0.834000       15.9994           0
     76694 TIP3     18083    TIP3     H1       HT       0.417000       1.00800           0
     76695 TIP3     18083    TIP3     H2       HT       0.417000       1.00800           0
     76696 TIP3     18084    TIP3     OH2      OT      -0.834000       15.9994           0
     76697 TIP3     18084    TIP3     H1       HT       0.417000       1.00800           0
     76698 TIP3     18084    TIP3     H2       HT       0.417000       1.00800           0
     76699 TIP3     18085    TIP3     OH2      OT      -0.834000       15.9994           0
     76700 TIP3     18085    TIP3     H1       HT       0.417000       1.00800           0
     76701 TIP3     18085    TIP3     H2       HT       0.417000       1.00800           0
     76702 TIP3     18086    TIP3     OH2      OT      -0.834000       15.9994           0
     76703 TIP3     18086    TIP3     H1       HT       0.417000       1.00800           0
     76704 TIP3     18086    TIP3     H2       HT       0.417000       1.00800           0
     76705 TIP3     18087    TIP3     OH2      OT      -0.834000       15.9994           0
     76706 TIP3     18087    TIP3     H1       HT       0.417000       1.00800           0
     76707 TIP3     18087    TIP3     H2       HT       0.417000       1.00800           0
     76708 TIP3     18088    TIP3     OH2      OT      -0.834000       15.9994           0
     76709 TIP3     18088    TIP3     H1       HT       0.417000       1.00800           0
     76710 TIP3     18088    TIP3     H2       HT       0.417000       1.00800           0
     76711 TIP3     18089    TIP3     OH2      OT      -0.834000       15.9994           0
     76712 TIP3     18089    TIP3     H1       HT       0.417000       1.00800           0
     76713 TIP3     18089    TIP3     H2       HT       0.417000       1.00800           0
     76714 TIP3     18090    TIP3     OH2      OT      -0.834000       15.9994           0
     76715 TIP3     18090    TIP3     H1       HT       0.417000       1.00800           0
     76716 TIP3     18090    TIP3     H2       HT       0.417000       1.00800           0
     76717 TIP3     18091    TIP3     OH2      OT      -0.834000       15.9994           0
     76718 TIP3     18091    TIP3     H1       HT       0.417000       1.00800           0
     76719 TIP3     18091    TIP3     H2       HT       0.417000       1.00800           0
     76720 TIP3     18092    TIP3     OH2      OT      -0.834000       15.9994           0
     76721 TIP3     18092    TIP3     H1       HT       0.417000       1.00800           0
     76722 TIP3     18092    TIP3     H2       HT       0.417000       1.00800           0
     76723 TIP3     18093    TIP3     OH2      OT      -0.834000       15.9994           0
     76724 TIP3     18093    TIP3     H1       HT       0.417000       1.00800           0
     76725 TIP3     18093    TIP3     H2       HT       0.417000       1.00800           0
     76726 TIP3     18094    TIP3     OH2      OT      -0.834000       15.9994           0
     76727 TIP3     18094    TIP3     H1       HT       0.417000       1.00800           0
     76728 TIP3     18094    TIP3     H2       HT       0.417000       1.00800           0
     76729 TIP3     18095    TIP3     OH2      OT      -0.834000       15.9994           0
     76730 TIP3     18095    TIP3     H1       HT       0.417000       1.00800           0
     76731 TIP3     18095    TIP3     H2       HT       0.417000       1.00800           0
     76732 TIP3     18096    TIP3     OH2      OT      -0.834000       15.9994           0
     76733 TIP3     18096    TIP3     H1       HT       0.417000       1.00800           0
     76734 TIP3     18096    TIP3     H2       HT       0.417000       1.00800           0
     76735 TIP3     18097    TIP3     OH2      OT      -0.834000       15.9994           0
     76736 TIP3     18097    TIP3     H1       HT       0.417000       1.00800           0
     76737 TIP3     18097    TIP3     H2       HT       0.417000       1.00800           0
     76738 TIP3     18098    TIP3     OH2      OT      -0.834000       15.9994           0
     76739 TIP3     18098    TIP3     H1       HT       0.417000       1.00800           0
     76740 TIP3     18098    TIP3     H2       HT       0.417000       1.00800           0
     76741 TIP3     18099    TIP3     OH2      OT      -0.834000       15.9994           0
     76742 TIP3     18099    TIP3     H1       HT       0.417000       1.00800           0
     76743 TIP3     18099    TIP3     H2       HT       0.417000       1.00800           0
     76744 TIP3     18100    TIP3     OH2      OT      -0.834000       15.9994           0
     76745 TIP3     18100    TIP3     H1       HT       0.417000       1.00800           0
     76746 TIP3     18100    TIP3     H2       HT       0.417000       1.00800           0
     76747 TIP3     18101    TIP3     OH2      OT      -0.834000       15.9994           0
     76748 TIP3     18101    TIP3     H1       HT       0.417000       1.00800           0
     76749 TIP3     18101    TIP3     H2       HT       0.417000       1.00800           0
     76750 TIP3     18102    TIP3     OH2      OT      -0.834000       15.9994           0
     76751 TIP3     18102    TIP3     H1       HT       0.417000       1.00800           0
     76752 TIP3     18102    TIP3     H2       HT       0.417000       1.00800           0
     76753 TIP3     18103    TIP3     OH2      OT      -0.834000       15.9994           0
     76754 TIP3     18103    TIP3     H1       HT       0.417000       1.00800           0
     76755 TIP3     18103    TIP3     H2       HT       0.417000       1.00800           0
     76756 TIP3     18104    TIP3     OH2      OT      -0.834000       15.9994           0
     76757 TIP3     18104    TIP3     H1       HT       0.417000       1.00800           0
     76758 TIP3     18104    TIP3     H2       HT       0.417000       1.00800           0
     76759 TIP3     18105    TIP3     OH2      OT      -0.834000       15.9994           0
     76760 TIP3     18105    TIP3     H1       HT       0.417000       1.00800           0
     76761 TIP3     18105    TIP3     H2       HT       0.417000       1.00800           0
     76762 TIP3     18106    TIP3     OH2      OT      -0.834000       15.9994           0
     76763 TIP3     18106    TIP3     H1       HT       0.417000       1.00800           0
     76764 TIP3     18106    TIP3     H2       HT       0.417000       1.00800           0
     76765 TIP3     18107    TIP3     OH2      OT      -0.834000       15.9994           0
     76766 TIP3     18107    TIP3     H1       HT       0.417000       1.00800           0
     76767 TIP3     18107    TIP3     H2       HT       0.417000       1.00800           0
     76768 TIP3     18108    TIP3     OH2      OT      -0.834000       15.9994           0
     76769 TIP3     18108    TIP3     H1       HT       0.417000       1.00800           0
     76770 TIP3     18108    TIP3     H2       HT       0.417000       1.00800           0
     76771 TIP3     18109    TIP3     OH2      OT      -0.834000       15.9994           0
     76772 TIP3     18109    TIP3     H1       HT       0.417000       1.00800           0
     76773 TIP3     18109    TIP3     H2       HT       0.417000       1.00800           0
     76774 TIP3     18110    TIP3     OH2      OT      -0.834000       15.9994           0
     76775 TIP3     18110    TIP3     H1       HT       0.417000       1.00800           0
     76776 TIP3     18110    TIP3     H2       HT       0.417000       1.00800           0
     76777 TIP3     18111    TIP3     OH2      OT      -0.834000       15.9994           0
     76778 TIP3     18111    TIP3     H1       HT       0.417000       1.00800           0
     76779 TIP3     18111    TIP3     H2       HT       0.417000       1.00800           0
     76780 TIP3     18112    TIP3     OH2      OT      -0.834000       15.9994           0
     76781 TIP3     18112    TIP3     H1       HT       0.417000       1.00800           0
     76782 TIP3     18112    TIP3     H2       HT       0.417000       1.00800           0
     76783 TIP3     18113    TIP3     OH2      OT      -0.834000       15.9994           0
     76784 TIP3     18113    TIP3     H1       HT       0.417000       1.00800           0
     76785 TIP3     18113    TIP3     H2       HT       0.417000       1.00800           0
     76786 TIP3     18114    TIP3     OH2      OT      -0.834000       15.9994           0
     76787 TIP3     18114    TIP3     H1       HT       0.417000       1.00800           0
     76788 TIP3     18114    TIP3     H2       HT       0.417000       1.00800           0
     76789 TIP3     18115    TIP3     OH2      OT      -0.834000       15.9994           0
     76790 TIP3     18115    TIP3     H1       HT       0.417000       1.00800           0
     76791 TIP3     18115    TIP3     H2       HT       0.417000       1.00800           0
     76792 TIP3     18116    TIP3     OH2      OT      -0.834000       15.9994           0
     76793 TIP3     18116    TIP3     H1       HT       0.417000       1.00800           0
     76794 TIP3     18116    TIP3     H2       HT       0.417000       1.00800           0
     76795 TIP3     18117    TIP3     OH2      OT      -0.834000       15.9994           0
     76796 TIP3     18117    TIP3     H1       HT       0.417000       1.00800           0
     76797 TIP3     18117    TIP3     H2       HT       0.417000       1.00800           0
     76798 TIP3     18118    TIP3     OH2      OT      -0.834000       15.9994           0
     76799 TIP3     18118    TIP3     H1       HT       0.417000       1.00800           0
     76800 TIP3     18118    TIP3     H2       HT       0.417000       1.00800           0
     76801 TIP3     18119    TIP3     OH2      OT      -0.834000       15.9994           0
     76802 TIP3     18119    TIP3     H1       HT       0.417000       1.00800           0
     76803 TIP3     18119    TIP3     H2       HT       0.417000       1.00800           0
     76804 TIP3     18120    TIP3     OH2      OT      -0.834000       15.9994           0
     76805 TIP3     18120    TIP3     H1       HT       0.417000       1.00800           0
     76806 TIP3     18120    TIP3     H2       HT       0.417000       1.00800           0
     76807 TIP3     18121    TIP3     OH2      OT      -0.834000       15.9994           0
     76808 TIP3     18121    TIP3     H1       HT       0.417000       1.00800           0
     76809 TIP3     18121    TIP3     H2       HT       0.417000       1.00800           0
     76810 TIP3     18122    TIP3     OH2      OT      -0.834000       15.9994           0
     76811 TIP3     18122    TIP3     H1       HT       0.417000       1.00800           0
     76812 TIP3     18122    TIP3     H2       HT       0.417000       1.00800           0
     76813 TIP3     18123    TIP3     OH2      OT      -0.834000       15.9994           0
     76814 TIP3     18123    TIP3     H1       HT       0.417000       1.00800           0
     76815 TIP3     18123    TIP3     H2       HT       0.417000       1.00800           0
     76816 TIP3     18124    TIP3     OH2      OT      -0.834000       15.9994           0
     76817 TIP3     18124    TIP3     H1       HT       0.417000       1.00800           0
     76818 TIP3     18124    TIP3     H2       HT       0.417000       1.00800           0
     76819 TIP3     18125    TIP3     OH2      OT      -0.834000       15.9994           0
     76820 TIP3     18125    TIP3     H1       HT       0.417000       1.00800           0
     76821 TIP3     18125    TIP3     H2       HT       0.417000       1.00800           0
     76822 TIP3     18126    TIP3     OH2      OT      -0.834000       15.9994           0
     76823 TIP3     18126    TIP3     H1       HT       0.417000       1.00800           0
     76824 TIP3     18126    TIP3     H2       HT       0.417000       1.00800           0
     76825 TIP3     18127    TIP3     OH2      OT      -0.834000       15.9994           0
     76826 TIP3     18127    TIP3     H1       HT       0.417000       1.00800           0
     76827 TIP3     18127    TIP3     H2       HT       0.417000       1.00800           0
     76828 TIP3     18128    TIP3     OH2      OT      -0.834000       15.9994           0
     76829 TIP3     18128    TIP3     H1       HT       0.417000       1.00800           0
     76830 TIP3     18128    TIP3     H2       HT       0.417000       1.00800           0
     76831 TIP3     18129    TIP3     OH2      OT      -0.834000       15.9994           0
     76832 TIP3     18129    TIP3     H1       HT       0.417000       1.00800           0
     76833 TIP3     18129    TIP3     H2       HT       0.417000       1.00800           0
     76834 TIP3     18130    TIP3     OH2      OT      -0.834000       15.9994           0
     76835 TIP3     18130    TIP3     H1       HT       0.417000       1.00800           0
     76836 TIP3     18130    TIP3     H2       HT       0.417000       1.00800           0
     76837 TIP3     18131    TIP3     OH2      OT      -0.834000       15.9994           0
     76838 TIP3     18131    TIP3     H1       HT       0.417000       1.00800           0
     76839 TIP3     18131    TIP3     H2       HT       0.417000       1.00800           0
     76840 TIP3     18132    TIP3     OH2      OT      -0.834000       15.9994           0
     76841 TIP3     18132    TIP3     H1       HT       0.417000       1.00800           0
     76842 TIP3     18132    TIP3     H2       HT       0.417000       1.00800           0
     76843 TIP3     18133    TIP3     OH2      OT      -0.834000       15.9994           0
     76844 TIP3     18133    TIP3     H1       HT       0.417000       1.00800           0
     76845 TIP3     18133    TIP3     H2       HT       0.417000       1.00800           0
     76846 TIP3     18134    TIP3     OH2      OT      -0.834000       15.9994           0
     76847 TIP3     18134    TIP3     H1       HT       0.417000       1.00800           0
     76848 TIP3     18134    TIP3     H2       HT       0.417000       1.00800           0
     76849 TIP3     18135    TIP3     OH2      OT      -0.834000       15.9994           0
     76850 TIP3     18135    TIP3     H1       HT       0.417000       1.00800           0
     76851 TIP3     18135    TIP3     H2       HT       0.417000       1.00800           0
     76852 TIP3     18136    TIP3     OH2      OT      -0.834000       15.9994           0
     76853 TIP3     18136    TIP3     H1       HT       0.417000       1.00800           0
     76854 TIP3     18136    TIP3     H2       HT       0.417000       1.00800           0
     76855 TIP3     18137    TIP3     OH2      OT      -0.834000       15.9994           0
     76856 TIP3     18137    TIP3     H1       HT       0.417000       1.00800           0
     76857 TIP3     18137    TIP3     H2       HT       0.417000       1.00800           0
     76858 TIP3     18138    TIP3     OH2      OT      -0.834000       15.9994           0
     76859 TIP3     18138    TIP3     H1       HT       0.417000       1.00800           0
     76860 TIP3     18138    TIP3     H2       HT       0.417000       1.00800           0
     76861 TIP3     18139    TIP3     OH2      OT      -0.834000       15.9994           0
     76862 TIP3     18139    TIP3     H1       HT       0.417000       1.00800           0
     76863 TIP3     18139    TIP3     H2       HT       0.417000       1.00800           0
     76864 TIP3     18140    TIP3     OH2      OT      -0.834000       15.9994           0
     76865 TIP3     18140    TIP3     H1       HT       0.417000       1.00800           0
     76866 TIP3     18140    TIP3     H2       HT       0.417000       1.00800           0
     76867 TIP3     18141    TIP3     OH2      OT      -0.834000       15.9994           0
     76868 TIP3     18141    TIP3     H1       HT       0.417000       1.00800           0
     76869 TIP3     18141    TIP3     H2       HT       0.417000       1.00800           0
     76870 TIP3     18142    TIP3     OH2      OT      -0.834000       15.9994           0
     76871 TIP3     18142    TIP3     H1       HT       0.417000       1.00800           0
     76872 TIP3     18142    TIP3     H2       HT       0.417000       1.00800           0
     76873 TIP3     18143    TIP3     OH2      OT      -0.834000       15.9994           0
     76874 TIP3     18143    TIP3     H1       HT       0.417000       1.00800           0
     76875 TIP3     18143    TIP3     H2       HT       0.417000       1.00800           0
     76876 TIP3     18144    TIP3     OH2      OT      -0.834000       15.9994           0
     76877 TIP3     18144    TIP3     H1       HT       0.417000       1.00800           0
     76878 TIP3     18144    TIP3     H2       HT       0.417000       1.00800           0
     76879 TIP3     18145    TIP3     OH2      OT      -0.834000       15.9994           0
     76880 TIP3     18145    TIP3     H1       HT       0.417000       1.00800           0
     76881 TIP3     18145    TIP3     H2       HT       0.417000       1.00800           0
     76882 TIP3     18146    TIP3     OH2      OT      -0.834000       15.9994           0
     76883 TIP3     18146    TIP3     H1       HT       0.417000       1.00800           0
     76884 TIP3     18146    TIP3     H2       HT       0.417000       1.00800           0
     76885 TIP3     18147    TIP3     OH2      OT      -0.834000       15.9994           0
     76886 TIP3     18147    TIP3     H1       HT       0.417000       1.00800           0
     76887 TIP3     18147    TIP3     H2       HT       0.417000       1.00800           0
     76888 TIP3     18148    TIP3     OH2      OT      -0.834000       15.9994           0
     76889 TIP3     18148    TIP3     H1       HT       0.417000       1.00800           0
     76890 TIP3     18148    TIP3     H2       HT       0.417000       1.00800           0
     76891 TIP3     18149    TIP3     OH2      OT      -0.834000       15.9994           0
     76892 TIP3     18149    TIP3     H1       HT       0.417000       1.00800           0
     76893 TIP3     18149    TIP3     H2       HT       0.417000       1.00800           0
     76894 TIP3     18150    TIP3     OH2      OT      -0.834000       15.9994           0
     76895 TIP3     18150    TIP3     H1       HT       0.417000       1.00800           0
     76896 TIP3     18150    TIP3     H2       HT       0.417000       1.00800           0
     76897 TIP3     18151    TIP3     OH2      OT      -0.834000       15.9994           0
     76898 TIP3     18151    TIP3     H1       HT       0.417000       1.00800           0
     76899 TIP3     18151    TIP3     H2       HT       0.417000       1.00800           0
     76900 TIP3     18152    TIP3     OH2      OT      -0.834000       15.9994           0
     76901 TIP3     18152    TIP3     H1       HT       0.417000       1.00800           0
     76902 TIP3     18152    TIP3     H2       HT       0.417000       1.00800           0
     76903 TIP3     18153    TIP3     OH2      OT      -0.834000       15.9994           0
     76904 TIP3     18153    TIP3     H1       HT       0.417000       1.00800           0
     76905 TIP3     18153    TIP3     H2       HT       0.417000       1.00800           0
     76906 TIP3     18154    TIP3     OH2      OT      -0.834000       15.9994           0
     76907 TIP3     18154    TIP3     H1       HT       0.417000       1.00800           0
     76908 TIP3     18154    TIP3     H2       HT       0.417000       1.00800           0
     76909 TIP3     18155    TIP3     OH2      OT      -0.834000       15.9994           0
     76910 TIP3     18155    TIP3     H1       HT       0.417000       1.00800           0
     76911 TIP3     18155    TIP3     H2       HT       0.417000       1.00800           0
     76912 TIP3     18156    TIP3     OH2      OT      -0.834000       15.9994           0
     76913 TIP3     18156    TIP3     H1       HT       0.417000       1.00800           0
     76914 TIP3     18156    TIP3     H2       HT       0.417000       1.00800           0
     76915 TIP3     18157    TIP3     OH2      OT      -0.834000       15.9994           0
     76916 TIP3     18157    TIP3     H1       HT       0.417000       1.00800           0
     76917 TIP3     18157    TIP3     H2       HT       0.417000       1.00800           0
     76918 TIP3     18158    TIP3     OH2      OT      -0.834000       15.9994           0
     76919 TIP3     18158    TIP3     H1       HT       0.417000       1.00800           0
     76920 TIP3     18158    TIP3     H2       HT       0.417000       1.00800           0
     76921 TIP3     18159    TIP3     OH2      OT      -0.834000       15.9994           0
     76922 TIP3     18159    TIP3     H1       HT       0.417000       1.00800           0
     76923 TIP3     18159    TIP3     H2       HT       0.417000       1.00800           0
     76924 TIP3     18160    TIP3     OH2      OT      -0.834000       15.9994           0
     76925 TIP3     18160    TIP3     H1       HT       0.417000       1.00800           0
     76926 TIP3     18160    TIP3     H2       HT       0.417000       1.00800           0
     76927 TIP3     18161    TIP3     OH2      OT      -0.834000       15.9994           0
     76928 TIP3     18161    TIP3     H1       HT       0.417000       1.00800           0
     76929 TIP3     18161    TIP3     H2       HT       0.417000       1.00800           0
     76930 TIP3     18162    TIP3     OH2      OT      -0.834000       15.9994           0
     76931 TIP3     18162    TIP3     H1       HT       0.417000       1.00800           0
     76932 TIP3     18162    TIP3     H2       HT       0.417000       1.00800           0
     76933 TIP3     18163    TIP3     OH2      OT      -0.834000       15.9994           0
     76934 TIP3     18163    TIP3     H1       HT       0.417000       1.00800           0
     76935 TIP3     18163    TIP3     H2       HT       0.417000       1.00800           0
     76936 TIP3     18164    TIP3     OH2      OT      -0.834000       15.9994           0
     76937 TIP3     18164    TIP3     H1       HT       0.417000       1.00800           0
     76938 TIP3     18164    TIP3     H2       HT       0.417000       1.00800           0
     76939 TIP3     18165    TIP3     OH2      OT      -0.834000       15.9994           0
     76940 TIP3     18165    TIP3     H1       HT       0.417000       1.00800           0
     76941 TIP3     18165    TIP3     H2       HT       0.417000       1.00800           0
     76942 TIP3     18166    TIP3     OH2      OT      -0.834000       15.9994           0
     76943 TIP3     18166    TIP3     H1       HT       0.417000       1.00800           0
     76944 TIP3     18166    TIP3     H2       HT       0.417000       1.00800           0
     76945 TIP3     18167    TIP3     OH2      OT      -0.834000       15.9994           0
     76946 TIP3     18167    TIP3     H1       HT       0.417000       1.00800           0
     76947 TIP3     18167    TIP3     H2       HT       0.417000       1.00800           0
     76948 TIP3     18168    TIP3     OH2      OT      -0.834000       15.9994           0
     76949 TIP3     18168    TIP3     H1       HT       0.417000       1.00800           0
     76950 TIP3     18168    TIP3     H2       HT       0.417000       1.00800           0
     76951 TIP3     18169    TIP3     OH2      OT      -0.834000       15.9994           0
     76952 TIP3     18169    TIP3     H1       HT       0.417000       1.00800           0
     76953 TIP3     18169    TIP3     H2       HT       0.417000       1.00800           0
     76954 TIP3     18170    TIP3     OH2      OT      -0.834000       15.9994           0
     76955 TIP3     18170    TIP3     H1       HT       0.417000       1.00800           0
     76956 TIP3     18170    TIP3     H2       HT       0.417000       1.00800           0
     76957 TIP3     18171    TIP3     OH2      OT      -0.834000       15.9994           0
     76958 TIP3     18171    TIP3     H1       HT       0.417000       1.00800           0
     76959 TIP3     18171    TIP3     H2       HT       0.417000       1.00800           0
     76960 TIP3     18172    TIP3     OH2      OT      -0.834000       15.9994           0
     76961 TIP3     18172    TIP3     H1       HT       0.417000       1.00800           0
     76962 TIP3     18172    TIP3     H2       HT       0.417000       1.00800           0
     76963 TIP3     18173    TIP3     OH2      OT      -0.834000       15.9994           0
     76964 TIP3     18173    TIP3     H1       HT       0.417000       1.00800           0
     76965 TIP3     18173    TIP3     H2       HT       0.417000       1.00800           0
     76966 TIP3     18174    TIP3     OH2      OT      -0.834000       15.9994           0
     76967 TIP3     18174    TIP3     H1       HT       0.417000       1.00800           0
     76968 TIP3     18174    TIP3     H2       HT       0.417000       1.00800           0
     76969 TIP3     18175    TIP3     OH2      OT      -0.834000       15.9994           0
     76970 TIP3     18175    TIP3     H1       HT       0.417000       1.00800           0
     76971 TIP3     18175    TIP3     H2       HT       0.417000       1.00800           0
     76972 TIP3     18176    TIP3     OH2      OT      -0.834000       15.9994           0
     76973 TIP3     18176    TIP3     H1       HT       0.417000       1.00800           0
     76974 TIP3     18176    TIP3     H2       HT       0.417000       1.00800           0
     76975 TIP3     18177    TIP3     OH2      OT      -0.834000       15.9994           0
     76976 TIP3     18177    TIP3     H1       HT       0.417000       1.00800           0
     76977 TIP3     18177    TIP3     H2       HT       0.417000       1.00800           0
     76978 TIP3     18178    TIP3     OH2      OT      -0.834000       15.9994           0
     76979 TIP3     18178    TIP3     H1       HT       0.417000       1.00800           0
     76980 TIP3     18178    TIP3     H2       HT       0.417000       1.00800           0
     76981 TIP3     18179    TIP3     OH2      OT      -0.834000       15.9994           0
     76982 TIP3     18179    TIP3     H1       HT       0.417000       1.00800           0
     76983 TIP3     18179    TIP3     H2       HT       0.417000       1.00800           0
     76984 TIP3     18180    TIP3     OH2      OT      -0.834000       15.9994           0
     76985 TIP3     18180    TIP3     H1       HT       0.417000       1.00800           0
     76986 TIP3     18180    TIP3     H2       HT       0.417000       1.00800           0
     76987 TIP3     18181    TIP3     OH2      OT      -0.834000       15.9994           0
     76988 TIP3     18181    TIP3     H1       HT       0.417000       1.00800           0
     76989 TIP3     18181    TIP3     H2       HT       0.417000       1.00800           0
     76990 TIP3     18182    TIP3     OH2      OT      -0.834000       15.9994           0
     76991 TIP3     18182    TIP3     H1       HT       0.417000       1.00800           0
     76992 TIP3     18182    TIP3     H2       HT       0.417000       1.00800           0
     76993 TIP3     18183    TIP3     OH2      OT      -0.834000       15.9994           0
     76994 TIP3     18183    TIP3     H1       HT       0.417000       1.00800           0
     76995 TIP3     18183    TIP3     H2       HT       0.417000       1.00800           0
     76996 TIP3     18184    TIP3     OH2      OT      -0.834000       15.9994           0
     76997 TIP3     18184    TIP3     H1       HT       0.417000       1.00800           0
     76998 TIP3     18184    TIP3     H2       HT       0.417000       1.00800           0
     76999 TIP3     18185    TIP3     OH2      OT      -0.834000       15.9994           0
     77000 TIP3     18185    TIP3     H1       HT       0.417000       1.00800           0
     77001 TIP3     18185    TIP3     H2       HT       0.417000       1.00800           0
     77002 TIP3     18186    TIP3     OH2      OT      -0.834000       15.9994           0
     77003 TIP3     18186    TIP3     H1       HT       0.417000       1.00800           0
     77004 TIP3     18186    TIP3     H2       HT       0.417000       1.00800           0
     77005 TIP3     18187    TIP3     OH2      OT      -0.834000       15.9994           0
     77006 TIP3     18187    TIP3     H1       HT       0.417000       1.00800           0
     77007 TIP3     18187    TIP3     H2       HT       0.417000       1.00800           0
     77008 TIP3     18188    TIP3     OH2      OT      -0.834000       15.9994           0
     77009 TIP3     18188    TIP3     H1       HT       0.417000       1.00800           0
     77010 TIP3     18188    TIP3     H2       HT       0.417000       1.00800           0
     77011 TIP3     18189    TIP3     OH2      OT      -0.834000       15.9994           0
     77012 TIP3     18189    TIP3     H1       HT       0.417000       1.00800           0
     77013 TIP3     18189    TIP3     H2       HT       0.417000       1.00800           0
     77014 TIP3     18190    TIP3     OH2      OT      -0.834000       15.9994           0
     77015 TIP3     18190    TIP3     H1       HT       0.417000       1.00800           0
     77016 TIP3     18190    TIP3     H2       HT       0.417000       1.00800           0
     77017 TIP3     18191    TIP3     OH2      OT      -0.834000       15.9994           0
     77018 TIP3     18191    TIP3     H1       HT       0.417000       1.00800           0
     77019 TIP3     18191    TIP3     H2       HT       0.417000       1.00800           0
     77020 TIP3     18192    TIP3     OH2      OT      -0.834000       15.9994           0
     77021 TIP3     18192    TIP3     H1       HT       0.417000       1.00800           0
     77022 TIP3     18192    TIP3     H2       HT       0.417000       1.00800           0
     77023 TIP3     18193    TIP3     OH2      OT      -0.834000       15.9994           0
     77024 TIP3     18193    TIP3     H1       HT       0.417000       1.00800           0
     77025 TIP3     18193    TIP3     H2       HT       0.417000       1.00800           0
     77026 TIP3     18194    TIP3     OH2      OT      -0.834000       15.9994           0
     77027 TIP3     18194    TIP3     H1       HT       0.417000       1.00800           0
     77028 TIP3     18194    TIP3     H2       HT       0.417000       1.00800           0
     77029 TIP3     18195    TIP3     OH2      OT      -0.834000       15.9994           0
     77030 TIP3     18195    TIP3     H1       HT       0.417000       1.00800           0
     77031 TIP3     18195    TIP3     H2       HT       0.417000       1.00800           0
     77032 TIP3     18196    TIP3     OH2      OT      -0.834000       15.9994           0
     77033 TIP3     18196    TIP3     H1       HT       0.417000       1.00800           0
     77034 TIP3     18196    TIP3     H2       HT       0.417000       1.00800           0
     77035 TIP3     18197    TIP3     OH2      OT      -0.834000       15.9994           0
     77036 TIP3     18197    TIP3     H1       HT       0.417000       1.00800           0
     77037 TIP3     18197    TIP3     H2       HT       0.417000       1.00800           0
     77038 TIP3     18198    TIP3     OH2      OT      -0.834000       15.9994           0
     77039 TIP3     18198    TIP3     H1       HT       0.417000       1.00800           0
     77040 TIP3     18198    TIP3     H2       HT       0.417000       1.00800           0
     77041 TIP3     18199    TIP3     OH2      OT      -0.834000       15.9994           0
     77042 TIP3     18199    TIP3     H1       HT       0.417000       1.00800           0
     77043 TIP3     18199    TIP3     H2       HT       0.417000       1.00800           0
     77044 TIP3     18200    TIP3     OH2      OT      -0.834000       15.9994           0
     77045 TIP3     18200    TIP3     H1       HT       0.417000       1.00800           0
     77046 TIP3     18200    TIP3     H2       HT       0.417000       1.00800           0
     77047 TIP3     18201    TIP3     OH2      OT      -0.834000       15.9994           0
     77048 TIP3     18201    TIP3     H1       HT       0.417000       1.00800           0
     77049 TIP3     18201    TIP3     H2       HT       0.417000       1.00800           0
     77050 TIP3     18202    TIP3     OH2      OT      -0.834000       15.9994           0
     77051 TIP3     18202    TIP3     H1       HT       0.417000       1.00800           0
     77052 TIP3     18202    TIP3     H2       HT       0.417000       1.00800           0
     77053 TIP3     18203    TIP3     OH2      OT      -0.834000       15.9994           0
     77054 TIP3     18203    TIP3     H1       HT       0.417000       1.00800           0
     77055 TIP3     18203    TIP3     H2       HT       0.417000       1.00800           0
     77056 TIP3     18204    TIP3     OH2      OT      -0.834000       15.9994           0
     77057 TIP3     18204    TIP3     H1       HT       0.417000       1.00800           0
     77058 TIP3     18204    TIP3     H2       HT       0.417000       1.00800           0
     77059 TIP3     18205    TIP3     OH2      OT      -0.834000       15.9994           0
     77060 TIP3     18205    TIP3     H1       HT       0.417000       1.00800           0
     77061 TIP3     18205    TIP3     H2       HT       0.417000       1.00800           0
     77062 TIP3     18206    TIP3     OH2      OT      -0.834000       15.9994           0
     77063 TIP3     18206    TIP3     H1       HT       0.417000       1.00800           0
     77064 TIP3     18206    TIP3     H2       HT       0.417000       1.00800           0
     77065 TIP3     18207    TIP3     OH2      OT      -0.834000       15.9994           0
     77066 TIP3     18207    TIP3     H1       HT       0.417000       1.00800           0
     77067 TIP3     18207    TIP3     H2       HT       0.417000       1.00800           0
     77068 TIP3     18208    TIP3     OH2      OT      -0.834000       15.9994           0
     77069 TIP3     18208    TIP3     H1       HT       0.417000       1.00800           0
     77070 TIP3     18208    TIP3     H2       HT       0.417000       1.00800           0
     77071 TIP3     18209    TIP3     OH2      OT      -0.834000       15.9994           0
     77072 TIP3     18209    TIP3     H1       HT       0.417000       1.00800           0
     77073 TIP3     18209    TIP3     H2       HT       0.417000       1.00800           0
     77074 TIP3     18210    TIP3     OH2      OT      -0.834000       15.9994           0
     77075 TIP3     18210    TIP3     H1       HT       0.417000       1.00800           0
     77076 TIP3     18210    TIP3     H2       HT       0.417000       1.00800           0
     77077 TIP3     18211    TIP3     OH2      OT      -0.834000       15.9994           0
     77078 TIP3     18211    TIP3     H1       HT       0.417000       1.00800           0
     77079 TIP3     18211    TIP3     H2       HT       0.417000       1.00800           0
     77080 TIP3     18212    TIP3     OH2      OT      -0.834000       15.9994           0
     77081 TIP3     18212    TIP3     H1       HT       0.417000       1.00800           0
     77082 TIP3     18212    TIP3     H2       HT       0.417000       1.00800           0
     77083 TIP3     18213    TIP3     OH2      OT      -0.834000       15.9994           0
     77084 TIP3     18213    TIP3     H1       HT       0.417000       1.00800           0
     77085 TIP3     18213    TIP3     H2       HT       0.417000       1.00800           0
     77086 TIP3     18214    TIP3     OH2      OT      -0.834000       15.9994           0
     77087 TIP3     18214    TIP3     H1       HT       0.417000       1.00800           0
     77088 TIP3     18214    TIP3     H2       HT       0.417000       1.00800           0
     77089 TIP3     18215    TIP3     OH2      OT      -0.834000       15.9994           0
     77090 TIP3     18215    TIP3     H1       HT       0.417000       1.00800           0
     77091 TIP3     18215    TIP3     H2       HT       0.417000       1.00800           0
     77092 TIP3     18216    TIP3     OH2      OT      -0.834000       15.9994           0
     77093 TIP3     18216    TIP3     H1       HT       0.417000       1.00800           0
     77094 TIP3     18216    TIP3     H2       HT       0.417000       1.00800           0
     77095 TIP3     18217    TIP3     OH2      OT      -0.834000       15.9994           0
     77096 TIP3     18217    TIP3     H1       HT       0.417000       1.00800           0
     77097 TIP3     18217    TIP3     H2       HT       0.417000       1.00800           0
     77098 TIP3     18218    TIP3     OH2      OT      -0.834000       15.9994           0
     77099 TIP3     18218    TIP3     H1       HT       0.417000       1.00800           0
     77100 TIP3     18218    TIP3     H2       HT       0.417000       1.00800           0
     77101 TIP3     18219    TIP3     OH2      OT      -0.834000       15.9994           0
     77102 TIP3     18219    TIP3     H1       HT       0.417000       1.00800           0
     77103 TIP3     18219    TIP3     H2       HT       0.417000       1.00800           0
     77104 TIP3     18220    TIP3     OH2      OT      -0.834000       15.9994           0
     77105 TIP3     18220    TIP3     H1       HT       0.417000       1.00800           0
     77106 TIP3     18220    TIP3     H2       HT       0.417000       1.00800           0
     77107 TIP3     18221    TIP3     OH2      OT      -0.834000       15.9994           0
     77108 TIP3     18221    TIP3     H1       HT       0.417000       1.00800           0
     77109 TIP3     18221    TIP3     H2       HT       0.417000       1.00800           0
     77110 TIP3     18222    TIP3     OH2      OT      -0.834000       15.9994           0
     77111 TIP3     18222    TIP3     H1       HT       0.417000       1.00800           0
     77112 TIP3     18222    TIP3     H2       HT       0.417000       1.00800           0
     77113 TIP3     18223    TIP3     OH2      OT      -0.834000       15.9994           0
     77114 TIP3     18223    TIP3     H1       HT       0.417000       1.00800           0
     77115 TIP3     18223    TIP3     H2       HT       0.417000       1.00800           0
     77116 TIP3     18224    TIP3     OH2      OT      -0.834000       15.9994           0
     77117 TIP3     18224    TIP3     H1       HT       0.417000       1.00800           0
     77118 TIP3     18224    TIP3     H2       HT       0.417000       1.00800           0
     77119 TIP3     18225    TIP3     OH2      OT      -0.834000       15.9994           0
     77120 TIP3     18225    TIP3     H1       HT       0.417000       1.00800           0
     77121 TIP3     18225    TIP3     H2       HT       0.417000       1.00800           0
     77122 TIP3     18226    TIP3     OH2      OT      -0.834000       15.9994           0
     77123 TIP3     18226    TIP3     H1       HT       0.417000       1.00800           0
     77124 TIP3     18226    TIP3     H2       HT       0.417000       1.00800           0
     77125 TIP3     18227    TIP3     OH2      OT      -0.834000       15.9994           0
     77126 TIP3     18227    TIP3     H1       HT       0.417000       1.00800           0
     77127 TIP3     18227    TIP3     H2       HT       0.417000       1.00800           0
     77128 TIP3     18228    TIP3     OH2      OT      -0.834000       15.9994           0
     77129 TIP3     18228    TIP3     H1       HT       0.417000       1.00800           0
     77130 TIP3     18228    TIP3     H2       HT       0.417000       1.00800           0
     77131 TIP3     18229    TIP3     OH2      OT      -0.834000       15.9994           0
     77132 TIP3     18229    TIP3     H1       HT       0.417000       1.00800           0
     77133 TIP3     18229    TIP3     H2       HT       0.417000       1.00800           0
     77134 TIP3     18230    TIP3     OH2      OT      -0.834000       15.9994           0
     77135 TIP3     18230    TIP3     H1       HT       0.417000       1.00800           0
     77136 TIP3     18230    TIP3     H2       HT       0.417000       1.00800           0
     77137 TIP3     18231    TIP3     OH2      OT      -0.834000       15.9994           0
     77138 TIP3     18231    TIP3     H1       HT       0.417000       1.00800           0
     77139 TIP3     18231    TIP3     H2       HT       0.417000       1.00800           0
     77140 TIP3     18232    TIP3     OH2      OT      -0.834000       15.9994           0
     77141 TIP3     18232    TIP3     H1       HT       0.417000       1.00800           0
     77142 TIP3     18232    TIP3     H2       HT       0.417000       1.00800           0
     77143 TIP3     18233    TIP3     OH2      OT      -0.834000       15.9994           0
     77144 TIP3     18233    TIP3     H1       HT       0.417000       1.00800           0
     77145 TIP3     18233    TIP3     H2       HT       0.417000       1.00800           0
     77146 TIP3     18234    TIP3     OH2      OT      -0.834000       15.9994           0
     77147 TIP3     18234    TIP3     H1       HT       0.417000       1.00800           0
     77148 TIP3     18234    TIP3     H2       HT       0.417000       1.00800           0
     77149 TIP3     18235    TIP3     OH2      OT      -0.834000       15.9994           0
     77150 TIP3     18235    TIP3     H1       HT       0.417000       1.00800           0
     77151 TIP3     18235    TIP3     H2       HT       0.417000       1.00800           0
     77152 TIP3     18236    TIP3     OH2      OT      -0.834000       15.9994           0
     77153 TIP3     18236    TIP3     H1       HT       0.417000       1.00800           0
     77154 TIP3     18236    TIP3     H2       HT       0.417000       1.00800           0
     77155 TIP3     18237    TIP3     OH2      OT      -0.834000       15.9994           0
     77156 TIP3     18237    TIP3     H1       HT       0.417000       1.00800           0
     77157 TIP3     18237    TIP3     H2       HT       0.417000       1.00800           0
     77158 TIP3     18238    TIP3     OH2      OT      -0.834000       15.9994           0
     77159 TIP3     18238    TIP3     H1       HT       0.417000       1.00800           0
     77160 TIP3     18238    TIP3     H2       HT       0.417000       1.00800           0
     77161 TIP3     18239    TIP3     OH2      OT      -0.834000       15.9994           0
     77162 TIP3     18239    TIP3     H1       HT       0.417000       1.00800           0
     77163 TIP3     18239    TIP3     H2       HT       0.417000       1.00800           0
     77164 TIP3     18240    TIP3     OH2      OT      -0.834000       15.9994           0
     77165 TIP3     18240    TIP3     H1       HT       0.417000       1.00800           0
     77166 TIP3     18240    TIP3     H2       HT       0.417000       1.00800           0
     77167 TIP3     18241    TIP3     OH2      OT      -0.834000       15.9994           0
     77168 TIP3     18241    TIP3     H1       HT       0.417000       1.00800           0
     77169 TIP3     18241    TIP3     H2       HT       0.417000       1.00800           0
     77170 TIP3     18242    TIP3     OH2      OT      -0.834000       15.9994           0
     77171 TIP3     18242    TIP3     H1       HT       0.417000       1.00800           0
     77172 TIP3     18242    TIP3     H2       HT       0.417000       1.00800           0
     77173 TIP3     18243    TIP3     OH2      OT      -0.834000       15.9994           0
     77174 TIP3     18243    TIP3     H1       HT       0.417000       1.00800           0
     77175 TIP3     18243    TIP3     H2       HT       0.417000       1.00800           0
     77176 TIP3     18244    TIP3     OH2      OT      -0.834000       15.9994           0
     77177 TIP3     18244    TIP3     H1       HT       0.417000       1.00800           0
     77178 TIP3     18244    TIP3     H2       HT       0.417000       1.00800           0
     77179 TIP3     18245    TIP3     OH2      OT      -0.834000       15.9994           0
     77180 TIP3     18245    TIP3     H1       HT       0.417000       1.00800           0
     77181 TIP3     18245    TIP3     H2       HT       0.417000       1.00800           0
     77182 TIP3     18246    TIP3     OH2      OT      -0.834000       15.9994           0
     77183 TIP3     18246    TIP3     H1       HT       0.417000       1.00800           0
     77184 TIP3     18246    TIP3     H2       HT       0.417000       1.00800           0
     77185 TIP3     18247    TIP3     OH2      OT      -0.834000       15.9994           0
     77186 TIP3     18247    TIP3     H1       HT       0.417000       1.00800           0
     77187 TIP3     18247    TIP3     H2       HT       0.417000       1.00800           0
     77188 TIP3     18248    TIP3     OH2      OT      -0.834000       15.9994           0
     77189 TIP3     18248    TIP3     H1       HT       0.417000       1.00800           0
     77190 TIP3     18248    TIP3     H2       HT       0.417000       1.00800           0
     77191 TIP3     18249    TIP3     OH2      OT      -0.834000       15.9994           0
     77192 TIP3     18249    TIP3     H1       HT       0.417000       1.00800           0
     77193 TIP3     18249    TIP3     H2       HT       0.417000       1.00800           0
     77194 TIP3     18250    TIP3     OH2      OT      -0.834000       15.9994           0
     77195 TIP3     18250    TIP3     H1       HT       0.417000       1.00800           0
     77196 TIP3     18250    TIP3     H2       HT       0.417000       1.00800           0
     77197 TIP3     18251    TIP3     OH2      OT      -0.834000       15.9994           0
     77198 TIP3     18251    TIP3     H1       HT       0.417000       1.00800           0
     77199 TIP3     18251    TIP3     H2       HT       0.417000       1.00800           0
     77200 TIP3     18252    TIP3     OH2      OT      -0.834000       15.9994           0
     77201 TIP3     18252    TIP3     H1       HT       0.417000       1.00800           0
     77202 TIP3     18252    TIP3     H2       HT       0.417000       1.00800           0
     77203 TIP3     18253    TIP3     OH2      OT      -0.834000       15.9994           0
     77204 TIP3     18253    TIP3     H1       HT       0.417000       1.00800           0
     77205 TIP3     18253    TIP3     H2       HT       0.417000       1.00800           0
     77206 TIP3     18254    TIP3     OH2      OT      -0.834000       15.9994           0
     77207 TIP3     18254    TIP3     H1       HT       0.417000       1.00800           0
     77208 TIP3     18254    TIP3     H2       HT       0.417000       1.00800           0
     77209 TIP3     18255    TIP3     OH2      OT      -0.834000       15.9994           0
     77210 TIP3     18255    TIP3     H1       HT       0.417000       1.00800           0
     77211 TIP3     18255    TIP3     H2       HT       0.417000       1.00800           0
     77212 TIP3     18256    TIP3     OH2      OT      -0.834000       15.9994           0
     77213 TIP3     18256    TIP3     H1       HT       0.417000       1.00800           0
     77214 TIP3     18256    TIP3     H2       HT       0.417000       1.00800           0
     77215 TIP3     18257    TIP3     OH2      OT      -0.834000       15.9994           0
     77216 TIP3     18257    TIP3     H1       HT       0.417000       1.00800           0
     77217 TIP3     18257    TIP3     H2       HT       0.417000       1.00800           0
     77218 TIP3     18258    TIP3     OH2      OT      -0.834000       15.9994           0
     77219 TIP3     18258    TIP3     H1       HT       0.417000       1.00800           0
     77220 TIP3     18258    TIP3     H2       HT       0.417000       1.00800           0
     77221 TIP3     18259    TIP3     OH2      OT      -0.834000       15.9994           0
     77222 TIP3     18259    TIP3     H1       HT       0.417000       1.00800           0
     77223 TIP3     18259    TIP3     H2       HT       0.417000       1.00800           0
     77224 TIP3     18260    TIP3     OH2      OT      -0.834000       15.9994           0
     77225 TIP3     18260    TIP3     H1       HT       0.417000       1.00800           0
     77226 TIP3     18260    TIP3     H2       HT       0.417000       1.00800           0
     77227 TIP3     18261    TIP3     OH2      OT      -0.834000       15.9994           0
     77228 TIP3     18261    TIP3     H1       HT       0.417000       1.00800           0
     77229 TIP3     18261    TIP3     H2       HT       0.417000       1.00800           0
     77230 TIP3     18262    TIP3     OH2      OT      -0.834000       15.9994           0
     77231 TIP3     18262    TIP3     H1       HT       0.417000       1.00800           0
     77232 TIP3     18262    TIP3     H2       HT       0.417000       1.00800           0
     77233 TIP3     18263    TIP3     OH2      OT      -0.834000       15.9994           0
     77234 TIP3     18263    TIP3     H1       HT       0.417000       1.00800           0
     77235 TIP3     18263    TIP3     H2       HT       0.417000       1.00800           0
     77236 TIP3     18264    TIP3     OH2      OT      -0.834000       15.9994           0
     77237 TIP3     18264    TIP3     H1       HT       0.417000       1.00800           0
     77238 TIP3     18264    TIP3     H2       HT       0.417000       1.00800           0
     77239 TIP3     18265    TIP3     OH2      OT      -0.834000       15.9994           0
     77240 TIP3     18265    TIP3     H1       HT       0.417000       1.00800           0
     77241 TIP3     18265    TIP3     H2       HT       0.417000       1.00800           0
     77242 TIP3     18266    TIP3     OH2      OT      -0.834000       15.9994           0
     77243 TIP3     18266    TIP3     H1       HT       0.417000       1.00800           0
     77244 TIP3     18266    TIP3     H2       HT       0.417000       1.00800           0
     77245 TIP3     18267    TIP3     OH2      OT      -0.834000       15.9994           0
     77246 TIP3     18267    TIP3     H1       HT       0.417000       1.00800           0
     77247 TIP3     18267    TIP3     H2       HT       0.417000       1.00800           0
     77248 TIP3     18268    TIP3     OH2      OT      -0.834000       15.9994           0
     77249 TIP3     18268    TIP3     H1       HT       0.417000       1.00800           0
     77250 TIP3     18268    TIP3     H2       HT       0.417000       1.00800           0
     77251 TIP3     18269    TIP3     OH2      OT      -0.834000       15.9994           0
     77252 TIP3     18269    TIP3     H1       HT       0.417000       1.00800           0
     77253 TIP3     18269    TIP3     H2       HT       0.417000       1.00800           0
     77254 TIP3     18270    TIP3     OH2      OT      -0.834000       15.9994           0
     77255 TIP3     18270    TIP3     H1       HT       0.417000       1.00800           0
     77256 TIP3     18270    TIP3     H2       HT       0.417000       1.00800           0
     77257 TIP3     18271    TIP3     OH2      OT      -0.834000       15.9994           0
     77258 TIP3     18271    TIP3     H1       HT       0.417000       1.00800           0
     77259 TIP3     18271    TIP3     H2       HT       0.417000       1.00800           0
     77260 TIP3     18272    TIP3     OH2      OT      -0.834000       15.9994           0
     77261 TIP3     18272    TIP3     H1       HT       0.417000       1.00800           0
     77262 TIP3     18272    TIP3     H2       HT       0.417000       1.00800           0
     77263 TIP3     18273    TIP3     OH2      OT      -0.834000       15.9994           0
     77264 TIP3     18273    TIP3     H1       HT       0.417000       1.00800           0
     77265 TIP3     18273    TIP3     H2       HT       0.417000       1.00800           0
     77266 TIP3     18274    TIP3     OH2      OT      -0.834000       15.9994           0
     77267 TIP3     18274    TIP3     H1       HT       0.417000       1.00800           0
     77268 TIP3     18274    TIP3     H2       HT       0.417000       1.00800           0
     77269 TIP3     18275    TIP3     OH2      OT      -0.834000       15.9994           0
     77270 TIP3     18275    TIP3     H1       HT       0.417000       1.00800           0
     77271 TIP3     18275    TIP3     H2       HT       0.417000       1.00800           0
     77272 TIP3     18276    TIP3     OH2      OT      -0.834000       15.9994           0
     77273 TIP3     18276    TIP3     H1       HT       0.417000       1.00800           0
     77274 TIP3     18276    TIP3     H2       HT       0.417000       1.00800           0
     77275 TIP3     18277    TIP3     OH2      OT      -0.834000       15.9994           0
     77276 TIP3     18277    TIP3     H1       HT       0.417000       1.00800           0
     77277 TIP3     18277    TIP3     H2       HT       0.417000       1.00800           0
     77278 TIP3     18278    TIP3     OH2      OT      -0.834000       15.9994           0
     77279 TIP3     18278    TIP3     H1       HT       0.417000       1.00800           0
     77280 TIP3     18278    TIP3     H2       HT       0.417000       1.00800           0
     77281 TIP3     18279    TIP3     OH2      OT      -0.834000       15.9994           0
     77282 TIP3     18279    TIP3     H1       HT       0.417000       1.00800           0
     77283 TIP3     18279    TIP3     H2       HT       0.417000       1.00800           0
     77284 TIP3     18280    TIP3     OH2      OT      -0.834000       15.9994           0
     77285 TIP3     18280    TIP3     H1       HT       0.417000       1.00800           0
     77286 TIP3     18280    TIP3     H2       HT       0.417000       1.00800           0
     77287 TIP3     18281    TIP3     OH2      OT      -0.834000       15.9994           0
     77288 TIP3     18281    TIP3     H1       HT       0.417000       1.00800           0
     77289 TIP3     18281    TIP3     H2       HT       0.417000       1.00800           0
     77290 TIP3     18282    TIP3     OH2      OT      -0.834000       15.9994           0
     77291 TIP3     18282    TIP3     H1       HT       0.417000       1.00800           0
     77292 TIP3     18282    TIP3     H2       HT       0.417000       1.00800           0
     77293 TIP3     18283    TIP3     OH2      OT      -0.834000       15.9994           0
     77294 TIP3     18283    TIP3     H1       HT       0.417000       1.00800           0
     77295 TIP3     18283    TIP3     H2       HT       0.417000       1.00800           0
     77296 TIP3     18284    TIP3     OH2      OT      -0.834000       15.9994           0
     77297 TIP3     18284    TIP3     H1       HT       0.417000       1.00800           0
     77298 TIP3     18284    TIP3     H2       HT       0.417000       1.00800           0
     77299 TIP3     18285    TIP3     OH2      OT      -0.834000       15.9994           0
     77300 TIP3     18285    TIP3     H1       HT       0.417000       1.00800           0
     77301 TIP3     18285    TIP3     H2       HT       0.417000       1.00800           0
     77302 TIP3     18286    TIP3     OH2      OT      -0.834000       15.9994           0
     77303 TIP3     18286    TIP3     H1       HT       0.417000       1.00800           0
     77304 TIP3     18286    TIP3     H2       HT       0.417000       1.00800           0
     77305 TIP3     18287    TIP3     OH2      OT      -0.834000       15.9994           0
     77306 TIP3     18287    TIP3     H1       HT       0.417000       1.00800           0
     77307 TIP3     18287    TIP3     H2       HT       0.417000       1.00800           0
     77308 TIP3     18288    TIP3     OH2      OT      -0.834000       15.9994           0
     77309 TIP3     18288    TIP3     H1       HT       0.417000       1.00800           0
     77310 TIP3     18288    TIP3     H2       HT       0.417000       1.00800           0
     77311 TIP3     18289    TIP3     OH2      OT      -0.834000       15.9994           0
     77312 TIP3     18289    TIP3     H1       HT       0.417000       1.00800           0
     77313 TIP3     18289    TIP3     H2       HT       0.417000       1.00800           0
     77314 TIP3     18290    TIP3     OH2      OT      -0.834000       15.9994           0
     77315 TIP3     18290    TIP3     H1       HT       0.417000       1.00800           0
     77316 TIP3     18290    TIP3     H2       HT       0.417000       1.00800           0
     77317 TIP3     18291    TIP3     OH2      OT      -0.834000       15.9994           0
     77318 TIP3     18291    TIP3     H1       HT       0.417000       1.00800           0
     77319 TIP3     18291    TIP3     H2       HT       0.417000       1.00800           0
     77320 TIP3     18292    TIP3     OH2      OT      -0.834000       15.9994           0
     77321 TIP3     18292    TIP3     H1       HT       0.417000       1.00800           0
     77322 TIP3     18292    TIP3     H2       HT       0.417000       1.00800           0
     77323 TIP3     18293    TIP3     OH2      OT      -0.834000       15.9994           0
     77324 TIP3     18293    TIP3     H1       HT       0.417000       1.00800           0
     77325 TIP3     18293    TIP3     H2       HT       0.417000       1.00800           0
     77326 TIP3     18294    TIP3     OH2      OT      -0.834000       15.9994           0
     77327 TIP3     18294    TIP3     H1       HT       0.417000       1.00800           0
     77328 TIP3     18294    TIP3     H2       HT       0.417000       1.00800           0
     77329 TIP3     18295    TIP3     OH2      OT      -0.834000       15.9994           0
     77330 TIP3     18295    TIP3     H1       HT       0.417000       1.00800           0
     77331 TIP3     18295    TIP3     H2       HT       0.417000       1.00800           0
     77332 TIP3     18296    TIP3     OH2      OT      -0.834000       15.9994           0
     77333 TIP3     18296    TIP3     H1       HT       0.417000       1.00800           0
     77334 TIP3     18296    TIP3     H2       HT       0.417000       1.00800           0
     77335 TIP3     18297    TIP3     OH2      OT      -0.834000       15.9994           0
     77336 TIP3     18297    TIP3     H1       HT       0.417000       1.00800           0
     77337 TIP3     18297    TIP3     H2       HT       0.417000       1.00800           0
     77338 TIP3     18298    TIP3     OH2      OT      -0.834000       15.9994           0
     77339 TIP3     18298    TIP3     H1       HT       0.417000       1.00800           0
     77340 TIP3     18298    TIP3     H2       HT       0.417000       1.00800           0
     77341 TIP3     18299    TIP3     OH2      OT      -0.834000       15.9994           0
     77342 TIP3     18299    TIP3     H1       HT       0.417000       1.00800           0
     77343 TIP3     18299    TIP3     H2       HT       0.417000       1.00800           0
     77344 TIP3     18300    TIP3     OH2      OT      -0.834000       15.9994           0
     77345 TIP3     18300    TIP3     H1       HT       0.417000       1.00800           0
     77346 TIP3     18300    TIP3     H2       HT       0.417000       1.00800           0
     77347 TIP3     18301    TIP3     OH2      OT      -0.834000       15.9994           0
     77348 TIP3     18301    TIP3     H1       HT       0.417000       1.00800           0
     77349 TIP3     18301    TIP3     H2       HT       0.417000       1.00800           0
     77350 TIP3     18302    TIP3     OH2      OT      -0.834000       15.9994           0
     77351 TIP3     18302    TIP3     H1       HT       0.417000       1.00800           0
     77352 TIP3     18302    TIP3     H2       HT       0.417000       1.00800           0
     77353 TIP3     18303    TIP3     OH2      OT      -0.834000       15.9994           0
     77354 TIP3     18303    TIP3     H1       HT       0.417000       1.00800           0
     77355 TIP3     18303    TIP3     H2       HT       0.417000       1.00800           0
     77356 TIP3     18304    TIP3     OH2      OT      -0.834000       15.9994           0
     77357 TIP3     18304    TIP3     H1       HT       0.417000       1.00800           0
     77358 TIP3     18304    TIP3     H2       HT       0.417000       1.00800           0
     77359 TIP3     18305    TIP3     OH2      OT      -0.834000       15.9994           0
     77360 TIP3     18305    TIP3     H1       HT       0.417000       1.00800           0
     77361 TIP3     18305    TIP3     H2       HT       0.417000       1.00800           0
     77362 TIP3     18306    TIP3     OH2      OT      -0.834000       15.9994           0
     77363 TIP3     18306    TIP3     H1       HT       0.417000       1.00800           0
     77364 TIP3     18306    TIP3     H2       HT       0.417000       1.00800           0
     77365 TIP3     18307    TIP3     OH2      OT      -0.834000       15.9994           0
     77366 TIP3     18307    TIP3     H1       HT       0.417000       1.00800           0
     77367 TIP3     18307    TIP3     H2       HT       0.417000       1.00800           0
     77368 TIP3     18308    TIP3     OH2      OT      -0.834000       15.9994           0
     77369 TIP3     18308    TIP3     H1       HT       0.417000       1.00800           0
     77370 TIP3     18308    TIP3     H2       HT       0.417000       1.00800           0
     77371 TIP3     18309    TIP3     OH2      OT      -0.834000       15.9994           0
     77372 TIP3     18309    TIP3     H1       HT       0.417000       1.00800           0
     77373 TIP3     18309    TIP3     H2       HT       0.417000       1.00800           0
     77374 TIP3     18310    TIP3     OH2      OT      -0.834000       15.9994           0
     77375 TIP3     18310    TIP3     H1       HT       0.417000       1.00800           0
     77376 TIP3     18310    TIP3     H2       HT       0.417000       1.00800           0
     77377 TIP3     18311    TIP3     OH2      OT      -0.834000       15.9994           0
     77378 TIP3     18311    TIP3     H1       HT       0.417000       1.00800           0
     77379 TIP3     18311    TIP3     H2       HT       0.417000       1.00800           0
     77380 TIP3     18312    TIP3     OH2      OT      -0.834000       15.9994           0
     77381 TIP3     18312    TIP3     H1       HT       0.417000       1.00800           0
     77382 TIP3     18312    TIP3     H2       HT       0.417000       1.00800           0
     77383 TIP3     18313    TIP3     OH2      OT      -0.834000       15.9994           0
     77384 TIP3     18313    TIP3     H1       HT       0.417000       1.00800           0
     77385 TIP3     18313    TIP3     H2       HT       0.417000       1.00800           0
     77386 TIP3     18314    TIP3     OH2      OT      -0.834000       15.9994           0
     77387 TIP3     18314    TIP3     H1       HT       0.417000       1.00800           0
     77388 TIP3     18314    TIP3     H2       HT       0.417000       1.00800           0
     77389 TIP3     18315    TIP3     OH2      OT      -0.834000       15.9994           0
     77390 TIP3     18315    TIP3     H1       HT       0.417000       1.00800           0
     77391 TIP3     18315    TIP3     H2       HT       0.417000       1.00800           0
     77392 TIP3     18316    TIP3     OH2      OT      -0.834000       15.9994           0
     77393 TIP3     18316    TIP3     H1       HT       0.417000       1.00800           0
     77394 TIP3     18316    TIP3     H2       HT       0.417000       1.00800           0
     77395 TIP3     18317    TIP3     OH2      OT      -0.834000       15.9994           0
     77396 TIP3     18317    TIP3     H1       HT       0.417000       1.00800           0
     77397 TIP3     18317    TIP3     H2       HT       0.417000       1.00800           0
     77398 TIP3     18318    TIP3     OH2      OT      -0.834000       15.9994           0
     77399 TIP3     18318    TIP3     H1       HT       0.417000       1.00800           0
     77400 TIP3     18318    TIP3     H2       HT       0.417000       1.00800           0
     77401 TIP3     18319    TIP3     OH2      OT      -0.834000       15.9994           0
     77402 TIP3     18319    TIP3     H1       HT       0.417000       1.00800           0
     77403 TIP3     18319    TIP3     H2       HT       0.417000       1.00800           0
     77404 TIP3     18320    TIP3     OH2      OT      -0.834000       15.9994           0
     77405 TIP3     18320    TIP3     H1       HT       0.417000       1.00800           0
     77406 TIP3     18320    TIP3     H2       HT       0.417000       1.00800           0
     77407 TIP3     18321    TIP3     OH2      OT      -0.834000       15.9994           0
     77408 TIP3     18321    TIP3     H1       HT       0.417000       1.00800           0
     77409 TIP3     18321    TIP3     H2       HT       0.417000       1.00800           0
     77410 TIP3     18322    TIP3     OH2      OT      -0.834000       15.9994           0
     77411 TIP3     18322    TIP3     H1       HT       0.417000       1.00800           0
     77412 TIP3     18322    TIP3     H2       HT       0.417000       1.00800           0
     77413 TIP3     18323    TIP3     OH2      OT      -0.834000       15.9994           0
     77414 TIP3     18323    TIP3     H1       HT       0.417000       1.00800           0
     77415 TIP3     18323    TIP3     H2       HT       0.417000       1.00800           0
     77416 TIP3     18324    TIP3     OH2      OT      -0.834000       15.9994           0
     77417 TIP3     18324    TIP3     H1       HT       0.417000       1.00800           0
     77418 TIP3     18324    TIP3     H2       HT       0.417000       1.00800           0
     77419 TIP3     18325    TIP3     OH2      OT      -0.834000       15.9994           0
     77420 TIP3     18325    TIP3     H1       HT       0.417000       1.00800           0
     77421 TIP3     18325    TIP3     H2       HT       0.417000       1.00800           0
     77422 TIP3     18326    TIP3     OH2      OT      -0.834000       15.9994           0
     77423 TIP3     18326    TIP3     H1       HT       0.417000       1.00800           0
     77424 TIP3     18326    TIP3     H2       HT       0.417000       1.00800           0
     77425 TIP3     18327    TIP3     OH2      OT      -0.834000       15.9994           0
     77426 TIP3     18327    TIP3     H1       HT       0.417000       1.00800           0
     77427 TIP3     18327    TIP3     H2       HT       0.417000       1.00800           0
     77428 TIP3     18328    TIP3     OH2      OT      -0.834000       15.9994           0
     77429 TIP3     18328    TIP3     H1       HT       0.417000       1.00800           0
     77430 TIP3     18328    TIP3     H2       HT       0.417000       1.00800           0
     77431 TIP3     18329    TIP3     OH2      OT      -0.834000       15.9994           0
     77432 TIP3     18329    TIP3     H1       HT       0.417000       1.00800           0
     77433 TIP3     18329    TIP3     H2       HT       0.417000       1.00800           0
     77434 TIP3     18330    TIP3     OH2      OT      -0.834000       15.9994           0
     77435 TIP3     18330    TIP3     H1       HT       0.417000       1.00800           0
     77436 TIP3     18330    TIP3     H2       HT       0.417000       1.00800           0
     77437 TIP3     18331    TIP3     OH2      OT      -0.834000       15.9994           0
     77438 TIP3     18331    TIP3     H1       HT       0.417000       1.00800           0
     77439 TIP3     18331    TIP3     H2       HT       0.417000       1.00800           0
     77440 TIP3     18332    TIP3     OH2      OT      -0.834000       15.9994           0
     77441 TIP3     18332    TIP3     H1       HT       0.417000       1.00800           0
     77442 TIP3     18332    TIP3     H2       HT       0.417000       1.00800           0
     77443 TIP3     18333    TIP3     OH2      OT      -0.834000       15.9994           0
     77444 TIP3     18333    TIP3     H1       HT       0.417000       1.00800           0
     77445 TIP3     18333    TIP3     H2       HT       0.417000       1.00800           0
     77446 TIP3     18334    TIP3     OH2      OT      -0.834000       15.9994           0
     77447 TIP3     18334    TIP3     H1       HT       0.417000       1.00800           0
     77448 TIP3     18334    TIP3     H2       HT       0.417000       1.00800           0
     77449 TIP3     18335    TIP3     OH2      OT      -0.834000       15.9994           0
     77450 TIP3     18335    TIP3     H1       HT       0.417000       1.00800           0
     77451 TIP3     18335    TIP3     H2       HT       0.417000       1.00800           0
     77452 TIP3     18336    TIP3     OH2      OT      -0.834000       15.9994           0
     77453 TIP3     18336    TIP3     H1       HT       0.417000       1.00800           0
     77454 TIP3     18336    TIP3     H2       HT       0.417000       1.00800           0
     77455 TIP3     18337    TIP3     OH2      OT      -0.834000       15.9994           0
     77456 TIP3     18337    TIP3     H1       HT       0.417000       1.00800           0
     77457 TIP3     18337    TIP3     H2       HT       0.417000       1.00800           0
     77458 TIP3     18338    TIP3     OH2      OT      -0.834000       15.9994           0
     77459 TIP3     18338    TIP3     H1       HT       0.417000       1.00800           0
     77460 TIP3     18338    TIP3     H2       HT       0.417000       1.00800           0
     77461 TIP3     18339    TIP3     OH2      OT      -0.834000       15.9994           0
     77462 TIP3     18339    TIP3     H1       HT       0.417000       1.00800           0
     77463 TIP3     18339    TIP3     H2       HT       0.417000       1.00800           0
     77464 TIP3     18340    TIP3     OH2      OT      -0.834000       15.9994           0
     77465 TIP3     18340    TIP3     H1       HT       0.417000       1.00800           0
     77466 TIP3     18340    TIP3     H2       HT       0.417000       1.00800           0
     77467 TIP3     18341    TIP3     OH2      OT      -0.834000       15.9994           0
     77468 TIP3     18341    TIP3     H1       HT       0.417000       1.00800           0
     77469 TIP3     18341    TIP3     H2       HT       0.417000       1.00800           0
     77470 TIP3     18342    TIP3     OH2      OT      -0.834000       15.9994           0
     77471 TIP3     18342    TIP3     H1       HT       0.417000       1.00800           0
     77472 TIP3     18342    TIP3     H2       HT       0.417000       1.00800           0
     77473 TIP3     18343    TIP3     OH2      OT      -0.834000       15.9994           0
     77474 TIP3     18343    TIP3     H1       HT       0.417000       1.00800           0
     77475 TIP3     18343    TIP3     H2       HT       0.417000       1.00800           0
     77476 TIP3     18344    TIP3     OH2      OT      -0.834000       15.9994           0
     77477 TIP3     18344    TIP3     H1       HT       0.417000       1.00800           0
     77478 TIP3     18344    TIP3     H2       HT       0.417000       1.00800           0
     77479 TIP3     18345    TIP3     OH2      OT      -0.834000       15.9994           0
     77480 TIP3     18345    TIP3     H1       HT       0.417000       1.00800           0
     77481 TIP3     18345    TIP3     H2       HT       0.417000       1.00800           0
     77482 TIP3     18346    TIP3     OH2      OT      -0.834000       15.9994           0
     77483 TIP3     18346    TIP3     H1       HT       0.417000       1.00800           0
     77484 TIP3     18346    TIP3     H2       HT       0.417000       1.00800           0
     77485 TIP3     18347    TIP3     OH2      OT      -0.834000       15.9994           0
     77486 TIP3     18347    TIP3     H1       HT       0.417000       1.00800           0
     77487 TIP3     18347    TIP3     H2       HT       0.417000       1.00800           0
     77488 TIP3     18348    TIP3     OH2      OT      -0.834000       15.9994           0
     77489 TIP3     18348    TIP3     H1       HT       0.417000       1.00800           0
     77490 TIP3     18348    TIP3     H2       HT       0.417000       1.00800           0
     77491 TIP3     18349    TIP3     OH2      OT      -0.834000       15.9994           0
     77492 TIP3     18349    TIP3     H1       HT       0.417000       1.00800           0
     77493 TIP3     18349    TIP3     H2       HT       0.417000       1.00800           0
     77494 TIP3     18350    TIP3     OH2      OT      -0.834000       15.9994           0
     77495 TIP3     18350    TIP3     H1       HT       0.417000       1.00800           0
     77496 TIP3     18350    TIP3     H2       HT       0.417000       1.00800           0
     77497 TIP3     18351    TIP3     OH2      OT      -0.834000       15.9994           0
     77498 TIP3     18351    TIP3     H1       HT       0.417000       1.00800           0
     77499 TIP3     18351    TIP3     H2       HT       0.417000       1.00800           0
     77500 TIP3     18352    TIP3     OH2      OT      -0.834000       15.9994           0
     77501 TIP3     18352    TIP3     H1       HT       0.417000       1.00800           0
     77502 TIP3     18352    TIP3     H2       HT       0.417000       1.00800           0
     77503 TIP3     18353    TIP3     OH2      OT      -0.834000       15.9994           0
     77504 TIP3     18353    TIP3     H1       HT       0.417000       1.00800           0
     77505 TIP3     18353    TIP3     H2       HT       0.417000       1.00800           0
     77506 TIP3     18354    TIP3     OH2      OT      -0.834000       15.9994           0
     77507 TIP3     18354    TIP3     H1       HT       0.417000       1.00800           0
     77508 TIP3     18354    TIP3     H2       HT       0.417000       1.00800           0
     77509 TIP3     18355    TIP3     OH2      OT      -0.834000       15.9994           0
     77510 TIP3     18355    TIP3     H1       HT       0.417000       1.00800           0
     77511 TIP3     18355    TIP3     H2       HT       0.417000       1.00800           0
     77512 TIP3     18356    TIP3     OH2      OT      -0.834000       15.9994           0
     77513 TIP3     18356    TIP3     H1       HT       0.417000       1.00800           0
     77514 TIP3     18356    TIP3     H2       HT       0.417000       1.00800           0
     77515 TIP3     18357    TIP3     OH2      OT      -0.834000       15.9994           0
     77516 TIP3     18357    TIP3     H1       HT       0.417000       1.00800           0
     77517 TIP3     18357    TIP3     H2       HT       0.417000       1.00800           0
     77518 TIP3     18358    TIP3     OH2      OT      -0.834000       15.9994           0
     77519 TIP3     18358    TIP3     H1       HT       0.417000       1.00800           0
     77520 TIP3     18358    TIP3     H2       HT       0.417000       1.00800           0
     77521 TIP3     18359    TIP3     OH2      OT      -0.834000       15.9994           0
     77522 TIP3     18359    TIP3     H1       HT       0.417000       1.00800           0
     77523 TIP3     18359    TIP3     H2       HT       0.417000       1.00800           0
     77524 TIP3     18360    TIP3     OH2      OT      -0.834000       15.9994           0
     77525 TIP3     18360    TIP3     H1       HT       0.417000       1.00800           0
     77526 TIP3     18360    TIP3     H2       HT       0.417000       1.00800           0
     77527 TIP3     18361    TIP3     OH2      OT      -0.834000       15.9994           0
     77528 TIP3     18361    TIP3     H1       HT       0.417000       1.00800           0
     77529 TIP3     18361    TIP3     H2       HT       0.417000       1.00800           0
     77530 TIP3     18362    TIP3     OH2      OT      -0.834000       15.9994           0
     77531 TIP3     18362    TIP3     H1       HT       0.417000       1.00800           0
     77532 TIP3     18362    TIP3     H2       HT       0.417000       1.00800           0
     77533 TIP3     18363    TIP3     OH2      OT      -0.834000       15.9994           0
     77534 TIP3     18363    TIP3     H1       HT       0.417000       1.00800           0
     77535 TIP3     18363    TIP3     H2       HT       0.417000       1.00800           0
     77536 TIP3     18364    TIP3     OH2      OT      -0.834000       15.9994           0
     77537 TIP3     18364    TIP3     H1       HT       0.417000       1.00800           0
     77538 TIP3     18364    TIP3     H2       HT       0.417000       1.00800           0
     77539 TIP3     18365    TIP3     OH2      OT      -0.834000       15.9994           0
     77540 TIP3     18365    TIP3     H1       HT       0.417000       1.00800           0
     77541 TIP3     18365    TIP3     H2       HT       0.417000       1.00800           0
     77542 TIP3     18366    TIP3     OH2      OT      -0.834000       15.9994           0
     77543 TIP3     18366    TIP3     H1       HT       0.417000       1.00800           0
     77544 TIP3     18366    TIP3     H2       HT       0.417000       1.00800           0
     77545 TIP3     18367    TIP3     OH2      OT      -0.834000       15.9994           0
     77546 TIP3     18367    TIP3     H1       HT       0.417000       1.00800           0
     77547 TIP3     18367    TIP3     H2       HT       0.417000       1.00800           0
     77548 TIP3     18368    TIP3     OH2      OT      -0.834000       15.9994           0
     77549 TIP3     18368    TIP3     H1       HT       0.417000       1.00800           0
     77550 TIP3     18368    TIP3     H2       HT       0.417000       1.00800           0
     77551 TIP3     18369    TIP3     OH2      OT      -0.834000       15.9994           0
     77552 TIP3     18369    TIP3     H1       HT       0.417000       1.00800           0
     77553 TIP3     18369    TIP3     H2       HT       0.417000       1.00800           0
     77554 TIP3     18370    TIP3     OH2      OT      -0.834000       15.9994           0
     77555 TIP3     18370    TIP3     H1       HT       0.417000       1.00800           0
     77556 TIP3     18370    TIP3     H2       HT       0.417000       1.00800           0
     77557 TIP3     18371    TIP3     OH2      OT      -0.834000       15.9994           0
     77558 TIP3     18371    TIP3     H1       HT       0.417000       1.00800           0
     77559 TIP3     18371    TIP3     H2       HT       0.417000       1.00800           0
     77560 TIP3     18372    TIP3     OH2      OT      -0.834000       15.9994           0
     77561 TIP3     18372    TIP3     H1       HT       0.417000       1.00800           0
     77562 TIP3     18372    TIP3     H2       HT       0.417000       1.00800           0
     77563 TIP3     18373    TIP3     OH2      OT      -0.834000       15.9994           0
     77564 TIP3     18373    TIP3     H1       HT       0.417000       1.00800           0
     77565 TIP3     18373    TIP3     H2       HT       0.417000       1.00800           0
     77566 TIP3     18374    TIP3     OH2      OT      -0.834000       15.9994           0
     77567 TIP3     18374    TIP3     H1       HT       0.417000       1.00800           0
     77568 TIP3     18374    TIP3     H2       HT       0.417000       1.00800           0
     77569 TIP3     18375    TIP3     OH2      OT      -0.834000       15.9994           0
     77570 TIP3     18375    TIP3     H1       HT       0.417000       1.00800           0
     77571 TIP3     18375    TIP3     H2       HT       0.417000       1.00800           0
     77572 TIP3     18376    TIP3     OH2      OT      -0.834000       15.9994           0
     77573 TIP3     18376    TIP3     H1       HT       0.417000       1.00800           0
     77574 TIP3     18376    TIP3     H2       HT       0.417000       1.00800           0
     77575 TIP3     18377    TIP3     OH2      OT      -0.834000       15.9994           0
     77576 TIP3     18377    TIP3     H1       HT       0.417000       1.00800           0
     77577 TIP3     18377    TIP3     H2       HT       0.417000       1.00800           0
     77578 TIP3     18378    TIP3     OH2      OT      -0.834000       15.9994           0
     77579 TIP3     18378    TIP3     H1       HT       0.417000       1.00800           0
     77580 TIP3     18378    TIP3     H2       HT       0.417000       1.00800           0
     77581 TIP3     18379    TIP3     OH2      OT      -0.834000       15.9994           0
     77582 TIP3     18379    TIP3     H1       HT       0.417000       1.00800           0
     77583 TIP3     18379    TIP3     H2       HT       0.417000       1.00800           0
     77584 TIP3     18380    TIP3     OH2      OT      -0.834000       15.9994           0
     77585 TIP3     18380    TIP3     H1       HT       0.417000       1.00800           0
     77586 TIP3     18380    TIP3     H2       HT       0.417000       1.00800           0
     77587 TIP3     18381    TIP3     OH2      OT      -0.834000       15.9994           0
     77588 TIP3     18381    TIP3     H1       HT       0.417000       1.00800           0
     77589 TIP3     18381    TIP3     H2       HT       0.417000       1.00800           0
     77590 TIP3     18382    TIP3     OH2      OT      -0.834000       15.9994           0
     77591 TIP3     18382    TIP3     H1       HT       0.417000       1.00800           0
     77592 TIP3     18382    TIP3     H2       HT       0.417000       1.00800           0
     77593 TIP3     18383    TIP3     OH2      OT      -0.834000       15.9994           0
     77594 TIP3     18383    TIP3     H1       HT       0.417000       1.00800           0
     77595 TIP3     18383    TIP3     H2       HT       0.417000       1.00800           0
     77596 TIP3     18384    TIP3     OH2      OT      -0.834000       15.9994           0
     77597 TIP3     18384    TIP3     H1       HT       0.417000       1.00800           0
     77598 TIP3     18384    TIP3     H2       HT       0.417000       1.00800           0
     77599 TIP3     18385    TIP3     OH2      OT      -0.834000       15.9994           0
     77600 TIP3     18385    TIP3     H1       HT       0.417000       1.00800           0
     77601 TIP3     18385    TIP3     H2       HT       0.417000       1.00800           0
     77602 TIP3     18386    TIP3     OH2      OT      -0.834000       15.9994           0
     77603 TIP3     18386    TIP3     H1       HT       0.417000       1.00800           0
     77604 TIP3     18386    TIP3     H2       HT       0.417000       1.00800           0
     77605 TIP3     18387    TIP3     OH2      OT      -0.834000       15.9994           0
     77606 TIP3     18387    TIP3     H1       HT       0.417000       1.00800           0
     77607 TIP3     18387    TIP3     H2       HT       0.417000       1.00800           0
     77608 TIP3     18388    TIP3     OH2      OT      -0.834000       15.9994           0
     77609 TIP3     18388    TIP3     H1       HT       0.417000       1.00800           0
     77610 TIP3     18388    TIP3     H2       HT       0.417000       1.00800           0
     77611 TIP3     18389    TIP3     OH2      OT      -0.834000       15.9994           0
     77612 TIP3     18389    TIP3     H1       HT       0.417000       1.00800           0
     77613 TIP3     18389    TIP3     H2       HT       0.417000       1.00800           0
     77614 TIP3     18390    TIP3     OH2      OT      -0.834000       15.9994           0
     77615 TIP3     18390    TIP3     H1       HT       0.417000       1.00800           0
     77616 TIP3     18390    TIP3     H2       HT       0.417000       1.00800           0
     77617 TIP3     18391    TIP3     OH2      OT      -0.834000       15.9994           0
     77618 TIP3     18391    TIP3     H1       HT       0.417000       1.00800           0
     77619 TIP3     18391    TIP3     H2       HT       0.417000       1.00800           0
     77620 TIP3     18392    TIP3     OH2      OT      -0.834000       15.9994           0
     77621 TIP3     18392    TIP3     H1       HT       0.417000       1.00800           0
     77622 TIP3     18392    TIP3     H2       HT       0.417000       1.00800           0
     77623 TIP3     18393    TIP3     OH2      OT      -0.834000       15.9994           0
     77624 TIP3     18393    TIP3     H1       HT       0.417000       1.00800           0
     77625 TIP3     18393    TIP3     H2       HT       0.417000       1.00800           0
     77626 TIP3     18394    TIP3     OH2      OT      -0.834000       15.9994           0
     77627 TIP3     18394    TIP3     H1       HT       0.417000       1.00800           0
     77628 TIP3     18394    TIP3     H2       HT       0.417000       1.00800           0
     77629 TIP3     18395    TIP3     OH2      OT      -0.834000       15.9994           0
     77630 TIP3     18395    TIP3     H1       HT       0.417000       1.00800           0
     77631 TIP3     18395    TIP3     H2       HT       0.417000       1.00800           0
     77632 TIP3     18396    TIP3     OH2      OT      -0.834000       15.9994           0
     77633 TIP3     18396    TIP3     H1       HT       0.417000       1.00800           0
     77634 TIP3     18396    TIP3     H2       HT       0.417000       1.00800           0
     77635 TIP3     18397    TIP3     OH2      OT      -0.834000       15.9994           0
     77636 TIP3     18397    TIP3     H1       HT       0.417000       1.00800           0
     77637 TIP3     18397    TIP3     H2       HT       0.417000       1.00800           0
     77638 TIP3     18398    TIP3     OH2      OT      -0.834000       15.9994           0
     77639 TIP3     18398    TIP3     H1       HT       0.417000       1.00800           0
     77640 TIP3     18398    TIP3     H2       HT       0.417000       1.00800           0
     77641 TIP3     18399    TIP3     OH2      OT      -0.834000       15.9994           0
     77642 TIP3     18399    TIP3     H1       HT       0.417000       1.00800           0
     77643 TIP3     18399    TIP3     H2       HT       0.417000       1.00800           0
     77644 TIP3     18400    TIP3     OH2      OT      -0.834000       15.9994           0
     77645 TIP3     18400    TIP3     H1       HT       0.417000       1.00800           0
     77646 TIP3     18400    TIP3     H2       HT       0.417000       1.00800           0
     77647 TIP3     18401    TIP3     OH2      OT      -0.834000       15.9994           0
     77648 TIP3     18401    TIP3     H1       HT       0.417000       1.00800           0
     77649 TIP3     18401    TIP3     H2       HT       0.417000       1.00800           0
     77650 TIP3     18402    TIP3     OH2      OT      -0.834000       15.9994           0
     77651 TIP3     18402    TIP3     H1       HT       0.417000       1.00800           0
     77652 TIP3     18402    TIP3     H2       HT       0.417000       1.00800           0
     77653 TIP3     18403    TIP3     OH2      OT      -0.834000       15.9994           0
     77654 TIP3     18403    TIP3     H1       HT       0.417000       1.00800           0
     77655 TIP3     18403    TIP3     H2       HT       0.417000       1.00800           0
     77656 TIP3     18404    TIP3     OH2      OT      -0.834000       15.9994           0
     77657 TIP3     18404    TIP3     H1       HT       0.417000       1.00800           0
     77658 TIP3     18404    TIP3     H2       HT       0.417000       1.00800           0
     77659 TIP3     18405    TIP3     OH2      OT      -0.834000       15.9994           0
     77660 TIP3     18405    TIP3     H1       HT       0.417000       1.00800           0
     77661 TIP3     18405    TIP3     H2       HT       0.417000       1.00800           0
     77662 TIP3     18406    TIP3     OH2      OT      -0.834000       15.9994           0
     77663 TIP3     18406    TIP3     H1       HT       0.417000       1.00800           0
     77664 TIP3     18406    TIP3     H2       HT       0.417000       1.00800           0
     77665 TIP3     18407    TIP3     OH2      OT      -0.834000       15.9994           0
     77666 TIP3     18407    TIP3     H1       HT       0.417000       1.00800           0
     77667 TIP3     18407    TIP3     H2       HT       0.417000       1.00800           0
     77668 TIP3     18408    TIP3     OH2      OT      -0.834000       15.9994           0
     77669 TIP3     18408    TIP3     H1       HT       0.417000       1.00800           0
     77670 TIP3     18408    TIP3     H2       HT       0.417000       1.00800           0
     77671 TIP3     18409    TIP3     OH2      OT      -0.834000       15.9994           0
     77672 TIP3     18409    TIP3     H1       HT       0.417000       1.00800           0
     77673 TIP3     18409    TIP3     H2       HT       0.417000       1.00800           0
     77674 TIP3     18410    TIP3     OH2      OT      -0.834000       15.9994           0
     77675 TIP3     18410    TIP3     H1       HT       0.417000       1.00800           0
     77676 TIP3     18410    TIP3     H2       HT       0.417000       1.00800           0
     77677 TIP3     18411    TIP3     OH2      OT      -0.834000       15.9994           0
     77678 TIP3     18411    TIP3     H1       HT       0.417000       1.00800           0
     77679 TIP3     18411    TIP3     H2       HT       0.417000       1.00800           0
     77680 TIP3     18412    TIP3     OH2      OT      -0.834000       15.9994           0
     77681 TIP3     18412    TIP3     H1       HT       0.417000       1.00800           0
     77682 TIP3     18412    TIP3     H2       HT       0.417000       1.00800           0
     77683 TIP3     18413    TIP3     OH2      OT      -0.834000       15.9994           0
     77684 TIP3     18413    TIP3     H1       HT       0.417000       1.00800           0
     77685 TIP3     18413    TIP3     H2       HT       0.417000       1.00800           0
     77686 TIP3     18414    TIP3     OH2      OT      -0.834000       15.9994           0
     77687 TIP3     18414    TIP3     H1       HT       0.417000       1.00800           0
     77688 TIP3     18414    TIP3     H2       HT       0.417000       1.00800           0
     77689 TIP3     18415    TIP3     OH2      OT      -0.834000       15.9994           0
     77690 TIP3     18415    TIP3     H1       HT       0.417000       1.00800           0
     77691 TIP3     18415    TIP3     H2       HT       0.417000       1.00800           0
     77692 TIP3     18416    TIP3     OH2      OT      -0.834000       15.9994           0
     77693 TIP3     18416    TIP3     H1       HT       0.417000       1.00800           0
     77694 TIP3     18416    TIP3     H2       HT       0.417000       1.00800           0
     77695 TIP3     18417    TIP3     OH2      OT      -0.834000       15.9994           0
     77696 TIP3     18417    TIP3     H1       HT       0.417000       1.00800           0
     77697 TIP3     18417    TIP3     H2       HT       0.417000       1.00800           0
     77698 TIP3     18418    TIP3     OH2      OT      -0.834000       15.9994           0
     77699 TIP3     18418    TIP3     H1       HT       0.417000       1.00800           0
     77700 TIP3     18418    TIP3     H2       HT       0.417000       1.00800           0
     77701 TIP3     18419    TIP3     OH2      OT      -0.834000       15.9994           0
     77702 TIP3     18419    TIP3     H1       HT       0.417000       1.00800           0
     77703 TIP3     18419    TIP3     H2       HT       0.417000       1.00800           0
     77704 TIP3     18420    TIP3     OH2      OT      -0.834000       15.9994           0
     77705 TIP3     18420    TIP3     H1       HT       0.417000       1.00800           0
     77706 TIP3     18420    TIP3     H2       HT       0.417000       1.00800           0
     77707 TIP3     18421    TIP3     OH2      OT      -0.834000       15.9994           0
     77708 TIP3     18421    TIP3     H1       HT       0.417000       1.00800           0
     77709 TIP3     18421    TIP3     H2       HT       0.417000       1.00800           0
     77710 TIP3     18422    TIP3     OH2      OT      -0.834000       15.9994           0
     77711 TIP3     18422    TIP3     H1       HT       0.417000       1.00800           0
     77712 TIP3     18422    TIP3     H2       HT       0.417000       1.00800           0
     77713 TIP3     18423    TIP3     OH2      OT      -0.834000       15.9994           0
     77714 TIP3     18423    TIP3     H1       HT       0.417000       1.00800           0
     77715 TIP3     18423    TIP3     H2       HT       0.417000       1.00800           0
     77716 TIP3     18424    TIP3     OH2      OT      -0.834000       15.9994           0
     77717 TIP3     18424    TIP3     H1       HT       0.417000       1.00800           0
     77718 TIP3     18424    TIP3     H2       HT       0.417000       1.00800           0
     77719 TIP3     18425    TIP3     OH2      OT      -0.834000       15.9994           0
     77720 TIP3     18425    TIP3     H1       HT       0.417000       1.00800           0
     77721 TIP3     18425    TIP3     H2       HT       0.417000       1.00800           0
     77722 TIP3     18426    TIP3     OH2      OT      -0.834000       15.9994           0
     77723 TIP3     18426    TIP3     H1       HT       0.417000       1.00800           0
     77724 TIP3     18426    TIP3     H2       HT       0.417000       1.00800           0
     77725 TIP3     18427    TIP3     OH2      OT      -0.834000       15.9994           0
     77726 TIP3     18427    TIP3     H1       HT       0.417000       1.00800           0
     77727 TIP3     18427    TIP3     H2       HT       0.417000       1.00800           0
     77728 TIP3     18428    TIP3     OH2      OT      -0.834000       15.9994           0
     77729 TIP3     18428    TIP3     H1       HT       0.417000       1.00800           0
     77730 TIP3     18428    TIP3     H2       HT       0.417000       1.00800           0
     77731 TIP3     18429    TIP3     OH2      OT      -0.834000       15.9994           0
     77732 TIP3     18429    TIP3     H1       HT       0.417000       1.00800           0
     77733 TIP3     18429    TIP3     H2       HT       0.417000       1.00800           0
     77734 TIP3     18430    TIP3     OH2      OT      -0.834000       15.9994           0
     77735 TIP3     18430    TIP3     H1       HT       0.417000       1.00800           0
     77736 TIP3     18430    TIP3     H2       HT       0.417000       1.00800           0
     77737 TIP3     18431    TIP3     OH2      OT      -0.834000       15.9994           0
     77738 TIP3     18431    TIP3     H1       HT       0.417000       1.00800           0
     77739 TIP3     18431    TIP3     H2       HT       0.417000       1.00800           0
     77740 TIP3     18432    TIP3     OH2      OT      -0.834000       15.9994           0
     77741 TIP3     18432    TIP3     H1       HT       0.417000       1.00800           0
     77742 TIP3     18432    TIP3     H2       HT       0.417000       1.00800           0
     77743 TIP3     18433    TIP3     OH2      OT      -0.834000       15.9994           0
     77744 TIP3     18433    TIP3     H1       HT       0.417000       1.00800           0
     77745 TIP3     18433    TIP3     H2       HT       0.417000       1.00800           0
     77746 TIP3     18434    TIP3     OH2      OT      -0.834000       15.9994           0
     77747 TIP3     18434    TIP3     H1       HT       0.417000       1.00800           0
     77748 TIP3     18434    TIP3     H2       HT       0.417000       1.00800           0
     77749 TIP3     18435    TIP3     OH2      OT      -0.834000       15.9994           0
     77750 TIP3     18435    TIP3     H1       HT       0.417000       1.00800           0
     77751 TIP3     18435    TIP3     H2       HT       0.417000       1.00800           0
     77752 TIP3     18436    TIP3     OH2      OT      -0.834000       15.9994           0
     77753 TIP3     18436    TIP3     H1       HT       0.417000       1.00800           0
     77754 TIP3     18436    TIP3     H2       HT       0.417000       1.00800           0
     77755 TIP3     18437    TIP3     OH2      OT      -0.834000       15.9994           0
     77756 TIP3     18437    TIP3     H1       HT       0.417000       1.00800           0
     77757 TIP3     18437    TIP3     H2       HT       0.417000       1.00800           0
     77758 TIP3     18438    TIP3     OH2      OT      -0.834000       15.9994           0
     77759 TIP3     18438    TIP3     H1       HT       0.417000       1.00800           0
     77760 TIP3     18438    TIP3     H2       HT       0.417000       1.00800           0
     77761 TIP3     18439    TIP3     OH2      OT      -0.834000       15.9994           0
     77762 TIP3     18439    TIP3     H1       HT       0.417000       1.00800           0
     77763 TIP3     18439    TIP3     H2       HT       0.417000       1.00800           0
     77764 TIP3     18440    TIP3     OH2      OT      -0.834000       15.9994           0
     77765 TIP3     18440    TIP3     H1       HT       0.417000       1.00800           0
     77766 TIP3     18440    TIP3     H2       HT       0.417000       1.00800           0
     77767 TIP3     18441    TIP3     OH2      OT      -0.834000       15.9994           0
     77768 TIP3     18441    TIP3     H1       HT       0.417000       1.00800           0
     77769 TIP3     18441    TIP3     H2       HT       0.417000       1.00800           0
     77770 TIP3     18442    TIP3     OH2      OT      -0.834000       15.9994           0
     77771 TIP3     18442    TIP3     H1       HT       0.417000       1.00800           0
     77772 TIP3     18442    TIP3     H2       HT       0.417000       1.00800           0
     77773 TIP3     18443    TIP3     OH2      OT      -0.834000       15.9994           0
     77774 TIP3     18443    TIP3     H1       HT       0.417000       1.00800           0
     77775 TIP3     18443    TIP3     H2       HT       0.417000       1.00800           0
     77776 TIP3     18444    TIP3     OH2      OT      -0.834000       15.9994           0
     77777 TIP3     18444    TIP3     H1       HT       0.417000       1.00800           0
     77778 TIP3     18444    TIP3     H2       HT       0.417000       1.00800           0
     77779 TIP3     18445    TIP3     OH2      OT      -0.834000       15.9994           0
     77780 TIP3     18445    TIP3     H1       HT       0.417000       1.00800           0
     77781 TIP3     18445    TIP3     H2       HT       0.417000       1.00800           0
     77782 TIP3     18446    TIP3     OH2      OT      -0.834000       15.9994           0
     77783 TIP3     18446    TIP3     H1       HT       0.417000       1.00800           0
     77784 TIP3     18446    TIP3     H2       HT       0.417000       1.00800           0
     77785 TIP3     18447    TIP3     OH2      OT      -0.834000       15.9994           0
     77786 TIP3     18447    TIP3     H1       HT       0.417000       1.00800           0
     77787 TIP3     18447    TIP3     H2       HT       0.417000       1.00800           0
     77788 TIP3     18448    TIP3     OH2      OT      -0.834000       15.9994           0
     77789 TIP3     18448    TIP3     H1       HT       0.417000       1.00800           0
     77790 TIP3     18448    TIP3     H2       HT       0.417000       1.00800           0
     77791 TIP3     18449    TIP3     OH2      OT      -0.834000       15.9994           0
     77792 TIP3     18449    TIP3     H1       HT       0.417000       1.00800           0
     77793 TIP3     18449    TIP3     H2       HT       0.417000       1.00800           0
     77794 TIP3     18450    TIP3     OH2      OT      -0.834000       15.9994           0
     77795 TIP3     18450    TIP3     H1       HT       0.417000       1.00800           0
     77796 TIP3     18450    TIP3     H2       HT       0.417000       1.00800           0
     77797 TIP3     18451    TIP3     OH2      OT      -0.834000       15.9994           0
     77798 TIP3     18451    TIP3     H1       HT       0.417000       1.00800           0
     77799 TIP3     18451    TIP3     H2       HT       0.417000       1.00800           0
     77800 TIP3     18452    TIP3     OH2      OT      -0.834000       15.9994           0
     77801 TIP3     18452    TIP3     H1       HT       0.417000       1.00800           0
     77802 TIP3     18452    TIP3     H2       HT       0.417000       1.00800           0
     77803 TIP3     18453    TIP3     OH2      OT      -0.834000       15.9994           0
     77804 TIP3     18453    TIP3     H1       HT       0.417000       1.00800           0
     77805 TIP3     18453    TIP3     H2       HT       0.417000       1.00800           0
     77806 TIP3     18454    TIP3     OH2      OT      -0.834000       15.9994           0
     77807 TIP3     18454    TIP3     H1       HT       0.417000       1.00800           0
     77808 TIP3     18454    TIP3     H2       HT       0.417000       1.00800           0
     77809 TIP3     18455    TIP3     OH2      OT      -0.834000       15.9994           0
     77810 TIP3     18455    TIP3     H1       HT       0.417000       1.00800           0
     77811 TIP3     18455    TIP3     H2       HT       0.417000       1.00800           0
     77812 TIP3     18456    TIP3     OH2      OT      -0.834000       15.9994           0
     77813 TIP3     18456    TIP3     H1       HT       0.417000       1.00800           0
     77814 TIP3     18456    TIP3     H2       HT       0.417000       1.00800           0
     77815 TIP3     18457    TIP3     OH2      OT      -0.834000       15.9994           0
     77816 TIP3     18457    TIP3     H1       HT       0.417000       1.00800           0
     77817 TIP3     18457    TIP3     H2       HT       0.417000       1.00800           0
     77818 TIP3     18458    TIP3     OH2      OT      -0.834000       15.9994           0
     77819 TIP3     18458    TIP3     H1       HT       0.417000       1.00800           0
     77820 TIP3     18458    TIP3     H2       HT       0.417000       1.00800           0
     77821 TIP3     18459    TIP3     OH2      OT      -0.834000       15.9994           0
     77822 TIP3     18459    TIP3     H1       HT       0.417000       1.00800           0
     77823 TIP3     18459    TIP3     H2       HT       0.417000       1.00800           0
     77824 TIP3     18460    TIP3     OH2      OT      -0.834000       15.9994           0
     77825 TIP3     18460    TIP3     H1       HT       0.417000       1.00800           0
     77826 TIP3     18460    TIP3     H2       HT       0.417000       1.00800           0
     77827 TIP3     18461    TIP3     OH2      OT      -0.834000       15.9994           0
     77828 TIP3     18461    TIP3     H1       HT       0.417000       1.00800           0
     77829 TIP3     18461    TIP3     H2       HT       0.417000       1.00800           0
     77830 TIP3     18462    TIP3     OH2      OT      -0.834000       15.9994           0
     77831 TIP3     18462    TIP3     H1       HT       0.417000       1.00800           0
     77832 TIP3     18462    TIP3     H2       HT       0.417000       1.00800           0
     77833 TIP3     18463    TIP3     OH2      OT      -0.834000       15.9994           0
     77834 TIP3     18463    TIP3     H1       HT       0.417000       1.00800           0
     77835 TIP3     18463    TIP3     H2       HT       0.417000       1.00800           0
     77836 TIP3     18464    TIP3     OH2      OT      -0.834000       15.9994           0
     77837 TIP3     18464    TIP3     H1       HT       0.417000       1.00800           0
     77838 TIP3     18464    TIP3     H2       HT       0.417000       1.00800           0
     77839 TIP3     18465    TIP3     OH2      OT      -0.834000       15.9994           0
     77840 TIP3     18465    TIP3     H1       HT       0.417000       1.00800           0
     77841 TIP3     18465    TIP3     H2       HT       0.417000       1.00800           0
     77842 TIP3     18466    TIP3     OH2      OT      -0.834000       15.9994           0
     77843 TIP3     18466    TIP3     H1       HT       0.417000       1.00800           0
     77844 TIP3     18466    TIP3     H2       HT       0.417000       1.00800           0
     77845 TIP3     18467    TIP3     OH2      OT      -0.834000       15.9994           0
     77846 TIP3     18467    TIP3     H1       HT       0.417000       1.00800           0
     77847 TIP3     18467    TIP3     H2       HT       0.417000       1.00800           0
     77848 TIP3     18468    TIP3     OH2      OT      -0.834000       15.9994           0
     77849 TIP3     18468    TIP3     H1       HT       0.417000       1.00800           0
     77850 TIP3     18468    TIP3     H2       HT       0.417000       1.00800           0
     77851 TIP3     18469    TIP3     OH2      OT      -0.834000       15.9994           0
     77852 TIP3     18469    TIP3     H1       HT       0.417000       1.00800           0
     77853 TIP3     18469    TIP3     H2       HT       0.417000       1.00800           0
     77854 TIP3     18470    TIP3     OH2      OT      -0.834000       15.9994           0
     77855 TIP3     18470    TIP3     H1       HT       0.417000       1.00800           0
     77856 TIP3     18470    TIP3     H2       HT       0.417000       1.00800           0
     77857 TIP3     18471    TIP3     OH2      OT      -0.834000       15.9994           0
     77858 TIP3     18471    TIP3     H1       HT       0.417000       1.00800           0
     77859 TIP3     18471    TIP3     H2       HT       0.417000       1.00800           0
     77860 TIP3     18472    TIP3     OH2      OT      -0.834000       15.9994           0
     77861 TIP3     18472    TIP3     H1       HT       0.417000       1.00800           0
     77862 TIP3     18472    TIP3     H2       HT       0.417000       1.00800           0
     77863 TIP3     18473    TIP3     OH2      OT      -0.834000       15.9994           0
     77864 TIP3     18473    TIP3     H1       HT       0.417000       1.00800           0
     77865 TIP3     18473    TIP3     H2       HT       0.417000       1.00800           0
     77866 TIP3     18474    TIP3     OH2      OT      -0.834000       15.9994           0
     77867 TIP3     18474    TIP3     H1       HT       0.417000       1.00800           0
     77868 TIP3     18474    TIP3     H2       HT       0.417000       1.00800           0
     77869 TIP3     18475    TIP3     OH2      OT      -0.834000       15.9994           0
     77870 TIP3     18475    TIP3     H1       HT       0.417000       1.00800           0
     77871 TIP3     18475    TIP3     H2       HT       0.417000       1.00800           0
     77872 TIP3     18476    TIP3     OH2      OT      -0.834000       15.9994           0
     77873 TIP3     18476    TIP3     H1       HT       0.417000       1.00800           0
     77874 TIP3     18476    TIP3     H2       HT       0.417000       1.00800           0
     77875 TIP3     18477    TIP3     OH2      OT      -0.834000       15.9994           0
     77876 TIP3     18477    TIP3     H1       HT       0.417000       1.00800           0
     77877 TIP3     18477    TIP3     H2       HT       0.417000       1.00800           0
     77878 TIP3     18478    TIP3     OH2      OT      -0.834000       15.9994           0
     77879 TIP3     18478    TIP3     H1       HT       0.417000       1.00800           0
     77880 TIP3     18478    TIP3     H2       HT       0.417000       1.00800           0
     77881 TIP3     18479    TIP3     OH2      OT      -0.834000       15.9994           0
     77882 TIP3     18479    TIP3     H1       HT       0.417000       1.00800           0
     77883 TIP3     18479    TIP3     H2       HT       0.417000       1.00800           0
     77884 TIP3     18480    TIP3     OH2      OT      -0.834000       15.9994           0
     77885 TIP3     18480    TIP3     H1       HT       0.417000       1.00800           0
     77886 TIP3     18480    TIP3     H2       HT       0.417000       1.00800           0
     77887 TIP3     18481    TIP3     OH2      OT      -0.834000       15.9994           0
     77888 TIP3     18481    TIP3     H1       HT       0.417000       1.00800           0
     77889 TIP3     18481    TIP3     H2       HT       0.417000       1.00800           0
     77890 TIP3     18482    TIP3     OH2      OT      -0.834000       15.9994           0
     77891 TIP3     18482    TIP3     H1       HT       0.417000       1.00800           0
     77892 TIP3     18482    TIP3     H2       HT       0.417000       1.00800           0
     77893 TIP3     18483    TIP3     OH2      OT      -0.834000       15.9994           0
     77894 TIP3     18483    TIP3     H1       HT       0.417000       1.00800           0
     77895 TIP3     18483    TIP3     H2       HT       0.417000       1.00800           0
     77896 TIP3     18484    TIP3     OH2      OT      -0.834000       15.9994           0
     77897 TIP3     18484    TIP3     H1       HT       0.417000       1.00800           0
     77898 TIP3     18484    TIP3     H2       HT       0.417000       1.00800           0
     77899 TIP3     18485    TIP3     OH2      OT      -0.834000       15.9994           0
     77900 TIP3     18485    TIP3     H1       HT       0.417000       1.00800           0
     77901 TIP3     18485    TIP3     H2       HT       0.417000       1.00800           0
     77902 TIP3     18486    TIP3     OH2      OT      -0.834000       15.9994           0
     77903 TIP3     18486    TIP3     H1       HT       0.417000       1.00800           0
     77904 TIP3     18486    TIP3     H2       HT       0.417000       1.00800           0
     77905 TIP3     18487    TIP3     OH2      OT      -0.834000       15.9994           0
     77906 TIP3     18487    TIP3     H1       HT       0.417000       1.00800           0
     77907 TIP3     18487    TIP3     H2       HT       0.417000       1.00800           0
     77908 TIP3     18488    TIP3     OH2      OT      -0.834000       15.9994           0
     77909 TIP3     18488    TIP3     H1       HT       0.417000       1.00800           0
     77910 TIP3     18488    TIP3     H2       HT       0.417000       1.00800           0
     77911 TIP3     18489    TIP3     OH2      OT      -0.834000       15.9994           0
     77912 TIP3     18489    TIP3     H1       HT       0.417000       1.00800           0
     77913 TIP3     18489    TIP3     H2       HT       0.417000       1.00800           0
     77914 TIP3     18490    TIP3     OH2      OT      -0.834000       15.9994           0
     77915 TIP3     18490    TIP3     H1       HT       0.417000       1.00800           0
     77916 TIP3     18490    TIP3     H2       HT       0.417000       1.00800           0
     77917 TIP3     18491    TIP3     OH2      OT      -0.834000       15.9994           0
     77918 TIP3     18491    TIP3     H1       HT       0.417000       1.00800           0
     77919 TIP3     18491    TIP3     H2       HT       0.417000       1.00800           0
     77920 TIP3     18492    TIP3     OH2      OT      -0.834000       15.9994           0
     77921 TIP3     18492    TIP3     H1       HT       0.417000       1.00800           0
     77922 TIP3     18492    TIP3     H2       HT       0.417000       1.00800           0
     77923 TIP3     18493    TIP3     OH2      OT      -0.834000       15.9994           0
     77924 TIP3     18493    TIP3     H1       HT       0.417000       1.00800           0
     77925 TIP3     18493    TIP3     H2       HT       0.417000       1.00800           0
     77926 TIP3     18494    TIP3     OH2      OT      -0.834000       15.9994           0
     77927 TIP3     18494    TIP3     H1       HT       0.417000       1.00800           0
     77928 TIP3     18494    TIP3     H2       HT       0.417000       1.00800           0
     77929 TIP3     18495    TIP3     OH2      OT      -0.834000       15.9994           0
     77930 TIP3     18495    TIP3     H1       HT       0.417000       1.00800           0
     77931 TIP3     18495    TIP3     H2       HT       0.417000       1.00800           0
     77932 TIP3     18496    TIP3     OH2      OT      -0.834000       15.9994           0
     77933 TIP3     18496    TIP3     H1       HT       0.417000       1.00800           0
     77934 TIP3     18496    TIP3     H2       HT       0.417000       1.00800           0
     77935 TIP3     18497    TIP3     OH2      OT      -0.834000       15.9994           0
     77936 TIP3     18497    TIP3     H1       HT       0.417000       1.00800           0
     77937 TIP3     18497    TIP3     H2       HT       0.417000       1.00800           0
     77938 TIP3     18498    TIP3     OH2      OT      -0.834000       15.9994           0
     77939 TIP3     18498    TIP3     H1       HT       0.417000       1.00800           0
     77940 TIP3     18498    TIP3     H2       HT       0.417000       1.00800           0
     77941 TIP3     18499    TIP3     OH2      OT      -0.834000       15.9994           0
     77942 TIP3     18499    TIP3     H1       HT       0.417000       1.00800           0
     77943 TIP3     18499    TIP3     H2       HT       0.417000       1.00800           0
     77944 TIP3     18500    TIP3     OH2      OT      -0.834000       15.9994           0
     77945 TIP3     18500    TIP3     H1       HT       0.417000       1.00800           0
     77946 TIP3     18500    TIP3     H2       HT       0.417000       1.00800           0
     77947 TIP3     18501    TIP3     OH2      OT      -0.834000       15.9994           0
     77948 TIP3     18501    TIP3     H1       HT       0.417000       1.00800           0
     77949 TIP3     18501    TIP3     H2       HT       0.417000       1.00800           0
     77950 TIP3     18502    TIP3     OH2      OT      -0.834000       15.9994           0
     77951 TIP3     18502    TIP3     H1       HT       0.417000       1.00800           0
     77952 TIP3     18502    TIP3     H2       HT       0.417000       1.00800           0
     77953 TIP3     18503    TIP3     OH2      OT      -0.834000       15.9994           0
     77954 TIP3     18503    TIP3     H1       HT       0.417000       1.00800           0
     77955 TIP3     18503    TIP3     H2       HT       0.417000       1.00800           0
     77956 TIP3     18504    TIP3     OH2      OT      -0.834000       15.9994           0
     77957 TIP3     18504    TIP3     H1       HT       0.417000       1.00800           0
     77958 TIP3     18504    TIP3     H2       HT       0.417000       1.00800           0
     77959 TIP3     18505    TIP3     OH2      OT      -0.834000       15.9994           0
     77960 TIP3     18505    TIP3     H1       HT       0.417000       1.00800           0
     77961 TIP3     18505    TIP3     H2       HT       0.417000       1.00800           0
     77962 TIP3     18506    TIP3     OH2      OT      -0.834000       15.9994           0
     77963 TIP3     18506    TIP3     H1       HT       0.417000       1.00800           0
     77964 TIP3     18506    TIP3     H2       HT       0.417000       1.00800           0
     77965 TIP3     18507    TIP3     OH2      OT      -0.834000       15.9994           0
     77966 TIP3     18507    TIP3     H1       HT       0.417000       1.00800           0
     77967 TIP3     18507    TIP3     H2       HT       0.417000       1.00800           0
     77968 TIP3     18508    TIP3     OH2      OT      -0.834000       15.9994           0
     77969 TIP3     18508    TIP3     H1       HT       0.417000       1.00800           0
     77970 TIP3     18508    TIP3     H2       HT       0.417000       1.00800           0
     77971 TIP3     18509    TIP3     OH2      OT      -0.834000       15.9994           0
     77972 TIP3     18509    TIP3     H1       HT       0.417000       1.00800           0
     77973 TIP3     18509    TIP3     H2       HT       0.417000       1.00800           0
     77974 TIP3     18510    TIP3     OH2      OT      -0.834000       15.9994           0
     77975 TIP3     18510    TIP3     H1       HT       0.417000       1.00800           0
     77976 TIP3     18510    TIP3     H2       HT       0.417000       1.00800           0
     77977 TIP3     18511    TIP3     OH2      OT      -0.834000       15.9994           0
     77978 TIP3     18511    TIP3     H1       HT       0.417000       1.00800           0
     77979 TIP3     18511    TIP3     H2       HT       0.417000       1.00800           0
     77980 TIP3     18512    TIP3     OH2      OT      -0.834000       15.9994           0
     77981 TIP3     18512    TIP3     H1       HT       0.417000       1.00800           0
     77982 TIP3     18512    TIP3     H2       HT       0.417000       1.00800           0
     77983 TIP3     18513    TIP3     OH2      OT      -0.834000       15.9994           0
     77984 TIP3     18513    TIP3     H1       HT       0.417000       1.00800           0
     77985 TIP3     18513    TIP3     H2       HT       0.417000       1.00800           0
     77986 TIP3     18514    TIP3     OH2      OT      -0.834000       15.9994           0
     77987 TIP3     18514    TIP3     H1       HT       0.417000       1.00800           0
     77988 TIP3     18514    TIP3     H2       HT       0.417000       1.00800           0
     77989 TIP3     18515    TIP3     OH2      OT      -0.834000       15.9994           0
     77990 TIP3     18515    TIP3     H1       HT       0.417000       1.00800           0
     77991 TIP3     18515    TIP3     H2       HT       0.417000       1.00800           0
     77992 TIP3     18516    TIP3     OH2      OT      -0.834000       15.9994           0
     77993 TIP3     18516    TIP3     H1       HT       0.417000       1.00800           0
     77994 TIP3     18516    TIP3     H2       HT       0.417000       1.00800           0
     77995 TIP3     18517    TIP3     OH2      OT      -0.834000       15.9994           0
     77996 TIP3     18517    TIP3     H1       HT       0.417000       1.00800           0
     77997 TIP3     18517    TIP3     H2       HT       0.417000       1.00800           0
     77998 TIP3     18518    TIP3     OH2      OT      -0.834000       15.9994           0
     77999 TIP3     18518    TIP3     H1       HT       0.417000       1.00800           0
     78000 TIP3     18518    TIP3     H2       HT       0.417000       1.00800           0
     78001 TIP3     18519    TIP3     OH2      OT      -0.834000       15.9994           0
     78002 TIP3     18519    TIP3     H1       HT       0.417000       1.00800           0
     78003 TIP3     18519    TIP3     H2       HT       0.417000       1.00800           0
     78004 TIP3     18520    TIP3     OH2      OT      -0.834000       15.9994           0
     78005 TIP3     18520    TIP3     H1       HT       0.417000       1.00800           0
     78006 TIP3     18520    TIP3     H2       HT       0.417000       1.00800           0
     78007 TIP3     18521    TIP3     OH2      OT      -0.834000       15.9994           0
     78008 TIP3     18521    TIP3     H1       HT       0.417000       1.00800           0
     78009 TIP3     18521    TIP3     H2       HT       0.417000       1.00800           0
     78010 TIP3     18522    TIP3     OH2      OT      -0.834000       15.9994           0
     78011 TIP3     18522    TIP3     H1       HT       0.417000       1.00800           0
     78012 TIP3     18522    TIP3     H2       HT       0.417000       1.00800           0
     78013 TIP3     18523    TIP3     OH2      OT      -0.834000       15.9994           0
     78014 TIP3     18523    TIP3     H1       HT       0.417000       1.00800           0
     78015 TIP3     18523    TIP3     H2       HT       0.417000       1.00800           0
     78016 TIP3     18524    TIP3     OH2      OT      -0.834000       15.9994           0
     78017 TIP3     18524    TIP3     H1       HT       0.417000       1.00800           0
     78018 TIP3     18524    TIP3     H2       HT       0.417000       1.00800           0
     78019 TIP3     18525    TIP3     OH2      OT      -0.834000       15.9994           0
     78020 TIP3     18525    TIP3     H1       HT       0.417000       1.00800           0
     78021 TIP3     18525    TIP3     H2       HT       0.417000       1.00800           0
     78022 TIP3     18526    TIP3     OH2      OT      -0.834000       15.9994           0
     78023 TIP3     18526    TIP3     H1       HT       0.417000       1.00800           0
     78024 TIP3     18526    TIP3     H2       HT       0.417000       1.00800           0
     78025 TIP3     18527    TIP3     OH2      OT      -0.834000       15.9994           0
     78026 TIP3     18527    TIP3     H1       HT       0.417000       1.00800           0
     78027 TIP3     18527    TIP3     H2       HT       0.417000       1.00800           0
     78028 TIP3     18528    TIP3     OH2      OT      -0.834000       15.9994           0
     78029 TIP3     18528    TIP3     H1       HT       0.417000       1.00800           0
     78030 TIP3     18528    TIP3     H2       HT       0.417000       1.00800           0
     78031 TIP3     18529    TIP3     OH2      OT      -0.834000       15.9994           0
     78032 TIP3     18529    TIP3     H1       HT       0.417000       1.00800           0
     78033 TIP3     18529    TIP3     H2       HT       0.417000       1.00800           0
     78034 TIP3     18530    TIP3     OH2      OT      -0.834000       15.9994           0
     78035 TIP3     18530    TIP3     H1       HT       0.417000       1.00800           0
     78036 TIP3     18530    TIP3     H2       HT       0.417000       1.00800           0
     78037 TIP3     18531    TIP3     OH2      OT      -0.834000       15.9994           0
     78038 TIP3     18531    TIP3     H1       HT       0.417000       1.00800           0
     78039 TIP3     18531    TIP3     H2       HT       0.417000       1.00800           0
     78040 TIP3     18532    TIP3     OH2      OT      -0.834000       15.9994           0
     78041 TIP3     18532    TIP3     H1       HT       0.417000       1.00800           0
     78042 TIP3     18532    TIP3     H2       HT       0.417000       1.00800           0
     78043 TIP3     18533    TIP3     OH2      OT      -0.834000       15.9994           0
     78044 TIP3     18533    TIP3     H1       HT       0.417000       1.00800           0
     78045 TIP3     18533    TIP3     H2       HT       0.417000       1.00800           0
     78046 TIP3     18534    TIP3     OH2      OT      -0.834000       15.9994           0
     78047 TIP3     18534    TIP3     H1       HT       0.417000       1.00800           0
     78048 TIP3     18534    TIP3     H2       HT       0.417000       1.00800           0
     78049 TIP3     18535    TIP3     OH2      OT      -0.834000       15.9994           0
     78050 TIP3     18535    TIP3     H1       HT       0.417000       1.00800           0
     78051 TIP3     18535    TIP3     H2       HT       0.417000       1.00800           0
     78052 TIP3     18536    TIP3     OH2      OT      -0.834000       15.9994           0
     78053 TIP3     18536    TIP3     H1       HT       0.417000       1.00800           0
     78054 TIP3     18536    TIP3     H2       HT       0.417000       1.00800           0
     78055 TIP3     18537    TIP3     OH2      OT      -0.834000       15.9994           0
     78056 TIP3     18537    TIP3     H1       HT       0.417000       1.00800           0
     78057 TIP3     18537    TIP3     H2       HT       0.417000       1.00800           0
     78058 TIP3     18538    TIP3     OH2      OT      -0.834000       15.9994           0
     78059 TIP3     18538    TIP3     H1       HT       0.417000       1.00800           0
     78060 TIP3     18538    TIP3     H2       HT       0.417000       1.00800           0
     78061 TIP3     18539    TIP3     OH2      OT      -0.834000       15.9994           0
     78062 TIP3     18539    TIP3     H1       HT       0.417000       1.00800           0
     78063 TIP3     18539    TIP3     H2       HT       0.417000       1.00800           0
     78064 TIP3     18540    TIP3     OH2      OT      -0.834000       15.9994           0
     78065 TIP3     18540    TIP3     H1       HT       0.417000       1.00800           0
     78066 TIP3     18540    TIP3     H2       HT       0.417000       1.00800           0
     78067 TIP3     18541    TIP3     OH2      OT      -0.834000       15.9994           0
     78068 TIP3     18541    TIP3     H1       HT       0.417000       1.00800           0
     78069 TIP3     18541    TIP3     H2       HT       0.417000       1.00800           0
     78070 TIP3     18542    TIP3     OH2      OT      -0.834000       15.9994           0
     78071 TIP3     18542    TIP3     H1       HT       0.417000       1.00800           0
     78072 TIP3     18542    TIP3     H2       HT       0.417000       1.00800           0
     78073 TIP3     18543    TIP3     OH2      OT      -0.834000       15.9994           0
     78074 TIP3     18543    TIP3     H1       HT       0.417000       1.00800           0
     78075 TIP3     18543    TIP3     H2       HT       0.417000       1.00800           0
     78076 TIP3     18544    TIP3     OH2      OT      -0.834000       15.9994           0
     78077 TIP3     18544    TIP3     H1       HT       0.417000       1.00800           0
     78078 TIP3     18544    TIP3     H2       HT       0.417000       1.00800           0
     78079 TIP3     18545    TIP3     OH2      OT      -0.834000       15.9994           0
     78080 TIP3     18545    TIP3     H1       HT       0.417000       1.00800           0
     78081 TIP3     18545    TIP3     H2       HT       0.417000       1.00800           0
     78082 TIP3     18546    TIP3     OH2      OT      -0.834000       15.9994           0
     78083 TIP3     18546    TIP3     H1       HT       0.417000       1.00800           0
     78084 TIP3     18546    TIP3     H2       HT       0.417000       1.00800           0
     78085 TIP3     18547    TIP3     OH2      OT      -0.834000       15.9994           0
     78086 TIP3     18547    TIP3     H1       HT       0.417000       1.00800           0
     78087 TIP3     18547    TIP3     H2       HT       0.417000       1.00800           0
     78088 TIP3     18548    TIP3     OH2      OT      -0.834000       15.9994           0
     78089 TIP3     18548    TIP3     H1       HT       0.417000       1.00800           0
     78090 TIP3     18548    TIP3     H2       HT       0.417000       1.00800           0
     78091 TIP3     18549    TIP3     OH2      OT      -0.834000       15.9994           0
     78092 TIP3     18549    TIP3     H1       HT       0.417000       1.00800           0
     78093 TIP3     18549    TIP3     H2       HT       0.417000       1.00800           0
     78094 TIP3     18550    TIP3     OH2      OT      -0.834000       15.9994           0
     78095 TIP3     18550    TIP3     H1       HT       0.417000       1.00800           0
     78096 TIP3     18550    TIP3     H2       HT       0.417000       1.00800           0
     78097 TIP3     18551    TIP3     OH2      OT      -0.834000       15.9994           0
     78098 TIP3     18551    TIP3     H1       HT       0.417000       1.00800           0
     78099 TIP3     18551    TIP3     H2       HT       0.417000       1.00800           0
     78100 TIP3     18552    TIP3     OH2      OT      -0.834000       15.9994           0
     78101 TIP3     18552    TIP3     H1       HT       0.417000       1.00800           0
     78102 TIP3     18552    TIP3     H2       HT       0.417000       1.00800           0
     78103 TIP3     18553    TIP3     OH2      OT      -0.834000       15.9994           0
     78104 TIP3     18553    TIP3     H1       HT       0.417000       1.00800           0
     78105 TIP3     18553    TIP3     H2       HT       0.417000       1.00800           0
     78106 TIP3     18554    TIP3     OH2      OT      -0.834000       15.9994           0
     78107 TIP3     18554    TIP3     H1       HT       0.417000       1.00800           0
     78108 TIP3     18554    TIP3     H2       HT       0.417000       1.00800           0
     78109 TIP3     18555    TIP3     OH2      OT      -0.834000       15.9994           0
     78110 TIP3     18555    TIP3     H1       HT       0.417000       1.00800           0
     78111 TIP3     18555    TIP3     H2       HT       0.417000       1.00800           0
     78112 TIP3     18556    TIP3     OH2      OT      -0.834000       15.9994           0
     78113 TIP3     18556    TIP3     H1       HT       0.417000       1.00800           0
     78114 TIP3     18556    TIP3     H2       HT       0.417000       1.00800           0
     78115 TIP3     18557    TIP3     OH2      OT      -0.834000       15.9994           0
     78116 TIP3     18557    TIP3     H1       HT       0.417000       1.00800           0
     78117 TIP3     18557    TIP3     H2       HT       0.417000       1.00800           0
     78118 TIP3     18558    TIP3     OH2      OT      -0.834000       15.9994           0
     78119 TIP3     18558    TIP3     H1       HT       0.417000       1.00800           0
     78120 TIP3     18558    TIP3     H2       HT       0.417000       1.00800           0
     78121 TIP3     18559    TIP3     OH2      OT      -0.834000       15.9994           0
     78122 TIP3     18559    TIP3     H1       HT       0.417000       1.00800           0
     78123 TIP3     18559    TIP3     H2       HT       0.417000       1.00800           0
     78124 TIP3     18560    TIP3     OH2      OT      -0.834000       15.9994           0
     78125 TIP3     18560    TIP3     H1       HT       0.417000       1.00800           0
     78126 TIP3     18560    TIP3     H2       HT       0.417000       1.00800           0
     78127 TIP3     18561    TIP3     OH2      OT      -0.834000       15.9994           0
     78128 TIP3     18561    TIP3     H1       HT       0.417000       1.00800           0
     78129 TIP3     18561    TIP3     H2       HT       0.417000       1.00800           0
     78130 TIP3     18562    TIP3     OH2      OT      -0.834000       15.9994           0
     78131 TIP3     18562    TIP3     H1       HT       0.417000       1.00800           0
     78132 TIP3     18562    TIP3     H2       HT       0.417000       1.00800           0
     78133 TIP3     18563    TIP3     OH2      OT      -0.834000       15.9994           0
     78134 TIP3     18563    TIP3     H1       HT       0.417000       1.00800           0
     78135 TIP3     18563    TIP3     H2       HT       0.417000       1.00800           0
     78136 TIP3     18564    TIP3     OH2      OT      -0.834000       15.9994           0
     78137 TIP3     18564    TIP3     H1       HT       0.417000       1.00800           0
     78138 TIP3     18564    TIP3     H2       HT       0.417000       1.00800           0
     78139 TIP3     18565    TIP3     OH2      OT      -0.834000       15.9994           0
     78140 TIP3     18565    TIP3     H1       HT       0.417000       1.00800           0
     78141 TIP3     18565    TIP3     H2       HT       0.417000       1.00800           0
     78142 TIP3     18566    TIP3     OH2      OT      -0.834000       15.9994           0
     78143 TIP3     18566    TIP3     H1       HT       0.417000       1.00800           0
     78144 TIP3     18566    TIP3     H2       HT       0.417000       1.00800           0
     78145 TIP3     18567    TIP3     OH2      OT      -0.834000       15.9994           0
     78146 TIP3     18567    TIP3     H1       HT       0.417000       1.00800           0
     78147 TIP3     18567    TIP3     H2       HT       0.417000       1.00800           0
     78148 TIP3     18568    TIP3     OH2      OT      -0.834000       15.9994           0
     78149 TIP3     18568    TIP3     H1       HT       0.417000       1.00800           0
     78150 TIP3     18568    TIP3     H2       HT       0.417000       1.00800           0
     78151 TIP3     18569    TIP3     OH2      OT      -0.834000       15.9994           0
     78152 TIP3     18569    TIP3     H1       HT       0.417000       1.00800           0
     78153 TIP3     18569    TIP3     H2       HT       0.417000       1.00800           0
     78154 TIP3     18570    TIP3     OH2      OT      -0.834000       15.9994           0
     78155 TIP3     18570    TIP3     H1       HT       0.417000       1.00800           0
     78156 TIP3     18570    TIP3     H2       HT       0.417000       1.00800           0
     78157 TIP3     18571    TIP3     OH2      OT      -0.834000       15.9994           0
     78158 TIP3     18571    TIP3     H1       HT       0.417000       1.00800           0
     78159 TIP3     18571    TIP3     H2       HT       0.417000       1.00800           0
     78160 TIP3     18572    TIP3     OH2      OT      -0.834000       15.9994           0
     78161 TIP3     18572    TIP3     H1       HT       0.417000       1.00800           0
     78162 TIP3     18572    TIP3     H2       HT       0.417000       1.00800           0
     78163 TIP3     18573    TIP3     OH2      OT      -0.834000       15.9994           0
     78164 TIP3     18573    TIP3     H1       HT       0.417000       1.00800           0
     78165 TIP3     18573    TIP3     H2       HT       0.417000       1.00800           0
     78166 TIP3     18574    TIP3     OH2      OT      -0.834000       15.9994           0
     78167 TIP3     18574    TIP3     H1       HT       0.417000       1.00800           0
     78168 TIP3     18574    TIP3     H2       HT       0.417000       1.00800           0
     78169 TIP3     18575    TIP3     OH2      OT      -0.834000       15.9994           0
     78170 TIP3     18575    TIP3     H1       HT       0.417000       1.00800           0
     78171 TIP3     18575    TIP3     H2       HT       0.417000       1.00800           0
     78172 TIP3     18576    TIP3     OH2      OT      -0.834000       15.9994           0
     78173 TIP3     18576    TIP3     H1       HT       0.417000       1.00800           0
     78174 TIP3     18576    TIP3     H2       HT       0.417000       1.00800           0
     78175 TIP3     18577    TIP3     OH2      OT      -0.834000       15.9994           0
     78176 TIP3     18577    TIP3     H1       HT       0.417000       1.00800           0
     78177 TIP3     18577    TIP3     H2       HT       0.417000       1.00800           0
     78178 TIP3     18578    TIP3     OH2      OT      -0.834000       15.9994           0
     78179 TIP3     18578    TIP3     H1       HT       0.417000       1.00800           0
     78180 TIP3     18578    TIP3     H2       HT       0.417000       1.00800           0
     78181 TIP3     18579    TIP3     OH2      OT      -0.834000       15.9994           0
     78182 TIP3     18579    TIP3     H1       HT       0.417000       1.00800           0
     78183 TIP3     18579    TIP3     H2       HT       0.417000       1.00800           0
     78184 TIP3     18580    TIP3     OH2      OT      -0.834000       15.9994           0
     78185 TIP3     18580    TIP3     H1       HT       0.417000       1.00800           0
     78186 TIP3     18580    TIP3     H2       HT       0.417000       1.00800           0
     78187 TIP3     18581    TIP3     OH2      OT      -0.834000       15.9994           0
     78188 TIP3     18581    TIP3     H1       HT       0.417000       1.00800           0
     78189 TIP3     18581    TIP3     H2       HT       0.417000       1.00800           0
     78190 TIP3     18582    TIP3     OH2      OT      -0.834000       15.9994           0
     78191 TIP3     18582    TIP3     H1       HT       0.417000       1.00800           0
     78192 TIP3     18582    TIP3     H2       HT       0.417000       1.00800           0
     78193 TIP3     18583    TIP3     OH2      OT      -0.834000       15.9994           0
     78194 TIP3     18583    TIP3     H1       HT       0.417000       1.00800           0
     78195 TIP3     18583    TIP3     H2       HT       0.417000       1.00800           0
     78196 TIP3     18584    TIP3     OH2      OT      -0.834000       15.9994           0
     78197 TIP3     18584    TIP3     H1       HT       0.417000       1.00800           0
     78198 TIP3     18584    TIP3     H2       HT       0.417000       1.00800           0
     78199 TIP3     18585    TIP3     OH2      OT      -0.834000       15.9994           0
     78200 TIP3     18585    TIP3     H1       HT       0.417000       1.00800           0
     78201 TIP3     18585    TIP3     H2       HT       0.417000       1.00800           0
     78202 TIP3     18586    TIP3     OH2      OT      -0.834000       15.9994           0
     78203 TIP3     18586    TIP3     H1       HT       0.417000       1.00800           0
     78204 TIP3     18586    TIP3     H2       HT       0.417000       1.00800           0
     78205 TIP3     18587    TIP3     OH2      OT      -0.834000       15.9994           0
     78206 TIP3     18587    TIP3     H1       HT       0.417000       1.00800           0
     78207 TIP3     18587    TIP3     H2       HT       0.417000       1.00800           0
     78208 TIP3     18588    TIP3     OH2      OT      -0.834000       15.9994           0
     78209 TIP3     18588    TIP3     H1       HT       0.417000       1.00800           0
     78210 TIP3     18588    TIP3     H2       HT       0.417000       1.00800           0
     78211 TIP3     18589    TIP3     OH2      OT      -0.834000       15.9994           0
     78212 TIP3     18589    TIP3     H1       HT       0.417000       1.00800           0
     78213 TIP3     18589    TIP3     H2       HT       0.417000       1.00800           0
     78214 TIP3     18590    TIP3     OH2      OT      -0.834000       15.9994           0
     78215 TIP3     18590    TIP3     H1       HT       0.417000       1.00800           0
     78216 TIP3     18590    TIP3     H2       HT       0.417000       1.00800           0
     78217 TIP3     18591    TIP3     OH2      OT      -0.834000       15.9994           0
     78218 TIP3     18591    TIP3     H1       HT       0.417000       1.00800           0
     78219 TIP3     18591    TIP3     H2       HT       0.417000       1.00800           0
     78220 TIP3     18592    TIP3     OH2      OT      -0.834000       15.9994           0
     78221 TIP3     18592    TIP3     H1       HT       0.417000       1.00800           0
     78222 TIP3     18592    TIP3     H2       HT       0.417000       1.00800           0
     78223 TIP3     18593    TIP3     OH2      OT      -0.834000       15.9994           0
     78224 TIP3     18593    TIP3     H1       HT       0.417000       1.00800           0
     78225 TIP3     18593    TIP3     H2       HT       0.417000       1.00800           0
     78226 TIP3     18594    TIP3     OH2      OT      -0.834000       15.9994           0
     78227 TIP3     18594    TIP3     H1       HT       0.417000       1.00800           0
     78228 TIP3     18594    TIP3     H2       HT       0.417000       1.00800           0
     78229 TIP3     18595    TIP3     OH2      OT      -0.834000       15.9994           0
     78230 TIP3     18595    TIP3     H1       HT       0.417000       1.00800           0
     78231 TIP3     18595    TIP3     H2       HT       0.417000       1.00800           0
     78232 TIP3     18596    TIP3     OH2      OT      -0.834000       15.9994           0
     78233 TIP3     18596    TIP3     H1       HT       0.417000       1.00800           0
     78234 TIP3     18596    TIP3     H2       HT       0.417000       1.00800           0
     78235 TIP3     18597    TIP3     OH2      OT      -0.834000       15.9994           0
     78236 TIP3     18597    TIP3     H1       HT       0.417000       1.00800           0
     78237 TIP3     18597    TIP3     H2       HT       0.417000       1.00800           0
     78238 TIP3     18598    TIP3     OH2      OT      -0.834000       15.9994           0
     78239 TIP3     18598    TIP3     H1       HT       0.417000       1.00800           0
     78240 TIP3     18598    TIP3     H2       HT       0.417000       1.00800           0
     78241 TIP3     18599    TIP3     OH2      OT      -0.834000       15.9994           0
     78242 TIP3     18599    TIP3     H1       HT       0.417000       1.00800           0
     78243 TIP3     18599    TIP3     H2       HT       0.417000       1.00800           0
     78244 TIP3     18600    TIP3     OH2      OT      -0.834000       15.9994           0
     78245 TIP3     18600    TIP3     H1       HT       0.417000       1.00800           0
     78246 TIP3     18600    TIP3     H2       HT       0.417000       1.00800           0
     78247 TIP3     18601    TIP3     OH2      OT      -0.834000       15.9994           0
     78248 TIP3     18601    TIP3     H1       HT       0.417000       1.00800           0
     78249 TIP3     18601    TIP3     H2       HT       0.417000       1.00800           0
     78250 TIP3     18602    TIP3     OH2      OT      -0.834000       15.9994           0
     78251 TIP3     18602    TIP3     H1       HT       0.417000       1.00800           0
     78252 TIP3     18602    TIP3     H2       HT       0.417000       1.00800           0
     78253 TIP3     18603    TIP3     OH2      OT      -0.834000       15.9994           0
     78254 TIP3     18603    TIP3     H1       HT       0.417000       1.00800           0
     78255 TIP3     18603    TIP3     H2       HT       0.417000       1.00800           0
     78256 TIP3     18604    TIP3     OH2      OT      -0.834000       15.9994           0
     78257 TIP3     18604    TIP3     H1       HT       0.417000       1.00800           0
     78258 TIP3     18604    TIP3     H2       HT       0.417000       1.00800           0
     78259 TIP3     18605    TIP3     OH2      OT      -0.834000       15.9994           0
     78260 TIP3     18605    TIP3     H1       HT       0.417000       1.00800           0
     78261 TIP3     18605    TIP3     H2       HT       0.417000       1.00800           0
     78262 TIP3     18606    TIP3     OH2      OT      -0.834000       15.9994           0
     78263 TIP3     18606    TIP3     H1       HT       0.417000       1.00800           0
     78264 TIP3     18606    TIP3     H2       HT       0.417000       1.00800           0
     78265 TIP3     18607    TIP3     OH2      OT      -0.834000       15.9994           0
     78266 TIP3     18607    TIP3     H1       HT       0.417000       1.00800           0
     78267 TIP3     18607    TIP3     H2       HT       0.417000       1.00800           0
     78268 TIP3     18608    TIP3     OH2      OT      -0.834000       15.9994           0
     78269 TIP3     18608    TIP3     H1       HT       0.417000       1.00800           0
     78270 TIP3     18608    TIP3     H2       HT       0.417000       1.00800           0
     78271 TIP3     18609    TIP3     OH2      OT      -0.834000       15.9994           0
     78272 TIP3     18609    TIP3     H1       HT       0.417000       1.00800           0
     78273 TIP3     18609    TIP3     H2       HT       0.417000       1.00800           0
     78274 TIP3     18610    TIP3     OH2      OT      -0.834000       15.9994           0
     78275 TIP3     18610    TIP3     H1       HT       0.417000       1.00800           0
     78276 TIP3     18610    TIP3     H2       HT       0.417000       1.00800           0
     78277 TIP3     18611    TIP3     OH2      OT      -0.834000       15.9994           0
     78278 TIP3     18611    TIP3     H1       HT       0.417000       1.00800           0
     78279 TIP3     18611    TIP3     H2       HT       0.417000       1.00800           0
     78280 TIP3     18612    TIP3     OH2      OT      -0.834000       15.9994           0
     78281 TIP3     18612    TIP3     H1       HT       0.417000       1.00800           0
     78282 TIP3     18612    TIP3     H2       HT       0.417000       1.00800           0
     78283 TIP3     18613    TIP3     OH2      OT      -0.834000       15.9994           0
     78284 TIP3     18613    TIP3     H1       HT       0.417000       1.00800           0
     78285 TIP3     18613    TIP3     H2       HT       0.417000       1.00800           0
     78286 TIP3     18614    TIP3     OH2      OT      -0.834000       15.9994           0
     78287 TIP3     18614    TIP3     H1       HT       0.417000       1.00800           0
     78288 TIP3     18614    TIP3     H2       HT       0.417000       1.00800           0
     78289 TIP3     18615    TIP3     OH2      OT      -0.834000       15.9994           0
     78290 TIP3     18615    TIP3     H1       HT       0.417000       1.00800           0
     78291 TIP3     18615    TIP3     H2       HT       0.417000       1.00800           0
     78292 TIP3     18616    TIP3     OH2      OT      -0.834000       15.9994           0
     78293 TIP3     18616    TIP3     H1       HT       0.417000       1.00800           0
     78294 TIP3     18616    TIP3     H2       HT       0.417000       1.00800           0
     78295 TIP3     18617    TIP3     OH2      OT      -0.834000       15.9994           0
     78296 TIP3     18617    TIP3     H1       HT       0.417000       1.00800           0
     78297 TIP3     18617    TIP3     H2       HT       0.417000       1.00800           0
     78298 TIP3     18618    TIP3     OH2      OT      -0.834000       15.9994           0
     78299 TIP3     18618    TIP3     H1       HT       0.417000       1.00800           0
     78300 TIP3     18618    TIP3     H2       HT       0.417000       1.00800           0
     78301 TIP3     18619    TIP3     OH2      OT      -0.834000       15.9994           0
     78302 TIP3     18619    TIP3     H1       HT       0.417000       1.00800           0
     78303 TIP3     18619    TIP3     H2       HT       0.417000       1.00800           0
     78304 TIP3     18620    TIP3     OH2      OT      -0.834000       15.9994           0
     78305 TIP3     18620    TIP3     H1       HT       0.417000       1.00800           0
     78306 TIP3     18620    TIP3     H2       HT       0.417000       1.00800           0
     78307 TIP3     18621    TIP3     OH2      OT      -0.834000       15.9994           0
     78308 TIP3     18621    TIP3     H1       HT       0.417000       1.00800           0
     78309 TIP3     18621    TIP3     H2       HT       0.417000       1.00800           0
     78310 TIP3     18622    TIP3     OH2      OT      -0.834000       15.9994           0
     78311 TIP3     18622    TIP3     H1       HT       0.417000       1.00800           0
     78312 TIP3     18622    TIP3     H2       HT       0.417000       1.00800           0
     78313 TIP3     18623    TIP3     OH2      OT      -0.834000       15.9994           0
     78314 TIP3     18623    TIP3     H1       HT       0.417000       1.00800           0
     78315 TIP3     18623    TIP3     H2       HT       0.417000       1.00800           0
     78316 TIP3     18624    TIP3     OH2      OT      -0.834000       15.9994           0
     78317 TIP3     18624    TIP3     H1       HT       0.417000       1.00800           0
     78318 TIP3     18624    TIP3     H2       HT       0.417000       1.00800           0
     78319 TIP3     18625    TIP3     OH2      OT      -0.834000       15.9994           0
     78320 TIP3     18625    TIP3     H1       HT       0.417000       1.00800           0
     78321 TIP3     18625    TIP3     H2       HT       0.417000       1.00800           0
     78322 TIP3     18626    TIP3     OH2      OT      -0.834000       15.9994           0
     78323 TIP3     18626    TIP3     H1       HT       0.417000       1.00800           0
     78324 TIP3     18626    TIP3     H2       HT       0.417000       1.00800           0
     78325 TIP3     18627    TIP3     OH2      OT      -0.834000       15.9994           0
     78326 TIP3     18627    TIP3     H1       HT       0.417000       1.00800           0
     78327 TIP3     18627    TIP3     H2       HT       0.417000       1.00800           0
     78328 TIP3     18628    TIP3     OH2      OT      -0.834000       15.9994           0
     78329 TIP3     18628    TIP3     H1       HT       0.417000       1.00800           0
     78330 TIP3     18628    TIP3     H2       HT       0.417000       1.00800           0
     78331 TIP3     18629    TIP3     OH2      OT      -0.834000       15.9994           0
     78332 TIP3     18629    TIP3     H1       HT       0.417000       1.00800           0
     78333 TIP3     18629    TIP3     H2       HT       0.417000       1.00800           0
     78334 TIP3     18630    TIP3     OH2      OT      -0.834000       15.9994           0
     78335 TIP3     18630    TIP3     H1       HT       0.417000       1.00800           0
     78336 TIP3     18630    TIP3     H2       HT       0.417000       1.00800           0
     78337 TIP3     18631    TIP3     OH2      OT      -0.834000       15.9994           0
     78338 TIP3     18631    TIP3     H1       HT       0.417000       1.00800           0
     78339 TIP3     18631    TIP3     H2       HT       0.417000       1.00800           0
     78340 TIP3     18632    TIP3     OH2      OT      -0.834000       15.9994           0
     78341 TIP3     18632    TIP3     H1       HT       0.417000       1.00800           0
     78342 TIP3     18632    TIP3     H2       HT       0.417000       1.00800           0
     78343 TIP3     18633    TIP3     OH2      OT      -0.834000       15.9994           0
     78344 TIP3     18633    TIP3     H1       HT       0.417000       1.00800           0
     78345 TIP3     18633    TIP3     H2       HT       0.417000       1.00800           0
     78346 TIP3     18634    TIP3     OH2      OT      -0.834000       15.9994           0
     78347 TIP3     18634    TIP3     H1       HT       0.417000       1.00800           0
     78348 TIP3     18634    TIP3     H2       HT       0.417000       1.00800           0
     78349 TIP3     18635    TIP3     OH2      OT      -0.834000       15.9994           0
     78350 TIP3     18635    TIP3     H1       HT       0.417000       1.00800           0
     78351 TIP3     18635    TIP3     H2       HT       0.417000       1.00800           0
     78352 TIP3     18636    TIP3     OH2      OT      -0.834000       15.9994           0
     78353 TIP3     18636    TIP3     H1       HT       0.417000       1.00800           0
     78354 TIP3     18636    TIP3     H2       HT       0.417000       1.00800           0
     78355 TIP3     18637    TIP3     OH2      OT      -0.834000       15.9994           0
     78356 TIP3     18637    TIP3     H1       HT       0.417000       1.00800           0
     78357 TIP3     18637    TIP3     H2       HT       0.417000       1.00800           0
     78358 TIP3     18638    TIP3     OH2      OT      -0.834000       15.9994           0
     78359 TIP3     18638    TIP3     H1       HT       0.417000       1.00800           0
     78360 TIP3     18638    TIP3     H2       HT       0.417000       1.00800           0
     78361 TIP3     18639    TIP3     OH2      OT      -0.834000       15.9994           0
     78362 TIP3     18639    TIP3     H1       HT       0.417000       1.00800           0
     78363 TIP3     18639    TIP3     H2       HT       0.417000       1.00800           0
     78364 TIP3     18640    TIP3     OH2      OT      -0.834000       15.9994           0
     78365 TIP3     18640    TIP3     H1       HT       0.417000       1.00800           0
     78366 TIP3     18640    TIP3     H2       HT       0.417000       1.00800           0
     78367 TIP3     18641    TIP3     OH2      OT      -0.834000       15.9994           0
     78368 TIP3     18641    TIP3     H1       HT       0.417000       1.00800           0
     78369 TIP3     18641    TIP3     H2       HT       0.417000       1.00800           0
     78370 TIP3     18642    TIP3     OH2      OT      -0.834000       15.9994           0
     78371 TIP3     18642    TIP3     H1       HT       0.417000       1.00800           0
     78372 TIP3     18642    TIP3     H2       HT       0.417000       1.00800           0
     78373 TIP3     18643    TIP3     OH2      OT      -0.834000       15.9994           0
     78374 TIP3     18643    TIP3     H1       HT       0.417000       1.00800           0
     78375 TIP3     18643    TIP3     H2       HT       0.417000       1.00800           0
     78376 TIP3     18644    TIP3     OH2      OT      -0.834000       15.9994           0
     78377 TIP3     18644    TIP3     H1       HT       0.417000       1.00800           0
     78378 TIP3     18644    TIP3     H2       HT       0.417000       1.00800           0
     78379 TIP3     18645    TIP3     OH2      OT      -0.834000       15.9994           0
     78380 TIP3     18645    TIP3     H1       HT       0.417000       1.00800           0
     78381 TIP3     18645    TIP3     H2       HT       0.417000       1.00800           0
     78382 TIP3     18646    TIP3     OH2      OT      -0.834000       15.9994           0
     78383 TIP3     18646    TIP3     H1       HT       0.417000       1.00800           0
     78384 TIP3     18646    TIP3     H2       HT       0.417000       1.00800           0
     78385 TIP3     18647    TIP3     OH2      OT      -0.834000       15.9994           0
     78386 TIP3     18647    TIP3     H1       HT       0.417000       1.00800           0
     78387 TIP3     18647    TIP3     H2       HT       0.417000       1.00800           0
     78388 TIP3     18648    TIP3     OH2      OT      -0.834000       15.9994           0
     78389 TIP3     18648    TIP3     H1       HT       0.417000       1.00800           0
     78390 TIP3     18648    TIP3     H2       HT       0.417000       1.00800           0
     78391 TIP3     18649    TIP3     OH2      OT      -0.834000       15.9994           0
     78392 TIP3     18649    TIP3     H1       HT       0.417000       1.00800           0
     78393 TIP3     18649    TIP3     H2       HT       0.417000       1.00800           0
     78394 TIP3     18650    TIP3     OH2      OT      -0.834000       15.9994           0
     78395 TIP3     18650    TIP3     H1       HT       0.417000       1.00800           0
     78396 TIP3     18650    TIP3     H2       HT       0.417000       1.00800           0
     78397 TIP3     18651    TIP3     OH2      OT      -0.834000       15.9994           0
     78398 TIP3     18651    TIP3     H1       HT       0.417000       1.00800           0
     78399 TIP3     18651    TIP3     H2       HT       0.417000       1.00800           0
     78400 TIP3     18652    TIP3     OH2      OT      -0.834000       15.9994           0
     78401 TIP3     18652    TIP3     H1       HT       0.417000       1.00800           0
     78402 TIP3     18652    TIP3     H2       HT       0.417000       1.00800           0
     78403 TIP3     18653    TIP3     OH2      OT      -0.834000       15.9994           0
     78404 TIP3     18653    TIP3     H1       HT       0.417000       1.00800           0
     78405 TIP3     18653    TIP3     H2       HT       0.417000       1.00800           0
     78406 TIP3     18654    TIP3     OH2      OT      -0.834000       15.9994           0
     78407 TIP3     18654    TIP3     H1       HT       0.417000       1.00800           0
     78408 TIP3     18654    TIP3     H2       HT       0.417000       1.00800           0
     78409 TIP3     18655    TIP3     OH2      OT      -0.834000       15.9994           0
     78410 TIP3     18655    TIP3     H1       HT       0.417000       1.00800           0
     78411 TIP3     18655    TIP3     H2       HT       0.417000       1.00800           0
     78412 TIP3     18656    TIP3     OH2      OT      -0.834000       15.9994           0
     78413 TIP3     18656    TIP3     H1       HT       0.417000       1.00800           0
     78414 TIP3     18656    TIP3     H2       HT       0.417000       1.00800           0
     78415 TIP3     18657    TIP3     OH2      OT      -0.834000       15.9994           0
     78416 TIP3     18657    TIP3     H1       HT       0.417000       1.00800           0
     78417 TIP3     18657    TIP3     H2       HT       0.417000       1.00800           0
     78418 TIP3     18658    TIP3     OH2      OT      -0.834000       15.9994           0
     78419 TIP3     18658    TIP3     H1       HT       0.417000       1.00800           0
     78420 TIP3     18658    TIP3     H2       HT       0.417000       1.00800           0
     78421 TIP3     18659    TIP3     OH2      OT      -0.834000       15.9994           0
     78422 TIP3     18659    TIP3     H1       HT       0.417000       1.00800           0
     78423 TIP3     18659    TIP3     H2       HT       0.417000       1.00800           0
     78424 TIP3     18660    TIP3     OH2      OT      -0.834000       15.9994           0
     78425 TIP3     18660    TIP3     H1       HT       0.417000       1.00800           0
     78426 TIP3     18660    TIP3     H2       HT       0.417000       1.00800           0
     78427 TIP3     18661    TIP3     OH2      OT      -0.834000       15.9994           0
     78428 TIP3     18661    TIP3     H1       HT       0.417000       1.00800           0
     78429 TIP3     18661    TIP3     H2       HT       0.417000       1.00800           0
     78430 TIP3     18662    TIP3     OH2      OT      -0.834000       15.9994           0
     78431 TIP3     18662    TIP3     H1       HT       0.417000       1.00800           0
     78432 TIP3     18662    TIP3     H2       HT       0.417000       1.00800           0
     78433 TIP3     18663    TIP3     OH2      OT      -0.834000       15.9994           0
     78434 TIP3     18663    TIP3     H1       HT       0.417000       1.00800           0
     78435 TIP3     18663    TIP3     H2       HT       0.417000       1.00800           0
     78436 TIP3     18664    TIP3     OH2      OT      -0.834000       15.9994           0
     78437 TIP3     18664    TIP3     H1       HT       0.417000       1.00800           0
     78438 TIP3     18664    TIP3     H2       HT       0.417000       1.00800           0
     78439 TIP3     18665    TIP3     OH2      OT      -0.834000       15.9994           0
     78440 TIP3     18665    TIP3     H1       HT       0.417000       1.00800           0
     78441 TIP3     18665    TIP3     H2       HT       0.417000       1.00800           0
     78442 TIP3     18666    TIP3     OH2      OT      -0.834000       15.9994           0
     78443 TIP3     18666    TIP3     H1       HT       0.417000       1.00800           0
     78444 TIP3     18666    TIP3     H2       HT       0.417000       1.00800           0
     78445 TIP3     18667    TIP3     OH2      OT      -0.834000       15.9994           0
     78446 TIP3     18667    TIP3     H1       HT       0.417000       1.00800           0
     78447 TIP3     18667    TIP3     H2       HT       0.417000       1.00800           0
     78448 TIP3     18668    TIP3     OH2      OT      -0.834000       15.9994           0
     78449 TIP3     18668    TIP3     H1       HT       0.417000       1.00800           0
     78450 TIP3     18668    TIP3     H2       HT       0.417000       1.00800           0
     78451 TIP3     18669    TIP3     OH2      OT      -0.834000       15.9994           0
     78452 TIP3     18669    TIP3     H1       HT       0.417000       1.00800           0
     78453 TIP3     18669    TIP3     H2       HT       0.417000       1.00800           0
     78454 TIP3     18670    TIP3     OH2      OT      -0.834000       15.9994           0
     78455 TIP3     18670    TIP3     H1       HT       0.417000       1.00800           0
     78456 TIP3     18670    TIP3     H2       HT       0.417000       1.00800           0
     78457 TIP3     18671    TIP3     OH2      OT      -0.834000       15.9994           0
     78458 TIP3     18671    TIP3     H1       HT       0.417000       1.00800           0
     78459 TIP3     18671    TIP3     H2       HT       0.417000       1.00800           0
     78460 TIP3     18672    TIP3     OH2      OT      -0.834000       15.9994           0
     78461 TIP3     18672    TIP3     H1       HT       0.417000       1.00800           0
     78462 TIP3     18672    TIP3     H2       HT       0.417000       1.00800           0
     78463 TIP3     18673    TIP3     OH2      OT      -0.834000       15.9994           0
     78464 TIP3     18673    TIP3     H1       HT       0.417000       1.00800           0
     78465 TIP3     18673    TIP3     H2       HT       0.417000       1.00800           0
     78466 TIP3     18674    TIP3     OH2      OT      -0.834000       15.9994           0
     78467 TIP3     18674    TIP3     H1       HT       0.417000       1.00800           0
     78468 TIP3     18674    TIP3     H2       HT       0.417000       1.00800           0
     78469 TIP3     18675    TIP3     OH2      OT      -0.834000       15.9994           0
     78470 TIP3     18675    TIP3     H1       HT       0.417000       1.00800           0
     78471 TIP3     18675    TIP3     H2       HT       0.417000       1.00800           0
     78472 TIP3     18676    TIP3     OH2      OT      -0.834000       15.9994           0
     78473 TIP3     18676    TIP3     H1       HT       0.417000       1.00800           0
     78474 TIP3     18676    TIP3     H2       HT       0.417000       1.00800           0
     78475 TIP3     18677    TIP3     OH2      OT      -0.834000       15.9994           0
     78476 TIP3     18677    TIP3     H1       HT       0.417000       1.00800           0
     78477 TIP3     18677    TIP3     H2       HT       0.417000       1.00800           0
     78478 TIP3     18678    TIP3     OH2      OT      -0.834000       15.9994           0
     78479 TIP3     18678    TIP3     H1       HT       0.417000       1.00800           0
     78480 TIP3     18678    TIP3     H2       HT       0.417000       1.00800           0
     78481 TIP3     18679    TIP3     OH2      OT      -0.834000       15.9994           0
     78482 TIP3     18679    TIP3     H1       HT       0.417000       1.00800           0
     78483 TIP3     18679    TIP3     H2       HT       0.417000       1.00800           0
     78484 TIP3     18680    TIP3     OH2      OT      -0.834000       15.9994           0
     78485 TIP3     18680    TIP3     H1       HT       0.417000       1.00800           0
     78486 TIP3     18680    TIP3     H2       HT       0.417000       1.00800           0
     78487 TIP3     18681    TIP3     OH2      OT      -0.834000       15.9994           0
     78488 TIP3     18681    TIP3     H1       HT       0.417000       1.00800           0
     78489 TIP3     18681    TIP3     H2       HT       0.417000       1.00800           0
     78490 TIP3     18682    TIP3     OH2      OT      -0.834000       15.9994           0
     78491 TIP3     18682    TIP3     H1       HT       0.417000       1.00800           0
     78492 TIP3     18682    TIP3     H2       HT       0.417000       1.00800           0
     78493 TIP3     18683    TIP3     OH2      OT      -0.834000       15.9994           0
     78494 TIP3     18683    TIP3     H1       HT       0.417000       1.00800           0
     78495 TIP3     18683    TIP3     H2       HT       0.417000       1.00800           0
     78496 TIP3     18684    TIP3     OH2      OT      -0.834000       15.9994           0
     78497 TIP3     18684    TIP3     H1       HT       0.417000       1.00800           0
     78498 TIP3     18684    TIP3     H2       HT       0.417000       1.00800           0
     78499 TIP3     18685    TIP3     OH2      OT      -0.834000       15.9994           0
     78500 TIP3     18685    TIP3     H1       HT       0.417000       1.00800           0
     78501 TIP3     18685    TIP3     H2       HT       0.417000       1.00800           0
     78502 TIP3     18686    TIP3     OH2      OT      -0.834000       15.9994           0
     78503 TIP3     18686    TIP3     H1       HT       0.417000       1.00800           0
     78504 TIP3     18686    TIP3     H2       HT       0.417000       1.00800           0
     78505 TIP3     18687    TIP3     OH2      OT      -0.834000       15.9994           0
     78506 TIP3     18687    TIP3     H1       HT       0.417000       1.00800           0
     78507 TIP3     18687    TIP3     H2       HT       0.417000       1.00800           0
     78508 TIP3     18688    TIP3     OH2      OT      -0.834000       15.9994           0
     78509 TIP3     18688    TIP3     H1       HT       0.417000       1.00800           0
     78510 TIP3     18688    TIP3     H2       HT       0.417000       1.00800           0
     78511 TIP3     18689    TIP3     OH2      OT      -0.834000       15.9994           0
     78512 TIP3     18689    TIP3     H1       HT       0.417000       1.00800           0
     78513 TIP3     18689    TIP3     H2       HT       0.417000       1.00800           0
     78514 TIP3     18690    TIP3     OH2      OT      -0.834000       15.9994           0
     78515 TIP3     18690    TIP3     H1       HT       0.417000       1.00800           0
     78516 TIP3     18690    TIP3     H2       HT       0.417000       1.00800           0
     78517 TIP3     18691    TIP3     OH2      OT      -0.834000       15.9994           0
     78518 TIP3     18691    TIP3     H1       HT       0.417000       1.00800           0
     78519 TIP3     18691    TIP3     H2       HT       0.417000       1.00800           0
     78520 TIP3     18692    TIP3     OH2      OT      -0.834000       15.9994           0
     78521 TIP3     18692    TIP3     H1       HT       0.417000       1.00800           0
     78522 TIP3     18692    TIP3     H2       HT       0.417000       1.00800           0
     78523 TIP3     18693    TIP3     OH2      OT      -0.834000       15.9994           0
     78524 TIP3     18693    TIP3     H1       HT       0.417000       1.00800           0
     78525 TIP3     18693    TIP3     H2       HT       0.417000       1.00800           0
     78526 TIP3     18694    TIP3     OH2      OT      -0.834000       15.9994           0
     78527 TIP3     18694    TIP3     H1       HT       0.417000       1.00800           0
     78528 TIP3     18694    TIP3     H2       HT       0.417000       1.00800           0
     78529 TIP3     18695    TIP3     OH2      OT      -0.834000       15.9994           0
     78530 TIP3     18695    TIP3     H1       HT       0.417000       1.00800           0
     78531 TIP3     18695    TIP3     H2       HT       0.417000       1.00800           0
     78532 TIP3     18696    TIP3     OH2      OT      -0.834000       15.9994           0
     78533 TIP3     18696    TIP3     H1       HT       0.417000       1.00800           0
     78534 TIP3     18696    TIP3     H2       HT       0.417000       1.00800           0
     78535 TIP3     18697    TIP3     OH2      OT      -0.834000       15.9994           0
     78536 TIP3     18697    TIP3     H1       HT       0.417000       1.00800           0
     78537 TIP3     18697    TIP3     H2       HT       0.417000       1.00800           0
     78538 TIP3     18698    TIP3     OH2      OT      -0.834000       15.9994           0
     78539 TIP3     18698    TIP3     H1       HT       0.417000       1.00800           0
     78540 TIP3     18698    TIP3     H2       HT       0.417000       1.00800           0
     78541 TIP3     18699    TIP3     OH2      OT      -0.834000       15.9994           0
     78542 TIP3     18699    TIP3     H1       HT       0.417000       1.00800           0
     78543 TIP3     18699    TIP3     H2       HT       0.417000       1.00800           0
     78544 TIP3     18700    TIP3     OH2      OT      -0.834000       15.9994           0
     78545 TIP3     18700    TIP3     H1       HT       0.417000       1.00800           0
     78546 TIP3     18700    TIP3     H2       HT       0.417000       1.00800           0
     78547 TIP3     18701    TIP3     OH2      OT      -0.834000       15.9994           0
     78548 TIP3     18701    TIP3     H1       HT       0.417000       1.00800           0
     78549 TIP3     18701    TIP3     H2       HT       0.417000       1.00800           0
     78550 TIP3     18702    TIP3     OH2      OT      -0.834000       15.9994           0
     78551 TIP3     18702    TIP3     H1       HT       0.417000       1.00800           0
     78552 TIP3     18702    TIP3     H2       HT       0.417000       1.00800           0
     78553 TIP3     18703    TIP3     OH2      OT      -0.834000       15.9994           0
     78554 TIP3     18703    TIP3     H1       HT       0.417000       1.00800           0
     78555 TIP3     18703    TIP3     H2       HT       0.417000       1.00800           0
     78556 TIP3     18704    TIP3     OH2      OT      -0.834000       15.9994           0
     78557 TIP3     18704    TIP3     H1       HT       0.417000       1.00800           0
     78558 TIP3     18704    TIP3     H2       HT       0.417000       1.00800           0
     78559 TIP3     18705    TIP3     OH2      OT      -0.834000       15.9994           0
     78560 TIP3     18705    TIP3     H1       HT       0.417000       1.00800           0
     78561 TIP3     18705    TIP3     H2       HT       0.417000       1.00800           0
     78562 TIP3     18706    TIP3     OH2      OT      -0.834000       15.9994           0
     78563 TIP3     18706    TIP3     H1       HT       0.417000       1.00800           0
     78564 TIP3     18706    TIP3     H2       HT       0.417000       1.00800           0
     78565 TIP3     18707    TIP3     OH2      OT      -0.834000       15.9994           0
     78566 TIP3     18707    TIP3     H1       HT       0.417000       1.00800           0
     78567 TIP3     18707    TIP3     H2       HT       0.417000       1.00800           0
     78568 TIP3     18708    TIP3     OH2      OT      -0.834000       15.9994           0
     78569 TIP3     18708    TIP3     H1       HT       0.417000       1.00800           0
     78570 TIP3     18708    TIP3     H2       HT       0.417000       1.00800           0
     78571 TIP3     18709    TIP3     OH2      OT      -0.834000       15.9994           0
     78572 TIP3     18709    TIP3     H1       HT       0.417000       1.00800           0
     78573 TIP3     18709    TIP3     H2       HT       0.417000       1.00800           0
     78574 TIP3     18710    TIP3     OH2      OT      -0.834000       15.9994           0
     78575 TIP3     18710    TIP3     H1       HT       0.417000       1.00800           0
     78576 TIP3     18710    TIP3     H2       HT       0.417000       1.00800           0
     78577 TIP3     18711    TIP3     OH2      OT      -0.834000       15.9994           0
     78578 TIP3     18711    TIP3     H1       HT       0.417000       1.00800           0
     78579 TIP3     18711    TIP3     H2       HT       0.417000       1.00800           0
     78580 TIP3     18712    TIP3     OH2      OT      -0.834000       15.9994           0
     78581 TIP3     18712    TIP3     H1       HT       0.417000       1.00800           0
     78582 TIP3     18712    TIP3     H2       HT       0.417000       1.00800           0
     78583 TIP3     18713    TIP3     OH2      OT      -0.834000       15.9994           0
     78584 TIP3     18713    TIP3     H1       HT       0.417000       1.00800           0
     78585 TIP3     18713    TIP3     H2       HT       0.417000       1.00800           0
     78586 TIP3     18714    TIP3     OH2      OT      -0.834000       15.9994           0
     78587 TIP3     18714    TIP3     H1       HT       0.417000       1.00800           0
     78588 TIP3     18714    TIP3     H2       HT       0.417000       1.00800           0
     78589 TIP3     18715    TIP3     OH2      OT      -0.834000       15.9994           0
     78590 TIP3     18715    TIP3     H1       HT       0.417000       1.00800           0
     78591 TIP3     18715    TIP3     H2       HT       0.417000       1.00800           0
     78592 TIP3     18716    TIP3     OH2      OT      -0.834000       15.9994           0
     78593 TIP3     18716    TIP3     H1       HT       0.417000       1.00800           0
     78594 TIP3     18716    TIP3     H2       HT       0.417000       1.00800           0
     78595 TIP3     18717    TIP3     OH2      OT      -0.834000       15.9994           0
     78596 TIP3     18717    TIP3     H1       HT       0.417000       1.00800           0
     78597 TIP3     18717    TIP3     H2       HT       0.417000       1.00800           0
     78598 TIP3     18718    TIP3     OH2      OT      -0.834000       15.9994           0
     78599 TIP3     18718    TIP3     H1       HT       0.417000       1.00800           0
     78600 TIP3     18718    TIP3     H2       HT       0.417000       1.00800           0
     78601 TIP3     18719    TIP3     OH2      OT      -0.834000       15.9994           0
     78602 TIP3     18719    TIP3     H1       HT       0.417000       1.00800           0
     78603 TIP3     18719    TIP3     H2       HT       0.417000       1.00800           0
     78604 TIP3     18720    TIP3     OH2      OT      -0.834000       15.9994           0
     78605 TIP3     18720    TIP3     H1       HT       0.417000       1.00800           0
     78606 TIP3     18720    TIP3     H2       HT       0.417000       1.00800           0
     78607 TIP3     18721    TIP3     OH2      OT      -0.834000       15.9994           0
     78608 TIP3     18721    TIP3     H1       HT       0.417000       1.00800           0
     78609 TIP3     18721    TIP3     H2       HT       0.417000       1.00800           0
     78610 TIP3     18722    TIP3     OH2      OT      -0.834000       15.9994           0
     78611 TIP3     18722    TIP3     H1       HT       0.417000       1.00800           0
     78612 TIP3     18722    TIP3     H2       HT       0.417000       1.00800           0
     78613 TIP3     18723    TIP3     OH2      OT      -0.834000       15.9994           0
     78614 TIP3     18723    TIP3     H1       HT       0.417000       1.00800           0
     78615 TIP3     18723    TIP3     H2       HT       0.417000       1.00800           0
     78616 TIP3     18724    TIP3     OH2      OT      -0.834000       15.9994           0
     78617 TIP3     18724    TIP3     H1       HT       0.417000       1.00800           0
     78618 TIP3     18724    TIP3     H2       HT       0.417000       1.00800           0
     78619 TIP3     18725    TIP3     OH2      OT      -0.834000       15.9994           0
     78620 TIP3     18725    TIP3     H1       HT       0.417000       1.00800           0
     78621 TIP3     18725    TIP3     H2       HT       0.417000       1.00800           0
     78622 TIP3     18726    TIP3     OH2      OT      -0.834000       15.9994           0
     78623 TIP3     18726    TIP3     H1       HT       0.417000       1.00800           0
     78624 TIP3     18726    TIP3     H2       HT       0.417000       1.00800           0
     78625 TIP3     18727    TIP3     OH2      OT      -0.834000       15.9994           0
     78626 TIP3     18727    TIP3     H1       HT       0.417000       1.00800           0
     78627 TIP3     18727    TIP3     H2       HT       0.417000       1.00800           0
     78628 TIP3     18728    TIP3     OH2      OT      -0.834000       15.9994           0
     78629 TIP3     18728    TIP3     H1       HT       0.417000       1.00800           0
     78630 TIP3     18728    TIP3     H2       HT       0.417000       1.00800           0
     78631 TIP3     18729    TIP3     OH2      OT      -0.834000       15.9994           0
     78632 TIP3     18729    TIP3     H1       HT       0.417000       1.00800           0
     78633 TIP3     18729    TIP3     H2       HT       0.417000       1.00800           0
     78634 TIP3     18730    TIP3     OH2      OT      -0.834000       15.9994           0
     78635 TIP3     18730    TIP3     H1       HT       0.417000       1.00800           0
     78636 TIP3     18730    TIP3     H2       HT       0.417000       1.00800           0
     78637 TIP3     18731    TIP3     OH2      OT      -0.834000       15.9994           0
     78638 TIP3     18731    TIP3     H1       HT       0.417000       1.00800           0
     78639 TIP3     18731    TIP3     H2       HT       0.417000       1.00800           0
     78640 TIP3     18732    TIP3     OH2      OT      -0.834000       15.9994           0
     78641 TIP3     18732    TIP3     H1       HT       0.417000       1.00800           0
     78642 TIP3     18732    TIP3     H2       HT       0.417000       1.00800           0
     78643 TIP3     18733    TIP3     OH2      OT      -0.834000       15.9994           0
     78644 TIP3     18733    TIP3     H1       HT       0.417000       1.00800           0
     78645 TIP3     18733    TIP3     H2       HT       0.417000       1.00800           0
     78646 TIP3     18734    TIP3     OH2      OT      -0.834000       15.9994           0
     78647 TIP3     18734    TIP3     H1       HT       0.417000       1.00800           0
     78648 TIP3     18734    TIP3     H2       HT       0.417000       1.00800           0
     78649 TIP3     18735    TIP3     OH2      OT      -0.834000       15.9994           0
     78650 TIP3     18735    TIP3     H1       HT       0.417000       1.00800           0
     78651 TIP3     18735    TIP3     H2       HT       0.417000       1.00800           0
     78652 TIP3     18736    TIP3     OH2      OT      -0.834000       15.9994           0
     78653 TIP3     18736    TIP3     H1       HT       0.417000       1.00800           0
     78654 TIP3     18736    TIP3     H2       HT       0.417000       1.00800           0
     78655 TIP3     18737    TIP3     OH2      OT      -0.834000       15.9994           0
     78656 TIP3     18737    TIP3     H1       HT       0.417000       1.00800           0
     78657 TIP3     18737    TIP3     H2       HT       0.417000       1.00800           0
     78658 TIP3     18738    TIP3     OH2      OT      -0.834000       15.9994           0
     78659 TIP3     18738    TIP3     H1       HT       0.417000       1.00800           0
     78660 TIP3     18738    TIP3     H2       HT       0.417000       1.00800           0
     78661 TIP3     18739    TIP3     OH2      OT      -0.834000       15.9994           0
     78662 TIP3     18739    TIP3     H1       HT       0.417000       1.00800           0
     78663 TIP3     18739    TIP3     H2       HT       0.417000       1.00800           0
     78664 TIP3     18740    TIP3     OH2      OT      -0.834000       15.9994           0
     78665 TIP3     18740    TIP3     H1       HT       0.417000       1.00800           0
     78666 TIP3     18740    TIP3     H2       HT       0.417000       1.00800           0
     78667 TIP3     18741    TIP3     OH2      OT      -0.834000       15.9994           0
     78668 TIP3     18741    TIP3     H1       HT       0.417000       1.00800           0
     78669 TIP3     18741    TIP3     H2       HT       0.417000       1.00800           0
     78670 TIP3     18742    TIP3     OH2      OT      -0.834000       15.9994           0
     78671 TIP3     18742    TIP3     H1       HT       0.417000       1.00800           0
     78672 TIP3     18742    TIP3     H2       HT       0.417000       1.00800           0
     78673 TIP3     18743    TIP3     OH2      OT      -0.834000       15.9994           0
     78674 TIP3     18743    TIP3     H1       HT       0.417000       1.00800           0
     78675 TIP3     18743    TIP3     H2       HT       0.417000       1.00800           0
     78676 TIP3     18744    TIP3     OH2      OT      -0.834000       15.9994           0
     78677 TIP3     18744    TIP3     H1       HT       0.417000       1.00800           0
     78678 TIP3     18744    TIP3     H2       HT       0.417000       1.00800           0
     78679 TIP3     18745    TIP3     OH2      OT      -0.834000       15.9994           0
     78680 TIP3     18745    TIP3     H1       HT       0.417000       1.00800           0
     78681 TIP3     18745    TIP3     H2       HT       0.417000       1.00800           0
     78682 TIP3     18746    TIP3     OH2      OT      -0.834000       15.9994           0
     78683 TIP3     18746    TIP3     H1       HT       0.417000       1.00800           0
     78684 TIP3     18746    TIP3     H2       HT       0.417000       1.00800           0
     78685 TIP3     18747    TIP3     OH2      OT      -0.834000       15.9994           0
     78686 TIP3     18747    TIP3     H1       HT       0.417000       1.00800           0
     78687 TIP3     18747    TIP3     H2       HT       0.417000       1.00800           0
     78688 TIP3     18748    TIP3     OH2      OT      -0.834000       15.9994           0
     78689 TIP3     18748    TIP3     H1       HT       0.417000       1.00800           0
     78690 TIP3     18748    TIP3     H2       HT       0.417000       1.00800           0
     78691 TIP3     18749    TIP3     OH2      OT      -0.834000       15.9994           0
     78692 TIP3     18749    TIP3     H1       HT       0.417000       1.00800           0
     78693 TIP3     18749    TIP3     H2       HT       0.417000       1.00800           0
     78694 TIP3     18750    TIP3     OH2      OT      -0.834000       15.9994           0
     78695 TIP3     18750    TIP3     H1       HT       0.417000       1.00800           0
     78696 TIP3     18750    TIP3     H2       HT       0.417000       1.00800           0
     78697 TIP3     18751    TIP3     OH2      OT      -0.834000       15.9994           0
     78698 TIP3     18751    TIP3     H1       HT       0.417000       1.00800           0
     78699 TIP3     18751    TIP3     H2       HT       0.417000       1.00800           0
     78700 TIP3     18752    TIP3     OH2      OT      -0.834000       15.9994           0
     78701 TIP3     18752    TIP3     H1       HT       0.417000       1.00800           0
     78702 TIP3     18752    TIP3     H2       HT       0.417000       1.00800           0
     78703 TIP3     18753    TIP3     OH2      OT      -0.834000       15.9994           0
     78704 TIP3     18753    TIP3     H1       HT       0.417000       1.00800           0
     78705 TIP3     18753    TIP3     H2       HT       0.417000       1.00800           0
     78706 TIP3     18754    TIP3     OH2      OT      -0.834000       15.9994           0
     78707 TIP3     18754    TIP3     H1       HT       0.417000       1.00800           0
     78708 TIP3     18754    TIP3     H2       HT       0.417000       1.00800           0
     78709 TIP3     18755    TIP3     OH2      OT      -0.834000       15.9994           0
     78710 TIP3     18755    TIP3     H1       HT       0.417000       1.00800           0
     78711 TIP3     18755    TIP3     H2       HT       0.417000       1.00800           0
     78712 TIP3     18756    TIP3     OH2      OT      -0.834000       15.9994           0
     78713 TIP3     18756    TIP3     H1       HT       0.417000       1.00800           0
     78714 TIP3     18756    TIP3     H2       HT       0.417000       1.00800           0
     78715 TIP3     18757    TIP3     OH2      OT      -0.834000       15.9994           0
     78716 TIP3     18757    TIP3     H1       HT       0.417000       1.00800           0
     78717 TIP3     18757    TIP3     H2       HT       0.417000       1.00800           0
     78718 TIP3     18758    TIP3     OH2      OT      -0.834000       15.9994           0
     78719 TIP3     18758    TIP3     H1       HT       0.417000       1.00800           0
     78720 TIP3     18758    TIP3     H2       HT       0.417000       1.00800           0
     78721 TIP3     18759    TIP3     OH2      OT      -0.834000       15.9994           0
     78722 TIP3     18759    TIP3     H1       HT       0.417000       1.00800           0
     78723 TIP3     18759    TIP3     H2       HT       0.417000       1.00800           0
     78724 TIP3     18760    TIP3     OH2      OT      -0.834000       15.9994           0
     78725 TIP3     18760    TIP3     H1       HT       0.417000       1.00800           0
     78726 TIP3     18760    TIP3     H2       HT       0.417000       1.00800           0
     78727 TIP3     18761    TIP3     OH2      OT      -0.834000       15.9994           0
     78728 TIP3     18761    TIP3     H1       HT       0.417000       1.00800           0
     78729 TIP3     18761    TIP3     H2       HT       0.417000       1.00800           0
     78730 TIP3     18762    TIP3     OH2      OT      -0.834000       15.9994           0
     78731 TIP3     18762    TIP3     H1       HT       0.417000       1.00800           0
     78732 TIP3     18762    TIP3     H2       HT       0.417000       1.00800           0
     78733 TIP3     18763    TIP3     OH2      OT      -0.834000       15.9994           0
     78734 TIP3     18763    TIP3     H1       HT       0.417000       1.00800           0
     78735 TIP3     18763    TIP3     H2       HT       0.417000       1.00800           0
     78736 TIP3     18764    TIP3     OH2      OT      -0.834000       15.9994           0
     78737 TIP3     18764    TIP3     H1       HT       0.417000       1.00800           0
     78738 TIP3     18764    TIP3     H2       HT       0.417000       1.00800           0
     78739 TIP3     18765    TIP3     OH2      OT      -0.834000       15.9994           0
     78740 TIP3     18765    TIP3     H1       HT       0.417000       1.00800           0
     78741 TIP3     18765    TIP3     H2       HT       0.417000       1.00800           0
     78742 TIP3     18766    TIP3     OH2      OT      -0.834000       15.9994           0
     78743 TIP3     18766    TIP3     H1       HT       0.417000       1.00800           0
     78744 TIP3     18766    TIP3     H2       HT       0.417000       1.00800           0
     78745 TIP3     18767    TIP3     OH2      OT      -0.834000       15.9994           0
     78746 TIP3     18767    TIP3     H1       HT       0.417000       1.00800           0
     78747 TIP3     18767    TIP3     H2       HT       0.417000       1.00800           0
     78748 TIP3     18768    TIP3     OH2      OT      -0.834000       15.9994           0
     78749 TIP3     18768    TIP3     H1       HT       0.417000       1.00800           0
     78750 TIP3     18768    TIP3     H2       HT       0.417000       1.00800           0
     78751 TIP3     18769    TIP3     OH2      OT      -0.834000       15.9994           0
     78752 TIP3     18769    TIP3     H1       HT       0.417000       1.00800           0
     78753 TIP3     18769    TIP3     H2       HT       0.417000       1.00800           0
     78754 TIP3     18770    TIP3     OH2      OT      -0.834000       15.9994           0
     78755 TIP3     18770    TIP3     H1       HT       0.417000       1.00800           0
     78756 TIP3     18770    TIP3     H2       HT       0.417000       1.00800           0
     78757 TIP3     18771    TIP3     OH2      OT      -0.834000       15.9994           0
     78758 TIP3     18771    TIP3     H1       HT       0.417000       1.00800           0
     78759 TIP3     18771    TIP3     H2       HT       0.417000       1.00800           0
     78760 TIP3     18772    TIP3     OH2      OT      -0.834000       15.9994           0
     78761 TIP3     18772    TIP3     H1       HT       0.417000       1.00800           0
     78762 TIP3     18772    TIP3     H2       HT       0.417000       1.00800           0
     78763 TIP3     18773    TIP3     OH2      OT      -0.834000       15.9994           0
     78764 TIP3     18773    TIP3     H1       HT       0.417000       1.00800           0
     78765 TIP3     18773    TIP3     H2       HT       0.417000       1.00800           0
     78766 TIP3     18774    TIP3     OH2      OT      -0.834000       15.9994           0
     78767 TIP3     18774    TIP3     H1       HT       0.417000       1.00800           0
     78768 TIP3     18774    TIP3     H2       HT       0.417000       1.00800           0
     78769 TIP3     18775    TIP3     OH2      OT      -0.834000       15.9994           0
     78770 TIP3     18775    TIP3     H1       HT       0.417000       1.00800           0
     78771 TIP3     18775    TIP3     H2       HT       0.417000       1.00800           0
     78772 TIP3     18776    TIP3     OH2      OT      -0.834000       15.9994           0
     78773 TIP3     18776    TIP3     H1       HT       0.417000       1.00800           0
     78774 TIP3     18776    TIP3     H2       HT       0.417000       1.00800           0
     78775 TIP3     18777    TIP3     OH2      OT      -0.834000       15.9994           0
     78776 TIP3     18777    TIP3     H1       HT       0.417000       1.00800           0
     78777 TIP3     18777    TIP3     H2       HT       0.417000       1.00800           0
     78778 TIP3     18778    TIP3     OH2      OT      -0.834000       15.9994           0
     78779 TIP3     18778    TIP3     H1       HT       0.417000       1.00800           0
     78780 TIP3     18778    TIP3     H2       HT       0.417000       1.00800           0
     78781 TIP3     18779    TIP3     OH2      OT      -0.834000       15.9994           0
     78782 TIP3     18779    TIP3     H1       HT       0.417000       1.00800           0
     78783 TIP3     18779    TIP3     H2       HT       0.417000       1.00800           0
     78784 TIP3     18780    TIP3     OH2      OT      -0.834000       15.9994           0
     78785 TIP3     18780    TIP3     H1       HT       0.417000       1.00800           0
     78786 TIP3     18780    TIP3     H2       HT       0.417000       1.00800           0
     78787 TIP3     18781    TIP3     OH2      OT      -0.834000       15.9994           0
     78788 TIP3     18781    TIP3     H1       HT       0.417000       1.00800           0
     78789 TIP3     18781    TIP3     H2       HT       0.417000       1.00800           0
     78790 TIP3     18782    TIP3     OH2      OT      -0.834000       15.9994           0
     78791 TIP3     18782    TIP3     H1       HT       0.417000       1.00800           0
     78792 TIP3     18782    TIP3     H2       HT       0.417000       1.00800           0
     78793 TIP3     18783    TIP3     OH2      OT      -0.834000       15.9994           0
     78794 TIP3     18783    TIP3     H1       HT       0.417000       1.00800           0
     78795 TIP3     18783    TIP3     H2       HT       0.417000       1.00800           0
     78796 TIP3     18784    TIP3     OH2      OT      -0.834000       15.9994           0
     78797 TIP3     18784    TIP3     H1       HT       0.417000       1.00800           0
     78798 TIP3     18784    TIP3     H2       HT       0.417000       1.00800           0
     78799 TIP3     18785    TIP3     OH2      OT      -0.834000       15.9994           0
     78800 TIP3     18785    TIP3     H1       HT       0.417000       1.00800           0
     78801 TIP3     18785    TIP3     H2       HT       0.417000       1.00800           0
     78802 TIP3     18786    TIP3     OH2      OT      -0.834000       15.9994           0
     78803 TIP3     18786    TIP3     H1       HT       0.417000       1.00800           0
     78804 TIP3     18786    TIP3     H2       HT       0.417000       1.00800           0
     78805 TIP3     18787    TIP3     OH2      OT      -0.834000       15.9994           0
     78806 TIP3     18787    TIP3     H1       HT       0.417000       1.00800           0
     78807 TIP3     18787    TIP3     H2       HT       0.417000       1.00800           0
     78808 TIP3     18788    TIP3     OH2      OT      -0.834000       15.9994           0
     78809 TIP3     18788    TIP3     H1       HT       0.417000       1.00800           0
     78810 TIP3     18788    TIP3     H2       HT       0.417000       1.00800           0
     78811 TIP3     18789    TIP3     OH2      OT      -0.834000       15.9994           0
     78812 TIP3     18789    TIP3     H1       HT       0.417000       1.00800           0
     78813 TIP3     18789    TIP3     H2       HT       0.417000       1.00800           0
     78814 TIP3     18790    TIP3     OH2      OT      -0.834000       15.9994           0
     78815 TIP3     18790    TIP3     H1       HT       0.417000       1.00800           0
     78816 TIP3     18790    TIP3     H2       HT       0.417000       1.00800           0
     78817 TIP3     18791    TIP3     OH2      OT      -0.834000       15.9994           0
     78818 TIP3     18791    TIP3     H1       HT       0.417000       1.00800           0
     78819 TIP3     18791    TIP3     H2       HT       0.417000       1.00800           0
     78820 TIP3     18792    TIP3     OH2      OT      -0.834000       15.9994           0
     78821 TIP3     18792    TIP3     H1       HT       0.417000       1.00800           0
     78822 TIP3     18792    TIP3     H2       HT       0.417000       1.00800           0
     78823 TIP3     18793    TIP3     OH2      OT      -0.834000       15.9994           0
     78824 TIP3     18793    TIP3     H1       HT       0.417000       1.00800           0
     78825 TIP3     18793    TIP3     H2       HT       0.417000       1.00800           0
     78826 TIP3     18794    TIP3     OH2      OT      -0.834000       15.9994           0
     78827 TIP3     18794    TIP3     H1       HT       0.417000       1.00800           0
     78828 TIP3     18794    TIP3     H2       HT       0.417000       1.00800           0
     78829 TIP3     18795    TIP3     OH2      OT      -0.834000       15.9994           0
     78830 TIP3     18795    TIP3     H1       HT       0.417000       1.00800           0
     78831 TIP3     18795    TIP3     H2       HT       0.417000       1.00800           0
     78832 TIP3     18796    TIP3     OH2      OT      -0.834000       15.9994           0
     78833 TIP3     18796    TIP3     H1       HT       0.417000       1.00800           0
     78834 TIP3     18796    TIP3     H2       HT       0.417000       1.00800           0
     78835 TIP3     18797    TIP3     OH2      OT      -0.834000       15.9994           0
     78836 TIP3     18797    TIP3     H1       HT       0.417000       1.00800           0
     78837 TIP3     18797    TIP3     H2       HT       0.417000       1.00800           0
     78838 TIP3     18798    TIP3     OH2      OT      -0.834000       15.9994           0
     78839 TIP3     18798    TIP3     H1       HT       0.417000       1.00800           0
     78840 TIP3     18798    TIP3     H2       HT       0.417000       1.00800           0
     78841 TIP3     18799    TIP3     OH2      OT      -0.834000       15.9994           0
     78842 TIP3     18799    TIP3     H1       HT       0.417000       1.00800           0
     78843 TIP3     18799    TIP3     H2       HT       0.417000       1.00800           0
     78844 TIP3     18800    TIP3     OH2      OT      -0.834000       15.9994           0
     78845 TIP3     18800    TIP3     H1       HT       0.417000       1.00800           0
     78846 TIP3     18800    TIP3     H2       HT       0.417000       1.00800           0
     78847 TIP3     18801    TIP3     OH2      OT      -0.834000       15.9994           0
     78848 TIP3     18801    TIP3     H1       HT       0.417000       1.00800           0
     78849 TIP3     18801    TIP3     H2       HT       0.417000       1.00800           0
     78850 TIP3     18802    TIP3     OH2      OT      -0.834000       15.9994           0
     78851 TIP3     18802    TIP3     H1       HT       0.417000       1.00800           0
     78852 TIP3     18802    TIP3     H2       HT       0.417000       1.00800           0
     78853 TIP3     18803    TIP3     OH2      OT      -0.834000       15.9994           0
     78854 TIP3     18803    TIP3     H1       HT       0.417000       1.00800           0
     78855 TIP3     18803    TIP3     H2       HT       0.417000       1.00800           0
     78856 TIP3     18804    TIP3     OH2      OT      -0.834000       15.9994           0
     78857 TIP3     18804    TIP3     H1       HT       0.417000       1.00800           0
     78858 TIP3     18804    TIP3     H2       HT       0.417000       1.00800           0
     78859 TIP3     18805    TIP3     OH2      OT      -0.834000       15.9994           0
     78860 TIP3     18805    TIP3     H1       HT       0.417000       1.00800           0
     78861 TIP3     18805    TIP3     H2       HT       0.417000       1.00800           0
     78862 TIP3     18806    TIP3     OH2      OT      -0.834000       15.9994           0
     78863 TIP3     18806    TIP3     H1       HT       0.417000       1.00800           0
     78864 TIP3     18806    TIP3     H2       HT       0.417000       1.00800           0
     78865 TIP3     18807    TIP3     OH2      OT      -0.834000       15.9994           0
     78866 TIP3     18807    TIP3     H1       HT       0.417000       1.00800           0
     78867 TIP3     18807    TIP3     H2       HT       0.417000       1.00800           0
     78868 TIP3     18808    TIP3     OH2      OT      -0.834000       15.9994           0
     78869 TIP3     18808    TIP3     H1       HT       0.417000       1.00800           0
     78870 TIP3     18808    TIP3     H2       HT       0.417000       1.00800           0
     78871 TIP3     18809    TIP3     OH2      OT      -0.834000       15.9994           0
     78872 TIP3     18809    TIP3     H1       HT       0.417000       1.00800           0
     78873 TIP3     18809    TIP3     H2       HT       0.417000       1.00800           0
     78874 TIP3     18810    TIP3     OH2      OT      -0.834000       15.9994           0
     78875 TIP3     18810    TIP3     H1       HT       0.417000       1.00800           0
     78876 TIP3     18810    TIP3     H2       HT       0.417000       1.00800           0
     78877 TIP3     18811    TIP3     OH2      OT      -0.834000       15.9994           0
     78878 TIP3     18811    TIP3     H1       HT       0.417000       1.00800           0
     78879 TIP3     18811    TIP3     H2       HT       0.417000       1.00800           0
     78880 TIP3     18812    TIP3     OH2      OT      -0.834000       15.9994           0
     78881 TIP3     18812    TIP3     H1       HT       0.417000       1.00800           0
     78882 TIP3     18812    TIP3     H2       HT       0.417000       1.00800           0
     78883 TIP3     18813    TIP3     OH2      OT      -0.834000       15.9994           0
     78884 TIP3     18813    TIP3     H1       HT       0.417000       1.00800           0
     78885 TIP3     18813    TIP3     H2       HT       0.417000       1.00800           0
     78886 TIP3     18814    TIP3     OH2      OT      -0.834000       15.9994           0
     78887 TIP3     18814    TIP3     H1       HT       0.417000       1.00800           0
     78888 TIP3     18814    TIP3     H2       HT       0.417000       1.00800           0
     78889 TIP3     18815    TIP3     OH2      OT      -0.834000       15.9994           0
     78890 TIP3     18815    TIP3     H1       HT       0.417000       1.00800           0
     78891 TIP3     18815    TIP3     H2       HT       0.417000       1.00800           0
     78892 TIP3     18816    TIP3     OH2      OT      -0.834000       15.9994           0
     78893 TIP3     18816    TIP3     H1       HT       0.417000       1.00800           0
     78894 TIP3     18816    TIP3     H2       HT       0.417000       1.00800           0
     78895 TIP3     18817    TIP3     OH2      OT      -0.834000       15.9994           0
     78896 TIP3     18817    TIP3     H1       HT       0.417000       1.00800           0
     78897 TIP3     18817    TIP3     H2       HT       0.417000       1.00800           0
     78898 TIP3     18818    TIP3     OH2      OT      -0.834000       15.9994           0
     78899 TIP3     18818    TIP3     H1       HT       0.417000       1.00800           0
     78900 TIP3     18818    TIP3     H2       HT       0.417000       1.00800           0
     78901 TIP3     18819    TIP3     OH2      OT      -0.834000       15.9994           0
     78902 TIP3     18819    TIP3     H1       HT       0.417000       1.00800           0
     78903 TIP3     18819    TIP3     H2       HT       0.417000       1.00800           0
     78904 TIP3     18820    TIP3     OH2      OT      -0.834000       15.9994           0
     78905 TIP3     18820    TIP3     H1       HT       0.417000       1.00800           0
     78906 TIP3     18820    TIP3     H2       HT       0.417000       1.00800           0
     78907 TIP3     18821    TIP3     OH2      OT      -0.834000       15.9994           0
     78908 TIP3     18821    TIP3     H1       HT       0.417000       1.00800           0
     78909 TIP3     18821    TIP3     H2       HT       0.417000       1.00800           0
     78910 TIP3     18822    TIP3     OH2      OT      -0.834000       15.9994           0
     78911 TIP3     18822    TIP3     H1       HT       0.417000       1.00800           0
     78912 TIP3     18822    TIP3     H2       HT       0.417000       1.00800           0
     78913 TIP3     18823    TIP3     OH2      OT      -0.834000       15.9994           0
     78914 TIP3     18823    TIP3     H1       HT       0.417000       1.00800           0
     78915 TIP3     18823    TIP3     H2       HT       0.417000       1.00800           0
     78916 TIP3     18824    TIP3     OH2      OT      -0.834000       15.9994           0
     78917 TIP3     18824    TIP3     H1       HT       0.417000       1.00800           0
     78918 TIP3     18824    TIP3     H2       HT       0.417000       1.00800           0
     78919 TIP3     18825    TIP3     OH2      OT      -0.834000       15.9994           0
     78920 TIP3     18825    TIP3     H1       HT       0.417000       1.00800           0
     78921 TIP3     18825    TIP3     H2       HT       0.417000       1.00800           0
     78922 TIP3     18826    TIP3     OH2      OT      -0.834000       15.9994           0
     78923 TIP3     18826    TIP3     H1       HT       0.417000       1.00800           0
     78924 TIP3     18826    TIP3     H2       HT       0.417000       1.00800           0
     78925 TIP3     18827    TIP3     OH2      OT      -0.834000       15.9994           0
     78926 TIP3     18827    TIP3     H1       HT       0.417000       1.00800           0
     78927 TIP3     18827    TIP3     H2       HT       0.417000       1.00800           0
     78928 TIP3     18828    TIP3     OH2      OT      -0.834000       15.9994           0
     78929 TIP3     18828    TIP3     H1       HT       0.417000       1.00800           0
     78930 TIP3     18828    TIP3     H2       HT       0.417000       1.00800           0
     78931 TIP3     18829    TIP3     OH2      OT      -0.834000       15.9994           0
     78932 TIP3     18829    TIP3     H1       HT       0.417000       1.00800           0
     78933 TIP3     18829    TIP3     H2       HT       0.417000       1.00800           0
     78934 TIP3     18830    TIP3     OH2      OT      -0.834000       15.9994           0
     78935 TIP3     18830    TIP3     H1       HT       0.417000       1.00800           0
     78936 TIP3     18830    TIP3     H2       HT       0.417000       1.00800           0
     78937 TIP3     18831    TIP3     OH2      OT      -0.834000       15.9994           0
     78938 TIP3     18831    TIP3     H1       HT       0.417000       1.00800           0
     78939 TIP3     18831    TIP3     H2       HT       0.417000       1.00800           0
     78940 TIP3     18832    TIP3     OH2      OT      -0.834000       15.9994           0
     78941 TIP3     18832    TIP3     H1       HT       0.417000       1.00800           0
     78942 TIP3     18832    TIP3     H2       HT       0.417000       1.00800           0
     78943 TIP3     18833    TIP3     OH2      OT      -0.834000       15.9994           0
     78944 TIP3     18833    TIP3     H1       HT       0.417000       1.00800           0
     78945 TIP3     18833    TIP3     H2       HT       0.417000       1.00800           0
     78946 TIP3     18834    TIP3     OH2      OT      -0.834000       15.9994           0
     78947 TIP3     18834    TIP3     H1       HT       0.417000       1.00800           0
     78948 TIP3     18834    TIP3     H2       HT       0.417000       1.00800           0
     78949 TIP3     18835    TIP3     OH2      OT      -0.834000       15.9994           0
     78950 TIP3     18835    TIP3     H1       HT       0.417000       1.00800           0
     78951 TIP3     18835    TIP3     H2       HT       0.417000       1.00800           0
     78952 TIP3     18836    TIP3     OH2      OT      -0.834000       15.9994           0
     78953 TIP3     18836    TIP3     H1       HT       0.417000       1.00800           0
     78954 TIP3     18836    TIP3     H2       HT       0.417000       1.00800           0
     78955 TIP3     18837    TIP3     OH2      OT      -0.834000       15.9994           0
     78956 TIP3     18837    TIP3     H1       HT       0.417000       1.00800           0
     78957 TIP3     18837    TIP3     H2       HT       0.417000       1.00800           0
     78958 TIP3     18838    TIP3     OH2      OT      -0.834000       15.9994           0
     78959 TIP3     18838    TIP3     H1       HT       0.417000       1.00800           0
     78960 TIP3     18838    TIP3     H2       HT       0.417000       1.00800           0
     78961 TIP3     18839    TIP3     OH2      OT      -0.834000       15.9994           0
     78962 TIP3     18839    TIP3     H1       HT       0.417000       1.00800           0
     78963 TIP3     18839    TIP3     H2       HT       0.417000       1.00800           0
     78964 TIP3     18840    TIP3     OH2      OT      -0.834000       15.9994           0
     78965 TIP3     18840    TIP3     H1       HT       0.417000       1.00800           0
     78966 TIP3     18840    TIP3     H2       HT       0.417000       1.00800           0
     78967 TIP3     18841    TIP3     OH2      OT      -0.834000       15.9994           0
     78968 TIP3     18841    TIP3     H1       HT       0.417000       1.00800           0
     78969 TIP3     18841    TIP3     H2       HT       0.417000       1.00800           0
     78970 TIP3     18842    TIP3     OH2      OT      -0.834000       15.9994           0
     78971 TIP3     18842    TIP3     H1       HT       0.417000       1.00800           0
     78972 TIP3     18842    TIP3     H2       HT       0.417000       1.00800           0
     78973 TIP3     18843    TIP3     OH2      OT      -0.834000       15.9994           0
     78974 TIP3     18843    TIP3     H1       HT       0.417000       1.00800           0
     78975 TIP3     18843    TIP3     H2       HT       0.417000       1.00800           0
     78976 TIP3     18844    TIP3     OH2      OT      -0.834000       15.9994           0
     78977 TIP3     18844    TIP3     H1       HT       0.417000       1.00800           0
     78978 TIP3     18844    TIP3     H2       HT       0.417000       1.00800           0
     78979 TIP3     18845    TIP3     OH2      OT      -0.834000       15.9994           0
     78980 TIP3     18845    TIP3     H1       HT       0.417000       1.00800           0
     78981 TIP3     18845    TIP3     H2       HT       0.417000       1.00800           0
     78982 TIP3     18846    TIP3     OH2      OT      -0.834000       15.9994           0
     78983 TIP3     18846    TIP3     H1       HT       0.417000       1.00800           0
     78984 TIP3     18846    TIP3     H2       HT       0.417000       1.00800           0
     78985 TIP3     18847    TIP3     OH2      OT      -0.834000       15.9994           0
     78986 TIP3     18847    TIP3     H1       HT       0.417000       1.00800           0
     78987 TIP3     18847    TIP3     H2       HT       0.417000       1.00800           0
     78988 TIP3     18848    TIP3     OH2      OT      -0.834000       15.9994           0
     78989 TIP3     18848    TIP3     H1       HT       0.417000       1.00800           0
     78990 TIP3     18848    TIP3     H2       HT       0.417000       1.00800           0
     78991 TIP3     18849    TIP3     OH2      OT      -0.834000       15.9994           0
     78992 TIP3     18849    TIP3     H1       HT       0.417000       1.00800           0
     78993 TIP3     18849    TIP3     H2       HT       0.417000       1.00800           0
     78994 TIP3     18850    TIP3     OH2      OT      -0.834000       15.9994           0
     78995 TIP3     18850    TIP3     H1       HT       0.417000       1.00800           0
     78996 TIP3     18850    TIP3     H2       HT       0.417000       1.00800           0
     78997 TIP3     18851    TIP3     OH2      OT      -0.834000       15.9994           0
     78998 TIP3     18851    TIP3     H1       HT       0.417000       1.00800           0
     78999 TIP3     18851    TIP3     H2       HT       0.417000       1.00800           0
     79000 TIP3     18852    TIP3     OH2      OT      -0.834000       15.9994           0
     79001 TIP3     18852    TIP3     H1       HT       0.417000       1.00800           0
     79002 TIP3     18852    TIP3     H2       HT       0.417000       1.00800           0
     79003 TIP3     18853    TIP3     OH2      OT      -0.834000       15.9994           0
     79004 TIP3     18853    TIP3     H1       HT       0.417000       1.00800           0
     79005 TIP3     18853    TIP3     H2       HT       0.417000       1.00800           0
     79006 TIP3     18854    TIP3     OH2      OT      -0.834000       15.9994           0
     79007 TIP3     18854    TIP3     H1       HT       0.417000       1.00800           0
     79008 TIP3     18854    TIP3     H2       HT       0.417000       1.00800           0
     79009 TIP3     18855    TIP3     OH2      OT      -0.834000       15.9994           0
     79010 TIP3     18855    TIP3     H1       HT       0.417000       1.00800           0
     79011 TIP3     18855    TIP3     H2       HT       0.417000       1.00800           0
     79012 TIP3     18856    TIP3     OH2      OT      -0.834000       15.9994           0
     79013 TIP3     18856    TIP3     H1       HT       0.417000       1.00800           0
     79014 TIP3     18856    TIP3     H2       HT       0.417000       1.00800           0
     79015 TIP3     18857    TIP3     OH2      OT      -0.834000       15.9994           0
     79016 TIP3     18857    TIP3     H1       HT       0.417000       1.00800           0
     79017 TIP3     18857    TIP3     H2       HT       0.417000       1.00800           0
     79018 TIP3     18858    TIP3     OH2      OT      -0.834000       15.9994           0
     79019 TIP3     18858    TIP3     H1       HT       0.417000       1.00800           0
     79020 TIP3     18858    TIP3     H2       HT       0.417000       1.00800           0
     79021 TIP3     18859    TIP3     OH2      OT      -0.834000       15.9994           0
     79022 TIP3     18859    TIP3     H1       HT       0.417000       1.00800           0
     79023 TIP3     18859    TIP3     H2       HT       0.417000       1.00800           0
     79024 TIP3     18860    TIP3     OH2      OT      -0.834000       15.9994           0
     79025 TIP3     18860    TIP3     H1       HT       0.417000       1.00800           0
     79026 TIP3     18860    TIP3     H2       HT       0.417000       1.00800           0
     79027 TIP3     18861    TIP3     OH2      OT      -0.834000       15.9994           0
     79028 TIP3     18861    TIP3     H1       HT       0.417000       1.00800           0
     79029 TIP3     18861    TIP3     H2       HT       0.417000       1.00800           0
     79030 TIP3     18862    TIP3     OH2      OT      -0.834000       15.9994           0
     79031 TIP3     18862    TIP3     H1       HT       0.417000       1.00800           0
     79032 TIP3     18862    TIP3     H2       HT       0.417000       1.00800           0
     79033 TIP3     18863    TIP3     OH2      OT      -0.834000       15.9994           0
     79034 TIP3     18863    TIP3     H1       HT       0.417000       1.00800           0
     79035 TIP3     18863    TIP3     H2       HT       0.417000       1.00800           0
     79036 TIP3     18864    TIP3     OH2      OT      -0.834000       15.9994           0
     79037 TIP3     18864    TIP3     H1       HT       0.417000       1.00800           0
     79038 TIP3     18864    TIP3     H2       HT       0.417000       1.00800           0
     79039 TIP3     18865    TIP3     OH2      OT      -0.834000       15.9994           0
     79040 TIP3     18865    TIP3     H1       HT       0.417000       1.00800           0
     79041 TIP3     18865    TIP3     H2       HT       0.417000       1.00800           0
     79042 TIP3     18866    TIP3     OH2      OT      -0.834000       15.9994           0
     79043 TIP3     18866    TIP3     H1       HT       0.417000       1.00800           0
     79044 TIP3     18866    TIP3     H2       HT       0.417000       1.00800           0
     79045 TIP3     18867    TIP3     OH2      OT      -0.834000       15.9994           0
     79046 TIP3     18867    TIP3     H1       HT       0.417000       1.00800           0
     79047 TIP3     18867    TIP3     H2       HT       0.417000       1.00800           0
     79048 TIP3     18868    TIP3     OH2      OT      -0.834000       15.9994           0
     79049 TIP3     18868    TIP3     H1       HT       0.417000       1.00800           0
     79050 TIP3     18868    TIP3     H2       HT       0.417000       1.00800           0
     79051 TIP3     18869    TIP3     OH2      OT      -0.834000       15.9994           0
     79052 TIP3     18869    TIP3     H1       HT       0.417000       1.00800           0
     79053 TIP3     18869    TIP3     H2       HT       0.417000       1.00800           0
     79054 TIP3     18870    TIP3     OH2      OT      -0.834000       15.9994           0
     79055 TIP3     18870    TIP3     H1       HT       0.417000       1.00800           0
     79056 TIP3     18870    TIP3     H2       HT       0.417000       1.00800           0
     79057 TIP3     18871    TIP3     OH2      OT      -0.834000       15.9994           0
     79058 TIP3     18871    TIP3     H1       HT       0.417000       1.00800           0
     79059 TIP3     18871    TIP3     H2       HT       0.417000       1.00800           0
     79060 TIP3     18872    TIP3     OH2      OT      -0.834000       15.9994           0
     79061 TIP3     18872    TIP3     H1       HT       0.417000       1.00800           0
     79062 TIP3     18872    TIP3     H2       HT       0.417000       1.00800           0
     79063 TIP3     18873    TIP3     OH2      OT      -0.834000       15.9994           0
     79064 TIP3     18873    TIP3     H1       HT       0.417000       1.00800           0
     79065 TIP3     18873    TIP3     H2       HT       0.417000       1.00800           0
     79066 TIP3     18874    TIP3     OH2      OT      -0.834000       15.9994           0
     79067 TIP3     18874    TIP3     H1       HT       0.417000       1.00800           0
     79068 TIP3     18874    TIP3     H2       HT       0.417000       1.00800           0
     79069 TIP3     18875    TIP3     OH2      OT      -0.834000       15.9994           0
     79070 TIP3     18875    TIP3     H1       HT       0.417000       1.00800           0
     79071 TIP3     18875    TIP3     H2       HT       0.417000       1.00800           0
     79072 TIP3     18876    TIP3     OH2      OT      -0.834000       15.9994           0
     79073 TIP3     18876    TIP3     H1       HT       0.417000       1.00800           0
     79074 TIP3     18876    TIP3     H2       HT       0.417000       1.00800           0
     79075 TIP3     18877    TIP3     OH2      OT      -0.834000       15.9994           0
     79076 TIP3     18877    TIP3     H1       HT       0.417000       1.00800           0
     79077 TIP3     18877    TIP3     H2       HT       0.417000       1.00800           0
     79078 TIP3     18878    TIP3     OH2      OT      -0.834000       15.9994           0
     79079 TIP3     18878    TIP3     H1       HT       0.417000       1.00800           0
     79080 TIP3     18878    TIP3     H2       HT       0.417000       1.00800           0
     79081 TIP3     18879    TIP3     OH2      OT      -0.834000       15.9994           0
     79082 TIP3     18879    TIP3     H1       HT       0.417000       1.00800           0
     79083 TIP3     18879    TIP3     H2       HT       0.417000       1.00800           0
     79084 TIP3     18880    TIP3     OH2      OT      -0.834000       15.9994           0
     79085 TIP3     18880    TIP3     H1       HT       0.417000       1.00800           0
     79086 TIP3     18880    TIP3     H2       HT       0.417000       1.00800           0
     79087 TIP3     18881    TIP3     OH2      OT      -0.834000       15.9994           0
     79088 TIP3     18881    TIP3     H1       HT       0.417000       1.00800           0
     79089 TIP3     18881    TIP3     H2       HT       0.417000       1.00800           0
     79090 TIP3     18882    TIP3     OH2      OT      -0.834000       15.9994           0
     79091 TIP3     18882    TIP3     H1       HT       0.417000       1.00800           0
     79092 TIP3     18882    TIP3     H2       HT       0.417000       1.00800           0
     79093 TIP3     18883    TIP3     OH2      OT      -0.834000       15.9994           0
     79094 TIP3     18883    TIP3     H1       HT       0.417000       1.00800           0
     79095 TIP3     18883    TIP3     H2       HT       0.417000       1.00800           0
     79096 TIP3     18884    TIP3     OH2      OT      -0.834000       15.9994           0
     79097 TIP3     18884    TIP3     H1       HT       0.417000       1.00800           0
     79098 TIP3     18884    TIP3     H2       HT       0.417000       1.00800           0
     79099 TIP3     18885    TIP3     OH2      OT      -0.834000       15.9994           0
     79100 TIP3     18885    TIP3     H1       HT       0.417000       1.00800           0
     79101 TIP3     18885    TIP3     H2       HT       0.417000       1.00800           0
     79102 TIP3     18886    TIP3     OH2      OT      -0.834000       15.9994           0
     79103 TIP3     18886    TIP3     H1       HT       0.417000       1.00800           0
     79104 TIP3     18886    TIP3     H2       HT       0.417000       1.00800           0
     79105 TIP3     18887    TIP3     OH2      OT      -0.834000       15.9994           0
     79106 TIP3     18887    TIP3     H1       HT       0.417000       1.00800           0
     79107 TIP3     18887    TIP3     H2       HT       0.417000       1.00800           0
     79108 TIP3     18888    TIP3     OH2      OT      -0.834000       15.9994           0
     79109 TIP3     18888    TIP3     H1       HT       0.417000       1.00800           0
     79110 TIP3     18888    TIP3     H2       HT       0.417000       1.00800           0
     79111 TIP3     18889    TIP3     OH2      OT      -0.834000       15.9994           0
     79112 TIP3     18889    TIP3     H1       HT       0.417000       1.00800           0
     79113 TIP3     18889    TIP3     H2       HT       0.417000       1.00800           0
     79114 TIP3     18890    TIP3     OH2      OT      -0.834000       15.9994           0
     79115 TIP3     18890    TIP3     H1       HT       0.417000       1.00800           0
     79116 TIP3     18890    TIP3     H2       HT       0.417000       1.00800           0
     79117 TIP3     18891    TIP3     OH2      OT      -0.834000       15.9994           0
     79118 TIP3     18891    TIP3     H1       HT       0.417000       1.00800           0
     79119 TIP3     18891    TIP3     H2       HT       0.417000       1.00800           0
     79120 TIP3     18892    TIP3     OH2      OT      -0.834000       15.9994           0
     79121 TIP3     18892    TIP3     H1       HT       0.417000       1.00800           0
     79122 TIP3     18892    TIP3     H2       HT       0.417000       1.00800           0
     79123 TIP3     18893    TIP3     OH2      OT      -0.834000       15.9994           0
     79124 TIP3     18893    TIP3     H1       HT       0.417000       1.00800           0
     79125 TIP3     18893    TIP3     H2       HT       0.417000       1.00800           0
     79126 TIP3     18894    TIP3     OH2      OT      -0.834000       15.9994           0
     79127 TIP3     18894    TIP3     H1       HT       0.417000       1.00800           0
     79128 TIP3     18894    TIP3     H2       HT       0.417000       1.00800           0
     79129 TIP3     18895    TIP3     OH2      OT      -0.834000       15.9994           0
     79130 TIP3     18895    TIP3     H1       HT       0.417000       1.00800           0
     79131 TIP3     18895    TIP3     H2       HT       0.417000       1.00800           0
     79132 TIP3     18896    TIP3     OH2      OT      -0.834000       15.9994           0
     79133 TIP3     18896    TIP3     H1       HT       0.417000       1.00800           0
     79134 TIP3     18896    TIP3     H2       HT       0.417000       1.00800           0
     79135 TIP3     18897    TIP3     OH2      OT      -0.834000       15.9994           0
     79136 TIP3     18897    TIP3     H1       HT       0.417000       1.00800           0
     79137 TIP3     18897    TIP3     H2       HT       0.417000       1.00800           0
     79138 TIP3     18898    TIP3     OH2      OT      -0.834000       15.9994           0
     79139 TIP3     18898    TIP3     H1       HT       0.417000       1.00800           0
     79140 TIP3     18898    TIP3     H2       HT       0.417000       1.00800           0
     79141 TIP3     18899    TIP3     OH2      OT      -0.834000       15.9994           0
     79142 TIP3     18899    TIP3     H1       HT       0.417000       1.00800           0
     79143 TIP3     18899    TIP3     H2       HT       0.417000       1.00800           0
     79144 TIP3     18900    TIP3     OH2      OT      -0.834000       15.9994           0
     79145 TIP3     18900    TIP3     H1       HT       0.417000       1.00800           0
     79146 TIP3     18900    TIP3     H2       HT       0.417000       1.00800           0
     79147 TIP3     18901    TIP3     OH2      OT      -0.834000       15.9994           0
     79148 TIP3     18901    TIP3     H1       HT       0.417000       1.00800           0
     79149 TIP3     18901    TIP3     H2       HT       0.417000       1.00800           0
     79150 TIP3     18902    TIP3     OH2      OT      -0.834000       15.9994           0
     79151 TIP3     18902    TIP3     H1       HT       0.417000       1.00800           0
     79152 TIP3     18902    TIP3     H2       HT       0.417000       1.00800           0
     79153 TIP3     18903    TIP3     OH2      OT      -0.834000       15.9994           0
     79154 TIP3     18903    TIP3     H1       HT       0.417000       1.00800           0
     79155 TIP3     18903    TIP3     H2       HT       0.417000       1.00800           0
     79156 TIP3     18904    TIP3     OH2      OT      -0.834000       15.9994           0
     79157 TIP3     18904    TIP3     H1       HT       0.417000       1.00800           0
     79158 TIP3     18904    TIP3     H2       HT       0.417000       1.00800           0
     79159 TIP3     18905    TIP3     OH2      OT      -0.834000       15.9994           0
     79160 TIP3     18905    TIP3     H1       HT       0.417000       1.00800           0
     79161 TIP3     18905    TIP3     H2       HT       0.417000       1.00800           0
     79162 TIP3     18906    TIP3     OH2      OT      -0.834000       15.9994           0
     79163 TIP3     18906    TIP3     H1       HT       0.417000       1.00800           0
     79164 TIP3     18906    TIP3     H2       HT       0.417000       1.00800           0
     79165 TIP3     18907    TIP3     OH2      OT      -0.834000       15.9994           0
     79166 TIP3     18907    TIP3     H1       HT       0.417000       1.00800           0
     79167 TIP3     18907    TIP3     H2       HT       0.417000       1.00800           0
     79168 TIP3     18908    TIP3     OH2      OT      -0.834000       15.9994           0
     79169 TIP3     18908    TIP3     H1       HT       0.417000       1.00800           0
     79170 TIP3     18908    TIP3     H2       HT       0.417000       1.00800           0
     79171 TIP3     18909    TIP3     OH2      OT      -0.834000       15.9994           0
     79172 TIP3     18909    TIP3     H1       HT       0.417000       1.00800           0
     79173 TIP3     18909    TIP3     H2       HT       0.417000       1.00800           0
     79174 TIP3     18910    TIP3     OH2      OT      -0.834000       15.9994           0
     79175 TIP3     18910    TIP3     H1       HT       0.417000       1.00800           0
     79176 TIP3     18910    TIP3     H2       HT       0.417000       1.00800           0
     79177 TIP3     18911    TIP3     OH2      OT      -0.834000       15.9994           0
     79178 TIP3     18911    TIP3     H1       HT       0.417000       1.00800           0
     79179 TIP3     18911    TIP3     H2       HT       0.417000       1.00800           0
     79180 TIP3     18912    TIP3     OH2      OT      -0.834000       15.9994           0
     79181 TIP3     18912    TIP3     H1       HT       0.417000       1.00800           0
     79182 TIP3     18912    TIP3     H2       HT       0.417000       1.00800           0
     79183 TIP3     18913    TIP3     OH2      OT      -0.834000       15.9994           0
     79184 TIP3     18913    TIP3     H1       HT       0.417000       1.00800           0
     79185 TIP3     18913    TIP3     H2       HT       0.417000       1.00800           0
     79186 TIP3     18914    TIP3     OH2      OT      -0.834000       15.9994           0
     79187 TIP3     18914    TIP3     H1       HT       0.417000       1.00800           0
     79188 TIP3     18914    TIP3     H2       HT       0.417000       1.00800           0
     79189 TIP3     18915    TIP3     OH2      OT      -0.834000       15.9994           0
     79190 TIP3     18915    TIP3     H1       HT       0.417000       1.00800           0
     79191 TIP3     18915    TIP3     H2       HT       0.417000       1.00800           0
     79192 TIP3     18916    TIP3     OH2      OT      -0.834000       15.9994           0
     79193 TIP3     18916    TIP3     H1       HT       0.417000       1.00800           0
     79194 TIP3     18916    TIP3     H2       HT       0.417000       1.00800           0
     79195 TIP3     18917    TIP3     OH2      OT      -0.834000       15.9994           0
     79196 TIP3     18917    TIP3     H1       HT       0.417000       1.00800           0
     79197 TIP3     18917    TIP3     H2       HT       0.417000       1.00800           0
     79198 TIP3     18918    TIP3     OH2      OT      -0.834000       15.9994           0
     79199 TIP3     18918    TIP3     H1       HT       0.417000       1.00800           0
     79200 TIP3     18918    TIP3     H2       HT       0.417000       1.00800           0
     79201 TIP3     18919    TIP3     OH2      OT      -0.834000       15.9994           0
     79202 TIP3     18919    TIP3     H1       HT       0.417000       1.00800           0
     79203 TIP3     18919    TIP3     H2       HT       0.417000       1.00800           0
     79204 TIP3     18920    TIP3     OH2      OT      -0.834000       15.9994           0
     79205 TIP3     18920    TIP3     H1       HT       0.417000       1.00800           0
     79206 TIP3     18920    TIP3     H2       HT       0.417000       1.00800           0
     79207 TIP3     18921    TIP3     OH2      OT      -0.834000       15.9994           0
     79208 TIP3     18921    TIP3     H1       HT       0.417000       1.00800           0
     79209 TIP3     18921    TIP3     H2       HT       0.417000       1.00800           0
     79210 TIP3     18922    TIP3     OH2      OT      -0.834000       15.9994           0
     79211 TIP3     18922    TIP3     H1       HT       0.417000       1.00800           0
     79212 TIP3     18922    TIP3     H2       HT       0.417000       1.00800           0
     79213 TIP3     18923    TIP3     OH2      OT      -0.834000       15.9994           0
     79214 TIP3     18923    TIP3     H1       HT       0.417000       1.00800           0
     79215 TIP3     18923    TIP3     H2       HT       0.417000       1.00800           0
     79216 TIP3     18924    TIP3     OH2      OT      -0.834000       15.9994           0
     79217 TIP3     18924    TIP3     H1       HT       0.417000       1.00800           0
     79218 TIP3     18924    TIP3     H2       HT       0.417000       1.00800           0
     79219 TIP3     18925    TIP3     OH2      OT      -0.834000       15.9994           0
     79220 TIP3     18925    TIP3     H1       HT       0.417000       1.00800           0
     79221 TIP3     18925    TIP3     H2       HT       0.417000       1.00800           0
     79222 TIP3     18926    TIP3     OH2      OT      -0.834000       15.9994           0
     79223 TIP3     18926    TIP3     H1       HT       0.417000       1.00800           0
     79224 TIP3     18926    TIP3     H2       HT       0.417000       1.00800           0
     79225 TIP3     18927    TIP3     OH2      OT      -0.834000       15.9994           0
     79226 TIP3     18927    TIP3     H1       HT       0.417000       1.00800           0
     79227 TIP3     18927    TIP3     H2       HT       0.417000       1.00800           0
     79228 TIP3     18928    TIP3     OH2      OT      -0.834000       15.9994           0
     79229 TIP3     18928    TIP3     H1       HT       0.417000       1.00800           0
     79230 TIP3     18928    TIP3     H2       HT       0.417000       1.00800           0
     79231 TIP3     18929    TIP3     OH2      OT      -0.834000       15.9994           0
     79232 TIP3     18929    TIP3     H1       HT       0.417000       1.00800           0
     79233 TIP3     18929    TIP3     H2       HT       0.417000       1.00800           0
     79234 TIP3     18930    TIP3     OH2      OT      -0.834000       15.9994           0
     79235 TIP3     18930    TIP3     H1       HT       0.417000       1.00800           0
     79236 TIP3     18930    TIP3     H2       HT       0.417000       1.00800           0
     79237 TIP3     18931    TIP3     OH2      OT      -0.834000       15.9994           0
     79238 TIP3     18931    TIP3     H1       HT       0.417000       1.00800           0
     79239 TIP3     18931    TIP3     H2       HT       0.417000       1.00800           0
     79240 TIP3     18932    TIP3     OH2      OT      -0.834000       15.9994           0
     79241 TIP3     18932    TIP3     H1       HT       0.417000       1.00800           0
     79242 TIP3     18932    TIP3     H2       HT       0.417000       1.00800           0
     79243 TIP3     18933    TIP3     OH2      OT      -0.834000       15.9994           0
     79244 TIP3     18933    TIP3     H1       HT       0.417000       1.00800           0
     79245 TIP3     18933    TIP3     H2       HT       0.417000       1.00800           0
     79246 TIP3     18934    TIP3     OH2      OT      -0.834000       15.9994           0
     79247 TIP3     18934    TIP3     H1       HT       0.417000       1.00800           0
     79248 TIP3     18934    TIP3     H2       HT       0.417000       1.00800           0
     79249 TIP3     18935    TIP3     OH2      OT      -0.834000       15.9994           0
     79250 TIP3     18935    TIP3     H1       HT       0.417000       1.00800           0
     79251 TIP3     18935    TIP3     H2       HT       0.417000       1.00800           0
     79252 TIP3     18936    TIP3     OH2      OT      -0.834000       15.9994           0
     79253 TIP3     18936    TIP3     H1       HT       0.417000       1.00800           0
     79254 TIP3     18936    TIP3     H2       HT       0.417000       1.00800           0
     79255 TIP3     18937    TIP3     OH2      OT      -0.834000       15.9994           0
     79256 TIP3     18937    TIP3     H1       HT       0.417000       1.00800           0
     79257 TIP3     18937    TIP3     H2       HT       0.417000       1.00800           0
     79258 TIP3     18938    TIP3     OH2      OT      -0.834000       15.9994           0
     79259 TIP3     18938    TIP3     H1       HT       0.417000       1.00800           0
     79260 TIP3     18938    TIP3     H2       HT       0.417000       1.00800           0
     79261 TIP3     18939    TIP3     OH2      OT      -0.834000       15.9994           0
     79262 TIP3     18939    TIP3     H1       HT       0.417000       1.00800           0
     79263 TIP3     18939    TIP3     H2       HT       0.417000       1.00800           0
     79264 TIP3     18940    TIP3     OH2      OT      -0.834000       15.9994           0
     79265 TIP3     18940    TIP3     H1       HT       0.417000       1.00800           0
     79266 TIP3     18940    TIP3     H2       HT       0.417000       1.00800           0
     79267 TIP3     18941    TIP3     OH2      OT      -0.834000       15.9994           0
     79268 TIP3     18941    TIP3     H1       HT       0.417000       1.00800           0
     79269 TIP3     18941    TIP3     H2       HT       0.417000       1.00800           0
     79270 TIP3     18942    TIP3     OH2      OT      -0.834000       15.9994           0
     79271 TIP3     18942    TIP3     H1       HT       0.417000       1.00800           0
     79272 TIP3     18942    TIP3     H2       HT       0.417000       1.00800           0
     79273 TIP3     18943    TIP3     OH2      OT      -0.834000       15.9994           0
     79274 TIP3     18943    TIP3     H1       HT       0.417000       1.00800           0
     79275 TIP3     18943    TIP3     H2       HT       0.417000       1.00800           0
     79276 TIP3     18944    TIP3     OH2      OT      -0.834000       15.9994           0
     79277 TIP3     18944    TIP3     H1       HT       0.417000       1.00800           0
     79278 TIP3     18944    TIP3     H2       HT       0.417000       1.00800           0
     79279 TIP3     18945    TIP3     OH2      OT      -0.834000       15.9994           0
     79280 TIP3     18945    TIP3     H1       HT       0.417000       1.00800           0
     79281 TIP3     18945    TIP3     H2       HT       0.417000       1.00800           0
     79282 TIP3     18946    TIP3     OH2      OT      -0.834000       15.9994           0
     79283 TIP3     18946    TIP3     H1       HT       0.417000       1.00800           0
     79284 TIP3     18946    TIP3     H2       HT       0.417000       1.00800           0
     79285 TIP3     18947    TIP3     OH2      OT      -0.834000       15.9994           0
     79286 TIP3     18947    TIP3     H1       HT       0.417000       1.00800           0
     79287 TIP3     18947    TIP3     H2       HT       0.417000       1.00800           0
     79288 TIP3     18948    TIP3     OH2      OT      -0.834000       15.9994           0
     79289 TIP3     18948    TIP3     H1       HT       0.417000       1.00800           0
     79290 TIP3     18948    TIP3     H2       HT       0.417000       1.00800           0
     79291 TIP3     18949    TIP3     OH2      OT      -0.834000       15.9994           0
     79292 TIP3     18949    TIP3     H1       HT       0.417000       1.00800           0
     79293 TIP3     18949    TIP3     H2       HT       0.417000       1.00800           0
     79294 TIP3     18950    TIP3     OH2      OT      -0.834000       15.9994           0
     79295 TIP3     18950    TIP3     H1       HT       0.417000       1.00800           0
     79296 TIP3     18950    TIP3     H2       HT       0.417000       1.00800           0
     79297 TIP3     18951    TIP3     OH2      OT      -0.834000       15.9994           0
     79298 TIP3     18951    TIP3     H1       HT       0.417000       1.00800           0
     79299 TIP3     18951    TIP3     H2       HT       0.417000       1.00800           0
     79300 TIP3     18952    TIP3     OH2      OT      -0.834000       15.9994           0
     79301 TIP3     18952    TIP3     H1       HT       0.417000       1.00800           0
     79302 TIP3     18952    TIP3     H2       HT       0.417000       1.00800           0
     79303 TIP3     18953    TIP3     OH2      OT      -0.834000       15.9994           0
     79304 TIP3     18953    TIP3     H1       HT       0.417000       1.00800           0
     79305 TIP3     18953    TIP3     H2       HT       0.417000       1.00800           0
     79306 TIP3     18954    TIP3     OH2      OT      -0.834000       15.9994           0
     79307 TIP3     18954    TIP3     H1       HT       0.417000       1.00800           0
     79308 TIP3     18954    TIP3     H2       HT       0.417000       1.00800           0
     79309 TIP3     18955    TIP3     OH2      OT      -0.834000       15.9994           0
     79310 TIP3     18955    TIP3     H1       HT       0.417000       1.00800           0
     79311 TIP3     18955    TIP3     H2       HT       0.417000       1.00800           0
     79312 TIP3     18956    TIP3     OH2      OT      -0.834000       15.9994           0
     79313 TIP3     18956    TIP3     H1       HT       0.417000       1.00800           0
     79314 TIP3     18956    TIP3     H2       HT       0.417000       1.00800           0
     79315 TIP3     18957    TIP3     OH2      OT      -0.834000       15.9994           0
     79316 TIP3     18957    TIP3     H1       HT       0.417000       1.00800           0
     79317 TIP3     18957    TIP3     H2       HT       0.417000       1.00800           0
     79318 TIP3     18958    TIP3     OH2      OT      -0.834000       15.9994           0
     79319 TIP3     18958    TIP3     H1       HT       0.417000       1.00800           0
     79320 TIP3     18958    TIP3     H2       HT       0.417000       1.00800           0
     79321 TIP3     18959    TIP3     OH2      OT      -0.834000       15.9994           0
     79322 TIP3     18959    TIP3     H1       HT       0.417000       1.00800           0
     79323 TIP3     18959    TIP3     H2       HT       0.417000       1.00800           0
     79324 TIP3     18960    TIP3     OH2      OT      -0.834000       15.9994           0
     79325 TIP3     18960    TIP3     H1       HT       0.417000       1.00800           0
     79326 TIP3     18960    TIP3     H2       HT       0.417000       1.00800           0
     79327 TIP3     18961    TIP3     OH2      OT      -0.834000       15.9994           0
     79328 TIP3     18961    TIP3     H1       HT       0.417000       1.00800           0
     79329 TIP3     18961    TIP3     H2       HT       0.417000       1.00800           0
     79330 TIP3     18962    TIP3     OH2      OT      -0.834000       15.9994           0
     79331 TIP3     18962    TIP3     H1       HT       0.417000       1.00800           0
     79332 TIP3     18962    TIP3     H2       HT       0.417000       1.00800           0
     79333 TIP3     18963    TIP3     OH2      OT      -0.834000       15.9994           0
     79334 TIP3     18963    TIP3     H1       HT       0.417000       1.00800           0
     79335 TIP3     18963    TIP3     H2       HT       0.417000       1.00800           0
     79336 TIP3     18964    TIP3     OH2      OT      -0.834000       15.9994           0
     79337 TIP3     18964    TIP3     H1       HT       0.417000       1.00800           0
     79338 TIP3     18964    TIP3     H2       HT       0.417000       1.00800           0
     79339 TIP3     18965    TIP3     OH2      OT      -0.834000       15.9994           0
     79340 TIP3     18965    TIP3     H1       HT       0.417000       1.00800           0
     79341 TIP3     18965    TIP3     H2       HT       0.417000       1.00800           0
     79342 TIP3     18966    TIP3     OH2      OT      -0.834000       15.9994           0
     79343 TIP3     18966    TIP3     H1       HT       0.417000       1.00800           0
     79344 TIP3     18966    TIP3     H2       HT       0.417000       1.00800           0
     79345 TIP3     18967    TIP3     OH2      OT      -0.834000       15.9994           0
     79346 TIP3     18967    TIP3     H1       HT       0.417000       1.00800           0
     79347 TIP3     18967    TIP3     H2       HT       0.417000       1.00800           0
     79348 TIP3     18968    TIP3     OH2      OT      -0.834000       15.9994           0
     79349 TIP3     18968    TIP3     H1       HT       0.417000       1.00800           0
     79350 TIP3     18968    TIP3     H2       HT       0.417000       1.00800           0
     79351 TIP3     18969    TIP3     OH2      OT      -0.834000       15.9994           0
     79352 TIP3     18969    TIP3     H1       HT       0.417000       1.00800           0
     79353 TIP3     18969    TIP3     H2       HT       0.417000       1.00800           0
     79354 TIP3     18970    TIP3     OH2      OT      -0.834000       15.9994           0
     79355 TIP3     18970    TIP3     H1       HT       0.417000       1.00800           0
     79356 TIP3     18970    TIP3     H2       HT       0.417000       1.00800           0
     79357 TIP3     18971    TIP3     OH2      OT      -0.834000       15.9994           0
     79358 TIP3     18971    TIP3     H1       HT       0.417000       1.00800           0
     79359 TIP3     18971    TIP3     H2       HT       0.417000       1.00800           0
     79360 TIP3     18972    TIP3     OH2      OT      -0.834000       15.9994           0
     79361 TIP3     18972    TIP3     H1       HT       0.417000       1.00800           0
     79362 TIP3     18972    TIP3     H2       HT       0.417000       1.00800           0
     79363 TIP3     18973    TIP3     OH2      OT      -0.834000       15.9994           0
     79364 TIP3     18973    TIP3     H1       HT       0.417000       1.00800           0
     79365 TIP3     18973    TIP3     H2       HT       0.417000       1.00800           0
     79366 TIP3     18974    TIP3     OH2      OT      -0.834000       15.9994           0
     79367 TIP3     18974    TIP3     H1       HT       0.417000       1.00800           0
     79368 TIP3     18974    TIP3     H2       HT       0.417000       1.00800           0
     79369 TIP3     18975    TIP3     OH2      OT      -0.834000       15.9994           0
     79370 TIP3     18975    TIP3     H1       HT       0.417000       1.00800           0
     79371 TIP3     18975    TIP3     H2       HT       0.417000       1.00800           0
     79372 TIP3     18976    TIP3     OH2      OT      -0.834000       15.9994           0
     79373 TIP3     18976    TIP3     H1       HT       0.417000       1.00800           0
     79374 TIP3     18976    TIP3     H2       HT       0.417000       1.00800           0
     79375 TIP3     18977    TIP3     OH2      OT      -0.834000       15.9994           0
     79376 TIP3     18977    TIP3     H1       HT       0.417000       1.00800           0
     79377 TIP3     18977    TIP3     H2       HT       0.417000       1.00800           0
     79378 TIP3     18978    TIP3     OH2      OT      -0.834000       15.9994           0
     79379 TIP3     18978    TIP3     H1       HT       0.417000       1.00800           0
     79380 TIP3     18978    TIP3     H2       HT       0.417000       1.00800           0
     79381 TIP3     18979    TIP3     OH2      OT      -0.834000       15.9994           0
     79382 TIP3     18979    TIP3     H1       HT       0.417000       1.00800           0
     79383 TIP3     18979    TIP3     H2       HT       0.417000       1.00800           0
     79384 TIP3     18980    TIP3     OH2      OT      -0.834000       15.9994           0
     79385 TIP3     18980    TIP3     H1       HT       0.417000       1.00800           0
     79386 TIP3     18980    TIP3     H2       HT       0.417000       1.00800           0
     79387 TIP3     18981    TIP3     OH2      OT      -0.834000       15.9994           0
     79388 TIP3     18981    TIP3     H1       HT       0.417000       1.00800           0
     79389 TIP3     18981    TIP3     H2       HT       0.417000       1.00800           0
     79390 TIP3     18982    TIP3     OH2      OT      -0.834000       15.9994           0
     79391 TIP3     18982    TIP3     H1       HT       0.417000       1.00800           0
     79392 TIP3     18982    TIP3     H2       HT       0.417000       1.00800           0
     79393 TIP3     18983    TIP3     OH2      OT      -0.834000       15.9994           0
     79394 TIP3     18983    TIP3     H1       HT       0.417000       1.00800           0
     79395 TIP3     18983    TIP3     H2       HT       0.417000       1.00800           0
     79396 TIP3     18984    TIP3     OH2      OT      -0.834000       15.9994           0
     79397 TIP3     18984    TIP3     H1       HT       0.417000       1.00800           0
     79398 TIP3     18984    TIP3     H2       HT       0.417000       1.00800           0
     79399 TIP3     18985    TIP3     OH2      OT      -0.834000       15.9994           0
     79400 TIP3     18985    TIP3     H1       HT       0.417000       1.00800           0
     79401 TIP3     18985    TIP3     H2       HT       0.417000       1.00800           0
     79402 TIP3     18986    TIP3     OH2      OT      -0.834000       15.9994           0
     79403 TIP3     18986    TIP3     H1       HT       0.417000       1.00800           0
     79404 TIP3     18986    TIP3     H2       HT       0.417000       1.00800           0
     79405 TIP3     18987    TIP3     OH2      OT      -0.834000       15.9994           0
     79406 TIP3     18987    TIP3     H1       HT       0.417000       1.00800           0
     79407 TIP3     18987    TIP3     H2       HT       0.417000       1.00800           0
     79408 TIP3     18988    TIP3     OH2      OT      -0.834000       15.9994           0
     79409 TIP3     18988    TIP3     H1       HT       0.417000       1.00800           0
     79410 TIP3     18988    TIP3     H2       HT       0.417000       1.00800           0
     79411 TIP3     18989    TIP3     OH2      OT      -0.834000       15.9994           0
     79412 TIP3     18989    TIP3     H1       HT       0.417000       1.00800           0
     79413 TIP3     18989    TIP3     H2       HT       0.417000       1.00800           0
     79414 TIP3     18990    TIP3     OH2      OT      -0.834000       15.9994           0
     79415 TIP3     18990    TIP3     H1       HT       0.417000       1.00800           0
     79416 TIP3     18990    TIP3     H2       HT       0.417000       1.00800           0
     79417 TIP3     18991    TIP3     OH2      OT      -0.834000       15.9994           0
     79418 TIP3     18991    TIP3     H1       HT       0.417000       1.00800           0
     79419 TIP3     18991    TIP3     H2       HT       0.417000       1.00800           0
     79420 TIP3     18992    TIP3     OH2      OT      -0.834000       15.9994           0
     79421 TIP3     18992    TIP3     H1       HT       0.417000       1.00800           0
     79422 TIP3     18992    TIP3     H2       HT       0.417000       1.00800           0
     79423 TIP3     18993    TIP3     OH2      OT      -0.834000       15.9994           0
     79424 TIP3     18993    TIP3     H1       HT       0.417000       1.00800           0
     79425 TIP3     18993    TIP3     H2       HT       0.417000       1.00800           0
     79426 TIP3     18994    TIP3     OH2      OT      -0.834000       15.9994           0
     79427 TIP3     18994    TIP3     H1       HT       0.417000       1.00800           0
     79428 TIP3     18994    TIP3     H2       HT       0.417000       1.00800           0
     79429 TIP3     18995    TIP3     OH2      OT      -0.834000       15.9994           0
     79430 TIP3     18995    TIP3     H1       HT       0.417000       1.00800           0
     79431 TIP3     18995    TIP3     H2       HT       0.417000       1.00800           0
     79432 TIP3     18996    TIP3     OH2      OT      -0.834000       15.9994           0
     79433 TIP3     18996    TIP3     H1       HT       0.417000       1.00800           0
     79434 TIP3     18996    TIP3     H2       HT       0.417000       1.00800           0
     79435 TIP3     18997    TIP3     OH2      OT      -0.834000       15.9994           0
     79436 TIP3     18997    TIP3     H1       HT       0.417000       1.00800           0
     79437 TIP3     18997    TIP3     H2       HT       0.417000       1.00800           0
     79438 TIP3     18998    TIP3     OH2      OT      -0.834000       15.9994           0
     79439 TIP3     18998    TIP3     H1       HT       0.417000       1.00800           0
     79440 TIP3     18998    TIP3     H2       HT       0.417000       1.00800           0
     79441 TIP3     18999    TIP3     OH2      OT      -0.834000       15.9994           0
     79442 TIP3     18999    TIP3     H1       HT       0.417000       1.00800           0
     79443 TIP3     18999    TIP3     H2       HT       0.417000       1.00800           0
     79444 TIP3     19000    TIP3     OH2      OT      -0.834000       15.9994           0
     79445 TIP3     19000    TIP3     H1       HT       0.417000       1.00800           0
     79446 TIP3     19000    TIP3     H2       HT       0.417000       1.00800           0
     79447 TIP3     19001    TIP3     OH2      OT      -0.834000       15.9994           0
     79448 TIP3     19001    TIP3     H1       HT       0.417000       1.00800           0
     79449 TIP3     19001    TIP3     H2       HT       0.417000       1.00800           0
     79450 TIP3     19002    TIP3     OH2      OT      -0.834000       15.9994           0
     79451 TIP3     19002    TIP3     H1       HT       0.417000       1.00800           0
     79452 TIP3     19002    TIP3     H2       HT       0.417000       1.00800           0
     79453 TIP3     19003    TIP3     OH2      OT      -0.834000       15.9994           0
     79454 TIP3     19003    TIP3     H1       HT       0.417000       1.00800           0
     79455 TIP3     19003    TIP3     H2       HT       0.417000       1.00800           0
     79456 TIP3     19004    TIP3     OH2      OT      -0.834000       15.9994           0
     79457 TIP3     19004    TIP3     H1       HT       0.417000       1.00800           0
     79458 TIP3     19004    TIP3     H2       HT       0.417000       1.00800           0
     79459 TIP3     19005    TIP3     OH2      OT      -0.834000       15.9994           0
     79460 TIP3     19005    TIP3     H1       HT       0.417000       1.00800           0
     79461 TIP3     19005    TIP3     H2       HT       0.417000       1.00800           0
     79462 TIP3     19006    TIP3     OH2      OT      -0.834000       15.9994           0
     79463 TIP3     19006    TIP3     H1       HT       0.417000       1.00800           0
     79464 TIP3     19006    TIP3     H2       HT       0.417000       1.00800           0
     79465 TIP3     19007    TIP3     OH2      OT      -0.834000       15.9994           0
     79466 TIP3     19007    TIP3     H1       HT       0.417000       1.00800           0
     79467 TIP3     19007    TIP3     H2       HT       0.417000       1.00800           0
     79468 TIP3     19008    TIP3     OH2      OT      -0.834000       15.9994           0
     79469 TIP3     19008    TIP3     H1       HT       0.417000       1.00800           0
     79470 TIP3     19008    TIP3     H2       HT       0.417000       1.00800           0
     79471 TIP3     19009    TIP3     OH2      OT      -0.834000       15.9994           0
     79472 TIP3     19009    TIP3     H1       HT       0.417000       1.00800           0
     79473 TIP3     19009    TIP3     H2       HT       0.417000       1.00800           0
     79474 TIP3     19010    TIP3     OH2      OT      -0.834000       15.9994           0
     79475 TIP3     19010    TIP3     H1       HT       0.417000       1.00800           0
     79476 TIP3     19010    TIP3     H2       HT       0.417000       1.00800           0
     79477 TIP3     19011    TIP3     OH2      OT      -0.834000       15.9994           0
     79478 TIP3     19011    TIP3     H1       HT       0.417000       1.00800           0
     79479 TIP3     19011    TIP3     H2       HT       0.417000       1.00800           0
     79480 TIP3     19012    TIP3     OH2      OT      -0.834000       15.9994           0
     79481 TIP3     19012    TIP3     H1       HT       0.417000       1.00800           0
     79482 TIP3     19012    TIP3     H2       HT       0.417000       1.00800           0
     79483 TIP3     19013    TIP3     OH2      OT      -0.834000       15.9994           0
     79484 TIP3     19013    TIP3     H1       HT       0.417000       1.00800           0
     79485 TIP3     19013    TIP3     H2       HT       0.417000       1.00800           0
     79486 TIP3     19014    TIP3     OH2      OT      -0.834000       15.9994           0
     79487 TIP3     19014    TIP3     H1       HT       0.417000       1.00800           0
     79488 TIP3     19014    TIP3     H2       HT       0.417000       1.00800           0
     79489 TIP3     19015    TIP3     OH2      OT      -0.834000       15.9994           0
     79490 TIP3     19015    TIP3     H1       HT       0.417000       1.00800           0
     79491 TIP3     19015    TIP3     H2       HT       0.417000       1.00800           0
     79492 TIP3     19016    TIP3     OH2      OT      -0.834000       15.9994           0
     79493 TIP3     19016    TIP3     H1       HT       0.417000       1.00800           0
     79494 TIP3     19016    TIP3     H2       HT       0.417000       1.00800           0
     79495 TIP3     19017    TIP3     OH2      OT      -0.834000       15.9994           0
     79496 TIP3     19017    TIP3     H1       HT       0.417000       1.00800           0
     79497 TIP3     19017    TIP3     H2       HT       0.417000       1.00800           0
     79498 TIP3     19018    TIP3     OH2      OT      -0.834000       15.9994           0
     79499 TIP3     19018    TIP3     H1       HT       0.417000       1.00800           0
     79500 TIP3     19018    TIP3     H2       HT       0.417000       1.00800           0
     79501 TIP3     19019    TIP3     OH2      OT      -0.834000       15.9994           0
     79502 TIP3     19019    TIP3     H1       HT       0.417000       1.00800           0
     79503 TIP3     19019    TIP3     H2       HT       0.417000       1.00800           0
     79504 TIP3     19020    TIP3     OH2      OT      -0.834000       15.9994           0
     79505 TIP3     19020    TIP3     H1       HT       0.417000       1.00800           0
     79506 TIP3     19020    TIP3     H2       HT       0.417000       1.00800           0
     79507 TIP3     19021    TIP3     OH2      OT      -0.834000       15.9994           0
     79508 TIP3     19021    TIP3     H1       HT       0.417000       1.00800           0
     79509 TIP3     19021    TIP3     H2       HT       0.417000       1.00800           0
     79510 TIP3     19022    TIP3     OH2      OT      -0.834000       15.9994           0
     79511 TIP3     19022    TIP3     H1       HT       0.417000       1.00800           0
     79512 TIP3     19022    TIP3     H2       HT       0.417000       1.00800           0
     79513 TIP3     19023    TIP3     OH2      OT      -0.834000       15.9994           0
     79514 TIP3     19023    TIP3     H1       HT       0.417000       1.00800           0
     79515 TIP3     19023    TIP3     H2       HT       0.417000       1.00800           0
     79516 TIP3     19024    TIP3     OH2      OT      -0.834000       15.9994           0
     79517 TIP3     19024    TIP3     H1       HT       0.417000       1.00800           0
     79518 TIP3     19024    TIP3     H2       HT       0.417000       1.00800           0
     79519 TIP3     19025    TIP3     OH2      OT      -0.834000       15.9994           0
     79520 TIP3     19025    TIP3     H1       HT       0.417000       1.00800           0
     79521 TIP3     19025    TIP3     H2       HT       0.417000       1.00800           0
     79522 TIP3     19026    TIP3     OH2      OT      -0.834000       15.9994           0
     79523 TIP3     19026    TIP3     H1       HT       0.417000       1.00800           0
     79524 TIP3     19026    TIP3     H2       HT       0.417000       1.00800           0
     79525 TIP3     19027    TIP3     OH2      OT      -0.834000       15.9994           0
     79526 TIP3     19027    TIP3     H1       HT       0.417000       1.00800           0
     79527 TIP3     19027    TIP3     H2       HT       0.417000       1.00800           0
     79528 TIP3     19028    TIP3     OH2      OT      -0.834000       15.9994           0
     79529 TIP3     19028    TIP3     H1       HT       0.417000       1.00800           0
     79530 TIP3     19028    TIP3     H2       HT       0.417000       1.00800           0
     79531 TIP3     19029    TIP3     OH2      OT      -0.834000       15.9994           0
     79532 TIP3     19029    TIP3     H1       HT       0.417000       1.00800           0
     79533 TIP3     19029    TIP3     H2       HT       0.417000       1.00800           0
     79534 TIP3     19030    TIP3     OH2      OT      -0.834000       15.9994           0
     79535 TIP3     19030    TIP3     H1       HT       0.417000       1.00800           0
     79536 TIP3     19030    TIP3     H2       HT       0.417000       1.00800           0
     79537 TIP3     19031    TIP3     OH2      OT      -0.834000       15.9994           0
     79538 TIP3     19031    TIP3     H1       HT       0.417000       1.00800           0
     79539 TIP3     19031    TIP3     H2       HT       0.417000       1.00800           0
     79540 TIP3     19032    TIP3     OH2      OT      -0.834000       15.9994           0
     79541 TIP3     19032    TIP3     H1       HT       0.417000       1.00800           0
     79542 TIP3     19032    TIP3     H2       HT       0.417000       1.00800           0
     79543 TIP3     19033    TIP3     OH2      OT      -0.834000       15.9994           0
     79544 TIP3     19033    TIP3     H1       HT       0.417000       1.00800           0
     79545 TIP3     19033    TIP3     H2       HT       0.417000       1.00800           0
     79546 TIP3     19034    TIP3     OH2      OT      -0.834000       15.9994           0
     79547 TIP3     19034    TIP3     H1       HT       0.417000       1.00800           0
     79548 TIP3     19034    TIP3     H2       HT       0.417000       1.00800           0
     79549 TIP3     19035    TIP3     OH2      OT      -0.834000       15.9994           0
     79550 TIP3     19035    TIP3     H1       HT       0.417000       1.00800           0
     79551 TIP3     19035    TIP3     H2       HT       0.417000       1.00800           0
     79552 TIP3     19036    TIP3     OH2      OT      -0.834000       15.9994           0
     79553 TIP3     19036    TIP3     H1       HT       0.417000       1.00800           0
     79554 TIP3     19036    TIP3     H2       HT       0.417000       1.00800           0
     79555 TIP3     19037    TIP3     OH2      OT      -0.834000       15.9994           0
     79556 TIP3     19037    TIP3     H1       HT       0.417000       1.00800           0
     79557 TIP3     19037    TIP3     H2       HT       0.417000       1.00800           0
     79558 TIP3     19038    TIP3     OH2      OT      -0.834000       15.9994           0
     79559 TIP3     19038    TIP3     H1       HT       0.417000       1.00800           0
     79560 TIP3     19038    TIP3     H2       HT       0.417000       1.00800           0
     79561 TIP3     19039    TIP3     OH2      OT      -0.834000       15.9994           0
     79562 TIP3     19039    TIP3     H1       HT       0.417000       1.00800           0
     79563 TIP3     19039    TIP3     H2       HT       0.417000       1.00800           0
     79564 TIP3     19040    TIP3     OH2      OT      -0.834000       15.9994           0
     79565 TIP3     19040    TIP3     H1       HT       0.417000       1.00800           0
     79566 TIP3     19040    TIP3     H2       HT       0.417000       1.00800           0
     79567 TIP3     19041    TIP3     OH2      OT      -0.834000       15.9994           0
     79568 TIP3     19041    TIP3     H1       HT       0.417000       1.00800           0
     79569 TIP3     19041    TIP3     H2       HT       0.417000       1.00800           0
     79570 TIP3     19042    TIP3     OH2      OT      -0.834000       15.9994           0
     79571 TIP3     19042    TIP3     H1       HT       0.417000       1.00800           0
     79572 TIP3     19042    TIP3     H2       HT       0.417000       1.00800           0
     79573 TIP3     19043    TIP3     OH2      OT      -0.834000       15.9994           0
     79574 TIP3     19043    TIP3     H1       HT       0.417000       1.00800           0
     79575 TIP3     19043    TIP3     H2       HT       0.417000       1.00800           0
     79576 TIP3     19044    TIP3     OH2      OT      -0.834000       15.9994           0
     79577 TIP3     19044    TIP3     H1       HT       0.417000       1.00800           0
     79578 TIP3     19044    TIP3     H2       HT       0.417000       1.00800           0
     79579 TIP3     19045    TIP3     OH2      OT      -0.834000       15.9994           0
     79580 TIP3     19045    TIP3     H1       HT       0.417000       1.00800           0
     79581 TIP3     19045    TIP3     H2       HT       0.417000       1.00800           0
     79582 TIP3     19046    TIP3     OH2      OT      -0.834000       15.9994           0
     79583 TIP3     19046    TIP3     H1       HT       0.417000       1.00800           0
     79584 TIP3     19046    TIP3     H2       HT       0.417000       1.00800           0
     79585 TIP3     19047    TIP3     OH2      OT      -0.834000       15.9994           0
     79586 TIP3     19047    TIP3     H1       HT       0.417000       1.00800           0
     79587 TIP3     19047    TIP3     H2       HT       0.417000       1.00800           0
     79588 TIP3     19048    TIP3     OH2      OT      -0.834000       15.9994           0
     79589 TIP3     19048    TIP3     H1       HT       0.417000       1.00800           0
     79590 TIP3     19048    TIP3     H2       HT       0.417000       1.00800           0
     79591 TIP3     19049    TIP3     OH2      OT      -0.834000       15.9994           0
     79592 TIP3     19049    TIP3     H1       HT       0.417000       1.00800           0
     79593 TIP3     19049    TIP3     H2       HT       0.417000       1.00800           0
     79594 TIP3     19050    TIP3     OH2      OT      -0.834000       15.9994           0
     79595 TIP3     19050    TIP3     H1       HT       0.417000       1.00800           0
     79596 TIP3     19050    TIP3     H2       HT       0.417000       1.00800           0
     79597 TIP3     19051    TIP3     OH2      OT      -0.834000       15.9994           0
     79598 TIP3     19051    TIP3     H1       HT       0.417000       1.00800           0
     79599 TIP3     19051    TIP3     H2       HT       0.417000       1.00800           0
     79600 TIP3     19052    TIP3     OH2      OT      -0.834000       15.9994           0
     79601 TIP3     19052    TIP3     H1       HT       0.417000       1.00800           0
     79602 TIP3     19052    TIP3     H2       HT       0.417000       1.00800           0
     79603 TIP3     19053    TIP3     OH2      OT      -0.834000       15.9994           0
     79604 TIP3     19053    TIP3     H1       HT       0.417000       1.00800           0
     79605 TIP3     19053    TIP3     H2       HT       0.417000       1.00800           0
     79606 TIP3     19054    TIP3     OH2      OT      -0.834000       15.9994           0
     79607 TIP3     19054    TIP3     H1       HT       0.417000       1.00800           0
     79608 TIP3     19054    TIP3     H2       HT       0.417000       1.00800           0
     79609 TIP3     19055    TIP3     OH2      OT      -0.834000       15.9994           0
     79610 TIP3     19055    TIP3     H1       HT       0.417000       1.00800           0
     79611 TIP3     19055    TIP3     H2       HT       0.417000       1.00800           0
     79612 TIP3     19056    TIP3     OH2      OT      -0.834000       15.9994           0
     79613 TIP3     19056    TIP3     H1       HT       0.417000       1.00800           0
     79614 TIP3     19056    TIP3     H2       HT       0.417000       1.00800           0
     79615 TIP3     19057    TIP3     OH2      OT      -0.834000       15.9994           0
     79616 TIP3     19057    TIP3     H1       HT       0.417000       1.00800           0
     79617 TIP3     19057    TIP3     H2       HT       0.417000       1.00800           0
     79618 TIP3     19058    TIP3     OH2      OT      -0.834000       15.9994           0
     79619 TIP3     19058    TIP3     H1       HT       0.417000       1.00800           0
     79620 TIP3     19058    TIP3     H2       HT       0.417000       1.00800           0
     79621 TIP3     19059    TIP3     OH2      OT      -0.834000       15.9994           0
     79622 TIP3     19059    TIP3     H1       HT       0.417000       1.00800           0
     79623 TIP3     19059    TIP3     H2       HT       0.417000       1.00800           0
     79624 TIP3     19060    TIP3     OH2      OT      -0.834000       15.9994           0
     79625 TIP3     19060    TIP3     H1       HT       0.417000       1.00800           0
     79626 TIP3     19060    TIP3     H2       HT       0.417000       1.00800           0
     79627 TIP3     19061    TIP3     OH2      OT      -0.834000       15.9994           0
     79628 TIP3     19061    TIP3     H1       HT       0.417000       1.00800           0
     79629 TIP3     19061    TIP3     H2       HT       0.417000       1.00800           0
     79630 TIP3     19062    TIP3     OH2      OT      -0.834000       15.9994           0
     79631 TIP3     19062    TIP3     H1       HT       0.417000       1.00800           0
     79632 TIP3     19062    TIP3     H2       HT       0.417000       1.00800           0
     79633 TIP3     19063    TIP3     OH2      OT      -0.834000       15.9994           0
     79634 TIP3     19063    TIP3     H1       HT       0.417000       1.00800           0
     79635 TIP3     19063    TIP3     H2       HT       0.417000       1.00800           0
     79636 TIP3     19064    TIP3     OH2      OT      -0.834000       15.9994           0
     79637 TIP3     19064    TIP3     H1       HT       0.417000       1.00800           0
     79638 TIP3     19064    TIP3     H2       HT       0.417000       1.00800           0
     79639 TIP3     19065    TIP3     OH2      OT      -0.834000       15.9994           0
     79640 TIP3     19065    TIP3     H1       HT       0.417000       1.00800           0
     79641 TIP3     19065    TIP3     H2       HT       0.417000       1.00800           0
     79642 TIP3     19066    TIP3     OH2      OT      -0.834000       15.9994           0
     79643 TIP3     19066    TIP3     H1       HT       0.417000       1.00800           0
     79644 TIP3     19066    TIP3     H2       HT       0.417000       1.00800           0
     79645 TIP3     19067    TIP3     OH2      OT      -0.834000       15.9994           0
     79646 TIP3     19067    TIP3     H1       HT       0.417000       1.00800           0
     79647 TIP3     19067    TIP3     H2       HT       0.417000       1.00800           0
     79648 TIP3     19068    TIP3     OH2      OT      -0.834000       15.9994           0
     79649 TIP3     19068    TIP3     H1       HT       0.417000       1.00800           0
     79650 TIP3     19068    TIP3     H2       HT       0.417000       1.00800           0
     79651 TIP3     19069    TIP3     OH2      OT      -0.834000       15.9994           0
     79652 TIP3     19069    TIP3     H1       HT       0.417000       1.00800           0
     79653 TIP3     19069    TIP3     H2       HT       0.417000       1.00800           0
     79654 TIP3     19070    TIP3     OH2      OT      -0.834000       15.9994           0
     79655 TIP3     19070    TIP3     H1       HT       0.417000       1.00800           0
     79656 TIP3     19070    TIP3     H2       HT       0.417000       1.00800           0
     79657 TIP3     19071    TIP3     OH2      OT      -0.834000       15.9994           0
     79658 TIP3     19071    TIP3     H1       HT       0.417000       1.00800           0
     79659 TIP3     19071    TIP3     H2       HT       0.417000       1.00800           0
     79660 TIP3     19072    TIP3     OH2      OT      -0.834000       15.9994           0
     79661 TIP3     19072    TIP3     H1       HT       0.417000       1.00800           0
     79662 TIP3     19072    TIP3     H2       HT       0.417000       1.00800           0
     79663 TIP3     19073    TIP3     OH2      OT      -0.834000       15.9994           0
     79664 TIP3     19073    TIP3     H1       HT       0.417000       1.00800           0
     79665 TIP3     19073    TIP3     H2       HT       0.417000       1.00800           0
     79666 TIP3     19074    TIP3     OH2      OT      -0.834000       15.9994           0
     79667 TIP3     19074    TIP3     H1       HT       0.417000       1.00800           0
     79668 TIP3     19074    TIP3     H2       HT       0.417000       1.00800           0
     79669 TIP3     19075    TIP3     OH2      OT      -0.834000       15.9994           0
     79670 TIP3     19075    TIP3     H1       HT       0.417000       1.00800           0
     79671 TIP3     19075    TIP3     H2       HT       0.417000       1.00800           0
     79672 TIP3     19076    TIP3     OH2      OT      -0.834000       15.9994           0
     79673 TIP3     19076    TIP3     H1       HT       0.417000       1.00800           0
     79674 TIP3     19076    TIP3     H2       HT       0.417000       1.00800           0
     79675 TIP3     19077    TIP3     OH2      OT      -0.834000       15.9994           0
     79676 TIP3     19077    TIP3     H1       HT       0.417000       1.00800           0
     79677 TIP3     19077    TIP3     H2       HT       0.417000       1.00800           0
     79678 TIP3     19078    TIP3     OH2      OT      -0.834000       15.9994           0
     79679 TIP3     19078    TIP3     H1       HT       0.417000       1.00800           0
     79680 TIP3     19078    TIP3     H2       HT       0.417000       1.00800           0
     79681 TIP3     19079    TIP3     OH2      OT      -0.834000       15.9994           0
     79682 TIP3     19079    TIP3     H1       HT       0.417000       1.00800           0
     79683 TIP3     19079    TIP3     H2       HT       0.417000       1.00800           0
     79684 TIP3     19080    TIP3     OH2      OT      -0.834000       15.9994           0
     79685 TIP3     19080    TIP3     H1       HT       0.417000       1.00800           0
     79686 TIP3     19080    TIP3     H2       HT       0.417000       1.00800           0
     79687 TIP3     19081    TIP3     OH2      OT      -0.834000       15.9994           0
     79688 TIP3     19081    TIP3     H1       HT       0.417000       1.00800           0
     79689 TIP3     19081    TIP3     H2       HT       0.417000       1.00800           0
     79690 TIP3     19082    TIP3     OH2      OT      -0.834000       15.9994           0
     79691 TIP3     19082    TIP3     H1       HT       0.417000       1.00800           0
     79692 TIP3     19082    TIP3     H2       HT       0.417000       1.00800           0
     79693 TIP3     19083    TIP3     OH2      OT      -0.834000       15.9994           0
     79694 TIP3     19083    TIP3     H1       HT       0.417000       1.00800           0
     79695 TIP3     19083    TIP3     H2       HT       0.417000       1.00800           0
     79696 TIP3     19084    TIP3     OH2      OT      -0.834000       15.9994           0
     79697 TIP3     19084    TIP3     H1       HT       0.417000       1.00800           0
     79698 TIP3     19084    TIP3     H2       HT       0.417000       1.00800           0
     79699 TIP3     19085    TIP3     OH2      OT      -0.834000       15.9994           0
     79700 TIP3     19085    TIP3     H1       HT       0.417000       1.00800           0
     79701 TIP3     19085    TIP3     H2       HT       0.417000       1.00800           0
     79702 TIP3     19086    TIP3     OH2      OT      -0.834000       15.9994           0
     79703 TIP3     19086    TIP3     H1       HT       0.417000       1.00800           0
     79704 TIP3     19086    TIP3     H2       HT       0.417000       1.00800           0
     79705 TIP3     19087    TIP3     OH2      OT      -0.834000       15.9994           0
     79706 TIP3     19087    TIP3     H1       HT       0.417000       1.00800           0
     79707 TIP3     19087    TIP3     H2       HT       0.417000       1.00800           0
     79708 TIP3     19088    TIP3     OH2      OT      -0.834000       15.9994           0
     79709 TIP3     19088    TIP3     H1       HT       0.417000       1.00800           0
     79710 TIP3     19088    TIP3     H2       HT       0.417000       1.00800           0
     79711 TIP3     19089    TIP3     OH2      OT      -0.834000       15.9994           0
     79712 TIP3     19089    TIP3     H1       HT       0.417000       1.00800           0
     79713 TIP3     19089    TIP3     H2       HT       0.417000       1.00800           0
     79714 TIP3     19090    TIP3     OH2      OT      -0.834000       15.9994           0
     79715 TIP3     19090    TIP3     H1       HT       0.417000       1.00800           0
     79716 TIP3     19090    TIP3     H2       HT       0.417000       1.00800           0
     79717 TIP3     19091    TIP3     OH2      OT      -0.834000       15.9994           0
     79718 TIP3     19091    TIP3     H1       HT       0.417000       1.00800           0
     79719 TIP3     19091    TIP3     H2       HT       0.417000       1.00800           0
     79720 TIP3     19092    TIP3     OH2      OT      -0.834000       15.9994           0
     79721 TIP3     19092    TIP3     H1       HT       0.417000       1.00800           0
     79722 TIP3     19092    TIP3     H2       HT       0.417000       1.00800           0
     79723 TIP3     19093    TIP3     OH2      OT      -0.834000       15.9994           0
     79724 TIP3     19093    TIP3     H1       HT       0.417000       1.00800           0
     79725 TIP3     19093    TIP3     H2       HT       0.417000       1.00800           0
     79726 TIP3     19094    TIP3     OH2      OT      -0.834000       15.9994           0
     79727 TIP3     19094    TIP3     H1       HT       0.417000       1.00800           0
     79728 TIP3     19094    TIP3     H2       HT       0.417000       1.00800           0
     79729 TIP3     19095    TIP3     OH2      OT      -0.834000       15.9994           0
     79730 TIP3     19095    TIP3     H1       HT       0.417000       1.00800           0
     79731 TIP3     19095    TIP3     H2       HT       0.417000       1.00800           0
     79732 TIP3     19096    TIP3     OH2      OT      -0.834000       15.9994           0
     79733 TIP3     19096    TIP3     H1       HT       0.417000       1.00800           0
     79734 TIP3     19096    TIP3     H2       HT       0.417000       1.00800           0
     79735 TIP3     19097    TIP3     OH2      OT      -0.834000       15.9994           0
     79736 TIP3     19097    TIP3     H1       HT       0.417000       1.00800           0
     79737 TIP3     19097    TIP3     H2       HT       0.417000       1.00800           0
     79738 TIP3     19098    TIP3     OH2      OT      -0.834000       15.9994           0
     79739 TIP3     19098    TIP3     H1       HT       0.417000       1.00800           0
     79740 TIP3     19098    TIP3     H2       HT       0.417000       1.00800           0
     79741 TIP3     19099    TIP3     OH2      OT      -0.834000       15.9994           0
     79742 TIP3     19099    TIP3     H1       HT       0.417000       1.00800           0
     79743 TIP3     19099    TIP3     H2       HT       0.417000       1.00800           0
     79744 TIP3     19100    TIP3     OH2      OT      -0.834000       15.9994           0
     79745 TIP3     19100    TIP3     H1       HT       0.417000       1.00800           0
     79746 TIP3     19100    TIP3     H2       HT       0.417000       1.00800           0
     79747 TIP3     19101    TIP3     OH2      OT      -0.834000       15.9994           0
     79748 TIP3     19101    TIP3     H1       HT       0.417000       1.00800           0
     79749 TIP3     19101    TIP3     H2       HT       0.417000       1.00800           0
     79750 TIP3     19102    TIP3     OH2      OT      -0.834000       15.9994           0
     79751 TIP3     19102    TIP3     H1       HT       0.417000       1.00800           0
     79752 TIP3     19102    TIP3     H2       HT       0.417000       1.00800           0
     79753 TIP3     19103    TIP3     OH2      OT      -0.834000       15.9994           0
     79754 TIP3     19103    TIP3     H1       HT       0.417000       1.00800           0
     79755 TIP3     19103    TIP3     H2       HT       0.417000       1.00800           0
     79756 TIP3     19104    TIP3     OH2      OT      -0.834000       15.9994           0
     79757 TIP3     19104    TIP3     H1       HT       0.417000       1.00800           0
     79758 TIP3     19104    TIP3     H2       HT       0.417000       1.00800           0
     79759 TIP3     19105    TIP3     OH2      OT      -0.834000       15.9994           0
     79760 TIP3     19105    TIP3     H1       HT       0.417000       1.00800           0
     79761 TIP3     19105    TIP3     H2       HT       0.417000       1.00800           0
     79762 TIP3     19106    TIP3     OH2      OT      -0.834000       15.9994           0
     79763 TIP3     19106    TIP3     H1       HT       0.417000       1.00800           0
     79764 TIP3     19106    TIP3     H2       HT       0.417000       1.00800           0
     79765 TIP3     19107    TIP3     OH2      OT      -0.834000       15.9994           0
     79766 TIP3     19107    TIP3     H1       HT       0.417000       1.00800           0
     79767 TIP3     19107    TIP3     H2       HT       0.417000       1.00800           0
     79768 TIP3     19108    TIP3     OH2      OT      -0.834000       15.9994           0
     79769 TIP3     19108    TIP3     H1       HT       0.417000       1.00800           0
     79770 TIP3     19108    TIP3     H2       HT       0.417000       1.00800           0
     79771 TIP3     19109    TIP3     OH2      OT      -0.834000       15.9994           0
     79772 TIP3     19109    TIP3     H1       HT       0.417000       1.00800           0
     79773 TIP3     19109    TIP3     H2       HT       0.417000       1.00800           0
     79774 TIP3     19110    TIP3     OH2      OT      -0.834000       15.9994           0
     79775 TIP3     19110    TIP3     H1       HT       0.417000       1.00800           0
     79776 TIP3     19110    TIP3     H2       HT       0.417000       1.00800           0
     79777 TIP3     19111    TIP3     OH2      OT      -0.834000       15.9994           0
     79778 TIP3     19111    TIP3     H1       HT       0.417000       1.00800           0
     79779 TIP3     19111    TIP3     H2       HT       0.417000       1.00800           0
     79780 TIP3     19112    TIP3     OH2      OT      -0.834000       15.9994           0
     79781 TIP3     19112    TIP3     H1       HT       0.417000       1.00800           0
     79782 TIP3     19112    TIP3     H2       HT       0.417000       1.00800           0
     79783 TIP3     19113    TIP3     OH2      OT      -0.834000       15.9994           0
     79784 TIP3     19113    TIP3     H1       HT       0.417000       1.00800           0
     79785 TIP3     19113    TIP3     H2       HT       0.417000       1.00800           0
     79786 TIP3     19114    TIP3     OH2      OT      -0.834000       15.9994           0
     79787 TIP3     19114    TIP3     H1       HT       0.417000       1.00800           0
     79788 TIP3     19114    TIP3     H2       HT       0.417000       1.00800           0
     79789 TIP3     19115    TIP3     OH2      OT      -0.834000       15.9994           0
     79790 TIP3     19115    TIP3     H1       HT       0.417000       1.00800           0
     79791 TIP3     19115    TIP3     H2       HT       0.417000       1.00800           0
     79792 TIP3     19116    TIP3     OH2      OT      -0.834000       15.9994           0
     79793 TIP3     19116    TIP3     H1       HT       0.417000       1.00800           0
     79794 TIP3     19116    TIP3     H2       HT       0.417000       1.00800           0
     79795 TIP3     19117    TIP3     OH2      OT      -0.834000       15.9994           0
     79796 TIP3     19117    TIP3     H1       HT       0.417000       1.00800           0
     79797 TIP3     19117    TIP3     H2       HT       0.417000       1.00800           0
     79798 TIP3     19118    TIP3     OH2      OT      -0.834000       15.9994           0
     79799 TIP3     19118    TIP3     H1       HT       0.417000       1.00800           0
     79800 TIP3     19118    TIP3     H2       HT       0.417000       1.00800           0
     79801 TIP3     19119    TIP3     OH2      OT      -0.834000       15.9994           0
     79802 TIP3     19119    TIP3     H1       HT       0.417000       1.00800           0
     79803 TIP3     19119    TIP3     H2       HT       0.417000       1.00800           0
     79804 TIP3     19120    TIP3     OH2      OT      -0.834000       15.9994           0
     79805 TIP3     19120    TIP3     H1       HT       0.417000       1.00800           0
     79806 TIP3     19120    TIP3     H2       HT       0.417000       1.00800           0
     79807 TIP3     19121    TIP3     OH2      OT      -0.834000       15.9994           0
     79808 TIP3     19121    TIP3     H1       HT       0.417000       1.00800           0
     79809 TIP3     19121    TIP3     H2       HT       0.417000       1.00800           0
     79810 TIP3     19122    TIP3     OH2      OT      -0.834000       15.9994           0
     79811 TIP3     19122    TIP3     H1       HT       0.417000       1.00800           0
     79812 TIP3     19122    TIP3     H2       HT       0.417000       1.00800           0
     79813 TIP3     19123    TIP3     OH2      OT      -0.834000       15.9994           0
     79814 TIP3     19123    TIP3     H1       HT       0.417000       1.00800           0
     79815 TIP3     19123    TIP3     H2       HT       0.417000       1.00800           0
     79816 TIP3     19124    TIP3     OH2      OT      -0.834000       15.9994           0
     79817 TIP3     19124    TIP3     H1       HT       0.417000       1.00800           0
     79818 TIP3     19124    TIP3     H2       HT       0.417000       1.00800           0
     79819 TIP3     19125    TIP3     OH2      OT      -0.834000       15.9994           0
     79820 TIP3     19125    TIP3     H1       HT       0.417000       1.00800           0
     79821 TIP3     19125    TIP3     H2       HT       0.417000       1.00800           0
     79822 TIP3     19126    TIP3     OH2      OT      -0.834000       15.9994           0
     79823 TIP3     19126    TIP3     H1       HT       0.417000       1.00800           0
     79824 TIP3     19126    TIP3     H2       HT       0.417000       1.00800           0
     79825 TIP3     19127    TIP3     OH2      OT      -0.834000       15.9994           0
     79826 TIP3     19127    TIP3     H1       HT       0.417000       1.00800           0
     79827 TIP3     19127    TIP3     H2       HT       0.417000       1.00800           0
     79828 TIP3     19128    TIP3     OH2      OT      -0.834000       15.9994           0
     79829 TIP3     19128    TIP3     H1       HT       0.417000       1.00800           0
     79830 TIP3     19128    TIP3     H2       HT       0.417000       1.00800           0
     79831 TIP3     19129    TIP3     OH2      OT      -0.834000       15.9994           0
     79832 TIP3     19129    TIP3     H1       HT       0.417000       1.00800           0
     79833 TIP3     19129    TIP3     H2       HT       0.417000       1.00800           0
     79834 TIP3     19130    TIP3     OH2      OT      -0.834000       15.9994           0
     79835 TIP3     19130    TIP3     H1       HT       0.417000       1.00800           0
     79836 TIP3     19130    TIP3     H2       HT       0.417000       1.00800           0
     79837 TIP3     19131    TIP3     OH2      OT      -0.834000       15.9994           0
     79838 TIP3     19131    TIP3     H1       HT       0.417000       1.00800           0
     79839 TIP3     19131    TIP3     H2       HT       0.417000       1.00800           0
     79840 TIP3     19132    TIP3     OH2      OT      -0.834000       15.9994           0
     79841 TIP3     19132    TIP3     H1       HT       0.417000       1.00800           0
     79842 TIP3     19132    TIP3     H2       HT       0.417000       1.00800           0
     79843 TIP3     19133    TIP3     OH2      OT      -0.834000       15.9994           0
     79844 TIP3     19133    TIP3     H1       HT       0.417000       1.00800           0
     79845 TIP3     19133    TIP3     H2       HT       0.417000       1.00800           0
     79846 TIP3     19134    TIP3     OH2      OT      -0.834000       15.9994           0
     79847 TIP3     19134    TIP3     H1       HT       0.417000       1.00800           0
     79848 TIP3     19134    TIP3     H2       HT       0.417000       1.00800           0
     79849 TIP3     19135    TIP3     OH2      OT      -0.834000       15.9994           0
     79850 TIP3     19135    TIP3     H1       HT       0.417000       1.00800           0
     79851 TIP3     19135    TIP3     H2       HT       0.417000       1.00800           0
     79852 TIP3     19136    TIP3     OH2      OT      -0.834000       15.9994           0
     79853 TIP3     19136    TIP3     H1       HT       0.417000       1.00800           0
     79854 TIP3     19136    TIP3     H2       HT       0.417000       1.00800           0
     79855 TIP3     19137    TIP3     OH2      OT      -0.834000       15.9994           0
     79856 TIP3     19137    TIP3     H1       HT       0.417000       1.00800           0
     79857 TIP3     19137    TIP3     H2       HT       0.417000       1.00800           0
     79858 TIP3     19138    TIP3     OH2      OT      -0.834000       15.9994           0
     79859 TIP3     19138    TIP3     H1       HT       0.417000       1.00800           0
     79860 TIP3     19138    TIP3     H2       HT       0.417000       1.00800           0
     79861 TIP3     19139    TIP3     OH2      OT      -0.834000       15.9994           0
     79862 TIP3     19139    TIP3     H1       HT       0.417000       1.00800           0
     79863 TIP3     19139    TIP3     H2       HT       0.417000       1.00800           0
     79864 TIP3     19140    TIP3     OH2      OT      -0.834000       15.9994           0
     79865 TIP3     19140    TIP3     H1       HT       0.417000       1.00800           0
     79866 TIP3     19140    TIP3     H2       HT       0.417000       1.00800           0
     79867 TIP3     19141    TIP3     OH2      OT      -0.834000       15.9994           0
     79868 TIP3     19141    TIP3     H1       HT       0.417000       1.00800           0
     79869 TIP3     19141    TIP3     H2       HT       0.417000       1.00800           0
     79870 TIP3     19142    TIP3     OH2      OT      -0.834000       15.9994           0
     79871 TIP3     19142    TIP3     H1       HT       0.417000       1.00800           0
     79872 TIP3     19142    TIP3     H2       HT       0.417000       1.00800           0
     79873 TIP3     19143    TIP3     OH2      OT      -0.834000       15.9994           0
     79874 TIP3     19143    TIP3     H1       HT       0.417000       1.00800           0
     79875 TIP3     19143    TIP3     H2       HT       0.417000       1.00800           0
     79876 TIP3     19144    TIP3     OH2      OT      -0.834000       15.9994           0
     79877 TIP3     19144    TIP3     H1       HT       0.417000       1.00800           0
     79878 TIP3     19144    TIP3     H2       HT       0.417000       1.00800           0
     79879 TIP3     19145    TIP3     OH2      OT      -0.834000       15.9994           0
     79880 TIP3     19145    TIP3     H1       HT       0.417000       1.00800           0
     79881 TIP3     19145    TIP3     H2       HT       0.417000       1.00800           0
     79882 TIP3     19146    TIP3     OH2      OT      -0.834000       15.9994           0
     79883 TIP3     19146    TIP3     H1       HT       0.417000       1.00800           0
     79884 TIP3     19146    TIP3     H2       HT       0.417000       1.00800           0
     79885 TIP3     19147    TIP3     OH2      OT      -0.834000       15.9994           0
     79886 TIP3     19147    TIP3     H1       HT       0.417000       1.00800           0
     79887 TIP3     19147    TIP3     H2       HT       0.417000       1.00800           0
     79888 TIP3     19148    TIP3     OH2      OT      -0.834000       15.9994           0
     79889 TIP3     19148    TIP3     H1       HT       0.417000       1.00800           0
     79890 TIP3     19148    TIP3     H2       HT       0.417000       1.00800           0
     79891 TIP3     19149    TIP3     OH2      OT      -0.834000       15.9994           0
     79892 TIP3     19149    TIP3     H1       HT       0.417000       1.00800           0
     79893 TIP3     19149    TIP3     H2       HT       0.417000       1.00800           0
     79894 TIP3     19150    TIP3     OH2      OT      -0.834000       15.9994           0
     79895 TIP3     19150    TIP3     H1       HT       0.417000       1.00800           0
     79896 TIP3     19150    TIP3     H2       HT       0.417000       1.00800           0
     79897 TIP3     19151    TIP3     OH2      OT      -0.834000       15.9994           0
     79898 TIP3     19151    TIP3     H1       HT       0.417000       1.00800           0
     79899 TIP3     19151    TIP3     H2       HT       0.417000       1.00800           0
     79900 TIP3     19152    TIP3     OH2      OT      -0.834000       15.9994           0
     79901 TIP3     19152    TIP3     H1       HT       0.417000       1.00800           0
     79902 TIP3     19152    TIP3     H2       HT       0.417000       1.00800           0
     79903 TIP3     19153    TIP3     OH2      OT      -0.834000       15.9994           0
     79904 TIP3     19153    TIP3     H1       HT       0.417000       1.00800           0
     79905 TIP3     19153    TIP3     H2       HT       0.417000       1.00800           0
     79906 TIP3     19154    TIP3     OH2      OT      -0.834000       15.9994           0
     79907 TIP3     19154    TIP3     H1       HT       0.417000       1.00800           0
     79908 TIP3     19154    TIP3     H2       HT       0.417000       1.00800           0
     79909 TIP3     19155    TIP3     OH2      OT      -0.834000       15.9994           0
     79910 TIP3     19155    TIP3     H1       HT       0.417000       1.00800           0
     79911 TIP3     19155    TIP3     H2       HT       0.417000       1.00800           0
     79912 TIP3     19156    TIP3     OH2      OT      -0.834000       15.9994           0
     79913 TIP3     19156    TIP3     H1       HT       0.417000       1.00800           0
     79914 TIP3     19156    TIP3     H2       HT       0.417000       1.00800           0
     79915 TIP3     19157    TIP3     OH2      OT      -0.834000       15.9994           0
     79916 TIP3     19157    TIP3     H1       HT       0.417000       1.00800           0
     79917 TIP3     19157    TIP3     H2       HT       0.417000       1.00800           0
     79918 TIP3     19158    TIP3     OH2      OT      -0.834000       15.9994           0
     79919 TIP3     19158    TIP3     H1       HT       0.417000       1.00800           0
     79920 TIP3     19158    TIP3     H2       HT       0.417000       1.00800           0
     79921 TIP3     19159    TIP3     OH2      OT      -0.834000       15.9994           0
     79922 TIP3     19159    TIP3     H1       HT       0.417000       1.00800           0
     79923 TIP3     19159    TIP3     H2       HT       0.417000       1.00800           0
     79924 TIP3     19160    TIP3     OH2      OT      -0.834000       15.9994           0
     79925 TIP3     19160    TIP3     H1       HT       0.417000       1.00800           0
     79926 TIP3     19160    TIP3     H2       HT       0.417000       1.00800           0
     79927 TIP3     19161    TIP3     OH2      OT      -0.834000       15.9994           0
     79928 TIP3     19161    TIP3     H1       HT       0.417000       1.00800           0
     79929 TIP3     19161    TIP3     H2       HT       0.417000       1.00800           0
     79930 TIP3     19162    TIP3     OH2      OT      -0.834000       15.9994           0
     79931 TIP3     19162    TIP3     H1       HT       0.417000       1.00800           0
     79932 TIP3     19162    TIP3     H2       HT       0.417000       1.00800           0
     79933 TIP3     19163    TIP3     OH2      OT      -0.834000       15.9994           0
     79934 TIP3     19163    TIP3     H1       HT       0.417000       1.00800           0
     79935 TIP3     19163    TIP3     H2       HT       0.417000       1.00800           0
     79936 TIP3     19164    TIP3     OH2      OT      -0.834000       15.9994           0
     79937 TIP3     19164    TIP3     H1       HT       0.417000       1.00800           0
     79938 TIP3     19164    TIP3     H2       HT       0.417000       1.00800           0
     79939 TIP3     19165    TIP3     OH2      OT      -0.834000       15.9994           0
     79940 TIP3     19165    TIP3     H1       HT       0.417000       1.00800           0
     79941 TIP3     19165    TIP3     H2       HT       0.417000       1.00800           0
     79942 TIP3     19166    TIP3     OH2      OT      -0.834000       15.9994           0
     79943 TIP3     19166    TIP3     H1       HT       0.417000       1.00800           0
     79944 TIP3     19166    TIP3     H2       HT       0.417000       1.00800           0
     79945 TIP3     19167    TIP3     OH2      OT      -0.834000       15.9994           0
     79946 TIP3     19167    TIP3     H1       HT       0.417000       1.00800           0
     79947 TIP3     19167    TIP3     H2       HT       0.417000       1.00800           0
     79948 TIP3     19168    TIP3     OH2      OT      -0.834000       15.9994           0
     79949 TIP3     19168    TIP3     H1       HT       0.417000       1.00800           0
     79950 TIP3     19168    TIP3     H2       HT       0.417000       1.00800           0
     79951 TIP3     19169    TIP3     OH2      OT      -0.834000       15.9994           0
     79952 TIP3     19169    TIP3     H1       HT       0.417000       1.00800           0
     79953 TIP3     19169    TIP3     H2       HT       0.417000       1.00800           0
     79954 TIP3     19170    TIP3     OH2      OT      -0.834000       15.9994           0
     79955 TIP3     19170    TIP3     H1       HT       0.417000       1.00800           0
     79956 TIP3     19170    TIP3     H2       HT       0.417000       1.00800           0
     79957 TIP3     19171    TIP3     OH2      OT      -0.834000       15.9994           0
     79958 TIP3     19171    TIP3     H1       HT       0.417000       1.00800           0
     79959 TIP3     19171    TIP3     H2       HT       0.417000       1.00800           0
     79960 TIP3     19172    TIP3     OH2      OT      -0.834000       15.9994           0
     79961 TIP3     19172    TIP3     H1       HT       0.417000       1.00800           0
     79962 TIP3     19172    TIP3     H2       HT       0.417000       1.00800           0
     79963 TIP3     19173    TIP3     OH2      OT      -0.834000       15.9994           0
     79964 TIP3     19173    TIP3     H1       HT       0.417000       1.00800           0
     79965 TIP3     19173    TIP3     H2       HT       0.417000       1.00800           0
     79966 TIP3     19174    TIP3     OH2      OT      -0.834000       15.9994           0
     79967 TIP3     19174    TIP3     H1       HT       0.417000       1.00800           0
     79968 TIP3     19174    TIP3     H2       HT       0.417000       1.00800           0
     79969 TIP3     19175    TIP3     OH2      OT      -0.834000       15.9994           0
     79970 TIP3     19175    TIP3     H1       HT       0.417000       1.00800           0
     79971 TIP3     19175    TIP3     H2       HT       0.417000       1.00800           0
     79972 TIP3     19176    TIP3     OH2      OT      -0.834000       15.9994           0
     79973 TIP3     19176    TIP3     H1       HT       0.417000       1.00800           0
     79974 TIP3     19176    TIP3     H2       HT       0.417000       1.00800           0
     79975 TIP3     19177    TIP3     OH2      OT      -0.834000       15.9994           0
     79976 TIP3     19177    TIP3     H1       HT       0.417000       1.00800           0
     79977 TIP3     19177    TIP3     H2       HT       0.417000       1.00800           0
     79978 TIP3     19178    TIP3     OH2      OT      -0.834000       15.9994           0
     79979 TIP3     19178    TIP3     H1       HT       0.417000       1.00800           0
     79980 TIP3     19178    TIP3     H2       HT       0.417000       1.00800           0
     79981 TIP3     19179    TIP3     OH2      OT      -0.834000       15.9994           0
     79982 TIP3     19179    TIP3     H1       HT       0.417000       1.00800           0
     79983 TIP3     19179    TIP3     H2       HT       0.417000       1.00800           0
     79984 TIP3     19180    TIP3     OH2      OT      -0.834000       15.9994           0
     79985 TIP3     19180    TIP3     H1       HT       0.417000       1.00800           0
     79986 TIP3     19180    TIP3     H2       HT       0.417000       1.00800           0
     79987 TIP3     19181    TIP3     OH2      OT      -0.834000       15.9994           0
     79988 TIP3     19181    TIP3     H1       HT       0.417000       1.00800           0
     79989 TIP3     19181    TIP3     H2       HT       0.417000       1.00800           0
     79990 TIP3     19182    TIP3     OH2      OT      -0.834000       15.9994           0
     79991 TIP3     19182    TIP3     H1       HT       0.417000       1.00800           0
     79992 TIP3     19182    TIP3     H2       HT       0.417000       1.00800           0
     79993 TIP3     19183    TIP3     OH2      OT      -0.834000       15.9994           0
     79994 TIP3     19183    TIP3     H1       HT       0.417000       1.00800           0
     79995 TIP3     19183    TIP3     H2       HT       0.417000       1.00800           0
     79996 TIP3     19184    TIP3     OH2      OT      -0.834000       15.9994           0
     79997 TIP3     19184    TIP3     H1       HT       0.417000       1.00800           0
     79998 TIP3     19184    TIP3     H2       HT       0.417000       1.00800           0
     79999 TIP3     19185    TIP3     OH2      OT      -0.834000       15.9994           0
     80000 TIP3     19185    TIP3     H1       HT       0.417000       1.00800           0
     80001 TIP3     19185    TIP3     H2       HT       0.417000       1.00800           0
     80002 TIP3     19186    TIP3     OH2      OT      -0.834000       15.9994           0
     80003 TIP3     19186    TIP3     H1       HT       0.417000       1.00800           0
     80004 TIP3     19186    TIP3     H2       HT       0.417000       1.00800           0
     80005 TIP3     19187    TIP3     OH2      OT      -0.834000       15.9994           0
     80006 TIP3     19187    TIP3     H1       HT       0.417000       1.00800           0
     80007 TIP3     19187    TIP3     H2       HT       0.417000       1.00800           0
     80008 TIP3     19188    TIP3     OH2      OT      -0.834000       15.9994           0
     80009 TIP3     19188    TIP3     H1       HT       0.417000       1.00800           0
     80010 TIP3     19188    TIP3     H2       HT       0.417000       1.00800           0
     80011 TIP3     19189    TIP3     OH2      OT      -0.834000       15.9994           0
     80012 TIP3     19189    TIP3     H1       HT       0.417000       1.00800           0
     80013 TIP3     19189    TIP3     H2       HT       0.417000       1.00800           0
     80014 TIP3     19190    TIP3     OH2      OT      -0.834000       15.9994           0
     80015 TIP3     19190    TIP3     H1       HT       0.417000       1.00800           0
     80016 TIP3     19190    TIP3     H2       HT       0.417000       1.00800           0
     80017 TIP3     19191    TIP3     OH2      OT      -0.834000       15.9994           0
     80018 TIP3     19191    TIP3     H1       HT       0.417000       1.00800           0
     80019 TIP3     19191    TIP3     H2       HT       0.417000       1.00800           0
     80020 TIP3     19192    TIP3     OH2      OT      -0.834000       15.9994           0
     80021 TIP3     19192    TIP3     H1       HT       0.417000       1.00800           0
     80022 TIP3     19192    TIP3     H2       HT       0.417000       1.00800           0
     80023 TIP3     19193    TIP3     OH2      OT      -0.834000       15.9994           0
     80024 TIP3     19193    TIP3     H1       HT       0.417000       1.00800           0
     80025 TIP3     19193    TIP3     H2       HT       0.417000       1.00800           0
     80026 TIP3     19194    TIP3     OH2      OT      -0.834000       15.9994           0
     80027 TIP3     19194    TIP3     H1       HT       0.417000       1.00800           0
     80028 TIP3     19194    TIP3     H2       HT       0.417000       1.00800           0
     80029 TIP3     19195    TIP3     OH2      OT      -0.834000       15.9994           0
     80030 TIP3     19195    TIP3     H1       HT       0.417000       1.00800           0
     80031 TIP3     19195    TIP3     H2       HT       0.417000       1.00800           0
     80032 TIP3     19196    TIP3     OH2      OT      -0.834000       15.9994           0
     80033 TIP3     19196    TIP3     H1       HT       0.417000       1.00800           0
     80034 TIP3     19196    TIP3     H2       HT       0.417000       1.00800           0
     80035 TIP3     19197    TIP3     OH2      OT      -0.834000       15.9994           0
     80036 TIP3     19197    TIP3     H1       HT       0.417000       1.00800           0
     80037 TIP3     19197    TIP3     H2       HT       0.417000       1.00800           0
     80038 TIP3     19198    TIP3     OH2      OT      -0.834000       15.9994           0
     80039 TIP3     19198    TIP3     H1       HT       0.417000       1.00800           0
     80040 TIP3     19198    TIP3     H2       HT       0.417000       1.00800           0
     80041 TIP3     19199    TIP3     OH2      OT      -0.834000       15.9994           0
     80042 TIP3     19199    TIP3     H1       HT       0.417000       1.00800           0
     80043 TIP3     19199    TIP3     H2       HT       0.417000       1.00800           0
     80044 TIP3     19200    TIP3     OH2      OT      -0.834000       15.9994           0
     80045 TIP3     19200    TIP3     H1       HT       0.417000       1.00800           0
     80046 TIP3     19200    TIP3     H2       HT       0.417000       1.00800           0
     80047 TIP3     19201    TIP3     OH2      OT      -0.834000       15.9994           0
     80048 TIP3     19201    TIP3     H1       HT       0.417000       1.00800           0
     80049 TIP3     19201    TIP3     H2       HT       0.417000       1.00800           0
     80050 TIP3     19202    TIP3     OH2      OT      -0.834000       15.9994           0
     80051 TIP3     19202    TIP3     H1       HT       0.417000       1.00800           0
     80052 TIP3     19202    TIP3     H2       HT       0.417000       1.00800           0
     80053 TIP3     19203    TIP3     OH2      OT      -0.834000       15.9994           0
     80054 TIP3     19203    TIP3     H1       HT       0.417000       1.00800           0
     80055 TIP3     19203    TIP3     H2       HT       0.417000       1.00800           0
     80056 TIP3     19204    TIP3     OH2      OT      -0.834000       15.9994           0
     80057 TIP3     19204    TIP3     H1       HT       0.417000       1.00800           0
     80058 TIP3     19204    TIP3     H2       HT       0.417000       1.00800           0
     80059 TIP3     19205    TIP3     OH2      OT      -0.834000       15.9994           0
     80060 TIP3     19205    TIP3     H1       HT       0.417000       1.00800           0
     80061 TIP3     19205    TIP3     H2       HT       0.417000       1.00800           0
     80062 TIP3     19206    TIP3     OH2      OT      -0.834000       15.9994           0
     80063 TIP3     19206    TIP3     H1       HT       0.417000       1.00800           0
     80064 TIP3     19206    TIP3     H2       HT       0.417000       1.00800           0
     80065 TIP3     19207    TIP3     OH2      OT      -0.834000       15.9994           0
     80066 TIP3     19207    TIP3     H1       HT       0.417000       1.00800           0
     80067 TIP3     19207    TIP3     H2       HT       0.417000       1.00800           0
     80068 TIP3     19208    TIP3     OH2      OT      -0.834000       15.9994           0
     80069 TIP3     19208    TIP3     H1       HT       0.417000       1.00800           0
     80070 TIP3     19208    TIP3     H2       HT       0.417000       1.00800           0
     80071 TIP3     19209    TIP3     OH2      OT      -0.834000       15.9994           0
     80072 TIP3     19209    TIP3     H1       HT       0.417000       1.00800           0
     80073 TIP3     19209    TIP3     H2       HT       0.417000       1.00800           0
     80074 TIP3     19210    TIP3     OH2      OT      -0.834000       15.9994           0
     80075 TIP3     19210    TIP3     H1       HT       0.417000       1.00800           0
     80076 TIP3     19210    TIP3     H2       HT       0.417000       1.00800           0
     80077 TIP3     19211    TIP3     OH2      OT      -0.834000       15.9994           0
     80078 TIP3     19211    TIP3     H1       HT       0.417000       1.00800           0
     80079 TIP3     19211    TIP3     H2       HT       0.417000       1.00800           0
     80080 TIP3     19212    TIP3     OH2      OT      -0.834000       15.9994           0
     80081 TIP3     19212    TIP3     H1       HT       0.417000       1.00800           0
     80082 TIP3     19212    TIP3     H2       HT       0.417000       1.00800           0
     80083 TIP3     19213    TIP3     OH2      OT      -0.834000       15.9994           0
     80084 TIP3     19213    TIP3     H1       HT       0.417000       1.00800           0
     80085 TIP3     19213    TIP3     H2       HT       0.417000       1.00800           0
     80086 TIP3     19214    TIP3     OH2      OT      -0.834000       15.9994           0
     80087 TIP3     19214    TIP3     H1       HT       0.417000       1.00800           0
     80088 TIP3     19214    TIP3     H2       HT       0.417000       1.00800           0
     80089 TIP3     19215    TIP3     OH2      OT      -0.834000       15.9994           0
     80090 TIP3     19215    TIP3     H1       HT       0.417000       1.00800           0
     80091 TIP3     19215    TIP3     H2       HT       0.417000       1.00800           0
     80092 TIP3     19216    TIP3     OH2      OT      -0.834000       15.9994           0
     80093 TIP3     19216    TIP3     H1       HT       0.417000       1.00800           0
     80094 TIP3     19216    TIP3     H2       HT       0.417000       1.00800           0
     80095 TIP3     19217    TIP3     OH2      OT      -0.834000       15.9994           0
     80096 TIP3     19217    TIP3     H1       HT       0.417000       1.00800           0
     80097 TIP3     19217    TIP3     H2       HT       0.417000       1.00800           0
     80098 TIP3     19218    TIP3     OH2      OT      -0.834000       15.9994           0
     80099 TIP3     19218    TIP3     H1       HT       0.417000       1.00800           0
     80100 TIP3     19218    TIP3     H2       HT       0.417000       1.00800           0
     80101 TIP3     19219    TIP3     OH2      OT      -0.834000       15.9994           0
     80102 TIP3     19219    TIP3     H1       HT       0.417000       1.00800           0
     80103 TIP3     19219    TIP3     H2       HT       0.417000       1.00800           0
     80104 TIP3     19220    TIP3     OH2      OT      -0.834000       15.9994           0
     80105 TIP3     19220    TIP3     H1       HT       0.417000       1.00800           0
     80106 TIP3     19220    TIP3     H2       HT       0.417000       1.00800           0
     80107 TIP3     19221    TIP3     OH2      OT      -0.834000       15.9994           0
     80108 TIP3     19221    TIP3     H1       HT       0.417000       1.00800           0
     80109 TIP3     19221    TIP3     H2       HT       0.417000       1.00800           0
     80110 TIP3     19222    TIP3     OH2      OT      -0.834000       15.9994           0
     80111 TIP3     19222    TIP3     H1       HT       0.417000       1.00800           0
     80112 TIP3     19222    TIP3     H2       HT       0.417000       1.00800           0
     80113 TIP3     19223    TIP3     OH2      OT      -0.834000       15.9994           0
     80114 TIP3     19223    TIP3     H1       HT       0.417000       1.00800           0
     80115 TIP3     19223    TIP3     H2       HT       0.417000       1.00800           0
     80116 TIP3     19224    TIP3     OH2      OT      -0.834000       15.9994           0
     80117 TIP3     19224    TIP3     H1       HT       0.417000       1.00800           0
     80118 TIP3     19224    TIP3     H2       HT       0.417000       1.00800           0
     80119 TIP3     19225    TIP3     OH2      OT      -0.834000       15.9994           0
     80120 TIP3     19225    TIP3     H1       HT       0.417000       1.00800           0
     80121 TIP3     19225    TIP3     H2       HT       0.417000       1.00800           0
     80122 TIP3     19226    TIP3     OH2      OT      -0.834000       15.9994           0
     80123 TIP3     19226    TIP3     H1       HT       0.417000       1.00800           0
     80124 TIP3     19226    TIP3     H2       HT       0.417000       1.00800           0
     80125 TIP3     19227    TIP3     OH2      OT      -0.834000       15.9994           0
     80126 TIP3     19227    TIP3     H1       HT       0.417000       1.00800           0
     80127 TIP3     19227    TIP3     H2       HT       0.417000       1.00800           0
     80128 TIP3     19228    TIP3     OH2      OT      -0.834000       15.9994           0
     80129 TIP3     19228    TIP3     H1       HT       0.417000       1.00800           0
     80130 TIP3     19228    TIP3     H2       HT       0.417000       1.00800           0
     80131 TIP3     19229    TIP3     OH2      OT      -0.834000       15.9994           0
     80132 TIP3     19229    TIP3     H1       HT       0.417000       1.00800           0
     80133 TIP3     19229    TIP3     H2       HT       0.417000       1.00800           0
     80134 TIP3     19230    TIP3     OH2      OT      -0.834000       15.9994           0
     80135 TIP3     19230    TIP3     H1       HT       0.417000       1.00800           0
     80136 TIP3     19230    TIP3     H2       HT       0.417000       1.00800           0
     80137 TIP3     19231    TIP3     OH2      OT      -0.834000       15.9994           0
     80138 TIP3     19231    TIP3     H1       HT       0.417000       1.00800           0
     80139 TIP3     19231    TIP3     H2       HT       0.417000       1.00800           0
     80140 TIP3     19232    TIP3     OH2      OT      -0.834000       15.9994           0
     80141 TIP3     19232    TIP3     H1       HT       0.417000       1.00800           0
     80142 TIP3     19232    TIP3     H2       HT       0.417000       1.00800           0
     80143 TIP3     19233    TIP3     OH2      OT      -0.834000       15.9994           0
     80144 TIP3     19233    TIP3     H1       HT       0.417000       1.00800           0
     80145 TIP3     19233    TIP3     H2       HT       0.417000       1.00800           0
     80146 TIP3     19234    TIP3     OH2      OT      -0.834000       15.9994           0
     80147 TIP3     19234    TIP3     H1       HT       0.417000       1.00800           0
     80148 TIP3     19234    TIP3     H2       HT       0.417000       1.00800           0
     80149 TIP3     19235    TIP3     OH2      OT      -0.834000       15.9994           0
     80150 TIP3     19235    TIP3     H1       HT       0.417000       1.00800           0
     80151 TIP3     19235    TIP3     H2       HT       0.417000       1.00800           0
     80152 TIP3     19236    TIP3     OH2      OT      -0.834000       15.9994           0
     80153 TIP3     19236    TIP3     H1       HT       0.417000       1.00800           0
     80154 TIP3     19236    TIP3     H2       HT       0.417000       1.00800           0
     80155 TIP3     19237    TIP3     OH2      OT      -0.834000       15.9994           0
     80156 TIP3     19237    TIP3     H1       HT       0.417000       1.00800           0
     80157 TIP3     19237    TIP3     H2       HT       0.417000       1.00800           0
     80158 TIP3     19238    TIP3     OH2      OT      -0.834000       15.9994           0
     80159 TIP3     19238    TIP3     H1       HT       0.417000       1.00800           0
     80160 TIP3     19238    TIP3     H2       HT       0.417000       1.00800           0
     80161 TIP3     19239    TIP3     OH2      OT      -0.834000       15.9994           0
     80162 TIP3     19239    TIP3     H1       HT       0.417000       1.00800           0
     80163 TIP3     19239    TIP3     H2       HT       0.417000       1.00800           0
     80164 TIP3     19240    TIP3     OH2      OT      -0.834000       15.9994           0
     80165 TIP3     19240    TIP3     H1       HT       0.417000       1.00800           0
     80166 TIP3     19240    TIP3     H2       HT       0.417000       1.00800           0
     80167 TIP3     19241    TIP3     OH2      OT      -0.834000       15.9994           0
     80168 TIP3     19241    TIP3     H1       HT       0.417000       1.00800           0
     80169 TIP3     19241    TIP3     H2       HT       0.417000       1.00800           0
     80170 TIP3     19242    TIP3     OH2      OT      -0.834000       15.9994           0
     80171 TIP3     19242    TIP3     H1       HT       0.417000       1.00800           0
     80172 TIP3     19242    TIP3     H2       HT       0.417000       1.00800           0
     80173 TIP3     19243    TIP3     OH2      OT      -0.834000       15.9994           0
     80174 TIP3     19243    TIP3     H1       HT       0.417000       1.00800           0
     80175 TIP3     19243    TIP3     H2       HT       0.417000       1.00800           0
     80176 TIP3     19244    TIP3     OH2      OT      -0.834000       15.9994           0
     80177 TIP3     19244    TIP3     H1       HT       0.417000       1.00800           0
     80178 TIP3     19244    TIP3     H2       HT       0.417000       1.00800           0
     80179 TIP3     19245    TIP3     OH2      OT      -0.834000       15.9994           0
     80180 TIP3     19245    TIP3     H1       HT       0.417000       1.00800           0
     80181 TIP3     19245    TIP3     H2       HT       0.417000       1.00800           0
     80182 TIP3     19246    TIP3     OH2      OT      -0.834000       15.9994           0
     80183 TIP3     19246    TIP3     H1       HT       0.417000       1.00800           0
     80184 TIP3     19246    TIP3     H2       HT       0.417000       1.00800           0
     80185 TIP3     19247    TIP3     OH2      OT      -0.834000       15.9994           0
     80186 TIP3     19247    TIP3     H1       HT       0.417000       1.00800           0
     80187 TIP3     19247    TIP3     H2       HT       0.417000       1.00800           0
     80188 TIP3     19248    TIP3     OH2      OT      -0.834000       15.9994           0
     80189 TIP3     19248    TIP3     H1       HT       0.417000       1.00800           0
     80190 TIP3     19248    TIP3     H2       HT       0.417000       1.00800           0
     80191 TIP3     19249    TIP3     OH2      OT      -0.834000       15.9994           0
     80192 TIP3     19249    TIP3     H1       HT       0.417000       1.00800           0
     80193 TIP3     19249    TIP3     H2       HT       0.417000       1.00800           0
     80194 TIP3     19250    TIP3     OH2      OT      -0.834000       15.9994           0
     80195 TIP3     19250    TIP3     H1       HT       0.417000       1.00800           0
     80196 TIP3     19250    TIP3     H2       HT       0.417000       1.00800           0
     80197 TIP3     19251    TIP3     OH2      OT      -0.834000       15.9994           0
     80198 TIP3     19251    TIP3     H1       HT       0.417000       1.00800           0
     80199 TIP3     19251    TIP3     H2       HT       0.417000       1.00800           0
     80200 TIP3     19252    TIP3     OH2      OT      -0.834000       15.9994           0
     80201 TIP3     19252    TIP3     H1       HT       0.417000       1.00800           0
     80202 TIP3     19252    TIP3     H2       HT       0.417000       1.00800           0
     80203 TIP3     19253    TIP3     OH2      OT      -0.834000       15.9994           0
     80204 TIP3     19253    TIP3     H1       HT       0.417000       1.00800           0
     80205 TIP3     19253    TIP3     H2       HT       0.417000       1.00800           0
     80206 TIP3     19254    TIP3     OH2      OT      -0.834000       15.9994           0
     80207 TIP3     19254    TIP3     H1       HT       0.417000       1.00800           0
     80208 TIP3     19254    TIP3     H2       HT       0.417000       1.00800           0
     80209 TIP3     19255    TIP3     OH2      OT      -0.834000       15.9994           0
     80210 TIP3     19255    TIP3     H1       HT       0.417000       1.00800           0
     80211 TIP3     19255    TIP3     H2       HT       0.417000       1.00800           0
     80212 TIP3     19256    TIP3     OH2      OT      -0.834000       15.9994           0
     80213 TIP3     19256    TIP3     H1       HT       0.417000       1.00800           0
     80214 TIP3     19256    TIP3     H2       HT       0.417000       1.00800           0
     80215 TIP3     19257    TIP3     OH2      OT      -0.834000       15.9994           0
     80216 TIP3     19257    TIP3     H1       HT       0.417000       1.00800           0
     80217 TIP3     19257    TIP3     H2       HT       0.417000       1.00800           0
     80218 TIP3     19258    TIP3     OH2      OT      -0.834000       15.9994           0
     80219 TIP3     19258    TIP3     H1       HT       0.417000       1.00800           0
     80220 TIP3     19258    TIP3     H2       HT       0.417000       1.00800           0
     80221 TIP3     19259    TIP3     OH2      OT      -0.834000       15.9994           0
     80222 TIP3     19259    TIP3     H1       HT       0.417000       1.00800           0
     80223 TIP3     19259    TIP3     H2       HT       0.417000       1.00800           0
     80224 TIP3     19260    TIP3     OH2      OT      -0.834000       15.9994           0
     80225 TIP3     19260    TIP3     H1       HT       0.417000       1.00800           0
     80226 TIP3     19260    TIP3     H2       HT       0.417000       1.00800           0
     80227 TIP3     19261    TIP3     OH2      OT      -0.834000       15.9994           0
     80228 TIP3     19261    TIP3     H1       HT       0.417000       1.00800           0
     80229 TIP3     19261    TIP3     H2       HT       0.417000       1.00800           0
     80230 TIP3     19262    TIP3     OH2      OT      -0.834000       15.9994           0
     80231 TIP3     19262    TIP3     H1       HT       0.417000       1.00800           0
     80232 TIP3     19262    TIP3     H2       HT       0.417000       1.00800           0
     80233 TIP3     19263    TIP3     OH2      OT      -0.834000       15.9994           0
     80234 TIP3     19263    TIP3     H1       HT       0.417000       1.00800           0
     80235 TIP3     19263    TIP3     H2       HT       0.417000       1.00800           0
     80236 TIP3     19264    TIP3     OH2      OT      -0.834000       15.9994           0
     80237 TIP3     19264    TIP3     H1       HT       0.417000       1.00800           0
     80238 TIP3     19264    TIP3     H2       HT       0.417000       1.00800           0
     80239 TIP3     19265    TIP3     OH2      OT      -0.834000       15.9994           0
     80240 TIP3     19265    TIP3     H1       HT       0.417000       1.00800           0
     80241 TIP3     19265    TIP3     H2       HT       0.417000       1.00800           0
     80242 TIP3     19266    TIP3     OH2      OT      -0.834000       15.9994           0
     80243 TIP3     19266    TIP3     H1       HT       0.417000       1.00800           0
     80244 TIP3     19266    TIP3     H2       HT       0.417000       1.00800           0
     80245 TIP3     19267    TIP3     OH2      OT      -0.834000       15.9994           0
     80246 TIP3     19267    TIP3     H1       HT       0.417000       1.00800           0
     80247 TIP3     19267    TIP3     H2       HT       0.417000       1.00800           0
     80248 TIP3     19268    TIP3     OH2      OT      -0.834000       15.9994           0
     80249 TIP3     19268    TIP3     H1       HT       0.417000       1.00800           0
     80250 TIP3     19268    TIP3     H2       HT       0.417000       1.00800           0
     80251 TIP3     19269    TIP3     OH2      OT      -0.834000       15.9994           0
     80252 TIP3     19269    TIP3     H1       HT       0.417000       1.00800           0
     80253 TIP3     19269    TIP3     H2       HT       0.417000       1.00800           0
     80254 TIP3     19270    TIP3     OH2      OT      -0.834000       15.9994           0
     80255 TIP3     19270    TIP3     H1       HT       0.417000       1.00800           0
     80256 TIP3     19270    TIP3     H2       HT       0.417000       1.00800           0
     80257 TIP3     19271    TIP3     OH2      OT      -0.834000       15.9994           0
     80258 TIP3     19271    TIP3     H1       HT       0.417000       1.00800           0
     80259 TIP3     19271    TIP3     H2       HT       0.417000       1.00800           0
     80260 TIP3     19272    TIP3     OH2      OT      -0.834000       15.9994           0
     80261 TIP3     19272    TIP3     H1       HT       0.417000       1.00800           0
     80262 TIP3     19272    TIP3     H2       HT       0.417000       1.00800           0
     80263 TIP3     19273    TIP3     OH2      OT      -0.834000       15.9994           0
     80264 TIP3     19273    TIP3     H1       HT       0.417000       1.00800           0
     80265 TIP3     19273    TIP3     H2       HT       0.417000       1.00800           0
     80266 TIP3     19274    TIP3     OH2      OT      -0.834000       15.9994           0
     80267 TIP3     19274    TIP3     H1       HT       0.417000       1.00800           0
     80268 TIP3     19274    TIP3     H2       HT       0.417000       1.00800           0
     80269 TIP3     19275    TIP3     OH2      OT      -0.834000       15.9994           0
     80270 TIP3     19275    TIP3     H1       HT       0.417000       1.00800           0
     80271 TIP3     19275    TIP3     H2       HT       0.417000       1.00800           0
     80272 TIP3     19276    TIP3     OH2      OT      -0.834000       15.9994           0
     80273 TIP3     19276    TIP3     H1       HT       0.417000       1.00800           0
     80274 TIP3     19276    TIP3     H2       HT       0.417000       1.00800           0
     80275 TIP3     19277    TIP3     OH2      OT      -0.834000       15.9994           0
     80276 TIP3     19277    TIP3     H1       HT       0.417000       1.00800           0
     80277 TIP3     19277    TIP3     H2       HT       0.417000       1.00800           0
     80278 TIP3     19278    TIP3     OH2      OT      -0.834000       15.9994           0
     80279 TIP3     19278    TIP3     H1       HT       0.417000       1.00800           0
     80280 TIP3     19278    TIP3     H2       HT       0.417000       1.00800           0
     80281 TIP3     19279    TIP3     OH2      OT      -0.834000       15.9994           0
     80282 TIP3     19279    TIP3     H1       HT       0.417000       1.00800           0
     80283 TIP3     19279    TIP3     H2       HT       0.417000       1.00800           0
     80284 TIP3     19280    TIP3     OH2      OT      -0.834000       15.9994           0
     80285 TIP3     19280    TIP3     H1       HT       0.417000       1.00800           0
     80286 TIP3     19280    TIP3     H2       HT       0.417000       1.00800           0
     80287 TIP3     19281    TIP3     OH2      OT      -0.834000       15.9994           0
     80288 TIP3     19281    TIP3     H1       HT       0.417000       1.00800           0
     80289 TIP3     19281    TIP3     H2       HT       0.417000       1.00800           0
     80290 TIP3     19282    TIP3     OH2      OT      -0.834000       15.9994           0
     80291 TIP3     19282    TIP3     H1       HT       0.417000       1.00800           0
     80292 TIP3     19282    TIP3     H2       HT       0.417000       1.00800           0
     80293 TIP3     19283    TIP3     OH2      OT      -0.834000       15.9994           0
     80294 TIP3     19283    TIP3     H1       HT       0.417000       1.00800           0
     80295 TIP3     19283    TIP3     H2       HT       0.417000       1.00800           0
     80296 TIP3     19284    TIP3     OH2      OT      -0.834000       15.9994           0
     80297 TIP3     19284    TIP3     H1       HT       0.417000       1.00800           0
     80298 TIP3     19284    TIP3     H2       HT       0.417000       1.00800           0
     80299 TIP3     19285    TIP3     OH2      OT      -0.834000       15.9994           0
     80300 TIP3     19285    TIP3     H1       HT       0.417000       1.00800           0
     80301 TIP3     19285    TIP3     H2       HT       0.417000       1.00800           0
     80302 TIP3     19286    TIP3     OH2      OT      -0.834000       15.9994           0
     80303 TIP3     19286    TIP3     H1       HT       0.417000       1.00800           0
     80304 TIP3     19286    TIP3     H2       HT       0.417000       1.00800           0
     80305 TIP3     19287    TIP3     OH2      OT      -0.834000       15.9994           0
     80306 TIP3     19287    TIP3     H1       HT       0.417000       1.00800           0
     80307 TIP3     19287    TIP3     H2       HT       0.417000       1.00800           0
     80308 TIP3     19288    TIP3     OH2      OT      -0.834000       15.9994           0
     80309 TIP3     19288    TIP3     H1       HT       0.417000       1.00800           0
     80310 TIP3     19288    TIP3     H2       HT       0.417000       1.00800           0
     80311 TIP3     19289    TIP3     OH2      OT      -0.834000       15.9994           0
     80312 TIP3     19289    TIP3     H1       HT       0.417000       1.00800           0
     80313 TIP3     19289    TIP3     H2       HT       0.417000       1.00800           0
     80314 TIP3     19290    TIP3     OH2      OT      -0.834000       15.9994           0
     80315 TIP3     19290    TIP3     H1       HT       0.417000       1.00800           0
     80316 TIP3     19290    TIP3     H2       HT       0.417000       1.00800           0
     80317 TIP3     19291    TIP3     OH2      OT      -0.834000       15.9994           0
     80318 TIP3     19291    TIP3     H1       HT       0.417000       1.00800           0
     80319 TIP3     19291    TIP3     H2       HT       0.417000       1.00800           0
     80320 TIP3     19292    TIP3     OH2      OT      -0.834000       15.9994           0
     80321 TIP3     19292    TIP3     H1       HT       0.417000       1.00800           0
     80322 TIP3     19292    TIP3     H2       HT       0.417000       1.00800           0
     80323 TIP3     19293    TIP3     OH2      OT      -0.834000       15.9994           0
     80324 TIP3     19293    TIP3     H1       HT       0.417000       1.00800           0
     80325 TIP3     19293    TIP3     H2       HT       0.417000       1.00800           0
     80326 TIP3     19294    TIP3     OH2      OT      -0.834000       15.9994           0
     80327 TIP3     19294    TIP3     H1       HT       0.417000       1.00800           0
     80328 TIP3     19294    TIP3     H2       HT       0.417000       1.00800           0
     80329 TIP3     19295    TIP3     OH2      OT      -0.834000       15.9994           0
     80330 TIP3     19295    TIP3     H1       HT       0.417000       1.00800           0
     80331 TIP3     19295    TIP3     H2       HT       0.417000       1.00800           0
     80332 TIP3     19296    TIP3     OH2      OT      -0.834000       15.9994           0
     80333 TIP3     19296    TIP3     H1       HT       0.417000       1.00800           0
     80334 TIP3     19296    TIP3     H2       HT       0.417000       1.00800           0
     80335 TIP3     19297    TIP3     OH2      OT      -0.834000       15.9994           0
     80336 TIP3     19297    TIP3     H1       HT       0.417000       1.00800           0
     80337 TIP3     19297    TIP3     H2       HT       0.417000       1.00800           0
     80338 TIP3     19298    TIP3     OH2      OT      -0.834000       15.9994           0
     80339 TIP3     19298    TIP3     H1       HT       0.417000       1.00800           0
     80340 TIP3     19298    TIP3     H2       HT       0.417000       1.00800           0
     80341 TIP3     19299    TIP3     OH2      OT      -0.834000       15.9994           0
     80342 TIP3     19299    TIP3     H1       HT       0.417000       1.00800           0
     80343 TIP3     19299    TIP3     H2       HT       0.417000       1.00800           0
     80344 TIP3     19300    TIP3     OH2      OT      -0.834000       15.9994           0
     80345 TIP3     19300    TIP3     H1       HT       0.417000       1.00800           0
     80346 TIP3     19300    TIP3     H2       HT       0.417000       1.00800           0
     80347 TIP3     19301    TIP3     OH2      OT      -0.834000       15.9994           0
     80348 TIP3     19301    TIP3     H1       HT       0.417000       1.00800           0
     80349 TIP3     19301    TIP3     H2       HT       0.417000       1.00800           0
     80350 TIP3     19302    TIP3     OH2      OT      -0.834000       15.9994           0
     80351 TIP3     19302    TIP3     H1       HT       0.417000       1.00800           0
     80352 TIP3     19302    TIP3     H2       HT       0.417000       1.00800           0
     80353 TIP3     19303    TIP3     OH2      OT      -0.834000       15.9994           0
     80354 TIP3     19303    TIP3     H1       HT       0.417000       1.00800           0
     80355 TIP3     19303    TIP3     H2       HT       0.417000       1.00800           0
     80356 TIP3     19304    TIP3     OH2      OT      -0.834000       15.9994           0
     80357 TIP3     19304    TIP3     H1       HT       0.417000       1.00800           0
     80358 TIP3     19304    TIP3     H2       HT       0.417000       1.00800           0
     80359 TIP3     19305    TIP3     OH2      OT      -0.834000       15.9994           0
     80360 TIP3     19305    TIP3     H1       HT       0.417000       1.00800           0
     80361 TIP3     19305    TIP3     H2       HT       0.417000       1.00800           0
     80362 TIP3     19306    TIP3     OH2      OT      -0.834000       15.9994           0
     80363 TIP3     19306    TIP3     H1       HT       0.417000       1.00800           0
     80364 TIP3     19306    TIP3     H2       HT       0.417000       1.00800           0
     80365 TIP3     19307    TIP3     OH2      OT      -0.834000       15.9994           0
     80366 TIP3     19307    TIP3     H1       HT       0.417000       1.00800           0
     80367 TIP3     19307    TIP3     H2       HT       0.417000       1.00800           0
     80368 TIP3     19308    TIP3     OH2      OT      -0.834000       15.9994           0
     80369 TIP3     19308    TIP3     H1       HT       0.417000       1.00800           0
     80370 TIP3     19308    TIP3     H2       HT       0.417000       1.00800           0
     80371 TIP3     19309    TIP3     OH2      OT      -0.834000       15.9994           0
     80372 TIP3     19309    TIP3     H1       HT       0.417000       1.00800           0
     80373 TIP3     19309    TIP3     H2       HT       0.417000       1.00800           0
     80374 TIP3     19310    TIP3     OH2      OT      -0.834000       15.9994           0
     80375 TIP3     19310    TIP3     H1       HT       0.417000       1.00800           0
     80376 TIP3     19310    TIP3     H2       HT       0.417000       1.00800           0
     80377 TIP3     19311    TIP3     OH2      OT      -0.834000       15.9994           0
     80378 TIP3     19311    TIP3     H1       HT       0.417000       1.00800           0
     80379 TIP3     19311    TIP3     H2       HT       0.417000       1.00800           0
     80380 TIP3     19312    TIP3     OH2      OT      -0.834000       15.9994           0
     80381 TIP3     19312    TIP3     H1       HT       0.417000       1.00800           0
     80382 TIP3     19312    TIP3     H2       HT       0.417000       1.00800           0
     80383 TIP3     19313    TIP3     OH2      OT      -0.834000       15.9994           0
     80384 TIP3     19313    TIP3     H1       HT       0.417000       1.00800           0
     80385 TIP3     19313    TIP3     H2       HT       0.417000       1.00800           0
     80386 TIP3     19314    TIP3     OH2      OT      -0.834000       15.9994           0
     80387 TIP3     19314    TIP3     H1       HT       0.417000       1.00800           0
     80388 TIP3     19314    TIP3     H2       HT       0.417000       1.00800           0
     80389 TIP3     19315    TIP3     OH2      OT      -0.834000       15.9994           0
     80390 TIP3     19315    TIP3     H1       HT       0.417000       1.00800           0
     80391 TIP3     19315    TIP3     H2       HT       0.417000       1.00800           0
     80392 TIP3     19316    TIP3     OH2      OT      -0.834000       15.9994           0
     80393 TIP3     19316    TIP3     H1       HT       0.417000       1.00800           0
     80394 TIP3     19316    TIP3     H2       HT       0.417000       1.00800           0
     80395 TIP3     19317    TIP3     OH2      OT      -0.834000       15.9994           0
     80396 TIP3     19317    TIP3     H1       HT       0.417000       1.00800           0
     80397 TIP3     19317    TIP3     H2       HT       0.417000       1.00800           0
     80398 TIP3     19318    TIP3     OH2      OT      -0.834000       15.9994           0
     80399 TIP3     19318    TIP3     H1       HT       0.417000       1.00800           0
     80400 TIP3     19318    TIP3     H2       HT       0.417000       1.00800           0
     80401 TIP3     19319    TIP3     OH2      OT      -0.834000       15.9994           0
     80402 TIP3     19319    TIP3     H1       HT       0.417000       1.00800           0
     80403 TIP3     19319    TIP3     H2       HT       0.417000       1.00800           0
     80404 TIP3     19320    TIP3     OH2      OT      -0.834000       15.9994           0
     80405 TIP3     19320    TIP3     H1       HT       0.417000       1.00800           0
     80406 TIP3     19320    TIP3     H2       HT       0.417000       1.00800           0
     80407 TIP3     19321    TIP3     OH2      OT      -0.834000       15.9994           0
     80408 TIP3     19321    TIP3     H1       HT       0.417000       1.00800           0
     80409 TIP3     19321    TIP3     H2       HT       0.417000       1.00800           0
     80410 TIP3     19322    TIP3     OH2      OT      -0.834000       15.9994           0
     80411 TIP3     19322    TIP3     H1       HT       0.417000       1.00800           0
     80412 TIP3     19322    TIP3     H2       HT       0.417000       1.00800           0
     80413 TIP3     19323    TIP3     OH2      OT      -0.834000       15.9994           0
     80414 TIP3     19323    TIP3     H1       HT       0.417000       1.00800           0
     80415 TIP3     19323    TIP3     H2       HT       0.417000       1.00800           0
     80416 TIP3     19324    TIP3     OH2      OT      -0.834000       15.9994           0
     80417 TIP3     19324    TIP3     H1       HT       0.417000       1.00800           0
     80418 TIP3     19324    TIP3     H2       HT       0.417000       1.00800           0
     80419 TIP3     19325    TIP3     OH2      OT      -0.834000       15.9994           0
     80420 TIP3     19325    TIP3     H1       HT       0.417000       1.00800           0
     80421 TIP3     19325    TIP3     H2       HT       0.417000       1.00800           0
     80422 TIP3     19326    TIP3     OH2      OT      -0.834000       15.9994           0
     80423 TIP3     19326    TIP3     H1       HT       0.417000       1.00800           0
     80424 TIP3     19326    TIP3     H2       HT       0.417000       1.00800           0
     80425 TIP3     19327    TIP3     OH2      OT      -0.834000       15.9994           0
     80426 TIP3     19327    TIP3     H1       HT       0.417000       1.00800           0
     80427 TIP3     19327    TIP3     H2       HT       0.417000       1.00800           0
     80428 TIP3     19328    TIP3     OH2      OT      -0.834000       15.9994           0
     80429 TIP3     19328    TIP3     H1       HT       0.417000       1.00800           0
     80430 TIP3     19328    TIP3     H2       HT       0.417000       1.00800           0
     80431 TIP3     19329    TIP3     OH2      OT      -0.834000       15.9994           0
     80432 TIP3     19329    TIP3     H1       HT       0.417000       1.00800           0
     80433 TIP3     19329    TIP3     H2       HT       0.417000       1.00800           0
     80434 TIP3     19330    TIP3     OH2      OT      -0.834000       15.9994           0
     80435 TIP3     19330    TIP3     H1       HT       0.417000       1.00800           0
     80436 TIP3     19330    TIP3     H2       HT       0.417000       1.00800           0
     80437 TIP3     19331    TIP3     OH2      OT      -0.834000       15.9994           0
     80438 TIP3     19331    TIP3     H1       HT       0.417000       1.00800           0
     80439 TIP3     19331    TIP3     H2       HT       0.417000       1.00800           0
     80440 TIP3     19332    TIP3     OH2      OT      -0.834000       15.9994           0
     80441 TIP3     19332    TIP3     H1       HT       0.417000       1.00800           0
     80442 TIP3     19332    TIP3     H2       HT       0.417000       1.00800           0
     80443 TIP3     19333    TIP3     OH2      OT      -0.834000       15.9994           0
     80444 TIP3     19333    TIP3     H1       HT       0.417000       1.00800           0
     80445 TIP3     19333    TIP3     H2       HT       0.417000       1.00800           0
     80446 TIP3     19334    TIP3     OH2      OT      -0.834000       15.9994           0
     80447 TIP3     19334    TIP3     H1       HT       0.417000       1.00800           0
     80448 TIP3     19334    TIP3     H2       HT       0.417000       1.00800           0
     80449 TIP3     19335    TIP3     OH2      OT      -0.834000       15.9994           0
     80450 TIP3     19335    TIP3     H1       HT       0.417000       1.00800           0
     80451 TIP3     19335    TIP3     H2       HT       0.417000       1.00800           0
     80452 TIP3     19336    TIP3     OH2      OT      -0.834000       15.9994           0
     80453 TIP3     19336    TIP3     H1       HT       0.417000       1.00800           0
     80454 TIP3     19336    TIP3     H2       HT       0.417000       1.00800           0
     80455 TIP3     19337    TIP3     OH2      OT      -0.834000       15.9994           0
     80456 TIP3     19337    TIP3     H1       HT       0.417000       1.00800           0
     80457 TIP3     19337    TIP3     H2       HT       0.417000       1.00800           0
     80458 TIP3     19338    TIP3     OH2      OT      -0.834000       15.9994           0
     80459 TIP3     19338    TIP3     H1       HT       0.417000       1.00800           0
     80460 TIP3     19338    TIP3     H2       HT       0.417000       1.00800           0
     80461 TIP3     19339    TIP3     OH2      OT      -0.834000       15.9994           0
     80462 TIP3     19339    TIP3     H1       HT       0.417000       1.00800           0
     80463 TIP3     19339    TIP3     H2       HT       0.417000       1.00800           0
     80464 TIP3     19340    TIP3     OH2      OT      -0.834000       15.9994           0
     80465 TIP3     19340    TIP3     H1       HT       0.417000       1.00800           0
     80466 TIP3     19340    TIP3     H2       HT       0.417000       1.00800           0
     80467 TIP3     19341    TIP3     OH2      OT      -0.834000       15.9994           0
     80468 TIP3     19341    TIP3     H1       HT       0.417000       1.00800           0
     80469 TIP3     19341    TIP3     H2       HT       0.417000       1.00800           0
     80470 TIP3     19342    TIP3     OH2      OT      -0.834000       15.9994           0
     80471 TIP3     19342    TIP3     H1       HT       0.417000       1.00800           0
     80472 TIP3     19342    TIP3     H2       HT       0.417000       1.00800           0
     80473 TIP3     19343    TIP3     OH2      OT      -0.834000       15.9994           0
     80474 TIP3     19343    TIP3     H1       HT       0.417000       1.00800           0
     80475 TIP3     19343    TIP3     H2       HT       0.417000       1.00800           0
     80476 TIP3     19344    TIP3     OH2      OT      -0.834000       15.9994           0
     80477 TIP3     19344    TIP3     H1       HT       0.417000       1.00800           0
     80478 TIP3     19344    TIP3     H2       HT       0.417000       1.00800           0
     80479 TIP3     19345    TIP3     OH2      OT      -0.834000       15.9994           0
     80480 TIP3     19345    TIP3     H1       HT       0.417000       1.00800           0
     80481 TIP3     19345    TIP3     H2       HT       0.417000       1.00800           0
     80482 TIP3     19346    TIP3     OH2      OT      -0.834000       15.9994           0
     80483 TIP3     19346    TIP3     H1       HT       0.417000       1.00800           0
     80484 TIP3     19346    TIP3     H2       HT       0.417000       1.00800           0
     80485 TIP3     19347    TIP3     OH2      OT      -0.834000       15.9994           0
     80486 TIP3     19347    TIP3     H1       HT       0.417000       1.00800           0
     80487 TIP3     19347    TIP3     H2       HT       0.417000       1.00800           0
     80488 TIP3     19348    TIP3     OH2      OT      -0.834000       15.9994           0
     80489 TIP3     19348    TIP3     H1       HT       0.417000       1.00800           0
     80490 TIP3     19348    TIP3     H2       HT       0.417000       1.00800           0
     80491 TIP3     19349    TIP3     OH2      OT      -0.834000       15.9994           0
     80492 TIP3     19349    TIP3     H1       HT       0.417000       1.00800           0
     80493 TIP3     19349    TIP3     H2       HT       0.417000       1.00800           0
     80494 TIP3     19350    TIP3     OH2      OT      -0.834000       15.9994           0
     80495 TIP3     19350    TIP3     H1       HT       0.417000       1.00800           0
     80496 TIP3     19350    TIP3     H2       HT       0.417000       1.00800           0
     80497 TIP3     19351    TIP3     OH2      OT      -0.834000       15.9994           0
     80498 TIP3     19351    TIP3     H1       HT       0.417000       1.00800           0
     80499 TIP3     19351    TIP3     H2       HT       0.417000       1.00800           0
     80500 TIP3     19352    TIP3     OH2      OT      -0.834000       15.9994           0
     80501 TIP3     19352    TIP3     H1       HT       0.417000       1.00800           0
     80502 TIP3     19352    TIP3     H2       HT       0.417000       1.00800           0
     80503 TIP3     19353    TIP3     OH2      OT      -0.834000       15.9994           0
     80504 TIP3     19353    TIP3     H1       HT       0.417000       1.00800           0
     80505 TIP3     19353    TIP3     H2       HT       0.417000       1.00800           0
     80506 TIP3     19354    TIP3     OH2      OT      -0.834000       15.9994           0
     80507 TIP3     19354    TIP3     H1       HT       0.417000       1.00800           0
     80508 TIP3     19354    TIP3     H2       HT       0.417000       1.00800           0
     80509 TIP3     19355    TIP3     OH2      OT      -0.834000       15.9994           0
     80510 TIP3     19355    TIP3     H1       HT       0.417000       1.00800           0
     80511 TIP3     19355    TIP3     H2       HT       0.417000       1.00800           0
     80512 TIP3     19356    TIP3     OH2      OT      -0.834000       15.9994           0
     80513 TIP3     19356    TIP3     H1       HT       0.417000       1.00800           0
     80514 TIP3     19356    TIP3     H2       HT       0.417000       1.00800           0
     80515 TIP3     19357    TIP3     OH2      OT      -0.834000       15.9994           0
     80516 TIP3     19357    TIP3     H1       HT       0.417000       1.00800           0
     80517 TIP3     19357    TIP3     H2       HT       0.417000       1.00800           0
     80518 TIP3     19358    TIP3     OH2      OT      -0.834000       15.9994           0
     80519 TIP3     19358    TIP3     H1       HT       0.417000       1.00800           0
     80520 TIP3     19358    TIP3     H2       HT       0.417000       1.00800           0
     80521 TIP3     19359    TIP3     OH2      OT      -0.834000       15.9994           0
     80522 TIP3     19359    TIP3     H1       HT       0.417000       1.00800           0
     80523 TIP3     19359    TIP3     H2       HT       0.417000       1.00800           0
     80524 TIP3     19360    TIP3     OH2      OT      -0.834000       15.9994           0
     80525 TIP3     19360    TIP3     H1       HT       0.417000       1.00800           0
     80526 TIP3     19360    TIP3     H2       HT       0.417000       1.00800           0
     80527 TIP3     19361    TIP3     OH2      OT      -0.834000       15.9994           0
     80528 TIP3     19361    TIP3     H1       HT       0.417000       1.00800           0
     80529 TIP3     19361    TIP3     H2       HT       0.417000       1.00800           0
     80530 TIP3     19362    TIP3     OH2      OT      -0.834000       15.9994           0
     80531 TIP3     19362    TIP3     H1       HT       0.417000       1.00800           0
     80532 TIP3     19362    TIP3     H2       HT       0.417000       1.00800           0
     80533 TIP3     19363    TIP3     OH2      OT      -0.834000       15.9994           0
     80534 TIP3     19363    TIP3     H1       HT       0.417000       1.00800           0
     80535 TIP3     19363    TIP3     H2       HT       0.417000       1.00800           0
     80536 TIP3     19364    TIP3     OH2      OT      -0.834000       15.9994           0
     80537 TIP3     19364    TIP3     H1       HT       0.417000       1.00800           0
     80538 TIP3     19364    TIP3     H2       HT       0.417000       1.00800           0
     80539 TIP3     19365    TIP3     OH2      OT      -0.834000       15.9994           0
     80540 TIP3     19365    TIP3     H1       HT       0.417000       1.00800           0
     80541 TIP3     19365    TIP3     H2       HT       0.417000       1.00800           0
     80542 TIP3     19366    TIP3     OH2      OT      -0.834000       15.9994           0
     80543 TIP3     19366    TIP3     H1       HT       0.417000       1.00800           0
     80544 TIP3     19366    TIP3     H2       HT       0.417000       1.00800           0
     80545 TIP3     19367    TIP3     OH2      OT      -0.834000       15.9994           0
     80546 TIP3     19367    TIP3     H1       HT       0.417000       1.00800           0
     80547 TIP3     19367    TIP3     H2       HT       0.417000       1.00800           0
     80548 TIP3     19368    TIP3     OH2      OT      -0.834000       15.9994           0
     80549 TIP3     19368    TIP3     H1       HT       0.417000       1.00800           0
     80550 TIP3     19368    TIP3     H2       HT       0.417000       1.00800           0
     80551 TIP3     19369    TIP3     OH2      OT      -0.834000       15.9994           0
     80552 TIP3     19369    TIP3     H1       HT       0.417000       1.00800           0
     80553 TIP3     19369    TIP3     H2       HT       0.417000       1.00800           0
     80554 TIP3     19370    TIP3     OH2      OT      -0.834000       15.9994           0
     80555 TIP3     19370    TIP3     H1       HT       0.417000       1.00800           0
     80556 TIP3     19370    TIP3     H2       HT       0.417000       1.00800           0
     80557 TIP3     19371    TIP3     OH2      OT      -0.834000       15.9994           0
     80558 TIP3     19371    TIP3     H1       HT       0.417000       1.00800           0
     80559 TIP3     19371    TIP3     H2       HT       0.417000       1.00800           0
     80560 TIP3     19372    TIP3     OH2      OT      -0.834000       15.9994           0
     80561 TIP3     19372    TIP3     H1       HT       0.417000       1.00800           0
     80562 TIP3     19372    TIP3     H2       HT       0.417000       1.00800           0
     80563 TIP3     19373    TIP3     OH2      OT      -0.834000       15.9994           0
     80564 TIP3     19373    TIP3     H1       HT       0.417000       1.00800           0
     80565 TIP3     19373    TIP3     H2       HT       0.417000       1.00800           0
     80566 TIP3     19374    TIP3     OH2      OT      -0.834000       15.9994           0
     80567 TIP3     19374    TIP3     H1       HT       0.417000       1.00800           0
     80568 TIP3     19374    TIP3     H2       HT       0.417000       1.00800           0
     80569 TIP3     19375    TIP3     OH2      OT      -0.834000       15.9994           0
     80570 TIP3     19375    TIP3     H1       HT       0.417000       1.00800           0
     80571 TIP3     19375    TIP3     H2       HT       0.417000       1.00800           0
     80572 TIP3     19376    TIP3     OH2      OT      -0.834000       15.9994           0
     80573 TIP3     19376    TIP3     H1       HT       0.417000       1.00800           0
     80574 TIP3     19376    TIP3     H2       HT       0.417000       1.00800           0
     80575 TIP3     19377    TIP3     OH2      OT      -0.834000       15.9994           0
     80576 TIP3     19377    TIP3     H1       HT       0.417000       1.00800           0
     80577 TIP3     19377    TIP3     H2       HT       0.417000       1.00800           0
     80578 TIP3     19378    TIP3     OH2      OT      -0.834000       15.9994           0
     80579 TIP3     19378    TIP3     H1       HT       0.417000       1.00800           0
     80580 TIP3     19378    TIP3     H2       HT       0.417000       1.00800           0
     80581 TIP3     19379    TIP3     OH2      OT      -0.834000       15.9994           0
     80582 TIP3     19379    TIP3     H1       HT       0.417000       1.00800           0
     80583 TIP3     19379    TIP3     H2       HT       0.417000       1.00800           0
     80584 TIP3     19380    TIP3     OH2      OT      -0.834000       15.9994           0
     80585 TIP3     19380    TIP3     H1       HT       0.417000       1.00800           0
     80586 TIP3     19380    TIP3     H2       HT       0.417000       1.00800           0
     80587 TIP3     19381    TIP3     OH2      OT      -0.834000       15.9994           0
     80588 TIP3     19381    TIP3     H1       HT       0.417000       1.00800           0
     80589 TIP3     19381    TIP3     H2       HT       0.417000       1.00800           0
     80590 TIP3     19382    TIP3     OH2      OT      -0.834000       15.9994           0
     80591 TIP3     19382    TIP3     H1       HT       0.417000       1.00800           0
     80592 TIP3     19382    TIP3     H2       HT       0.417000       1.00800           0
     80593 TIP3     19383    TIP3     OH2      OT      -0.834000       15.9994           0
     80594 TIP3     19383    TIP3     H1       HT       0.417000       1.00800           0
     80595 TIP3     19383    TIP3     H2       HT       0.417000       1.00800           0
     80596 TIP3     19384    TIP3     OH2      OT      -0.834000       15.9994           0
     80597 TIP3     19384    TIP3     H1       HT       0.417000       1.00800           0
     80598 TIP3     19384    TIP3     H2       HT       0.417000       1.00800           0
     80599 TIP3     19385    TIP3     OH2      OT      -0.834000       15.9994           0
     80600 TIP3     19385    TIP3     H1       HT       0.417000       1.00800           0
     80601 TIP3     19385    TIP3     H2       HT       0.417000       1.00800           0
     80602 TIP3     19386    TIP3     OH2      OT      -0.834000       15.9994           0
     80603 TIP3     19386    TIP3     H1       HT       0.417000       1.00800           0
     80604 TIP3     19386    TIP3     H2       HT       0.417000       1.00800           0
     80605 TIP3     19387    TIP3     OH2      OT      -0.834000       15.9994           0
     80606 TIP3     19387    TIP3     H1       HT       0.417000       1.00800           0
     80607 TIP3     19387    TIP3     H2       HT       0.417000       1.00800           0
     80608 TIP3     19388    TIP3     OH2      OT      -0.834000       15.9994           0
     80609 TIP3     19388    TIP3     H1       HT       0.417000       1.00800           0
     80610 TIP3     19388    TIP3     H2       HT       0.417000       1.00800           0
     80611 TIP3     19389    TIP3     OH2      OT      -0.834000       15.9994           0
     80612 TIP3     19389    TIP3     H1       HT       0.417000       1.00800           0
     80613 TIP3     19389    TIP3     H2       HT       0.417000       1.00800           0
     80614 TIP3     19390    TIP3     OH2      OT      -0.834000       15.9994           0
     80615 TIP3     19390    TIP3     H1       HT       0.417000       1.00800           0
     80616 TIP3     19390    TIP3     H2       HT       0.417000       1.00800           0
     80617 TIP3     19391    TIP3     OH2      OT      -0.834000       15.9994           0
     80618 TIP3     19391    TIP3     H1       HT       0.417000       1.00800           0
     80619 TIP3     19391    TIP3     H2       HT       0.417000       1.00800           0
     80620 TIP3     19392    TIP3     OH2      OT      -0.834000       15.9994           0
     80621 TIP3     19392    TIP3     H1       HT       0.417000       1.00800           0
     80622 TIP3     19392    TIP3     H2       HT       0.417000       1.00800           0
     80623 TIP3     19393    TIP3     OH2      OT      -0.834000       15.9994           0
     80624 TIP3     19393    TIP3     H1       HT       0.417000       1.00800           0
     80625 TIP3     19393    TIP3     H2       HT       0.417000       1.00800           0
     80626 TIP3     19394    TIP3     OH2      OT      -0.834000       15.9994           0
     80627 TIP3     19394    TIP3     H1       HT       0.417000       1.00800           0
     80628 TIP3     19394    TIP3     H2       HT       0.417000       1.00800           0
     80629 TIP3     19395    TIP3     OH2      OT      -0.834000       15.9994           0
     80630 TIP3     19395    TIP3     H1       HT       0.417000       1.00800           0
     80631 TIP3     19395    TIP3     H2       HT       0.417000       1.00800           0
     80632 TIP3     19396    TIP3     OH2      OT      -0.834000       15.9994           0
     80633 TIP3     19396    TIP3     H1       HT       0.417000       1.00800           0
     80634 TIP3     19396    TIP3     H2       HT       0.417000       1.00800           0
     80635 TIP3     19397    TIP3     OH2      OT      -0.834000       15.9994           0
     80636 TIP3     19397    TIP3     H1       HT       0.417000       1.00800           0
     80637 TIP3     19397    TIP3     H2       HT       0.417000       1.00800           0
     80638 TIP3     19398    TIP3     OH2      OT      -0.834000       15.9994           0
     80639 TIP3     19398    TIP3     H1       HT       0.417000       1.00800           0
     80640 TIP3     19398    TIP3     H2       HT       0.417000       1.00800           0
     80641 TIP3     19399    TIP3     OH2      OT      -0.834000       15.9994           0
     80642 TIP3     19399    TIP3     H1       HT       0.417000       1.00800           0
     80643 TIP3     19399    TIP3     H2       HT       0.417000       1.00800           0
     80644 TIP3     19400    TIP3     OH2      OT      -0.834000       15.9994           0
     80645 TIP3     19400    TIP3     H1       HT       0.417000       1.00800           0
     80646 TIP3     19400    TIP3     H2       HT       0.417000       1.00800           0
     80647 TIP3     19401    TIP3     OH2      OT      -0.834000       15.9994           0
     80648 TIP3     19401    TIP3     H1       HT       0.417000       1.00800           0
     80649 TIP3     19401    TIP3     H2       HT       0.417000       1.00800           0
     80650 TIP3     19402    TIP3     OH2      OT      -0.834000       15.9994           0
     80651 TIP3     19402    TIP3     H1       HT       0.417000       1.00800           0
     80652 TIP3     19402    TIP3     H2       HT       0.417000       1.00800           0
     80653 TIP3     19403    TIP3     OH2      OT      -0.834000       15.9994           0
     80654 TIP3     19403    TIP3     H1       HT       0.417000       1.00800           0
     80655 TIP3     19403    TIP3     H2       HT       0.417000       1.00800           0
     80656 TIP3     19404    TIP3     OH2      OT      -0.834000       15.9994           0
     80657 TIP3     19404    TIP3     H1       HT       0.417000       1.00800           0
     80658 TIP3     19404    TIP3     H2       HT       0.417000       1.00800           0
     80659 TIP3     19405    TIP3     OH2      OT      -0.834000       15.9994           0
     80660 TIP3     19405    TIP3     H1       HT       0.417000       1.00800           0
     80661 TIP3     19405    TIP3     H2       HT       0.417000       1.00800           0
     80662 TIP3     19406    TIP3     OH2      OT      -0.834000       15.9994           0
     80663 TIP3     19406    TIP3     H1       HT       0.417000       1.00800           0
     80664 TIP3     19406    TIP3     H2       HT       0.417000       1.00800           0
     80665 TIP3     19407    TIP3     OH2      OT      -0.834000       15.9994           0
     80666 TIP3     19407    TIP3     H1       HT       0.417000       1.00800           0
     80667 TIP3     19407    TIP3     H2       HT       0.417000       1.00800           0
     80668 TIP3     19408    TIP3     OH2      OT      -0.834000       15.9994           0
     80669 TIP3     19408    TIP3     H1       HT       0.417000       1.00800           0
     80670 TIP3     19408    TIP3     H2       HT       0.417000       1.00800           0
     80671 TIP3     19409    TIP3     OH2      OT      -0.834000       15.9994           0
     80672 TIP3     19409    TIP3     H1       HT       0.417000       1.00800           0
     80673 TIP3     19409    TIP3     H2       HT       0.417000       1.00800           0
     80674 TIP3     19410    TIP3     OH2      OT      -0.834000       15.9994           0
     80675 TIP3     19410    TIP3     H1       HT       0.417000       1.00800           0
     80676 TIP3     19410    TIP3     H2       HT       0.417000       1.00800           0
     80677 TIP3     19411    TIP3     OH2      OT      -0.834000       15.9994           0
     80678 TIP3     19411    TIP3     H1       HT       0.417000       1.00800           0
     80679 TIP3     19411    TIP3     H2       HT       0.417000       1.00800           0
     80680 TIP3     19412    TIP3     OH2      OT      -0.834000       15.9994           0
     80681 TIP3     19412    TIP3     H1       HT       0.417000       1.00800           0
     80682 TIP3     19412    TIP3     H2       HT       0.417000       1.00800           0
     80683 TIP3     19413    TIP3     OH2      OT      -0.834000       15.9994           0
     80684 TIP3     19413    TIP3     H1       HT       0.417000       1.00800           0
     80685 TIP3     19413    TIP3     H2       HT       0.417000       1.00800           0
     80686 TIP3     19414    TIP3     OH2      OT      -0.834000       15.9994           0
     80687 TIP3     19414    TIP3     H1       HT       0.417000       1.00800           0
     80688 TIP3     19414    TIP3     H2       HT       0.417000       1.00800           0
     80689 TIP3     19415    TIP3     OH2      OT      -0.834000       15.9994           0
     80690 TIP3     19415    TIP3     H1       HT       0.417000       1.00800           0
     80691 TIP3     19415    TIP3     H2       HT       0.417000       1.00800           0
     80692 TIP3     19416    TIP3     OH2      OT      -0.834000       15.9994           0
     80693 TIP3     19416    TIP3     H1       HT       0.417000       1.00800           0
     80694 TIP3     19416    TIP3     H2       HT       0.417000       1.00800           0
     80695 TIP3     19417    TIP3     OH2      OT      -0.834000       15.9994           0
     80696 TIP3     19417    TIP3     H1       HT       0.417000       1.00800           0
     80697 TIP3     19417    TIP3     H2       HT       0.417000       1.00800           0
     80698 TIP3     19418    TIP3     OH2      OT      -0.834000       15.9994           0
     80699 TIP3     19418    TIP3     H1       HT       0.417000       1.00800           0
     80700 TIP3     19418    TIP3     H2       HT       0.417000       1.00800           0
     80701 TIP3     19419    TIP3     OH2      OT      -0.834000       15.9994           0
     80702 TIP3     19419    TIP3     H1       HT       0.417000       1.00800           0
     80703 TIP3     19419    TIP3     H2       HT       0.417000       1.00800           0
     80704 TIP3     19420    TIP3     OH2      OT      -0.834000       15.9994           0
     80705 TIP3     19420    TIP3     H1       HT       0.417000       1.00800           0
     80706 TIP3     19420    TIP3     H2       HT       0.417000       1.00800           0
     80707 TIP3     19421    TIP3     OH2      OT      -0.834000       15.9994           0
     80708 TIP3     19421    TIP3     H1       HT       0.417000       1.00800           0
     80709 TIP3     19421    TIP3     H2       HT       0.417000       1.00800           0
     80710 TIP3     19422    TIP3     OH2      OT      -0.834000       15.9994           0
     80711 TIP3     19422    TIP3     H1       HT       0.417000       1.00800           0
     80712 TIP3     19422    TIP3     H2       HT       0.417000       1.00800           0
     80713 TIP3     19423    TIP3     OH2      OT      -0.834000       15.9994           0
     80714 TIP3     19423    TIP3     H1       HT       0.417000       1.00800           0
     80715 TIP3     19423    TIP3     H2       HT       0.417000       1.00800           0
     80716 TIP3     19424    TIP3     OH2      OT      -0.834000       15.9994           0
     80717 TIP3     19424    TIP3     H1       HT       0.417000       1.00800           0
     80718 TIP3     19424    TIP3     H2       HT       0.417000       1.00800           0
     80719 TIP3     19425    TIP3     OH2      OT      -0.834000       15.9994           0
     80720 TIP3     19425    TIP3     H1       HT       0.417000       1.00800           0
     80721 TIP3     19425    TIP3     H2       HT       0.417000       1.00800           0
     80722 TIP3     19426    TIP3     OH2      OT      -0.834000       15.9994           0
     80723 TIP3     19426    TIP3     H1       HT       0.417000       1.00800           0
     80724 TIP3     19426    TIP3     H2       HT       0.417000       1.00800           0
     80725 TIP3     19427    TIP3     OH2      OT      -0.834000       15.9994           0
     80726 TIP3     19427    TIP3     H1       HT       0.417000       1.00800           0
     80727 TIP3     19427    TIP3     H2       HT       0.417000       1.00800           0
     80728 TIP3     19428    TIP3     OH2      OT      -0.834000       15.9994           0
     80729 TIP3     19428    TIP3     H1       HT       0.417000       1.00800           0
     80730 TIP3     19428    TIP3     H2       HT       0.417000       1.00800           0
     80731 TIP3     19429    TIP3     OH2      OT      -0.834000       15.9994           0
     80732 TIP3     19429    TIP3     H1       HT       0.417000       1.00800           0
     80733 TIP3     19429    TIP3     H2       HT       0.417000       1.00800           0
     80734 TIP3     19430    TIP3     OH2      OT      -0.834000       15.9994           0
     80735 TIP3     19430    TIP3     H1       HT       0.417000       1.00800           0
     80736 TIP3     19430    TIP3     H2       HT       0.417000       1.00800           0
     80737 TIP3     19431    TIP3     OH2      OT      -0.834000       15.9994           0
     80738 TIP3     19431    TIP3     H1       HT       0.417000       1.00800           0
     80739 TIP3     19431    TIP3     H2       HT       0.417000       1.00800           0
     80740 TIP3     19432    TIP3     OH2      OT      -0.834000       15.9994           0
     80741 TIP3     19432    TIP3     H1       HT       0.417000       1.00800           0
     80742 TIP3     19432    TIP3     H2       HT       0.417000       1.00800           0
     80743 TIP3     19433    TIP3     OH2      OT      -0.834000       15.9994           0
     80744 TIP3     19433    TIP3     H1       HT       0.417000       1.00800           0
     80745 TIP3     19433    TIP3     H2       HT       0.417000       1.00800           0
     80746 TIP3     19434    TIP3     OH2      OT      -0.834000       15.9994           0
     80747 TIP3     19434    TIP3     H1       HT       0.417000       1.00800           0
     80748 TIP3     19434    TIP3     H2       HT       0.417000       1.00800           0
     80749 TIP3     19435    TIP3     OH2      OT      -0.834000       15.9994           0
     80750 TIP3     19435    TIP3     H1       HT       0.417000       1.00800           0
     80751 TIP3     19435    TIP3     H2       HT       0.417000       1.00800           0
     80752 TIP3     19436    TIP3     OH2      OT      -0.834000       15.9994           0
     80753 TIP3     19436    TIP3     H1       HT       0.417000       1.00800           0
     80754 TIP3     19436    TIP3     H2       HT       0.417000       1.00800           0
     80755 TIP3     19437    TIP3     OH2      OT      -0.834000       15.9994           0
     80756 TIP3     19437    TIP3     H1       HT       0.417000       1.00800           0
     80757 TIP3     19437    TIP3     H2       HT       0.417000       1.00800           0
     80758 TIP3     19438    TIP3     OH2      OT      -0.834000       15.9994           0
     80759 TIP3     19438    TIP3     H1       HT       0.417000       1.00800           0
     80760 TIP3     19438    TIP3     H2       HT       0.417000       1.00800           0
     80761 TIP3     19439    TIP3     OH2      OT      -0.834000       15.9994           0
     80762 TIP3     19439    TIP3     H1       HT       0.417000       1.00800           0
     80763 TIP3     19439    TIP3     H2       HT       0.417000       1.00800           0
     80764 TIP3     19440    TIP3     OH2      OT      -0.834000       15.9994           0
     80765 TIP3     19440    TIP3     H1       HT       0.417000       1.00800           0
     80766 TIP3     19440    TIP3     H2       HT       0.417000       1.00800           0
     80767 TIP3     19441    TIP3     OH2      OT      -0.834000       15.9994           0
     80768 TIP3     19441    TIP3     H1       HT       0.417000       1.00800           0
     80769 TIP3     19441    TIP3     H2       HT       0.417000       1.00800           0
     80770 TIP3     19442    TIP3     OH2      OT      -0.834000       15.9994           0
     80771 TIP3     19442    TIP3     H1       HT       0.417000       1.00800           0
     80772 TIP3     19442    TIP3     H2       HT       0.417000       1.00800           0
     80773 TIP3     19443    TIP3     OH2      OT      -0.834000       15.9994           0
     80774 TIP3     19443    TIP3     H1       HT       0.417000       1.00800           0
     80775 TIP3     19443    TIP3     H2       HT       0.417000       1.00800           0
     80776 TIP3     19444    TIP3     OH2      OT      -0.834000       15.9994           0
     80777 TIP3     19444    TIP3     H1       HT       0.417000       1.00800           0
     80778 TIP3     19444    TIP3     H2       HT       0.417000       1.00800           0
     80779 TIP3     19445    TIP3     OH2      OT      -0.834000       15.9994           0
     80780 TIP3     19445    TIP3     H1       HT       0.417000       1.00800           0
     80781 TIP3     19445    TIP3     H2       HT       0.417000       1.00800           0
     80782 TIP3     19446    TIP3     OH2      OT      -0.834000       15.9994           0
     80783 TIP3     19446    TIP3     H1       HT       0.417000       1.00800           0
     80784 TIP3     19446    TIP3     H2       HT       0.417000       1.00800           0
     80785 TIP3     19447    TIP3     OH2      OT      -0.834000       15.9994           0
     80786 TIP3     19447    TIP3     H1       HT       0.417000       1.00800           0
     80787 TIP3     19447    TIP3     H2       HT       0.417000       1.00800           0
     80788 TIP3     19448    TIP3     OH2      OT      -0.834000       15.9994           0
     80789 TIP3     19448    TIP3     H1       HT       0.417000       1.00800           0
     80790 TIP3     19448    TIP3     H2       HT       0.417000       1.00800           0
     80791 TIP3     19449    TIP3     OH2      OT      -0.834000       15.9994           0
     80792 TIP3     19449    TIP3     H1       HT       0.417000       1.00800           0
     80793 TIP3     19449    TIP3     H2       HT       0.417000       1.00800           0
     80794 TIP3     19450    TIP3     OH2      OT      -0.834000       15.9994           0
     80795 TIP3     19450    TIP3     H1       HT       0.417000       1.00800           0
     80796 TIP3     19450    TIP3     H2       HT       0.417000       1.00800           0
     80797 TIP3     19451    TIP3     OH2      OT      -0.834000       15.9994           0
     80798 TIP3     19451    TIP3     H1       HT       0.417000       1.00800           0
     80799 TIP3     19451    TIP3     H2       HT       0.417000       1.00800           0
     80800 TIP3     19452    TIP3     OH2      OT      -0.834000       15.9994           0
     80801 TIP3     19452    TIP3     H1       HT       0.417000       1.00800           0
     80802 TIP3     19452    TIP3     H2       HT       0.417000       1.00800           0
     80803 TIP3     19453    TIP3     OH2      OT      -0.834000       15.9994           0
     80804 TIP3     19453    TIP3     H1       HT       0.417000       1.00800           0
     80805 TIP3     19453    TIP3     H2       HT       0.417000       1.00800           0
     80806 TIP3     19454    TIP3     OH2      OT      -0.834000       15.9994           0
     80807 TIP3     19454    TIP3     H1       HT       0.417000       1.00800           0
     80808 TIP3     19454    TIP3     H2       HT       0.417000       1.00800           0
     80809 TIP3     19455    TIP3     OH2      OT      -0.834000       15.9994           0
     80810 TIP3     19455    TIP3     H1       HT       0.417000       1.00800           0
     80811 TIP3     19455    TIP3     H2       HT       0.417000       1.00800           0
     80812 TIP3     19456    TIP3     OH2      OT      -0.834000       15.9994           0
     80813 TIP3     19456    TIP3     H1       HT       0.417000       1.00800           0
     80814 TIP3     19456    TIP3     H2       HT       0.417000       1.00800           0
     80815 TIP3     19457    TIP3     OH2      OT      -0.834000       15.9994           0
     80816 TIP3     19457    TIP3     H1       HT       0.417000       1.00800           0
     80817 TIP3     19457    TIP3     H2       HT       0.417000       1.00800           0
     80818 TIP3     19458    TIP3     OH2      OT      -0.834000       15.9994           0
     80819 TIP3     19458    TIP3     H1       HT       0.417000       1.00800           0
     80820 TIP3     19458    TIP3     H2       HT       0.417000       1.00800           0
     80821 TIP3     19459    TIP3     OH2      OT      -0.834000       15.9994           0
     80822 TIP3     19459    TIP3     H1       HT       0.417000       1.00800           0
     80823 TIP3     19459    TIP3     H2       HT       0.417000       1.00800           0
     80824 TIP3     19460    TIP3     OH2      OT      -0.834000       15.9994           0
     80825 TIP3     19460    TIP3     H1       HT       0.417000       1.00800           0
     80826 TIP3     19460    TIP3     H2       HT       0.417000       1.00800           0
     80827 TIP3     19461    TIP3     OH2      OT      -0.834000       15.9994           0
     80828 TIP3     19461    TIP3     H1       HT       0.417000       1.00800           0
     80829 TIP3     19461    TIP3     H2       HT       0.417000       1.00800           0
     80830 TIP3     19462    TIP3     OH2      OT      -0.834000       15.9994           0
     80831 TIP3     19462    TIP3     H1       HT       0.417000       1.00800           0
     80832 TIP3     19462    TIP3     H2       HT       0.417000       1.00800           0
     80833 TIP3     19463    TIP3     OH2      OT      -0.834000       15.9994           0
     80834 TIP3     19463    TIP3     H1       HT       0.417000       1.00800           0
     80835 TIP3     19463    TIP3     H2       HT       0.417000       1.00800           0
     80836 TIP3     19464    TIP3     OH2      OT      -0.834000       15.9994           0
     80837 TIP3     19464    TIP3     H1       HT       0.417000       1.00800           0
     80838 TIP3     19464    TIP3     H2       HT       0.417000       1.00800           0
     80839 TIP3     19465    TIP3     OH2      OT      -0.834000       15.9994           0
     80840 TIP3     19465    TIP3     H1       HT       0.417000       1.00800           0
     80841 TIP3     19465    TIP3     H2       HT       0.417000       1.00800           0
     80842 TIP3     19466    TIP3     OH2      OT      -0.834000       15.9994           0
     80843 TIP3     19466    TIP3     H1       HT       0.417000       1.00800           0
     80844 TIP3     19466    TIP3     H2       HT       0.417000       1.00800           0
     80845 TIP3     19467    TIP3     OH2      OT      -0.834000       15.9994           0
     80846 TIP3     19467    TIP3     H1       HT       0.417000       1.00800           0
     80847 TIP3     19467    TIP3     H2       HT       0.417000       1.00800           0
     80848 TIP3     19468    TIP3     OH2      OT      -0.834000       15.9994           0
     80849 TIP3     19468    TIP3     H1       HT       0.417000       1.00800           0
     80850 TIP3     19468    TIP3     H2       HT       0.417000       1.00800           0
     80851 TIP3     19469    TIP3     OH2      OT      -0.834000       15.9994           0
     80852 TIP3     19469    TIP3     H1       HT       0.417000       1.00800           0
     80853 TIP3     19469    TIP3     H2       HT       0.417000       1.00800           0
     80854 TIP3     19470    TIP3     OH2      OT      -0.834000       15.9994           0
     80855 TIP3     19470    TIP3     H1       HT       0.417000       1.00800           0
     80856 TIP3     19470    TIP3     H2       HT       0.417000       1.00800           0
     80857 TIP3     19471    TIP3     OH2      OT      -0.834000       15.9994           0
     80858 TIP3     19471    TIP3     H1       HT       0.417000       1.00800           0
     80859 TIP3     19471    TIP3     H2       HT       0.417000       1.00800           0
     80860 TIP3     19472    TIP3     OH2      OT      -0.834000       15.9994           0
     80861 TIP3     19472    TIP3     H1       HT       0.417000       1.00800           0
     80862 TIP3     19472    TIP3     H2       HT       0.417000       1.00800           0
     80863 TIP3     19473    TIP3     OH2      OT      -0.834000       15.9994           0
     80864 TIP3     19473    TIP3     H1       HT       0.417000       1.00800           0
     80865 TIP3     19473    TIP3     H2       HT       0.417000       1.00800           0
     80866 TIP3     19474    TIP3     OH2      OT      -0.834000       15.9994           0
     80867 TIP3     19474    TIP3     H1       HT       0.417000       1.00800           0
     80868 TIP3     19474    TIP3     H2       HT       0.417000       1.00800           0
     80869 TIP3     19475    TIP3     OH2      OT      -0.834000       15.9994           0
     80870 TIP3     19475    TIP3     H1       HT       0.417000       1.00800           0
     80871 TIP3     19475    TIP3     H2       HT       0.417000       1.00800           0
     80872 TIP3     19476    TIP3     OH2      OT      -0.834000       15.9994           0
     80873 TIP3     19476    TIP3     H1       HT       0.417000       1.00800           0
     80874 TIP3     19476    TIP3     H2       HT       0.417000       1.00800           0
     80875 TIP3     19477    TIP3     OH2      OT      -0.834000       15.9994           0
     80876 TIP3     19477    TIP3     H1       HT       0.417000       1.00800           0
     80877 TIP3     19477    TIP3     H2       HT       0.417000       1.00800           0
     80878 TIP3     19478    TIP3     OH2      OT      -0.834000       15.9994           0
     80879 TIP3     19478    TIP3     H1       HT       0.417000       1.00800           0
     80880 TIP3     19478    TIP3     H2       HT       0.417000       1.00800           0
     80881 TIP3     19479    TIP3     OH2      OT      -0.834000       15.9994           0
     80882 TIP3     19479    TIP3     H1       HT       0.417000       1.00800           0
     80883 TIP3     19479    TIP3     H2       HT       0.417000       1.00800           0
     80884 TIP3     19480    TIP3     OH2      OT      -0.834000       15.9994           0
     80885 TIP3     19480    TIP3     H1       HT       0.417000       1.00800           0
     80886 TIP3     19480    TIP3     H2       HT       0.417000       1.00800           0
     80887 TIP3     19481    TIP3     OH2      OT      -0.834000       15.9994           0
     80888 TIP3     19481    TIP3     H1       HT       0.417000       1.00800           0
     80889 TIP3     19481    TIP3     H2       HT       0.417000       1.00800           0
     80890 TIP3     19482    TIP3     OH2      OT      -0.834000       15.9994           0
     80891 TIP3     19482    TIP3     H1       HT       0.417000       1.00800           0
     80892 TIP3     19482    TIP3     H2       HT       0.417000       1.00800           0
     80893 TIP3     19483    TIP3     OH2      OT      -0.834000       15.9994           0
     80894 TIP3     19483    TIP3     H1       HT       0.417000       1.00800           0
     80895 TIP3     19483    TIP3     H2       HT       0.417000       1.00800           0
     80896 TIP3     19484    TIP3     OH2      OT      -0.834000       15.9994           0
     80897 TIP3     19484    TIP3     H1       HT       0.417000       1.00800           0
     80898 TIP3     19484    TIP3     H2       HT       0.417000       1.00800           0
     80899 TIP3     19485    TIP3     OH2      OT      -0.834000       15.9994           0
     80900 TIP3     19485    TIP3     H1       HT       0.417000       1.00800           0
     80901 TIP3     19485    TIP3     H2       HT       0.417000       1.00800           0
     80902 TIP3     19486    TIP3     OH2      OT      -0.834000       15.9994           0
     80903 TIP3     19486    TIP3     H1       HT       0.417000       1.00800           0
     80904 TIP3     19486    TIP3     H2       HT       0.417000       1.00800           0
     80905 TIP3     19487    TIP3     OH2      OT      -0.834000       15.9994           0
     80906 TIP3     19487    TIP3     H1       HT       0.417000       1.00800           0
     80907 TIP3     19487    TIP3     H2       HT       0.417000       1.00800           0
     80908 TIP3     19488    TIP3     OH2      OT      -0.834000       15.9994           0
     80909 TIP3     19488    TIP3     H1       HT       0.417000       1.00800           0
     80910 TIP3     19488    TIP3     H2       HT       0.417000       1.00800           0
     80911 TIP3     19489    TIP3     OH2      OT      -0.834000       15.9994           0
     80912 TIP3     19489    TIP3     H1       HT       0.417000       1.00800           0
     80913 TIP3     19489    TIP3     H2       HT       0.417000       1.00800           0
     80914 TIP3     19490    TIP3     OH2      OT      -0.834000       15.9994           0
     80915 TIP3     19490    TIP3     H1       HT       0.417000       1.00800           0
     80916 TIP3     19490    TIP3     H2       HT       0.417000       1.00800           0
     80917 TIP3     19491    TIP3     OH2      OT      -0.834000       15.9994           0
     80918 TIP3     19491    TIP3     H1       HT       0.417000       1.00800           0
     80919 TIP3     19491    TIP3     H2       HT       0.417000       1.00800           0
     80920 TIP3     19492    TIP3     OH2      OT      -0.834000       15.9994           0
     80921 TIP3     19492    TIP3     H1       HT       0.417000       1.00800           0
     80922 TIP3     19492    TIP3     H2       HT       0.417000       1.00800           0
     80923 TIP3     19493    TIP3     OH2      OT      -0.834000       15.9994           0
     80924 TIP3     19493    TIP3     H1       HT       0.417000       1.00800           0
     80925 TIP3     19493    TIP3     H2       HT       0.417000       1.00800           0
     80926 TIP3     19494    TIP3     OH2      OT      -0.834000       15.9994           0
     80927 TIP3     19494    TIP3     H1       HT       0.417000       1.00800           0
     80928 TIP3     19494    TIP3     H2       HT       0.417000       1.00800           0
     80929 TIP3     19495    TIP3     OH2      OT      -0.834000       15.9994           0
     80930 TIP3     19495    TIP3     H1       HT       0.417000       1.00800           0
     80931 TIP3     19495    TIP3     H2       HT       0.417000       1.00800           0
     80932 TIP3     19496    TIP3     OH2      OT      -0.834000       15.9994           0
     80933 TIP3     19496    TIP3     H1       HT       0.417000       1.00800           0
     80934 TIP3     19496    TIP3     H2       HT       0.417000       1.00800           0
     80935 TIP3     19497    TIP3     OH2      OT      -0.834000       15.9994           0
     80936 TIP3     19497    TIP3     H1       HT       0.417000       1.00800           0
     80937 TIP3     19497    TIP3     H2       HT       0.417000       1.00800           0
     80938 TIP3     19498    TIP3     OH2      OT      -0.834000       15.9994           0
     80939 TIP3     19498    TIP3     H1       HT       0.417000       1.00800           0
     80940 TIP3     19498    TIP3     H2       HT       0.417000       1.00800           0
     80941 TIP3     19499    TIP3     OH2      OT      -0.834000       15.9994           0
     80942 TIP3     19499    TIP3     H1       HT       0.417000       1.00800           0
     80943 TIP3     19499    TIP3     H2       HT       0.417000       1.00800           0
     80944 TIP3     19500    TIP3     OH2      OT      -0.834000       15.9994           0
     80945 TIP3     19500    TIP3     H1       HT       0.417000       1.00800           0
     80946 TIP3     19500    TIP3     H2       HT       0.417000       1.00800           0
     80947 TIP3     19501    TIP3     OH2      OT      -0.834000       15.9994           0
     80948 TIP3     19501    TIP3     H1       HT       0.417000       1.00800           0
     80949 TIP3     19501    TIP3     H2       HT       0.417000       1.00800           0
     80950 TIP3     19502    TIP3     OH2      OT      -0.834000       15.9994           0
     80951 TIP3     19502    TIP3     H1       HT       0.417000       1.00800           0
     80952 TIP3     19502    TIP3     H2       HT       0.417000       1.00800           0
     80953 TIP3     19503    TIP3     OH2      OT      -0.834000       15.9994           0
     80954 TIP3     19503    TIP3     H1       HT       0.417000       1.00800           0
     80955 TIP3     19503    TIP3     H2       HT       0.417000       1.00800           0
     80956 TIP3     19504    TIP3     OH2      OT      -0.834000       15.9994           0
     80957 TIP3     19504    TIP3     H1       HT       0.417000       1.00800           0
     80958 TIP3     19504    TIP3     H2       HT       0.417000       1.00800           0
     80959 TIP3     19505    TIP3     OH2      OT      -0.834000       15.9994           0
     80960 TIP3     19505    TIP3     H1       HT       0.417000       1.00800           0
     80961 TIP3     19505    TIP3     H2       HT       0.417000       1.00800           0
     80962 TIP3     19506    TIP3     OH2      OT      -0.834000       15.9994           0
     80963 TIP3     19506    TIP3     H1       HT       0.417000       1.00800           0
     80964 TIP3     19506    TIP3     H2       HT       0.417000       1.00800           0
     80965 TIP3     19507    TIP3     OH2      OT      -0.834000       15.9994           0
     80966 TIP3     19507    TIP3     H1       HT       0.417000       1.00800           0
     80967 TIP3     19507    TIP3     H2       HT       0.417000       1.00800           0
     80968 TIP3     19508    TIP3     OH2      OT      -0.834000       15.9994           0
     80969 TIP3     19508    TIP3     H1       HT       0.417000       1.00800           0
     80970 TIP3     19508    TIP3     H2       HT       0.417000       1.00800           0
     80971 TIP3     19509    TIP3     OH2      OT      -0.834000       15.9994           0
     80972 TIP3     19509    TIP3     H1       HT       0.417000       1.00800           0
     80973 TIP3     19509    TIP3     H2       HT       0.417000       1.00800           0
     80974 TIP3     19510    TIP3     OH2      OT      -0.834000       15.9994           0
     80975 TIP3     19510    TIP3     H1       HT       0.417000       1.00800           0
     80976 TIP3     19510    TIP3     H2       HT       0.417000       1.00800           0
     80977 TIP3     19511    TIP3     OH2      OT      -0.834000       15.9994           0
     80978 TIP3     19511    TIP3     H1       HT       0.417000       1.00800           0
     80979 TIP3     19511    TIP3     H2       HT       0.417000       1.00800           0
     80980 TIP3     19512    TIP3     OH2      OT      -0.834000       15.9994           0
     80981 TIP3     19512    TIP3     H1       HT       0.417000       1.00800           0
     80982 TIP3     19512    TIP3     H2       HT       0.417000       1.00800           0
     80983 TIP3     19513    TIP3     OH2      OT      -0.834000       15.9994           0
     80984 TIP3     19513    TIP3     H1       HT       0.417000       1.00800           0
     80985 TIP3     19513    TIP3     H2       HT       0.417000       1.00800           0
     80986 TIP3     19514    TIP3     OH2      OT      -0.834000       15.9994           0
     80987 TIP3     19514    TIP3     H1       HT       0.417000       1.00800           0
     80988 TIP3     19514    TIP3     H2       HT       0.417000       1.00800           0
     80989 TIP3     19515    TIP3     OH2      OT      -0.834000       15.9994           0
     80990 TIP3     19515    TIP3     H1       HT       0.417000       1.00800           0
     80991 TIP3     19515    TIP3     H2       HT       0.417000       1.00800           0
     80992 TIP3     19516    TIP3     OH2      OT      -0.834000       15.9994           0
     80993 TIP3     19516    TIP3     H1       HT       0.417000       1.00800           0
     80994 TIP3     19516    TIP3     H2       HT       0.417000       1.00800           0
     80995 TIP3     19517    TIP3     OH2      OT      -0.834000       15.9994           0
     80996 TIP3     19517    TIP3     H1       HT       0.417000       1.00800           0
     80997 TIP3     19517    TIP3     H2       HT       0.417000       1.00800           0
     80998 TIP3     19518    TIP3     OH2      OT      -0.834000       15.9994           0
     80999 TIP3     19518    TIP3     H1       HT       0.417000       1.00800           0
     81000 TIP3     19518    TIP3     H2       HT       0.417000       1.00800           0
     81001 TIP3     19519    TIP3     OH2      OT      -0.834000       15.9994           0
     81002 TIP3     19519    TIP3     H1       HT       0.417000       1.00800           0
     81003 TIP3     19519    TIP3     H2       HT       0.417000       1.00800           0
     81004 TIP3     19520    TIP3     OH2      OT      -0.834000       15.9994           0
     81005 TIP3     19520    TIP3     H1       HT       0.417000       1.00800           0
     81006 TIP3     19520    TIP3     H2       HT       0.417000       1.00800           0
     81007 TIP3     19521    TIP3     OH2      OT      -0.834000       15.9994           0
     81008 TIP3     19521    TIP3     H1       HT       0.417000       1.00800           0
     81009 TIP3     19521    TIP3     H2       HT       0.417000       1.00800           0
     81010 TIP3     19522    TIP3     OH2      OT      -0.834000       15.9994           0
     81011 TIP3     19522    TIP3     H1       HT       0.417000       1.00800           0
     81012 TIP3     19522    TIP3     H2       HT       0.417000       1.00800           0
     81013 TIP3     19523    TIP3     OH2      OT      -0.834000       15.9994           0
     81014 TIP3     19523    TIP3     H1       HT       0.417000       1.00800           0
     81015 TIP3     19523    TIP3     H2       HT       0.417000       1.00800           0
     81016 TIP3     19524    TIP3     OH2      OT      -0.834000       15.9994           0
     81017 TIP3     19524    TIP3     H1       HT       0.417000       1.00800           0
     81018 TIP3     19524    TIP3     H2       HT       0.417000       1.00800           0
     81019 TIP3     19525    TIP3     OH2      OT      -0.834000       15.9994           0
     81020 TIP3     19525    TIP3     H1       HT       0.417000       1.00800           0
     81021 TIP3     19525    TIP3     H2       HT       0.417000       1.00800           0
     81022 TIP3     19526    TIP3     OH2      OT      -0.834000       15.9994           0
     81023 TIP3     19526    TIP3     H1       HT       0.417000       1.00800           0
     81024 TIP3     19526    TIP3     H2       HT       0.417000       1.00800           0
     81025 TIP3     19527    TIP3     OH2      OT      -0.834000       15.9994           0
     81026 TIP3     19527    TIP3     H1       HT       0.417000       1.00800           0
     81027 TIP3     19527    TIP3     H2       HT       0.417000       1.00800           0
     81028 TIP3     19528    TIP3     OH2      OT      -0.834000       15.9994           0
     81029 TIP3     19528    TIP3     H1       HT       0.417000       1.00800           0
     81030 TIP3     19528    TIP3     H2       HT       0.417000       1.00800           0
     81031 TIP3     19529    TIP3     OH2      OT      -0.834000       15.9994           0
     81032 TIP3     19529    TIP3     H1       HT       0.417000       1.00800           0
     81033 TIP3     19529    TIP3     H2       HT       0.417000       1.00800           0
     81034 TIP3     19530    TIP3     OH2      OT      -0.834000       15.9994           0
     81035 TIP3     19530    TIP3     H1       HT       0.417000       1.00800           0
     81036 TIP3     19530    TIP3     H2       HT       0.417000       1.00800           0
     81037 TIP3     19531    TIP3     OH2      OT      -0.834000       15.9994           0
     81038 TIP3     19531    TIP3     H1       HT       0.417000       1.00800           0
     81039 TIP3     19531    TIP3     H2       HT       0.417000       1.00800           0
     81040 TIP3     19532    TIP3     OH2      OT      -0.834000       15.9994           0
     81041 TIP3     19532    TIP3     H1       HT       0.417000       1.00800           0
     81042 TIP3     19532    TIP3     H2       HT       0.417000       1.00800           0
     81043 TIP3     19533    TIP3     OH2      OT      -0.834000       15.9994           0
     81044 TIP3     19533    TIP3     H1       HT       0.417000       1.00800           0
     81045 TIP3     19533    TIP3     H2       HT       0.417000       1.00800           0
     81046 TIP3     19534    TIP3     OH2      OT      -0.834000       15.9994           0
     81047 TIP3     19534    TIP3     H1       HT       0.417000       1.00800           0
     81048 TIP3     19534    TIP3     H2       HT       0.417000       1.00800           0
     81049 TIP3     19535    TIP3     OH2      OT      -0.834000       15.9994           0
     81050 TIP3     19535    TIP3     H1       HT       0.417000       1.00800           0
     81051 TIP3     19535    TIP3     H2       HT       0.417000       1.00800           0
     81052 TIP3     19536    TIP3     OH2      OT      -0.834000       15.9994           0
     81053 TIP3     19536    TIP3     H1       HT       0.417000       1.00800           0
     81054 TIP3     19536    TIP3     H2       HT       0.417000       1.00800           0
     81055 TIP3     19537    TIP3     OH2      OT      -0.834000       15.9994           0
     81056 TIP3     19537    TIP3     H1       HT       0.417000       1.00800           0
     81057 TIP3     19537    TIP3     H2       HT       0.417000       1.00800           0
     81058 TIP3     19538    TIP3     OH2      OT      -0.834000       15.9994           0
     81059 TIP3     19538    TIP3     H1       HT       0.417000       1.00800           0
     81060 TIP3     19538    TIP3     H2       HT       0.417000       1.00800           0
     81061 TIP3     19539    TIP3     OH2      OT      -0.834000       15.9994           0
     81062 TIP3     19539    TIP3     H1       HT       0.417000       1.00800           0
     81063 TIP3     19539    TIP3     H2       HT       0.417000       1.00800           0
     81064 TIP3     19540    TIP3     OH2      OT      -0.834000       15.9994           0
     81065 TIP3     19540    TIP3     H1       HT       0.417000       1.00800           0
     81066 TIP3     19540    TIP3     H2       HT       0.417000       1.00800           0
     81067 TIP3     19541    TIP3     OH2      OT      -0.834000       15.9994           0
     81068 TIP3     19541    TIP3     H1       HT       0.417000       1.00800           0
     81069 TIP3     19541    TIP3     H2       HT       0.417000       1.00800           0
     81070 TIP3     19542    TIP3     OH2      OT      -0.834000       15.9994           0
     81071 TIP3     19542    TIP3     H1       HT       0.417000       1.00800           0
     81072 TIP3     19542    TIP3     H2       HT       0.417000       1.00800           0
     81073 TIP3     19543    TIP3     OH2      OT      -0.834000       15.9994           0
     81074 TIP3     19543    TIP3     H1       HT       0.417000       1.00800           0
     81075 TIP3     19543    TIP3     H2       HT       0.417000       1.00800           0
     81076 TIP3     19544    TIP3     OH2      OT      -0.834000       15.9994           0
     81077 TIP3     19544    TIP3     H1       HT       0.417000       1.00800           0
     81078 TIP3     19544    TIP3     H2       HT       0.417000       1.00800           0
     81079 TIP3     19545    TIP3     OH2      OT      -0.834000       15.9994           0
     81080 TIP3     19545    TIP3     H1       HT       0.417000       1.00800           0
     81081 TIP3     19545    TIP3     H2       HT       0.417000       1.00800           0
     81082 TIP3     19546    TIP3     OH2      OT      -0.834000       15.9994           0
     81083 TIP3     19546    TIP3     H1       HT       0.417000       1.00800           0
     81084 TIP3     19546    TIP3     H2       HT       0.417000       1.00800           0
     81085 TIP3     19547    TIP3     OH2      OT      -0.834000       15.9994           0
     81086 TIP3     19547    TIP3     H1       HT       0.417000       1.00800           0
     81087 TIP3     19547    TIP3     H2       HT       0.417000       1.00800           0
     81088 TIP3     19548    TIP3     OH2      OT      -0.834000       15.9994           0
     81089 TIP3     19548    TIP3     H1       HT       0.417000       1.00800           0
     81090 TIP3     19548    TIP3     H2       HT       0.417000       1.00800           0
     81091 TIP3     19549    TIP3     OH2      OT      -0.834000       15.9994           0
     81092 TIP3     19549    TIP3     H1       HT       0.417000       1.00800           0
     81093 TIP3     19549    TIP3     H2       HT       0.417000       1.00800           0
     81094 TIP3     19550    TIP3     OH2      OT      -0.834000       15.9994           0
     81095 TIP3     19550    TIP3     H1       HT       0.417000       1.00800           0
     81096 TIP3     19550    TIP3     H2       HT       0.417000       1.00800           0
     81097 TIP3     19551    TIP3     OH2      OT      -0.834000       15.9994           0
     81098 TIP3     19551    TIP3     H1       HT       0.417000       1.00800           0
     81099 TIP3     19551    TIP3     H2       HT       0.417000       1.00800           0
     81100 TIP3     19552    TIP3     OH2      OT      -0.834000       15.9994           0
     81101 TIP3     19552    TIP3     H1       HT       0.417000       1.00800           0
     81102 TIP3     19552    TIP3     H2       HT       0.417000       1.00800           0
     81103 TIP3     19553    TIP3     OH2      OT      -0.834000       15.9994           0
     81104 TIP3     19553    TIP3     H1       HT       0.417000       1.00800           0
     81105 TIP3     19553    TIP3     H2       HT       0.417000       1.00800           0
     81106 TIP3     19554    TIP3     OH2      OT      -0.834000       15.9994           0
     81107 TIP3     19554    TIP3     H1       HT       0.417000       1.00800           0
     81108 TIP3     19554    TIP3     H2       HT       0.417000       1.00800           0
     81109 TIP3     19555    TIP3     OH2      OT      -0.834000       15.9994           0
     81110 TIP3     19555    TIP3     H1       HT       0.417000       1.00800           0
     81111 TIP3     19555    TIP3     H2       HT       0.417000       1.00800           0
     81112 TIP3     19556    TIP3     OH2      OT      -0.834000       15.9994           0
     81113 TIP3     19556    TIP3     H1       HT       0.417000       1.00800           0
     81114 TIP3     19556    TIP3     H2       HT       0.417000       1.00800           0
     81115 TIP3     19557    TIP3     OH2      OT      -0.834000       15.9994           0
     81116 TIP3     19557    TIP3     H1       HT       0.417000       1.00800           0
     81117 TIP3     19557    TIP3     H2       HT       0.417000       1.00800           0
     81118 TIP3     19558    TIP3     OH2      OT      -0.834000       15.9994           0
     81119 TIP3     19558    TIP3     H1       HT       0.417000       1.00800           0
     81120 TIP3     19558    TIP3     H2       HT       0.417000       1.00800           0
     81121 TIP3     19559    TIP3     OH2      OT      -0.834000       15.9994           0
     81122 TIP3     19559    TIP3     H1       HT       0.417000       1.00800           0
     81123 TIP3     19559    TIP3     H2       HT       0.417000       1.00800           0
     81124 TIP3     19560    TIP3     OH2      OT      -0.834000       15.9994           0
     81125 TIP3     19560    TIP3     H1       HT       0.417000       1.00800           0
     81126 TIP3     19560    TIP3     H2       HT       0.417000       1.00800           0
     81127 TIP3     19561    TIP3     OH2      OT      -0.834000       15.9994           0
     81128 TIP3     19561    TIP3     H1       HT       0.417000       1.00800           0
     81129 TIP3     19561    TIP3     H2       HT       0.417000       1.00800           0
     81130 TIP3     19562    TIP3     OH2      OT      -0.834000       15.9994           0
     81131 TIP3     19562    TIP3     H1       HT       0.417000       1.00800           0
     81132 TIP3     19562    TIP3     H2       HT       0.417000       1.00800           0
     81133 TIP3     19563    TIP3     OH2      OT      -0.834000       15.9994           0
     81134 TIP3     19563    TIP3     H1       HT       0.417000       1.00800           0
     81135 TIP3     19563    TIP3     H2       HT       0.417000       1.00800           0
     81136 TIP3     19564    TIP3     OH2      OT      -0.834000       15.9994           0
     81137 TIP3     19564    TIP3     H1       HT       0.417000       1.00800           0
     81138 TIP3     19564    TIP3     H2       HT       0.417000       1.00800           0
     81139 TIP3     19565    TIP3     OH2      OT      -0.834000       15.9994           0
     81140 TIP3     19565    TIP3     H1       HT       0.417000       1.00800           0
     81141 TIP3     19565    TIP3     H2       HT       0.417000       1.00800           0
     81142 TIP3     19566    TIP3     OH2      OT      -0.834000       15.9994           0
     81143 TIP3     19566    TIP3     H1       HT       0.417000       1.00800           0
     81144 TIP3     19566    TIP3     H2       HT       0.417000       1.00800           0
     81145 TIP3     19567    TIP3     OH2      OT      -0.834000       15.9994           0
     81146 TIP3     19567    TIP3     H1       HT       0.417000       1.00800           0
     81147 TIP3     19567    TIP3     H2       HT       0.417000       1.00800           0
     81148 TIP3     19568    TIP3     OH2      OT      -0.834000       15.9994           0
     81149 TIP3     19568    TIP3     H1       HT       0.417000       1.00800           0
     81150 TIP3     19568    TIP3     H2       HT       0.417000       1.00800           0
     81151 TIP3     19569    TIP3     OH2      OT      -0.834000       15.9994           0
     81152 TIP3     19569    TIP3     H1       HT       0.417000       1.00800           0
     81153 TIP3     19569    TIP3     H2       HT       0.417000       1.00800           0
     81154 TIP3     19570    TIP3     OH2      OT      -0.834000       15.9994           0
     81155 TIP3     19570    TIP3     H1       HT       0.417000       1.00800           0
     81156 TIP3     19570    TIP3     H2       HT       0.417000       1.00800           0
     81157 TIP3     19571    TIP3     OH2      OT      -0.834000       15.9994           0
     81158 TIP3     19571    TIP3     H1       HT       0.417000       1.00800           0
     81159 TIP3     19571    TIP3     H2       HT       0.417000       1.00800           0
     81160 TIP3     19572    TIP3     OH2      OT      -0.834000       15.9994           0
     81161 TIP3     19572    TIP3     H1       HT       0.417000       1.00800           0
     81162 TIP3     19572    TIP3     H2       HT       0.417000       1.00800           0
     81163 TIP3     19573    TIP3     OH2      OT      -0.834000       15.9994           0
     81164 TIP3     19573    TIP3     H1       HT       0.417000       1.00800           0
     81165 TIP3     19573    TIP3     H2       HT       0.417000       1.00800           0
     81166 TIP3     19574    TIP3     OH2      OT      -0.834000       15.9994           0
     81167 TIP3     19574    TIP3     H1       HT       0.417000       1.00800           0
     81168 TIP3     19574    TIP3     H2       HT       0.417000       1.00800           0
     81169 TIP3     19575    TIP3     OH2      OT      -0.834000       15.9994           0
     81170 TIP3     19575    TIP3     H1       HT       0.417000       1.00800           0
     81171 TIP3     19575    TIP3     H2       HT       0.417000       1.00800           0
     81172 TIP3     19576    TIP3     OH2      OT      -0.834000       15.9994           0
     81173 TIP3     19576    TIP3     H1       HT       0.417000       1.00800           0
     81174 TIP3     19576    TIP3     H2       HT       0.417000       1.00800           0
     81175 TIP3     19577    TIP3     OH2      OT      -0.834000       15.9994           0
     81176 TIP3     19577    TIP3     H1       HT       0.417000       1.00800           0
     81177 TIP3     19577    TIP3     H2       HT       0.417000       1.00800           0
     81178 TIP3     19578    TIP3     OH2      OT      -0.834000       15.9994           0
     81179 TIP3     19578    TIP3     H1       HT       0.417000       1.00800           0
     81180 TIP3     19578    TIP3     H2       HT       0.417000       1.00800           0
     81181 TIP3     19579    TIP3     OH2      OT      -0.834000       15.9994           0
     81182 TIP3     19579    TIP3     H1       HT       0.417000       1.00800           0
     81183 TIP3     19579    TIP3     H2       HT       0.417000       1.00800           0
     81184 TIP3     19580    TIP3     OH2      OT      -0.834000       15.9994           0
     81185 TIP3     19580    TIP3     H1       HT       0.417000       1.00800           0
     81186 TIP3     19580    TIP3     H2       HT       0.417000       1.00800           0
     81187 TIP3     19581    TIP3     OH2      OT      -0.834000       15.9994           0
     81188 TIP3     19581    TIP3     H1       HT       0.417000       1.00800           0
     81189 TIP3     19581    TIP3     H2       HT       0.417000       1.00800           0
     81190 TIP3     19582    TIP3     OH2      OT      -0.834000       15.9994           0
     81191 TIP3     19582    TIP3     H1       HT       0.417000       1.00800           0
     81192 TIP3     19582    TIP3     H2       HT       0.417000       1.00800           0
     81193 TIP3     19583    TIP3     OH2      OT      -0.834000       15.9994           0
     81194 TIP3     19583    TIP3     H1       HT       0.417000       1.00800           0
     81195 TIP3     19583    TIP3     H2       HT       0.417000       1.00800           0
     81196 TIP3     19584    TIP3     OH2      OT      -0.834000       15.9994           0
     81197 TIP3     19584    TIP3     H1       HT       0.417000       1.00800           0
     81198 TIP3     19584    TIP3     H2       HT       0.417000       1.00800           0
     81199 TIP3     19585    TIP3     OH2      OT      -0.834000       15.9994           0
     81200 TIP3     19585    TIP3     H1       HT       0.417000       1.00800           0
     81201 TIP3     19585    TIP3     H2       HT       0.417000       1.00800           0
     81202 TIP3     19586    TIP3     OH2      OT      -0.834000       15.9994           0
     81203 TIP3     19586    TIP3     H1       HT       0.417000       1.00800           0
     81204 TIP3     19586    TIP3     H2       HT       0.417000       1.00800           0
     81205 TIP3     19587    TIP3     OH2      OT      -0.834000       15.9994           0
     81206 TIP3     19587    TIP3     H1       HT       0.417000       1.00800           0
     81207 TIP3     19587    TIP3     H2       HT       0.417000       1.00800           0
     81208 TIP3     19588    TIP3     OH2      OT      -0.834000       15.9994           0
     81209 TIP3     19588    TIP3     H1       HT       0.417000       1.00800           0
     81210 TIP3     19588    TIP3     H2       HT       0.417000       1.00800           0
     81211 TIP3     19589    TIP3     OH2      OT      -0.834000       15.9994           0
     81212 TIP3     19589    TIP3     H1       HT       0.417000       1.00800           0
     81213 TIP3     19589    TIP3     H2       HT       0.417000       1.00800           0
     81214 TIP3     19590    TIP3     OH2      OT      -0.834000       15.9994           0
     81215 TIP3     19590    TIP3     H1       HT       0.417000       1.00800           0
     81216 TIP3     19590    TIP3     H2       HT       0.417000       1.00800           0
     81217 TIP3     19591    TIP3     OH2      OT      -0.834000       15.9994           0
     81218 TIP3     19591    TIP3     H1       HT       0.417000       1.00800           0
     81219 TIP3     19591    TIP3     H2       HT       0.417000       1.00800           0
     81220 TIP3     19592    TIP3     OH2      OT      -0.834000       15.9994           0
     81221 TIP3     19592    TIP3     H1       HT       0.417000       1.00800           0
     81222 TIP3     19592    TIP3     H2       HT       0.417000       1.00800           0
     81223 TIP3     19593    TIP3     OH2      OT      -0.834000       15.9994           0
     81224 TIP3     19593    TIP3     H1       HT       0.417000       1.00800           0
     81225 TIP3     19593    TIP3     H2       HT       0.417000       1.00800           0
     81226 TIP3     19594    TIP3     OH2      OT      -0.834000       15.9994           0
     81227 TIP3     19594    TIP3     H1       HT       0.417000       1.00800           0
     81228 TIP3     19594    TIP3     H2       HT       0.417000       1.00800           0
     81229 TIP3     19595    TIP3     OH2      OT      -0.834000       15.9994           0
     81230 TIP3     19595    TIP3     H1       HT       0.417000       1.00800           0
     81231 TIP3     19595    TIP3     H2       HT       0.417000       1.00800           0
     81232 TIP3     19596    TIP3     OH2      OT      -0.834000       15.9994           0
     81233 TIP3     19596    TIP3     H1       HT       0.417000       1.00800           0
     81234 TIP3     19596    TIP3     H2       HT       0.417000       1.00800           0
     81235 TIP3     19597    TIP3     OH2      OT      -0.834000       15.9994           0
     81236 TIP3     19597    TIP3     H1       HT       0.417000       1.00800           0
     81237 TIP3     19597    TIP3     H2       HT       0.417000       1.00800           0
     81238 TIP3     19598    TIP3     OH2      OT      -0.834000       15.9994           0
     81239 TIP3     19598    TIP3     H1       HT       0.417000       1.00800           0
     81240 TIP3     19598    TIP3     H2       HT       0.417000       1.00800           0
     81241 TIP3     19599    TIP3     OH2      OT      -0.834000       15.9994           0
     81242 TIP3     19599    TIP3     H1       HT       0.417000       1.00800           0
     81243 TIP3     19599    TIP3     H2       HT       0.417000       1.00800           0
     81244 TIP3     19600    TIP3     OH2      OT      -0.834000       15.9994           0
     81245 TIP3     19600    TIP3     H1       HT       0.417000       1.00800           0
     81246 TIP3     19600    TIP3     H2       HT       0.417000       1.00800           0
     81247 TIP3     19601    TIP3     OH2      OT      -0.834000       15.9994           0
     81248 TIP3     19601    TIP3     H1       HT       0.417000       1.00800           0
     81249 TIP3     19601    TIP3     H2       HT       0.417000       1.00800           0
     81250 TIP3     19602    TIP3     OH2      OT      -0.834000       15.9994           0
     81251 TIP3     19602    TIP3     H1       HT       0.417000       1.00800           0
     81252 TIP3     19602    TIP3     H2       HT       0.417000       1.00800           0
     81253 TIP3     19603    TIP3     OH2      OT      -0.834000       15.9994           0
     81254 TIP3     19603    TIP3     H1       HT       0.417000       1.00800           0
     81255 TIP3     19603    TIP3     H2       HT       0.417000       1.00800           0
     81256 TIP3     19604    TIP3     OH2      OT      -0.834000       15.9994           0
     81257 TIP3     19604    TIP3     H1       HT       0.417000       1.00800           0
     81258 TIP3     19604    TIP3     H2       HT       0.417000       1.00800           0
     81259 TIP3     19605    TIP3     OH2      OT      -0.834000       15.9994           0
     81260 TIP3     19605    TIP3     H1       HT       0.417000       1.00800           0
     81261 TIP3     19605    TIP3     H2       HT       0.417000       1.00800           0
     81262 TIP3     19606    TIP3     OH2      OT      -0.834000       15.9994           0
     81263 TIP3     19606    TIP3     H1       HT       0.417000       1.00800           0
     81264 TIP3     19606    TIP3     H2       HT       0.417000       1.00800           0
     81265 TIP3     19607    TIP3     OH2      OT      -0.834000       15.9994           0
     81266 TIP3     19607    TIP3     H1       HT       0.417000       1.00800           0
     81267 TIP3     19607    TIP3     H2       HT       0.417000       1.00800           0
     81268 TIP3     19608    TIP3     OH2      OT      -0.834000       15.9994           0
     81269 TIP3     19608    TIP3     H1       HT       0.417000       1.00800           0
     81270 TIP3     19608    TIP3     H2       HT       0.417000       1.00800           0
     81271 TIP3     19609    TIP3     OH2      OT      -0.834000       15.9994           0
     81272 TIP3     19609    TIP3     H1       HT       0.417000       1.00800           0
     81273 TIP3     19609    TIP3     H2       HT       0.417000       1.00800           0
     81274 TIP3     19610    TIP3     OH2      OT      -0.834000       15.9994           0
     81275 TIP3     19610    TIP3     H1       HT       0.417000       1.00800           0
     81276 TIP3     19610    TIP3     H2       HT       0.417000       1.00800           0
     81277 TIP3     19611    TIP3     OH2      OT      -0.834000       15.9994           0
     81278 TIP3     19611    TIP3     H1       HT       0.417000       1.00800           0
     81279 TIP3     19611    TIP3     H2       HT       0.417000       1.00800           0
     81280 TIP3     19612    TIP3     OH2      OT      -0.834000       15.9994           0
     81281 TIP3     19612    TIP3     H1       HT       0.417000       1.00800           0
     81282 TIP3     19612    TIP3     H2       HT       0.417000       1.00800           0
     81283 TIP3     19613    TIP3     OH2      OT      -0.834000       15.9994           0
     81284 TIP3     19613    TIP3     H1       HT       0.417000       1.00800           0
     81285 TIP3     19613    TIP3     H2       HT       0.417000       1.00800           0
     81286 TIP3     19614    TIP3     OH2      OT      -0.834000       15.9994           0
     81287 TIP3     19614    TIP3     H1       HT       0.417000       1.00800           0
     81288 TIP3     19614    TIP3     H2       HT       0.417000       1.00800           0
     81289 TIP3     19615    TIP3     OH2      OT      -0.834000       15.9994           0
     81290 TIP3     19615    TIP3     H1       HT       0.417000       1.00800           0
     81291 TIP3     19615    TIP3     H2       HT       0.417000       1.00800           0
     81292 TIP3     19616    TIP3     OH2      OT      -0.834000       15.9994           0
     81293 TIP3     19616    TIP3     H1       HT       0.417000       1.00800           0
     81294 TIP3     19616    TIP3     H2       HT       0.417000       1.00800           0
     81295 TIP3     19617    TIP3     OH2      OT      -0.834000       15.9994           0
     81296 TIP3     19617    TIP3     H1       HT       0.417000       1.00800           0
     81297 TIP3     19617    TIP3     H2       HT       0.417000       1.00800           0
     81298 TIP3     19618    TIP3     OH2      OT      -0.834000       15.9994           0
     81299 TIP3     19618    TIP3     H1       HT       0.417000       1.00800           0
     81300 TIP3     19618    TIP3     H2       HT       0.417000       1.00800           0
     81301 TIP3     19619    TIP3     OH2      OT      -0.834000       15.9994           0
     81302 TIP3     19619    TIP3     H1       HT       0.417000       1.00800           0
     81303 TIP3     19619    TIP3     H2       HT       0.417000       1.00800           0
     81304 TIP3     19620    TIP3     OH2      OT      -0.834000       15.9994           0
     81305 TIP3     19620    TIP3     H1       HT       0.417000       1.00800           0
     81306 TIP3     19620    TIP3     H2       HT       0.417000       1.00800           0
     81307 TIP3     19621    TIP3     OH2      OT      -0.834000       15.9994           0
     81308 TIP3     19621    TIP3     H1       HT       0.417000       1.00800           0
     81309 TIP3     19621    TIP3     H2       HT       0.417000       1.00800           0
     81310 TIP3     19622    TIP3     OH2      OT      -0.834000       15.9994           0
     81311 TIP3     19622    TIP3     H1       HT       0.417000       1.00800           0
     81312 TIP3     19622    TIP3     H2       HT       0.417000       1.00800           0
     81313 TIP3     19623    TIP3     OH2      OT      -0.834000       15.9994           0
     81314 TIP3     19623    TIP3     H1       HT       0.417000       1.00800           0
     81315 TIP3     19623    TIP3     H2       HT       0.417000       1.00800           0
     81316 TIP3     19624    TIP3     OH2      OT      -0.834000       15.9994           0
     81317 TIP3     19624    TIP3     H1       HT       0.417000       1.00800           0
     81318 TIP3     19624    TIP3     H2       HT       0.417000       1.00800           0
     81319 TIP3     19625    TIP3     OH2      OT      -0.834000       15.9994           0
     81320 TIP3     19625    TIP3     H1       HT       0.417000       1.00800           0
     81321 TIP3     19625    TIP3     H2       HT       0.417000       1.00800           0
     81322 TIP3     19626    TIP3     OH2      OT      -0.834000       15.9994           0
     81323 TIP3     19626    TIP3     H1       HT       0.417000       1.00800           0
     81324 TIP3     19626    TIP3     H2       HT       0.417000       1.00800           0
     81325 TIP3     19627    TIP3     OH2      OT      -0.834000       15.9994           0
     81326 TIP3     19627    TIP3     H1       HT       0.417000       1.00800           0
     81327 TIP3     19627    TIP3     H2       HT       0.417000       1.00800           0
     81328 TIP3     19628    TIP3     OH2      OT      -0.834000       15.9994           0
     81329 TIP3     19628    TIP3     H1       HT       0.417000       1.00800           0
     81330 TIP3     19628    TIP3     H2       HT       0.417000       1.00800           0
     81331 TIP3     19629    TIP3     OH2      OT      -0.834000       15.9994           0
     81332 TIP3     19629    TIP3     H1       HT       0.417000       1.00800           0
     81333 TIP3     19629    TIP3     H2       HT       0.417000       1.00800           0
     81334 TIP3     19630    TIP3     OH2      OT      -0.834000       15.9994           0
     81335 TIP3     19630    TIP3     H1       HT       0.417000       1.00800           0
     81336 TIP3     19630    TIP3     H2       HT       0.417000       1.00800           0
     81337 TIP3     19631    TIP3     OH2      OT      -0.834000       15.9994           0
     81338 TIP3     19631    TIP3     H1       HT       0.417000       1.00800           0
     81339 TIP3     19631    TIP3     H2       HT       0.417000       1.00800           0
     81340 TIP3     19632    TIP3     OH2      OT      -0.834000       15.9994           0
     81341 TIP3     19632    TIP3     H1       HT       0.417000       1.00800           0
     81342 TIP3     19632    TIP3     H2       HT       0.417000       1.00800           0
     81343 TIP3     19633    TIP3     OH2      OT      -0.834000       15.9994           0
     81344 TIP3     19633    TIP3     H1       HT       0.417000       1.00800           0
     81345 TIP3     19633    TIP3     H2       HT       0.417000       1.00800           0
     81346 TIP3     19634    TIP3     OH2      OT      -0.834000       15.9994           0
     81347 TIP3     19634    TIP3     H1       HT       0.417000       1.00800           0
     81348 TIP3     19634    TIP3     H2       HT       0.417000       1.00800           0
     81349 TIP3     19635    TIP3     OH2      OT      -0.834000       15.9994           0
     81350 TIP3     19635    TIP3     H1       HT       0.417000       1.00800           0
     81351 TIP3     19635    TIP3     H2       HT       0.417000       1.00800           0
     81352 TIP3     19636    TIP3     OH2      OT      -0.834000       15.9994           0
     81353 TIP3     19636    TIP3     H1       HT       0.417000       1.00800           0
     81354 TIP3     19636    TIP3     H2       HT       0.417000       1.00800           0
     81355 TIP3     19637    TIP3     OH2      OT      -0.834000       15.9994           0
     81356 TIP3     19637    TIP3     H1       HT       0.417000       1.00800           0
     81357 TIP3     19637    TIP3     H2       HT       0.417000       1.00800           0
     81358 TIP3     19638    TIP3     OH2      OT      -0.834000       15.9994           0
     81359 TIP3     19638    TIP3     H1       HT       0.417000       1.00800           0
     81360 TIP3     19638    TIP3     H2       HT       0.417000       1.00800           0
     81361 TIP3     19639    TIP3     OH2      OT      -0.834000       15.9994           0
     81362 TIP3     19639    TIP3     H1       HT       0.417000       1.00800           0
     81363 TIP3     19639    TIP3     H2       HT       0.417000       1.00800           0
     81364 TIP3     19640    TIP3     OH2      OT      -0.834000       15.9994           0
     81365 TIP3     19640    TIP3     H1       HT       0.417000       1.00800           0
     81366 TIP3     19640    TIP3     H2       HT       0.417000       1.00800           0
     81367 TIP3     19641    TIP3     OH2      OT      -0.834000       15.9994           0
     81368 TIP3     19641    TIP3     H1       HT       0.417000       1.00800           0
     81369 TIP3     19641    TIP3     H2       HT       0.417000       1.00800           0
     81370 TIP3     19642    TIP3     OH2      OT      -0.834000       15.9994           0
     81371 TIP3     19642    TIP3     H1       HT       0.417000       1.00800           0
     81372 TIP3     19642    TIP3     H2       HT       0.417000       1.00800           0
     81373 TIP3     19643    TIP3     OH2      OT      -0.834000       15.9994           0
     81374 TIP3     19643    TIP3     H1       HT       0.417000       1.00800           0
     81375 TIP3     19643    TIP3     H2       HT       0.417000       1.00800           0
     81376 TIP3     19644    TIP3     OH2      OT      -0.834000       15.9994           0
     81377 TIP3     19644    TIP3     H1       HT       0.417000       1.00800           0
     81378 TIP3     19644    TIP3     H2       HT       0.417000       1.00800           0
     81379 TIP3     19645    TIP3     OH2      OT      -0.834000       15.9994           0
     81380 TIP3     19645    TIP3     H1       HT       0.417000       1.00800           0
     81381 TIP3     19645    TIP3     H2       HT       0.417000       1.00800           0
     81382 TIP3     19646    TIP3     OH2      OT      -0.834000       15.9994           0
     81383 TIP3     19646    TIP3     H1       HT       0.417000       1.00800           0
     81384 TIP3     19646    TIP3     H2       HT       0.417000       1.00800           0
     81385 TIP3     19647    TIP3     OH2      OT      -0.834000       15.9994           0
     81386 TIP3     19647    TIP3     H1       HT       0.417000       1.00800           0
     81387 TIP3     19647    TIP3     H2       HT       0.417000       1.00800           0
     81388 TIP3     19648    TIP3     OH2      OT      -0.834000       15.9994           0
     81389 TIP3     19648    TIP3     H1       HT       0.417000       1.00800           0
     81390 TIP3     19648    TIP3     H2       HT       0.417000       1.00800           0
     81391 TIP3     19649    TIP3     OH2      OT      -0.834000       15.9994           0
     81392 TIP3     19649    TIP3     H1       HT       0.417000       1.00800           0
     81393 TIP3     19649    TIP3     H2       HT       0.417000       1.00800           0
     81394 TIP3     19650    TIP3     OH2      OT      -0.834000       15.9994           0
     81395 TIP3     19650    TIP3     H1       HT       0.417000       1.00800           0
     81396 TIP3     19650    TIP3     H2       HT       0.417000       1.00800           0
     81397 TIP3     19651    TIP3     OH2      OT      -0.834000       15.9994           0
     81398 TIP3     19651    TIP3     H1       HT       0.417000       1.00800           0
     81399 TIP3     19651    TIP3     H2       HT       0.417000       1.00800           0
     81400 TIP3     19652    TIP3     OH2      OT      -0.834000       15.9994           0
     81401 TIP3     19652    TIP3     H1       HT       0.417000       1.00800           0
     81402 TIP3     19652    TIP3     H2       HT       0.417000       1.00800           0
     81403 TIP3     19653    TIP3     OH2      OT      -0.834000       15.9994           0
     81404 TIP3     19653    TIP3     H1       HT       0.417000       1.00800           0
     81405 TIP3     19653    TIP3     H2       HT       0.417000       1.00800           0
     81406 TIP3     19654    TIP3     OH2      OT      -0.834000       15.9994           0
     81407 TIP3     19654    TIP3     H1       HT       0.417000       1.00800           0
     81408 TIP3     19654    TIP3     H2       HT       0.417000       1.00800           0
     81409 TIP3     19655    TIP3     OH2      OT      -0.834000       15.9994           0
     81410 TIP3     19655    TIP3     H1       HT       0.417000       1.00800           0
     81411 TIP3     19655    TIP3     H2       HT       0.417000       1.00800           0
     81412 TIP3     19656    TIP3     OH2      OT      -0.834000       15.9994           0
     81413 TIP3     19656    TIP3     H1       HT       0.417000       1.00800           0
     81414 TIP3     19656    TIP3     H2       HT       0.417000       1.00800           0
     81415 TIP3     19657    TIP3     OH2      OT      -0.834000       15.9994           0
     81416 TIP3     19657    TIP3     H1       HT       0.417000       1.00800           0
     81417 TIP3     19657    TIP3     H2       HT       0.417000       1.00800           0
     81418 TIP3     19658    TIP3     OH2      OT      -0.834000       15.9994           0
     81419 TIP3     19658    TIP3     H1       HT       0.417000       1.00800           0
     81420 TIP3     19658    TIP3     H2       HT       0.417000       1.00800           0
     81421 TIP3     19659    TIP3     OH2      OT      -0.834000       15.9994           0
     81422 TIP3     19659    TIP3     H1       HT       0.417000       1.00800           0
     81423 TIP3     19659    TIP3     H2       HT       0.417000       1.00800           0
     81424 TIP3     19660    TIP3     OH2      OT      -0.834000       15.9994           0
     81425 TIP3     19660    TIP3     H1       HT       0.417000       1.00800           0
     81426 TIP3     19660    TIP3     H2       HT       0.417000       1.00800           0
     81427 TIP3     19661    TIP3     OH2      OT      -0.834000       15.9994           0
     81428 TIP3     19661    TIP3     H1       HT       0.417000       1.00800           0
     81429 TIP3     19661    TIP3     H2       HT       0.417000       1.00800           0
     81430 TIP3     19662    TIP3     OH2      OT      -0.834000       15.9994           0
     81431 TIP3     19662    TIP3     H1       HT       0.417000       1.00800           0
     81432 TIP3     19662    TIP3     H2       HT       0.417000       1.00800           0
     81433 TIP3     19663    TIP3     OH2      OT      -0.834000       15.9994           0
     81434 TIP3     19663    TIP3     H1       HT       0.417000       1.00800           0
     81435 TIP3     19663    TIP3     H2       HT       0.417000       1.00800           0
     81436 TIP3     19664    TIP3     OH2      OT      -0.834000       15.9994           0
     81437 TIP3     19664    TIP3     H1       HT       0.417000       1.00800           0
     81438 TIP3     19664    TIP3     H2       HT       0.417000       1.00800           0
     81439 TIP3     19665    TIP3     OH2      OT      -0.834000       15.9994           0
     81440 TIP3     19665    TIP3     H1       HT       0.417000       1.00800           0
     81441 TIP3     19665    TIP3     H2       HT       0.417000       1.00800           0
     81442 TIP3     19666    TIP3     OH2      OT      -0.834000       15.9994           0
     81443 TIP3     19666    TIP3     H1       HT       0.417000       1.00800           0
     81444 TIP3     19666    TIP3     H2       HT       0.417000       1.00800           0
     81445 TIP3     19667    TIP3     OH2      OT      -0.834000       15.9994           0
     81446 TIP3     19667    TIP3     H1       HT       0.417000       1.00800           0
     81447 TIP3     19667    TIP3     H2       HT       0.417000       1.00800           0
     81448 TIP3     19668    TIP3     OH2      OT      -0.834000       15.9994           0
     81449 TIP3     19668    TIP3     H1       HT       0.417000       1.00800           0
     81450 TIP3     19668    TIP3     H2       HT       0.417000       1.00800           0
     81451 TIP3     19669    TIP3     OH2      OT      -0.834000       15.9994           0
     81452 TIP3     19669    TIP3     H1       HT       0.417000       1.00800           0
     81453 TIP3     19669    TIP3     H2       HT       0.417000       1.00800           0
     81454 TIP3     19670    TIP3     OH2      OT      -0.834000       15.9994           0
     81455 TIP3     19670    TIP3     H1       HT       0.417000       1.00800           0
     81456 TIP3     19670    TIP3     H2       HT       0.417000       1.00800           0
     81457 TIP3     19671    TIP3     OH2      OT      -0.834000       15.9994           0
     81458 TIP3     19671    TIP3     H1       HT       0.417000       1.00800           0
     81459 TIP3     19671    TIP3     H2       HT       0.417000       1.00800           0
     81460 TIP3     19672    TIP3     OH2      OT      -0.834000       15.9994           0
     81461 TIP3     19672    TIP3     H1       HT       0.417000       1.00800           0
     81462 TIP3     19672    TIP3     H2       HT       0.417000       1.00800           0
     81463 TIP3     19673    TIP3     OH2      OT      -0.834000       15.9994           0
     81464 TIP3     19673    TIP3     H1       HT       0.417000       1.00800           0
     81465 TIP3     19673    TIP3     H2       HT       0.417000       1.00800           0
     81466 TIP3     19674    TIP3     OH2      OT      -0.834000       15.9994           0
     81467 TIP3     19674    TIP3     H1       HT       0.417000       1.00800           0
     81468 TIP3     19674    TIP3     H2       HT       0.417000       1.00800           0
     81469 TIP3     19675    TIP3     OH2      OT      -0.834000       15.9994           0
     81470 TIP3     19675    TIP3     H1       HT       0.417000       1.00800           0
     81471 TIP3     19675    TIP3     H2       HT       0.417000       1.00800           0
     81472 TIP3     19676    TIP3     OH2      OT      -0.834000       15.9994           0
     81473 TIP3     19676    TIP3     H1       HT       0.417000       1.00800           0
     81474 TIP3     19676    TIP3     H2       HT       0.417000       1.00800           0
     81475 TIP3     19677    TIP3     OH2      OT      -0.834000       15.9994           0
     81476 TIP3     19677    TIP3     H1       HT       0.417000       1.00800           0
     81477 TIP3     19677    TIP3     H2       HT       0.417000       1.00800           0
     81478 TIP3     19678    TIP3     OH2      OT      -0.834000       15.9994           0
     81479 TIP3     19678    TIP3     H1       HT       0.417000       1.00800           0
     81480 TIP3     19678    TIP3     H2       HT       0.417000       1.00800           0
     81481 TIP3     19679    TIP3     OH2      OT      -0.834000       15.9994           0
     81482 TIP3     19679    TIP3     H1       HT       0.417000       1.00800           0
     81483 TIP3     19679    TIP3     H2       HT       0.417000       1.00800           0
     81484 TIP3     19680    TIP3     OH2      OT      -0.834000       15.9994           0
     81485 TIP3     19680    TIP3     H1       HT       0.417000       1.00800           0
     81486 TIP3     19680    TIP3     H2       HT       0.417000       1.00800           0
     81487 TIP3     19681    TIP3     OH2      OT      -0.834000       15.9994           0
     81488 TIP3     19681    TIP3     H1       HT       0.417000       1.00800           0
     81489 TIP3     19681    TIP3     H2       HT       0.417000       1.00800           0
     81490 TIP3     19682    TIP3     OH2      OT      -0.834000       15.9994           0
     81491 TIP3     19682    TIP3     H1       HT       0.417000       1.00800           0
     81492 TIP3     19682    TIP3     H2       HT       0.417000       1.00800           0
     81493 TIP3     19683    TIP3     OH2      OT      -0.834000       15.9994           0
     81494 TIP3     19683    TIP3     H1       HT       0.417000       1.00800           0
     81495 TIP3     19683    TIP3     H2       HT       0.417000       1.00800           0
     81496 TIP3     19684    TIP3     OH2      OT      -0.834000       15.9994           0
     81497 TIP3     19684    TIP3     H1       HT       0.417000       1.00800           0
     81498 TIP3     19684    TIP3     H2       HT       0.417000       1.00800           0
     81499 TIP3     19685    TIP3     OH2      OT      -0.834000       15.9994           0
     81500 TIP3     19685    TIP3     H1       HT       0.417000       1.00800           0
     81501 TIP3     19685    TIP3     H2       HT       0.417000       1.00800           0
     81502 TIP3     19686    TIP3     OH2      OT      -0.834000       15.9994           0
     81503 TIP3     19686    TIP3     H1       HT       0.417000       1.00800           0
     81504 TIP3     19686    TIP3     H2       HT       0.417000       1.00800           0
     81505 TIP3     19687    TIP3     OH2      OT      -0.834000       15.9994           0
     81506 TIP3     19687    TIP3     H1       HT       0.417000       1.00800           0
     81507 TIP3     19687    TIP3     H2       HT       0.417000       1.00800           0
     81508 TIP3     19688    TIP3     OH2      OT      -0.834000       15.9994           0
     81509 TIP3     19688    TIP3     H1       HT       0.417000       1.00800           0
     81510 TIP3     19688    TIP3     H2       HT       0.417000       1.00800           0
     81511 TIP3     19689    TIP3     OH2      OT      -0.834000       15.9994           0
     81512 TIP3     19689    TIP3     H1       HT       0.417000       1.00800           0
     81513 TIP3     19689    TIP3     H2       HT       0.417000       1.00800           0
     81514 TIP3     19690    TIP3     OH2      OT      -0.834000       15.9994           0
     81515 TIP3     19690    TIP3     H1       HT       0.417000       1.00800           0
     81516 TIP3     19690    TIP3     H2       HT       0.417000       1.00800           0
     81517 TIP3     19691    TIP3     OH2      OT      -0.834000       15.9994           0
     81518 TIP3     19691    TIP3     H1       HT       0.417000       1.00800           0
     81519 TIP3     19691    TIP3     H2       HT       0.417000       1.00800           0
     81520 TIP3     19692    TIP3     OH2      OT      -0.834000       15.9994           0
     81521 TIP3     19692    TIP3     H1       HT       0.417000       1.00800           0
     81522 TIP3     19692    TIP3     H2       HT       0.417000       1.00800           0
     81523 TIP3     19693    TIP3     OH2      OT      -0.834000       15.9994           0
     81524 TIP3     19693    TIP3     H1       HT       0.417000       1.00800           0
     81525 TIP3     19693    TIP3     H2       HT       0.417000       1.00800           0
     81526 TIP3     19694    TIP3     OH2      OT      -0.834000       15.9994           0
     81527 TIP3     19694    TIP3     H1       HT       0.417000       1.00800           0
     81528 TIP3     19694    TIP3     H2       HT       0.417000       1.00800           0
     81529 TIP3     19695    TIP3     OH2      OT      -0.834000       15.9994           0
     81530 TIP3     19695    TIP3     H1       HT       0.417000       1.00800           0
     81531 TIP3     19695    TIP3     H2       HT       0.417000       1.00800           0
     81532 TIP3     19696    TIP3     OH2      OT      -0.834000       15.9994           0
     81533 TIP3     19696    TIP3     H1       HT       0.417000       1.00800           0
     81534 TIP3     19696    TIP3     H2       HT       0.417000       1.00800           0
     81535 TIP3     19697    TIP3     OH2      OT      -0.834000       15.9994           0
     81536 TIP3     19697    TIP3     H1       HT       0.417000       1.00800           0
     81537 TIP3     19697    TIP3     H2       HT       0.417000       1.00800           0
     81538 TIP3     19698    TIP3     OH2      OT      -0.834000       15.9994           0
     81539 TIP3     19698    TIP3     H1       HT       0.417000       1.00800           0
     81540 TIP3     19698    TIP3     H2       HT       0.417000       1.00800           0
     81541 TIP3     19699    TIP3     OH2      OT      -0.834000       15.9994           0
     81542 TIP3     19699    TIP3     H1       HT       0.417000       1.00800           0
     81543 TIP3     19699    TIP3     H2       HT       0.417000       1.00800           0
     81544 TIP3     19700    TIP3     OH2      OT      -0.834000       15.9994           0
     81545 TIP3     19700    TIP3     H1       HT       0.417000       1.00800           0
     81546 TIP3     19700    TIP3     H2       HT       0.417000       1.00800           0
     81547 TIP3     19701    TIP3     OH2      OT      -0.834000       15.9994           0
     81548 TIP3     19701    TIP3     H1       HT       0.417000       1.00800           0
     81549 TIP3     19701    TIP3     H2       HT       0.417000       1.00800           0
     81550 TIP3     19702    TIP3     OH2      OT      -0.834000       15.9994           0
     81551 TIP3     19702    TIP3     H1       HT       0.417000       1.00800           0
     81552 TIP3     19702    TIP3     H2       HT       0.417000       1.00800           0
     81553 TIP3     19703    TIP3     OH2      OT      -0.834000       15.9994           0
     81554 TIP3     19703    TIP3     H1       HT       0.417000       1.00800           0
     81555 TIP3     19703    TIP3     H2       HT       0.417000       1.00800           0
     81556 TIP3     19704    TIP3     OH2      OT      -0.834000       15.9994           0
     81557 TIP3     19704    TIP3     H1       HT       0.417000       1.00800           0
     81558 TIP3     19704    TIP3     H2       HT       0.417000       1.00800           0
     81559 TIP3     19705    TIP3     OH2      OT      -0.834000       15.9994           0
     81560 TIP3     19705    TIP3     H1       HT       0.417000       1.00800           0
     81561 TIP3     19705    TIP3     H2       HT       0.417000       1.00800           0
     81562 TIP3     19706    TIP3     OH2      OT      -0.834000       15.9994           0
     81563 TIP3     19706    TIP3     H1       HT       0.417000       1.00800           0
     81564 TIP3     19706    TIP3     H2       HT       0.417000       1.00800           0
     81565 TIP3     19707    TIP3     OH2      OT      -0.834000       15.9994           0
     81566 TIP3     19707    TIP3     H1       HT       0.417000       1.00800           0
     81567 TIP3     19707    TIP3     H2       HT       0.417000       1.00800           0
     81568 TIP3     19708    TIP3     OH2      OT      -0.834000       15.9994           0
     81569 TIP3     19708    TIP3     H1       HT       0.417000       1.00800           0
     81570 TIP3     19708    TIP3     H2       HT       0.417000       1.00800           0
     81571 TIP3     19709    TIP3     OH2      OT      -0.834000       15.9994           0
     81572 TIP3     19709    TIP3     H1       HT       0.417000       1.00800           0
     81573 TIP3     19709    TIP3     H2       HT       0.417000       1.00800           0
     81574 TIP3     19710    TIP3     OH2      OT      -0.834000       15.9994           0
     81575 TIP3     19710    TIP3     H1       HT       0.417000       1.00800           0
     81576 TIP3     19710    TIP3     H2       HT       0.417000       1.00800           0
     81577 TIP3     19711    TIP3     OH2      OT      -0.834000       15.9994           0
     81578 TIP3     19711    TIP3     H1       HT       0.417000       1.00800           0
     81579 TIP3     19711    TIP3     H2       HT       0.417000       1.00800           0
     81580 TIP3     19712    TIP3     OH2      OT      -0.834000       15.9994           0
     81581 TIP3     19712    TIP3     H1       HT       0.417000       1.00800           0
     81582 TIP3     19712    TIP3     H2       HT       0.417000       1.00800           0
     81583 TIP3     19713    TIP3     OH2      OT      -0.834000       15.9994           0
     81584 TIP3     19713    TIP3     H1       HT       0.417000       1.00800           0
     81585 TIP3     19713    TIP3     H2       HT       0.417000       1.00800           0
     81586 TIP3     19714    TIP3     OH2      OT      -0.834000       15.9994           0
     81587 TIP3     19714    TIP3     H1       HT       0.417000       1.00800           0
     81588 TIP3     19714    TIP3     H2       HT       0.417000       1.00800           0
     81589 TIP3     19715    TIP3     OH2      OT      -0.834000       15.9994           0
     81590 TIP3     19715    TIP3     H1       HT       0.417000       1.00800           0
     81591 TIP3     19715    TIP3     H2       HT       0.417000       1.00800           0
     81592 TIP3     19716    TIP3     OH2      OT      -0.834000       15.9994           0
     81593 TIP3     19716    TIP3     H1       HT       0.417000       1.00800           0
     81594 TIP3     19716    TIP3     H2       HT       0.417000       1.00800           0
     81595 TIP3     19717    TIP3     OH2      OT      -0.834000       15.9994           0
     81596 TIP3     19717    TIP3     H1       HT       0.417000       1.00800           0
     81597 TIP3     19717    TIP3     H2       HT       0.417000       1.00800           0
     81598 TIP3     19718    TIP3     OH2      OT      -0.834000       15.9994           0
     81599 TIP3     19718    TIP3     H1       HT       0.417000       1.00800           0
     81600 TIP3     19718    TIP3     H2       HT       0.417000       1.00800           0
     81601 TIP3     19719    TIP3     OH2      OT      -0.834000       15.9994           0
     81602 TIP3     19719    TIP3     H1       HT       0.417000       1.00800           0
     81603 TIP3     19719    TIP3     H2       HT       0.417000       1.00800           0
     81604 TIP3     19720    TIP3     OH2      OT      -0.834000       15.9994           0
     81605 TIP3     19720    TIP3     H1       HT       0.417000       1.00800           0
     81606 TIP3     19720    TIP3     H2       HT       0.417000       1.00800           0
     81607 TIP3     19721    TIP3     OH2      OT      -0.834000       15.9994           0
     81608 TIP3     19721    TIP3     H1       HT       0.417000       1.00800           0
     81609 TIP3     19721    TIP3     H2       HT       0.417000       1.00800           0
     81610 TIP3     19722    TIP3     OH2      OT      -0.834000       15.9994           0
     81611 TIP3     19722    TIP3     H1       HT       0.417000       1.00800           0
     81612 TIP3     19722    TIP3     H2       HT       0.417000       1.00800           0
     81613 TIP3     19723    TIP3     OH2      OT      -0.834000       15.9994           0
     81614 TIP3     19723    TIP3     H1       HT       0.417000       1.00800           0
     81615 TIP3     19723    TIP3     H2       HT       0.417000       1.00800           0
     81616 TIP3     19724    TIP3     OH2      OT      -0.834000       15.9994           0
     81617 TIP3     19724    TIP3     H1       HT       0.417000       1.00800           0
     81618 TIP3     19724    TIP3     H2       HT       0.417000       1.00800           0
     81619 TIP3     19725    TIP3     OH2      OT      -0.834000       15.9994           0
     81620 TIP3     19725    TIP3     H1       HT       0.417000       1.00800           0
     81621 TIP3     19725    TIP3     H2       HT       0.417000       1.00800           0
     81622 TIP3     19726    TIP3     OH2      OT      -0.834000       15.9994           0
     81623 TIP3     19726    TIP3     H1       HT       0.417000       1.00800           0
     81624 TIP3     19726    TIP3     H2       HT       0.417000       1.00800           0
     81625 TIP3     19727    TIP3     OH2      OT      -0.834000       15.9994           0
     81626 TIP3     19727    TIP3     H1       HT       0.417000       1.00800           0
     81627 TIP3     19727    TIP3     H2       HT       0.417000       1.00800           0
     81628 TIP3     19728    TIP3     OH2      OT      -0.834000       15.9994           0
     81629 TIP3     19728    TIP3     H1       HT       0.417000       1.00800           0
     81630 TIP3     19728    TIP3     H2       HT       0.417000       1.00800           0
     81631 TIP3     19729    TIP3     OH2      OT      -0.834000       15.9994           0
     81632 TIP3     19729    TIP3     H1       HT       0.417000       1.00800           0
     81633 TIP3     19729    TIP3     H2       HT       0.417000       1.00800           0
     81634 TIP3     19730    TIP3     OH2      OT      -0.834000       15.9994           0
     81635 TIP3     19730    TIP3     H1       HT       0.417000       1.00800           0
     81636 TIP3     19730    TIP3     H2       HT       0.417000       1.00800           0
     81637 TIP3     19731    TIP3     OH2      OT      -0.834000       15.9994           0
     81638 TIP3     19731    TIP3     H1       HT       0.417000       1.00800           0
     81639 TIP3     19731    TIP3     H2       HT       0.417000       1.00800           0
     81640 TIP3     19732    TIP3     OH2      OT      -0.834000       15.9994           0
     81641 TIP3     19732    TIP3     H1       HT       0.417000       1.00800           0
     81642 TIP3     19732    TIP3     H2       HT       0.417000       1.00800           0
     81643 TIP3     19733    TIP3     OH2      OT      -0.834000       15.9994           0
     81644 TIP3     19733    TIP3     H1       HT       0.417000       1.00800           0
     81645 TIP3     19733    TIP3     H2       HT       0.417000       1.00800           0
     81646 TIP3     19734    TIP3     OH2      OT      -0.834000       15.9994           0
     81647 TIP3     19734    TIP3     H1       HT       0.417000       1.00800           0
     81648 TIP3     19734    TIP3     H2       HT       0.417000       1.00800           0
     81649 TIP3     19735    TIP3     OH2      OT      -0.834000       15.9994           0
     81650 TIP3     19735    TIP3     H1       HT       0.417000       1.00800           0
     81651 TIP3     19735    TIP3     H2       HT       0.417000       1.00800           0
     81652 TIP3     19736    TIP3     OH2      OT      -0.834000       15.9994           0
     81653 TIP3     19736    TIP3     H1       HT       0.417000       1.00800           0
     81654 TIP3     19736    TIP3     H2       HT       0.417000       1.00800           0
     81655 TIP3     19737    TIP3     OH2      OT      -0.834000       15.9994           0
     81656 TIP3     19737    TIP3     H1       HT       0.417000       1.00800           0
     81657 TIP3     19737    TIP3     H2       HT       0.417000       1.00800           0
     81658 TIP3     19738    TIP3     OH2      OT      -0.834000       15.9994           0
     81659 TIP3     19738    TIP3     H1       HT       0.417000       1.00800           0
     81660 TIP3     19738    TIP3     H2       HT       0.417000       1.00800           0
     81661 TIP3     19739    TIP3     OH2      OT      -0.834000       15.9994           0
     81662 TIP3     19739    TIP3     H1       HT       0.417000       1.00800           0
     81663 TIP3     19739    TIP3     H2       HT       0.417000       1.00800           0
     81664 TIP3     19740    TIP3     OH2      OT      -0.834000       15.9994           0
     81665 TIP3     19740    TIP3     H1       HT       0.417000       1.00800           0
     81666 TIP3     19740    TIP3     H2       HT       0.417000       1.00800           0
     81667 TIP3     19741    TIP3     OH2      OT      -0.834000       15.9994           0
     81668 TIP3     19741    TIP3     H1       HT       0.417000       1.00800           0
     81669 TIP3     19741    TIP3     H2       HT       0.417000       1.00800           0
     81670 TIP3     19742    TIP3     OH2      OT      -0.834000       15.9994           0
     81671 TIP3     19742    TIP3     H1       HT       0.417000       1.00800           0
     81672 TIP3     19742    TIP3     H2       HT       0.417000       1.00800           0
     81673 TIP3     19743    TIP3     OH2      OT      -0.834000       15.9994           0
     81674 TIP3     19743    TIP3     H1       HT       0.417000       1.00800           0
     81675 TIP3     19743    TIP3     H2       HT       0.417000       1.00800           0
     81676 TIP3     19744    TIP3     OH2      OT      -0.834000       15.9994           0
     81677 TIP3     19744    TIP3     H1       HT       0.417000       1.00800           0
     81678 TIP3     19744    TIP3     H2       HT       0.417000       1.00800           0
     81679 TIP3     19745    TIP3     OH2      OT      -0.834000       15.9994           0
     81680 TIP3     19745    TIP3     H1       HT       0.417000       1.00800           0
     81681 TIP3     19745    TIP3     H2       HT       0.417000       1.00800           0
     81682 TIP3     19746    TIP3     OH2      OT      -0.834000       15.9994           0
     81683 TIP3     19746    TIP3     H1       HT       0.417000       1.00800           0
     81684 TIP3     19746    TIP3     H2       HT       0.417000       1.00800           0
     81685 TIP3     19747    TIP3     OH2      OT      -0.834000       15.9994           0
     81686 TIP3     19747    TIP3     H1       HT       0.417000       1.00800           0
     81687 TIP3     19747    TIP3     H2       HT       0.417000       1.00800           0
     81688 TIP3     19748    TIP3     OH2      OT      -0.834000       15.9994           0
     81689 TIP3     19748    TIP3     H1       HT       0.417000       1.00800           0
     81690 TIP3     19748    TIP3     H2       HT       0.417000       1.00800           0
     81691 TIP3     19749    TIP3     OH2      OT      -0.834000       15.9994           0
     81692 TIP3     19749    TIP3     H1       HT       0.417000       1.00800           0
     81693 TIP3     19749    TIP3     H2       HT       0.417000       1.00800           0
     81694 TIP3     19750    TIP3     OH2      OT      -0.834000       15.9994           0
     81695 TIP3     19750    TIP3     H1       HT       0.417000       1.00800           0
     81696 TIP3     19750    TIP3     H2       HT       0.417000       1.00800           0
     81697 TIP3     19751    TIP3     OH2      OT      -0.834000       15.9994           0
     81698 TIP3     19751    TIP3     H1       HT       0.417000       1.00800           0
     81699 TIP3     19751    TIP3     H2       HT       0.417000       1.00800           0
     81700 TIP3     19752    TIP3     OH2      OT      -0.834000       15.9994           0
     81701 TIP3     19752    TIP3     H1       HT       0.417000       1.00800           0
     81702 TIP3     19752    TIP3     H2       HT       0.417000       1.00800           0
     81703 TIP3     19753    TIP3     OH2      OT      -0.834000       15.9994           0
     81704 TIP3     19753    TIP3     H1       HT       0.417000       1.00800           0
     81705 TIP3     19753    TIP3     H2       HT       0.417000       1.00800           0
     81706 TIP3     19754    TIP3     OH2      OT      -0.834000       15.9994           0
     81707 TIP3     19754    TIP3     H1       HT       0.417000       1.00800           0
     81708 TIP3     19754    TIP3     H2       HT       0.417000       1.00800           0
     81709 TIP3     19755    TIP3     OH2      OT      -0.834000       15.9994           0
     81710 TIP3     19755    TIP3     H1       HT       0.417000       1.00800           0
     81711 TIP3     19755    TIP3     H2       HT       0.417000       1.00800           0
     81712 TIP3     19756    TIP3     OH2      OT      -0.834000       15.9994           0
     81713 TIP3     19756    TIP3     H1       HT       0.417000       1.00800           0
     81714 TIP3     19756    TIP3     H2       HT       0.417000       1.00800           0
     81715 TIP3     19757    TIP3     OH2      OT      -0.834000       15.9994           0
     81716 TIP3     19757    TIP3     H1       HT       0.417000       1.00800           0
     81717 TIP3     19757    TIP3     H2       HT       0.417000       1.00800           0
     81718 TIP3     19758    TIP3     OH2      OT      -0.834000       15.9994           0
     81719 TIP3     19758    TIP3     H1       HT       0.417000       1.00800           0
     81720 TIP3     19758    TIP3     H2       HT       0.417000       1.00800           0
     81721 TIP3     19759    TIP3     OH2      OT      -0.834000       15.9994           0
     81722 TIP3     19759    TIP3     H1       HT       0.417000       1.00800           0
     81723 TIP3     19759    TIP3     H2       HT       0.417000       1.00800           0
     81724 TIP3     19760    TIP3     OH2      OT      -0.834000       15.9994           0
     81725 TIP3     19760    TIP3     H1       HT       0.417000       1.00800           0
     81726 TIP3     19760    TIP3     H2       HT       0.417000       1.00800           0
     81727 TIP3     19761    TIP3     OH2      OT      -0.834000       15.9994           0
     81728 TIP3     19761    TIP3     H1       HT       0.417000       1.00800           0
     81729 TIP3     19761    TIP3     H2       HT       0.417000       1.00800           0
     81730 TIP3     19762    TIP3     OH2      OT      -0.834000       15.9994           0
     81731 TIP3     19762    TIP3     H1       HT       0.417000       1.00800           0
     81732 TIP3     19762    TIP3     H2       HT       0.417000       1.00800           0
     81733 TIP3     19763    TIP3     OH2      OT      -0.834000       15.9994           0
     81734 TIP3     19763    TIP3     H1       HT       0.417000       1.00800           0
     81735 TIP3     19763    TIP3     H2       HT       0.417000       1.00800           0
     81736 TIP3     19764    TIP3     OH2      OT      -0.834000       15.9994           0
     81737 TIP3     19764    TIP3     H1       HT       0.417000       1.00800           0
     81738 TIP3     19764    TIP3     H2       HT       0.417000       1.00800           0
     81739 TIP3     19765    TIP3     OH2      OT      -0.834000       15.9994           0
     81740 TIP3     19765    TIP3     H1       HT       0.417000       1.00800           0
     81741 TIP3     19765    TIP3     H2       HT       0.417000       1.00800           0
     81742 TIP3     19766    TIP3     OH2      OT      -0.834000       15.9994           0
     81743 TIP3     19766    TIP3     H1       HT       0.417000       1.00800           0
     81744 TIP3     19766    TIP3     H2       HT       0.417000       1.00800           0
     81745 TIP3     19767    TIP3     OH2      OT      -0.834000       15.9994           0
     81746 TIP3     19767    TIP3     H1       HT       0.417000       1.00800           0
     81747 TIP3     19767    TIP3     H2       HT       0.417000       1.00800           0
     81748 TIP3     19768    TIP3     OH2      OT      -0.834000       15.9994           0
     81749 TIP3     19768    TIP3     H1       HT       0.417000       1.00800           0
     81750 TIP3     19768    TIP3     H2       HT       0.417000       1.00800           0
     81751 TIP3     19769    TIP3     OH2      OT      -0.834000       15.9994           0
     81752 TIP3     19769    TIP3     H1       HT       0.417000       1.00800           0
     81753 TIP3     19769    TIP3     H2       HT       0.417000       1.00800           0
     81754 TIP3     19770    TIP3     OH2      OT      -0.834000       15.9994           0
     81755 TIP3     19770    TIP3     H1       HT       0.417000       1.00800           0
     81756 TIP3     19770    TIP3     H2       HT       0.417000       1.00800           0
     81757 TIP3     19771    TIP3     OH2      OT      -0.834000       15.9994           0
     81758 TIP3     19771    TIP3     H1       HT       0.417000       1.00800           0
     81759 TIP3     19771    TIP3     H2       HT       0.417000       1.00800           0
     81760 TIP3     19772    TIP3     OH2      OT      -0.834000       15.9994           0
     81761 TIP3     19772    TIP3     H1       HT       0.417000       1.00800           0
     81762 TIP3     19772    TIP3     H2       HT       0.417000       1.00800           0
     81763 TIP3     19773    TIP3     OH2      OT      -0.834000       15.9994           0
     81764 TIP3     19773    TIP3     H1       HT       0.417000       1.00800           0
     81765 TIP3     19773    TIP3     H2       HT       0.417000       1.00800           0
     81766 TIP3     19774    TIP3     OH2      OT      -0.834000       15.9994           0
     81767 TIP3     19774    TIP3     H1       HT       0.417000       1.00800           0
     81768 TIP3     19774    TIP3     H2       HT       0.417000       1.00800           0
     81769 TIP3     19775    TIP3     OH2      OT      -0.834000       15.9994           0
     81770 TIP3     19775    TIP3     H1       HT       0.417000       1.00800           0
     81771 TIP3     19775    TIP3     H2       HT       0.417000       1.00800           0
     81772 TIP3     19776    TIP3     OH2      OT      -0.834000       15.9994           0
     81773 TIP3     19776    TIP3     H1       HT       0.417000       1.00800           0
     81774 TIP3     19776    TIP3     H2       HT       0.417000       1.00800           0
     81775 TIP3     19777    TIP3     OH2      OT      -0.834000       15.9994           0
     81776 TIP3     19777    TIP3     H1       HT       0.417000       1.00800           0
     81777 TIP3     19777    TIP3     H2       HT       0.417000       1.00800           0
     81778 TIP3     19778    TIP3     OH2      OT      -0.834000       15.9994           0
     81779 TIP3     19778    TIP3     H1       HT       0.417000       1.00800           0
     81780 TIP3     19778    TIP3     H2       HT       0.417000       1.00800           0
     81781 TIP3     19779    TIP3     OH2      OT      -0.834000       15.9994           0
     81782 TIP3     19779    TIP3     H1       HT       0.417000       1.00800           0
     81783 TIP3     19779    TIP3     H2       HT       0.417000       1.00800           0
     81784 TIP3     19780    TIP3     OH2      OT      -0.834000       15.9994           0
     81785 TIP3     19780    TIP3     H1       HT       0.417000       1.00800           0
     81786 TIP3     19780    TIP3     H2       HT       0.417000       1.00800           0
     81787 TIP3     19781    TIP3     OH2      OT      -0.834000       15.9994           0
     81788 TIP3     19781    TIP3     H1       HT       0.417000       1.00800           0
     81789 TIP3     19781    TIP3     H2       HT       0.417000       1.00800           0
     81790 TIP3     19782    TIP3     OH2      OT      -0.834000       15.9994           0
     81791 TIP3     19782    TIP3     H1       HT       0.417000       1.00800           0
     81792 TIP3     19782    TIP3     H2       HT       0.417000       1.00800           0
     81793 TIP3     19783    TIP3     OH2      OT      -0.834000       15.9994           0
     81794 TIP3     19783    TIP3     H1       HT       0.417000       1.00800           0
     81795 TIP3     19783    TIP3     H2       HT       0.417000       1.00800           0
     81796 TIP3     19784    TIP3     OH2      OT      -0.834000       15.9994           0
     81797 TIP3     19784    TIP3     H1       HT       0.417000       1.00800           0
     81798 TIP3     19784    TIP3     H2       HT       0.417000       1.00800           0
     81799 TIP3     19785    TIP3     OH2      OT      -0.834000       15.9994           0
     81800 TIP3     19785    TIP3     H1       HT       0.417000       1.00800           0
     81801 TIP3     19785    TIP3     H2       HT       0.417000       1.00800           0
     81802 TIP3     19786    TIP3     OH2      OT      -0.834000       15.9994           0
     81803 TIP3     19786    TIP3     H1       HT       0.417000       1.00800           0
     81804 TIP3     19786    TIP3     H2       HT       0.417000       1.00800           0
     81805 TIP3     19787    TIP3     OH2      OT      -0.834000       15.9994           0
     81806 TIP3     19787    TIP3     H1       HT       0.417000       1.00800           0
     81807 TIP3     19787    TIP3     H2       HT       0.417000       1.00800           0
     81808 TIP3     19788    TIP3     OH2      OT      -0.834000       15.9994           0
     81809 TIP3     19788    TIP3     H1       HT       0.417000       1.00800           0
     81810 TIP3     19788    TIP3     H2       HT       0.417000       1.00800           0
     81811 TIP3     19789    TIP3     OH2      OT      -0.834000       15.9994           0
     81812 TIP3     19789    TIP3     H1       HT       0.417000       1.00800           0
     81813 TIP3     19789    TIP3     H2       HT       0.417000       1.00800           0
     81814 TIP3     19790    TIP3     OH2      OT      -0.834000       15.9994           0
     81815 TIP3     19790    TIP3     H1       HT       0.417000       1.00800           0
     81816 TIP3     19790    TIP3     H2       HT       0.417000       1.00800           0
     81817 TIP3     19791    TIP3     OH2      OT      -0.834000       15.9994           0
     81818 TIP3     19791    TIP3     H1       HT       0.417000       1.00800           0
     81819 TIP3     19791    TIP3     H2       HT       0.417000       1.00800           0
     81820 TIP3     19792    TIP3     OH2      OT      -0.834000       15.9994           0
     81821 TIP3     19792    TIP3     H1       HT       0.417000       1.00800           0
     81822 TIP3     19792    TIP3     H2       HT       0.417000       1.00800           0
     81823 TIP3     19793    TIP3     OH2      OT      -0.834000       15.9994           0
     81824 TIP3     19793    TIP3     H1       HT       0.417000       1.00800           0
     81825 TIP3     19793    TIP3     H2       HT       0.417000       1.00800           0
     81826 TIP3     19794    TIP3     OH2      OT      -0.834000       15.9994           0
     81827 TIP3     19794    TIP3     H1       HT       0.417000       1.00800           0
     81828 TIP3     19794    TIP3     H2       HT       0.417000       1.00800           0
     81829 TIP3     19795    TIP3     OH2      OT      -0.834000       15.9994           0
     81830 TIP3     19795    TIP3     H1       HT       0.417000       1.00800           0
     81831 TIP3     19795    TIP3     H2       HT       0.417000       1.00800           0
     81832 TIP3     19796    TIP3     OH2      OT      -0.834000       15.9994           0
     81833 TIP3     19796    TIP3     H1       HT       0.417000       1.00800           0
     81834 TIP3     19796    TIP3     H2       HT       0.417000       1.00800           0
     81835 TIP3     19797    TIP3     OH2      OT      -0.834000       15.9994           0
     81836 TIP3     19797    TIP3     H1       HT       0.417000       1.00800           0
     81837 TIP3     19797    TIP3     H2       HT       0.417000       1.00800           0
     81838 TIP3     19798    TIP3     OH2      OT      -0.834000       15.9994           0
     81839 TIP3     19798    TIP3     H1       HT       0.417000       1.00800           0
     81840 TIP3     19798    TIP3     H2       HT       0.417000       1.00800           0
     81841 TIP3     19799    TIP3     OH2      OT      -0.834000       15.9994           0
     81842 TIP3     19799    TIP3     H1       HT       0.417000       1.00800           0
     81843 TIP3     19799    TIP3     H2       HT       0.417000       1.00800           0
     81844 TIP3     19800    TIP3     OH2      OT      -0.834000       15.9994           0
     81845 TIP3     19800    TIP3     H1       HT       0.417000       1.00800           0
     81846 TIP3     19800    TIP3     H2       HT       0.417000       1.00800           0
     81847 TIP3     19801    TIP3     OH2      OT      -0.834000       15.9994           0
     81848 TIP3     19801    TIP3     H1       HT       0.417000       1.00800           0
     81849 TIP3     19801    TIP3     H2       HT       0.417000       1.00800           0
     81850 TIP3     19802    TIP3     OH2      OT      -0.834000       15.9994           0
     81851 TIP3     19802    TIP3     H1       HT       0.417000       1.00800           0
     81852 TIP3     19802    TIP3     H2       HT       0.417000       1.00800           0
     81853 TIP3     19803    TIP3     OH2      OT      -0.834000       15.9994           0
     81854 TIP3     19803    TIP3     H1       HT       0.417000       1.00800           0
     81855 TIP3     19803    TIP3     H2       HT       0.417000       1.00800           0
     81856 TIP3     19804    TIP3     OH2      OT      -0.834000       15.9994           0
     81857 TIP3     19804    TIP3     H1       HT       0.417000       1.00800           0
     81858 TIP3     19804    TIP3     H2       HT       0.417000       1.00800           0
     81859 TIP3     19805    TIP3     OH2      OT      -0.834000       15.9994           0
     81860 TIP3     19805    TIP3     H1       HT       0.417000       1.00800           0
     81861 TIP3     19805    TIP3     H2       HT       0.417000       1.00800           0
     81862 TIP3     19806    TIP3     OH2      OT      -0.834000       15.9994           0
     81863 TIP3     19806    TIP3     H1       HT       0.417000       1.00800           0
     81864 TIP3     19806    TIP3     H2       HT       0.417000       1.00800           0
     81865 TIP3     19807    TIP3     OH2      OT      -0.834000       15.9994           0
     81866 TIP3     19807    TIP3     H1       HT       0.417000       1.00800           0
     81867 TIP3     19807    TIP3     H2       HT       0.417000       1.00800           0
     81868 TIP3     19808    TIP3     OH2      OT      -0.834000       15.9994           0
     81869 TIP3     19808    TIP3     H1       HT       0.417000       1.00800           0
     81870 TIP3     19808    TIP3     H2       HT       0.417000       1.00800           0
     81871 TIP3     19809    TIP3     OH2      OT      -0.834000       15.9994           0
     81872 TIP3     19809    TIP3     H1       HT       0.417000       1.00800           0
     81873 TIP3     19809    TIP3     H2       HT       0.417000       1.00800           0
     81874 TIP3     19810    TIP3     OH2      OT      -0.834000       15.9994           0
     81875 TIP3     19810    TIP3     H1       HT       0.417000       1.00800           0
     81876 TIP3     19810    TIP3     H2       HT       0.417000       1.00800           0
     81877 TIP3     19811    TIP3     OH2      OT      -0.834000       15.9994           0
     81878 TIP3     19811    TIP3     H1       HT       0.417000       1.00800           0
     81879 TIP3     19811    TIP3     H2       HT       0.417000       1.00800           0
     81880 TIP3     19812    TIP3     OH2      OT      -0.834000       15.9994           0
     81881 TIP3     19812    TIP3     H1       HT       0.417000       1.00800           0
     81882 TIP3     19812    TIP3     H2       HT       0.417000       1.00800           0
     81883 TIP3     19813    TIP3     OH2      OT      -0.834000       15.9994           0
     81884 TIP3     19813    TIP3     H1       HT       0.417000       1.00800           0
     81885 TIP3     19813    TIP3     H2       HT       0.417000       1.00800           0
     81886 TIP3     19814    TIP3     OH2      OT      -0.834000       15.9994           0
     81887 TIP3     19814    TIP3     H1       HT       0.417000       1.00800           0
     81888 TIP3     19814    TIP3     H2       HT       0.417000       1.00800           0
     81889 TIP3     19815    TIP3     OH2      OT      -0.834000       15.9994           0
     81890 TIP3     19815    TIP3     H1       HT       0.417000       1.00800           0
     81891 TIP3     19815    TIP3     H2       HT       0.417000       1.00800           0
     81892 TIP3     19816    TIP3     OH2      OT      -0.834000       15.9994           0
     81893 TIP3     19816    TIP3     H1       HT       0.417000       1.00800           0
     81894 TIP3     19816    TIP3     H2       HT       0.417000       1.00800           0
     81895 TIP3     19817    TIP3     OH2      OT      -0.834000       15.9994           0
     81896 TIP3     19817    TIP3     H1       HT       0.417000       1.00800           0
     81897 TIP3     19817    TIP3     H2       HT       0.417000       1.00800           0
     81898 TIP3     19818    TIP3     OH2      OT      -0.834000       15.9994           0
     81899 TIP3     19818    TIP3     H1       HT       0.417000       1.00800           0
     81900 TIP3     19818    TIP3     H2       HT       0.417000       1.00800           0
     81901 TIP3     19819    TIP3     OH2      OT      -0.834000       15.9994           0
     81902 TIP3     19819    TIP3     H1       HT       0.417000       1.00800           0
     81903 TIP3     19819    TIP3     H2       HT       0.417000       1.00800           0
     81904 TIP3     19820    TIP3     OH2      OT      -0.834000       15.9994           0
     81905 TIP3     19820    TIP3     H1       HT       0.417000       1.00800           0
     81906 TIP3     19820    TIP3     H2       HT       0.417000       1.00800           0
     81907 TIP3     19821    TIP3     OH2      OT      -0.834000       15.9994           0
     81908 TIP3     19821    TIP3     H1       HT       0.417000       1.00800           0
     81909 TIP3     19821    TIP3     H2       HT       0.417000       1.00800           0
     81910 TIP3     19822    TIP3     OH2      OT      -0.834000       15.9994           0
     81911 TIP3     19822    TIP3     H1       HT       0.417000       1.00800           0
     81912 TIP3     19822    TIP3     H2       HT       0.417000       1.00800           0
     81913 TIP3     19823    TIP3     OH2      OT      -0.834000       15.9994           0
     81914 TIP3     19823    TIP3     H1       HT       0.417000       1.00800           0
     81915 TIP3     19823    TIP3     H2       HT       0.417000       1.00800           0
     81916 TIP3     19824    TIP3     OH2      OT      -0.834000       15.9994           0
     81917 TIP3     19824    TIP3     H1       HT       0.417000       1.00800           0
     81918 TIP3     19824    TIP3     H2       HT       0.417000       1.00800           0
     81919 TIP3     19825    TIP3     OH2      OT      -0.834000       15.9994           0
     81920 TIP3     19825    TIP3     H1       HT       0.417000       1.00800           0
     81921 TIP3     19825    TIP3     H2       HT       0.417000       1.00800           0
     81922 TIP3     19826    TIP3     OH2      OT      -0.834000       15.9994           0
     81923 TIP3     19826    TIP3     H1       HT       0.417000       1.00800           0
     81924 TIP3     19826    TIP3     H2       HT       0.417000       1.00800           0
     81925 TIP3     19827    TIP3     OH2      OT      -0.834000       15.9994           0
     81926 TIP3     19827    TIP3     H1       HT       0.417000       1.00800           0
     81927 TIP3     19827    TIP3     H2       HT       0.417000       1.00800           0
     81928 TIP3     19828    TIP3     OH2      OT      -0.834000       15.9994           0
     81929 TIP3     19828    TIP3     H1       HT       0.417000       1.00800           0
     81930 TIP3     19828    TIP3     H2       HT       0.417000       1.00800           0
     81931 TIP3     19829    TIP3     OH2      OT      -0.834000       15.9994           0
     81932 TIP3     19829    TIP3     H1       HT       0.417000       1.00800           0
     81933 TIP3     19829    TIP3     H2       HT       0.417000       1.00800           0
     81934 TIP3     19830    TIP3     OH2      OT      -0.834000       15.9994           0
     81935 TIP3     19830    TIP3     H1       HT       0.417000       1.00800           0
     81936 TIP3     19830    TIP3     H2       HT       0.417000       1.00800           0
     81937 TIP3     19831    TIP3     OH2      OT      -0.834000       15.9994           0
     81938 TIP3     19831    TIP3     H1       HT       0.417000       1.00800           0
     81939 TIP3     19831    TIP3     H2       HT       0.417000       1.00800           0
     81940 TIP3     19832    TIP3     OH2      OT      -0.834000       15.9994           0
     81941 TIP3     19832    TIP3     H1       HT       0.417000       1.00800           0
     81942 TIP3     19832    TIP3     H2       HT       0.417000       1.00800           0
     81943 TIP3     19833    TIP3     OH2      OT      -0.834000       15.9994           0
     81944 TIP3     19833    TIP3     H1       HT       0.417000       1.00800           0
     81945 TIP3     19833    TIP3     H2       HT       0.417000       1.00800           0
     81946 TIP3     19834    TIP3     OH2      OT      -0.834000       15.9994           0
     81947 TIP3     19834    TIP3     H1       HT       0.417000       1.00800           0
     81948 TIP3     19834    TIP3     H2       HT       0.417000       1.00800           0
     81949 TIP3     19835    TIP3     OH2      OT      -0.834000       15.9994           0
     81950 TIP3     19835    TIP3     H1       HT       0.417000       1.00800           0
     81951 TIP3     19835    TIP3     H2       HT       0.417000       1.00800           0
     81952 TIP3     19836    TIP3     OH2      OT      -0.834000       15.9994           0
     81953 TIP3     19836    TIP3     H1       HT       0.417000       1.00800           0
     81954 TIP3     19836    TIP3     H2       HT       0.417000       1.00800           0
     81955 TIP3     19837    TIP3     OH2      OT      -0.834000       15.9994           0
     81956 TIP3     19837    TIP3     H1       HT       0.417000       1.00800           0
     81957 TIP3     19837    TIP3     H2       HT       0.417000       1.00800           0
     81958 TIP3     19838    TIP3     OH2      OT      -0.834000       15.9994           0
     81959 TIP3     19838    TIP3     H1       HT       0.417000       1.00800           0
     81960 TIP3     19838    TIP3     H2       HT       0.417000       1.00800           0
     81961 TIP3     19839    TIP3     OH2      OT      -0.834000       15.9994           0
     81962 TIP3     19839    TIP3     H1       HT       0.417000       1.00800           0
     81963 TIP3     19839    TIP3     H2       HT       0.417000       1.00800           0
     81964 TIP3     19840    TIP3     OH2      OT      -0.834000       15.9994           0
     81965 TIP3     19840    TIP3     H1       HT       0.417000       1.00800           0
     81966 TIP3     19840    TIP3     H2       HT       0.417000       1.00800           0
     81967 TIP3     19841    TIP3     OH2      OT      -0.834000       15.9994           0
     81968 TIP3     19841    TIP3     H1       HT       0.417000       1.00800           0
     81969 TIP3     19841    TIP3     H2       HT       0.417000       1.00800           0
     81970 TIP3     19842    TIP3     OH2      OT      -0.834000       15.9994           0
     81971 TIP3     19842    TIP3     H1       HT       0.417000       1.00800           0
     81972 TIP3     19842    TIP3     H2       HT       0.417000       1.00800           0
     81973 TIP3     19843    TIP3     OH2      OT      -0.834000       15.9994           0
     81974 TIP3     19843    TIP3     H1       HT       0.417000       1.00800           0
     81975 TIP3     19843    TIP3     H2       HT       0.417000       1.00800           0
     81976 TIP3     19844    TIP3     OH2      OT      -0.834000       15.9994           0
     81977 TIP3     19844    TIP3     H1       HT       0.417000       1.00800           0
     81978 TIP3     19844    TIP3     H2       HT       0.417000       1.00800           0
     81979 TIP3     19845    TIP3     OH2      OT      -0.834000       15.9994           0
     81980 TIP3     19845    TIP3     H1       HT       0.417000       1.00800           0
     81981 TIP3     19845    TIP3     H2       HT       0.417000       1.00800           0
     81982 TIP3     19846    TIP3     OH2      OT      -0.834000       15.9994           0
     81983 TIP3     19846    TIP3     H1       HT       0.417000       1.00800           0
     81984 TIP3     19846    TIP3     H2       HT       0.417000       1.00800           0
     81985 TIP3     19847    TIP3     OH2      OT      -0.834000       15.9994           0
     81986 TIP3     19847    TIP3     H1       HT       0.417000       1.00800           0
     81987 TIP3     19847    TIP3     H2       HT       0.417000       1.00800           0
     81988 TIP3     19848    TIP3     OH2      OT      -0.834000       15.9994           0
     81989 TIP3     19848    TIP3     H1       HT       0.417000       1.00800           0
     81990 TIP3     19848    TIP3     H2       HT       0.417000       1.00800           0
     81991 TIP3     19849    TIP3     OH2      OT      -0.834000       15.9994           0
     81992 TIP3     19849    TIP3     H1       HT       0.417000       1.00800           0
     81993 TIP3     19849    TIP3     H2       HT       0.417000       1.00800           0
     81994 TIP3     19850    TIP3     OH2      OT      -0.834000       15.9994           0
     81995 TIP3     19850    TIP3     H1       HT       0.417000       1.00800           0
     81996 TIP3     19850    TIP3     H2       HT       0.417000       1.00800           0
     81997 TIP3     19851    TIP3     OH2      OT      -0.834000       15.9994           0
     81998 TIP3     19851    TIP3     H1       HT       0.417000       1.00800           0
     81999 TIP3     19851    TIP3     H2       HT       0.417000       1.00800           0
     82000 TIP3     19852    TIP3     OH2      OT      -0.834000       15.9994           0
     82001 TIP3     19852    TIP3     H1       HT       0.417000       1.00800           0
     82002 TIP3     19852    TIP3     H2       HT       0.417000       1.00800           0
     82003 TIP3     19853    TIP3     OH2      OT      -0.834000       15.9994           0
     82004 TIP3     19853    TIP3     H1       HT       0.417000       1.00800           0
     82005 TIP3     19853    TIP3     H2       HT       0.417000       1.00800           0
     82006 TIP3     19854    TIP3     OH2      OT      -0.834000       15.9994           0
     82007 TIP3     19854    TIP3     H1       HT       0.417000       1.00800           0
     82008 TIP3     19854    TIP3     H2       HT       0.417000       1.00800           0
     82009 TIP3     19855    TIP3     OH2      OT      -0.834000       15.9994           0
     82010 TIP3     19855    TIP3     H1       HT       0.417000       1.00800           0
     82011 TIP3     19855    TIP3     H2       HT       0.417000       1.00800           0
     82012 TIP3     19856    TIP3     OH2      OT      -0.834000       15.9994           0
     82013 TIP3     19856    TIP3     H1       HT       0.417000       1.00800           0
     82014 TIP3     19856    TIP3     H2       HT       0.417000       1.00800           0
     82015 TIP3     19857    TIP3     OH2      OT      -0.834000       15.9994           0
     82016 TIP3     19857    TIP3     H1       HT       0.417000       1.00800           0
     82017 TIP3     19857    TIP3     H2       HT       0.417000       1.00800           0
     82018 TIP3     19858    TIP3     OH2      OT      -0.834000       15.9994           0
     82019 TIP3     19858    TIP3     H1       HT       0.417000       1.00800           0
     82020 TIP3     19858    TIP3     H2       HT       0.417000       1.00800           0
     82021 TIP3     19859    TIP3     OH2      OT      -0.834000       15.9994           0
     82022 TIP3     19859    TIP3     H1       HT       0.417000       1.00800           0
     82023 TIP3     19859    TIP3     H2       HT       0.417000       1.00800           0
     82024 TIP3     19860    TIP3     OH2      OT      -0.834000       15.9994           0
     82025 TIP3     19860    TIP3     H1       HT       0.417000       1.00800           0
     82026 TIP3     19860    TIP3     H2       HT       0.417000       1.00800           0
     82027 TIP3     19861    TIP3     OH2      OT      -0.834000       15.9994           0
     82028 TIP3     19861    TIP3     H1       HT       0.417000       1.00800           0
     82029 TIP3     19861    TIP3     H2       HT       0.417000       1.00800           0
     82030 TIP3     19862    TIP3     OH2      OT      -0.834000       15.9994           0
     82031 TIP3     19862    TIP3     H1       HT       0.417000       1.00800           0
     82032 TIP3     19862    TIP3     H2       HT       0.417000       1.00800           0
     82033 TIP3     19863    TIP3     OH2      OT      -0.834000       15.9994           0
     82034 TIP3     19863    TIP3     H1       HT       0.417000       1.00800           0
     82035 TIP3     19863    TIP3     H2       HT       0.417000       1.00800           0
     82036 TIP3     19864    TIP3     OH2      OT      -0.834000       15.9994           0
     82037 TIP3     19864    TIP3     H1       HT       0.417000       1.00800           0
     82038 TIP3     19864    TIP3     H2       HT       0.417000       1.00800           0
     82039 TIP3     19865    TIP3     OH2      OT      -0.834000       15.9994           0
     82040 TIP3     19865    TIP3     H1       HT       0.417000       1.00800           0
     82041 TIP3     19865    TIP3     H2       HT       0.417000       1.00800           0
     82042 TIP3     19866    TIP3     OH2      OT      -0.834000       15.9994           0
     82043 TIP3     19866    TIP3     H1       HT       0.417000       1.00800           0
     82044 TIP3     19866    TIP3     H2       HT       0.417000       1.00800           0
     82045 TIP3     19867    TIP3     OH2      OT      -0.834000       15.9994           0
     82046 TIP3     19867    TIP3     H1       HT       0.417000       1.00800           0
     82047 TIP3     19867    TIP3     H2       HT       0.417000       1.00800           0
     82048 TIP3     19868    TIP3     OH2      OT      -0.834000       15.9994           0
     82049 TIP3     19868    TIP3     H1       HT       0.417000       1.00800           0
     82050 TIP3     19868    TIP3     H2       HT       0.417000       1.00800           0
     82051 TIP3     19869    TIP3     OH2      OT      -0.834000       15.9994           0
     82052 TIP3     19869    TIP3     H1       HT       0.417000       1.00800           0
     82053 TIP3     19869    TIP3     H2       HT       0.417000       1.00800           0
     82054 TIP3     19870    TIP3     OH2      OT      -0.834000       15.9994           0
     82055 TIP3     19870    TIP3     H1       HT       0.417000       1.00800           0
     82056 TIP3     19870    TIP3     H2       HT       0.417000       1.00800           0
     82057 TIP3     19871    TIP3     OH2      OT      -0.834000       15.9994           0
     82058 TIP3     19871    TIP3     H1       HT       0.417000       1.00800           0
     82059 TIP3     19871    TIP3     H2       HT       0.417000       1.00800           0
     82060 TIP3     19872    TIP3     OH2      OT      -0.834000       15.9994           0
     82061 TIP3     19872    TIP3     H1       HT       0.417000       1.00800           0
     82062 TIP3     19872    TIP3     H2       HT       0.417000       1.00800           0
     82063 TIP3     19873    TIP3     OH2      OT      -0.834000       15.9994           0
     82064 TIP3     19873    TIP3     H1       HT       0.417000       1.00800           0
     82065 TIP3     19873    TIP3     H2       HT       0.417000       1.00800           0
     82066 TIP3     19874    TIP3     OH2      OT      -0.834000       15.9994           0
     82067 TIP3     19874    TIP3     H1       HT       0.417000       1.00800           0
     82068 TIP3     19874    TIP3     H2       HT       0.417000       1.00800           0
     82069 TIP3     19875    TIP3     OH2      OT      -0.834000       15.9994           0
     82070 TIP3     19875    TIP3     H1       HT       0.417000       1.00800           0
     82071 TIP3     19875    TIP3     H2       HT       0.417000       1.00800           0
     82072 TIP3     19876    TIP3     OH2      OT      -0.834000       15.9994           0
     82073 TIP3     19876    TIP3     H1       HT       0.417000       1.00800           0
     82074 TIP3     19876    TIP3     H2       HT       0.417000       1.00800           0
     82075 TIP3     19877    TIP3     OH2      OT      -0.834000       15.9994           0
     82076 TIP3     19877    TIP3     H1       HT       0.417000       1.00800           0
     82077 TIP3     19877    TIP3     H2       HT       0.417000       1.00800           0
     82078 TIP3     19878    TIP3     OH2      OT      -0.834000       15.9994           0
     82079 TIP3     19878    TIP3     H1       HT       0.417000       1.00800           0
     82080 TIP3     19878    TIP3     H2       HT       0.417000       1.00800           0
     82081 TIP3     19879    TIP3     OH2      OT      -0.834000       15.9994           0
     82082 TIP3     19879    TIP3     H1       HT       0.417000       1.00800           0
     82083 TIP3     19879    TIP3     H2       HT       0.417000       1.00800           0
     82084 TIP3     19880    TIP3     OH2      OT      -0.834000       15.9994           0
     82085 TIP3     19880    TIP3     H1       HT       0.417000       1.00800           0
     82086 TIP3     19880    TIP3     H2       HT       0.417000       1.00800           0
     82087 TIP3     19881    TIP3     OH2      OT      -0.834000       15.9994           0
     82088 TIP3     19881    TIP3     H1       HT       0.417000       1.00800           0
     82089 TIP3     19881    TIP3     H2       HT       0.417000       1.00800           0
     82090 TIP3     19882    TIP3     OH2      OT      -0.834000       15.9994           0
     82091 TIP3     19882    TIP3     H1       HT       0.417000       1.00800           0
     82092 TIP3     19882    TIP3     H2       HT       0.417000       1.00800           0
     82093 TIP3     19883    TIP3     OH2      OT      -0.834000       15.9994           0
     82094 TIP3     19883    TIP3     H1       HT       0.417000       1.00800           0
     82095 TIP3     19883    TIP3     H2       HT       0.417000       1.00800           0
     82096 TIP3     19884    TIP3     OH2      OT      -0.834000       15.9994           0
     82097 TIP3     19884    TIP3     H1       HT       0.417000       1.00800           0
     82098 TIP3     19884    TIP3     H2       HT       0.417000       1.00800           0
     82099 TIP3     19885    TIP3     OH2      OT      -0.834000       15.9994           0
     82100 TIP3     19885    TIP3     H1       HT       0.417000       1.00800           0
     82101 TIP3     19885    TIP3     H2       HT       0.417000       1.00800           0
     82102 TIP3     19886    TIP3     OH2      OT      -0.834000       15.9994           0
     82103 TIP3     19886    TIP3     H1       HT       0.417000       1.00800           0
     82104 TIP3     19886    TIP3     H2       HT       0.417000       1.00800           0
     82105 TIP3     19887    TIP3     OH2      OT      -0.834000       15.9994           0
     82106 TIP3     19887    TIP3     H1       HT       0.417000       1.00800           0
     82107 TIP3     19887    TIP3     H2       HT       0.417000       1.00800           0
     82108 TIP3     19888    TIP3     OH2      OT      -0.834000       15.9994           0
     82109 TIP3     19888    TIP3     H1       HT       0.417000       1.00800           0
     82110 TIP3     19888    TIP3     H2       HT       0.417000       1.00800           0
     82111 TIP3     19889    TIP3     OH2      OT      -0.834000       15.9994           0
     82112 TIP3     19889    TIP3     H1       HT       0.417000       1.00800           0
     82113 TIP3     19889    TIP3     H2       HT       0.417000       1.00800           0
     82114 TIP3     19890    TIP3     OH2      OT      -0.834000       15.9994           0
     82115 TIP3     19890    TIP3     H1       HT       0.417000       1.00800           0
     82116 TIP3     19890    TIP3     H2       HT       0.417000       1.00800           0
     82117 TIP3     19891    TIP3     OH2      OT      -0.834000       15.9994           0
     82118 TIP3     19891    TIP3     H1       HT       0.417000       1.00800           0
     82119 TIP3     19891    TIP3     H2       HT       0.417000       1.00800           0
     82120 TIP3     19892    TIP3     OH2      OT      -0.834000       15.9994           0
     82121 TIP3     19892    TIP3     H1       HT       0.417000       1.00800           0
     82122 TIP3     19892    TIP3     H2       HT       0.417000       1.00800           0
     82123 TIP3     19893    TIP3     OH2      OT      -0.834000       15.9994           0
     82124 TIP3     19893    TIP3     H1       HT       0.417000       1.00800           0
     82125 TIP3     19893    TIP3     H2       HT       0.417000       1.00800           0
     82126 TIP3     19894    TIP3     OH2      OT      -0.834000       15.9994           0
     82127 TIP3     19894    TIP3     H1       HT       0.417000       1.00800           0
     82128 TIP3     19894    TIP3     H2       HT       0.417000       1.00800           0
     82129 TIP3     19895    TIP3     OH2      OT      -0.834000       15.9994           0
     82130 TIP3     19895    TIP3     H1       HT       0.417000       1.00800           0
     82131 TIP3     19895    TIP3     H2       HT       0.417000       1.00800           0
     82132 TIP3     19896    TIP3     OH2      OT      -0.834000       15.9994           0
     82133 TIP3     19896    TIP3     H1       HT       0.417000       1.00800           0
     82134 TIP3     19896    TIP3     H2       HT       0.417000       1.00800           0
     82135 TIP3     19897    TIP3     OH2      OT      -0.834000       15.9994           0
     82136 TIP3     19897    TIP3     H1       HT       0.417000       1.00800           0
     82137 TIP3     19897    TIP3     H2       HT       0.417000       1.00800           0
     82138 TIP3     19898    TIP3     OH2      OT      -0.834000       15.9994           0
     82139 TIP3     19898    TIP3     H1       HT       0.417000       1.00800           0
     82140 TIP3     19898    TIP3     H2       HT       0.417000       1.00800           0
     82141 TIP3     19899    TIP3     OH2      OT      -0.834000       15.9994           0
     82142 TIP3     19899    TIP3     H1       HT       0.417000       1.00800           0
     82143 TIP3     19899    TIP3     H2       HT       0.417000       1.00800           0
     82144 TIP3     19900    TIP3     OH2      OT      -0.834000       15.9994           0
     82145 TIP3     19900    TIP3     H1       HT       0.417000       1.00800           0
     82146 TIP3     19900    TIP3     H2       HT       0.417000       1.00800           0
     82147 TIP3     19901    TIP3     OH2      OT      -0.834000       15.9994           0
     82148 TIP3     19901    TIP3     H1       HT       0.417000       1.00800           0
     82149 TIP3     19901    TIP3     H2       HT       0.417000       1.00800           0
     82150 TIP3     19902    TIP3     OH2      OT      -0.834000       15.9994           0
     82151 TIP3     19902    TIP3     H1       HT       0.417000       1.00800           0
     82152 TIP3     19902    TIP3     H2       HT       0.417000       1.00800           0
     82153 TIP3     19903    TIP3     OH2      OT      -0.834000       15.9994           0
     82154 TIP3     19903    TIP3     H1       HT       0.417000       1.00800           0
     82155 TIP3     19903    TIP3     H2       HT       0.417000       1.00800           0
     82156 TIP3     19904    TIP3     OH2      OT      -0.834000       15.9994           0
     82157 TIP3     19904    TIP3     H1       HT       0.417000       1.00800           0
     82158 TIP3     19904    TIP3     H2       HT       0.417000       1.00800           0
     82159 TIP3     19905    TIP3     OH2      OT      -0.834000       15.9994           0
     82160 TIP3     19905    TIP3     H1       HT       0.417000       1.00800           0
     82161 TIP3     19905    TIP3     H2       HT       0.417000       1.00800           0
     82162 TIP3     19906    TIP3     OH2      OT      -0.834000       15.9994           0
     82163 TIP3     19906    TIP3     H1       HT       0.417000       1.00800           0
     82164 TIP3     19906    TIP3     H2       HT       0.417000       1.00800           0
     82165 TIP3     19907    TIP3     OH2      OT      -0.834000       15.9994           0
     82166 TIP3     19907    TIP3     H1       HT       0.417000       1.00800           0
     82167 TIP3     19907    TIP3     H2       HT       0.417000       1.00800           0
     82168 TIP3     19908    TIP3     OH2      OT      -0.834000       15.9994           0
     82169 TIP3     19908    TIP3     H1       HT       0.417000       1.00800           0
     82170 TIP3     19908    TIP3     H2       HT       0.417000       1.00800           0
     82171 TIP3     19909    TIP3     OH2      OT      -0.834000       15.9994           0
     82172 TIP3     19909    TIP3     H1       HT       0.417000       1.00800           0
     82173 TIP3     19909    TIP3     H2       HT       0.417000       1.00800           0
     82174 TIP3     19910    TIP3     OH2      OT      -0.834000       15.9994           0
     82175 TIP3     19910    TIP3     H1       HT       0.417000       1.00800           0
     82176 TIP3     19910    TIP3     H2       HT       0.417000       1.00800           0
     82177 TIP3     19911    TIP3     OH2      OT      -0.834000       15.9994           0
     82178 TIP3     19911    TIP3     H1       HT       0.417000       1.00800           0
     82179 TIP3     19911    TIP3     H2       HT       0.417000       1.00800           0
     82180 TIP3     19912    TIP3     OH2      OT      -0.834000       15.9994           0
     82181 TIP3     19912    TIP3     H1       HT       0.417000       1.00800           0
     82182 TIP3     19912    TIP3     H2       HT       0.417000       1.00800           0
     82183 TIP3     19913    TIP3     OH2      OT      -0.834000       15.9994           0
     82184 TIP3     19913    TIP3     H1       HT       0.417000       1.00800           0
     82185 TIP3     19913    TIP3     H2       HT       0.417000       1.00800           0
     82186 TIP3     19914    TIP3     OH2      OT      -0.834000       15.9994           0
     82187 TIP3     19914    TIP3     H1       HT       0.417000       1.00800           0
     82188 TIP3     19914    TIP3     H2       HT       0.417000       1.00800           0
     82189 TIP3     19915    TIP3     OH2      OT      -0.834000       15.9994           0
     82190 TIP3     19915    TIP3     H1       HT       0.417000       1.00800           0
     82191 TIP3     19915    TIP3     H2       HT       0.417000       1.00800           0
     82192 TIP3     19916    TIP3     OH2      OT      -0.834000       15.9994           0
     82193 TIP3     19916    TIP3     H1       HT       0.417000       1.00800           0
     82194 TIP3     19916    TIP3     H2       HT       0.417000       1.00800           0
     82195 TIP3     19917    TIP3     OH2      OT      -0.834000       15.9994           0
     82196 TIP3     19917    TIP3     H1       HT       0.417000       1.00800           0
     82197 TIP3     19917    TIP3     H2       HT       0.417000       1.00800           0
     82198 TIP3     19918    TIP3     OH2      OT      -0.834000       15.9994           0
     82199 TIP3     19918    TIP3     H1       HT       0.417000       1.00800           0
     82200 TIP3     19918    TIP3     H2       HT       0.417000       1.00800           0
     82201 TIP3     19919    TIP3     OH2      OT      -0.834000       15.9994           0
     82202 TIP3     19919    TIP3     H1       HT       0.417000       1.00800           0
     82203 TIP3     19919    TIP3     H2       HT       0.417000       1.00800           0
     82204 TIP3     19920    TIP3     OH2      OT      -0.834000       15.9994           0
     82205 TIP3     19920    TIP3     H1       HT       0.417000       1.00800           0
     82206 TIP3     19920    TIP3     H2       HT       0.417000       1.00800           0
     82207 TIP3     19921    TIP3     OH2      OT      -0.834000       15.9994           0
     82208 TIP3     19921    TIP3     H1       HT       0.417000       1.00800           0
     82209 TIP3     19921    TIP3     H2       HT       0.417000       1.00800           0
     82210 TIP3     19922    TIP3     OH2      OT      -0.834000       15.9994           0
     82211 TIP3     19922    TIP3     H1       HT       0.417000       1.00800           0
     82212 TIP3     19922    TIP3     H2       HT       0.417000       1.00800           0
     82213 TIP3     19923    TIP3     OH2      OT      -0.834000       15.9994           0
     82214 TIP3     19923    TIP3     H1       HT       0.417000       1.00800           0
     82215 TIP3     19923    TIP3     H2       HT       0.417000       1.00800           0
     82216 TIP3     19924    TIP3     OH2      OT      -0.834000       15.9994           0
     82217 TIP3     19924    TIP3     H1       HT       0.417000       1.00800           0
     82218 TIP3     19924    TIP3     H2       HT       0.417000       1.00800           0
     82219 TIP3     19925    TIP3     OH2      OT      -0.834000       15.9994           0
     82220 TIP3     19925    TIP3     H1       HT       0.417000       1.00800           0
     82221 TIP3     19925    TIP3     H2       HT       0.417000       1.00800           0
     82222 TIP3     19926    TIP3     OH2      OT      -0.834000       15.9994           0
     82223 TIP3     19926    TIP3     H1       HT       0.417000       1.00800           0
     82224 TIP3     19926    TIP3     H2       HT       0.417000       1.00800           0
     82225 TIP3     19927    TIP3     OH2      OT      -0.834000       15.9994           0
     82226 TIP3     19927    TIP3     H1       HT       0.417000       1.00800           0
     82227 TIP3     19927    TIP3     H2       HT       0.417000       1.00800           0
     82228 TIP3     19928    TIP3     OH2      OT      -0.834000       15.9994           0
     82229 TIP3     19928    TIP3     H1       HT       0.417000       1.00800           0
     82230 TIP3     19928    TIP3     H2       HT       0.417000       1.00800           0
     82231 TIP3     19929    TIP3     OH2      OT      -0.834000       15.9994           0
     82232 TIP3     19929    TIP3     H1       HT       0.417000       1.00800           0
     82233 TIP3     19929    TIP3     H2       HT       0.417000       1.00800           0
     82234 TIP3     19930    TIP3     OH2      OT      -0.834000       15.9994           0
     82235 TIP3     19930    TIP3     H1       HT       0.417000       1.00800           0
     82236 TIP3     19930    TIP3     H2       HT       0.417000       1.00800           0
     82237 TIP3     19931    TIP3     OH2      OT      -0.834000       15.9994           0
     82238 TIP3     19931    TIP3     H1       HT       0.417000       1.00800           0
     82239 TIP3     19931    TIP3     H2       HT       0.417000       1.00800           0
     82240 TIP3     19932    TIP3     OH2      OT      -0.834000       15.9994           0
     82241 TIP3     19932    TIP3     H1       HT       0.417000       1.00800           0
     82242 TIP3     19932    TIP3     H2       HT       0.417000       1.00800           0
     82243 TIP3     19933    TIP3     OH2      OT      -0.834000       15.9994           0
     82244 TIP3     19933    TIP3     H1       HT       0.417000       1.00800           0
     82245 TIP3     19933    TIP3     H2       HT       0.417000       1.00800           0
     82246 TIP3     19934    TIP3     OH2      OT      -0.834000       15.9994           0
     82247 TIP3     19934    TIP3     H1       HT       0.417000       1.00800           0
     82248 TIP3     19934    TIP3     H2       HT       0.417000       1.00800           0
     82249 TIP3     19935    TIP3     OH2      OT      -0.834000       15.9994           0
     82250 TIP3     19935    TIP3     H1       HT       0.417000       1.00800           0
     82251 TIP3     19935    TIP3     H2       HT       0.417000       1.00800           0
     82252 TIP3     19936    TIP3     OH2      OT      -0.834000       15.9994           0
     82253 TIP3     19936    TIP3     H1       HT       0.417000       1.00800           0
     82254 TIP3     19936    TIP3     H2       HT       0.417000       1.00800           0
     82255 TIP3     19937    TIP3     OH2      OT      -0.834000       15.9994           0
     82256 TIP3     19937    TIP3     H1       HT       0.417000       1.00800           0
     82257 TIP3     19937    TIP3     H2       HT       0.417000       1.00800           0
     82258 TIP3     19938    TIP3     OH2      OT      -0.834000       15.9994           0
     82259 TIP3     19938    TIP3     H1       HT       0.417000       1.00800           0
     82260 TIP3     19938    TIP3     H2       HT       0.417000       1.00800           0
     82261 TIP3     19939    TIP3     OH2      OT      -0.834000       15.9994           0
     82262 TIP3     19939    TIP3     H1       HT       0.417000       1.00800           0
     82263 TIP3     19939    TIP3     H2       HT       0.417000       1.00800           0
     82264 TIP3     19940    TIP3     OH2      OT      -0.834000       15.9994           0
     82265 TIP3     19940    TIP3     H1       HT       0.417000       1.00800           0
     82266 TIP3     19940    TIP3     H2       HT       0.417000       1.00800           0
     82267 TIP3     19941    TIP3     OH2      OT      -0.834000       15.9994           0
     82268 TIP3     19941    TIP3     H1       HT       0.417000       1.00800           0
     82269 TIP3     19941    TIP3     H2       HT       0.417000       1.00800           0
     82270 TIP3     19942    TIP3     OH2      OT      -0.834000       15.9994           0
     82271 TIP3     19942    TIP3     H1       HT       0.417000       1.00800           0
     82272 TIP3     19942    TIP3     H2       HT       0.417000       1.00800           0
     82273 TIP3     19943    TIP3     OH2      OT      -0.834000       15.9994           0
     82274 TIP3     19943    TIP3     H1       HT       0.417000       1.00800           0
     82275 TIP3     19943    TIP3     H2       HT       0.417000       1.00800           0
     82276 TIP3     19944    TIP3     OH2      OT      -0.834000       15.9994           0
     82277 TIP3     19944    TIP3     H1       HT       0.417000       1.00800           0
     82278 TIP3     19944    TIP3     H2       HT       0.417000       1.00800           0
     82279 TIP3     19945    TIP3     OH2      OT      -0.834000       15.9994           0
     82280 TIP3     19945    TIP3     H1       HT       0.417000       1.00800           0
     82281 TIP3     19945    TIP3     H2       HT       0.417000       1.00800           0
     82282 TIP3     19946    TIP3     OH2      OT      -0.834000       15.9994           0
     82283 TIP3     19946    TIP3     H1       HT       0.417000       1.00800           0
     82284 TIP3     19946    TIP3     H2       HT       0.417000       1.00800           0
     82285 TIP3     19947    TIP3     OH2      OT      -0.834000       15.9994           0
     82286 TIP3     19947    TIP3     H1       HT       0.417000       1.00800           0
     82287 TIP3     19947    TIP3     H2       HT       0.417000       1.00800           0
     82288 TIP3     19948    TIP3     OH2      OT      -0.834000       15.9994           0
     82289 TIP3     19948    TIP3     H1       HT       0.417000       1.00800           0
     82290 TIP3     19948    TIP3     H2       HT       0.417000       1.00800           0
     82291 TIP3     19949    TIP3     OH2      OT      -0.834000       15.9994           0
     82292 TIP3     19949    TIP3     H1       HT       0.417000       1.00800           0
     82293 TIP3     19949    TIP3     H2       HT       0.417000       1.00800           0
     82294 TIP3     19950    TIP3     OH2      OT      -0.834000       15.9994           0
     82295 TIP3     19950    TIP3     H1       HT       0.417000       1.00800           0
     82296 TIP3     19950    TIP3     H2       HT       0.417000       1.00800           0
     82297 TIP3     19951    TIP3     OH2      OT      -0.834000       15.9994           0
     82298 TIP3     19951    TIP3     H1       HT       0.417000       1.00800           0
     82299 TIP3     19951    TIP3     H2       HT       0.417000       1.00800           0
     82300 TIP3     19952    TIP3     OH2      OT      -0.834000       15.9994           0
     82301 TIP3     19952    TIP3     H1       HT       0.417000       1.00800           0
     82302 TIP3     19952    TIP3     H2       HT       0.417000       1.00800           0
     82303 TIP3     19953    TIP3     OH2      OT      -0.834000       15.9994           0
     82304 TIP3     19953    TIP3     H1       HT       0.417000       1.00800           0
     82305 TIP3     19953    TIP3     H2       HT       0.417000       1.00800           0
     82306 TIP3     19954    TIP3     OH2      OT      -0.834000       15.9994           0
     82307 TIP3     19954    TIP3     H1       HT       0.417000       1.00800           0
     82308 TIP3     19954    TIP3     H2       HT       0.417000       1.00800           0
     82309 TIP3     19955    TIP3     OH2      OT      -0.834000       15.9994           0
     82310 TIP3     19955    TIP3     H1       HT       0.417000       1.00800           0
     82311 TIP3     19955    TIP3     H2       HT       0.417000       1.00800           0
     82312 TIP3     19956    TIP3     OH2      OT      -0.834000       15.9994           0
     82313 TIP3     19956    TIP3     H1       HT       0.417000       1.00800           0
     82314 TIP3     19956    TIP3     H2       HT       0.417000       1.00800           0
     82315 TIP3     19957    TIP3     OH2      OT      -0.834000       15.9994           0
     82316 TIP3     19957    TIP3     H1       HT       0.417000       1.00800           0
     82317 TIP3     19957    TIP3     H2       HT       0.417000       1.00800           0
     82318 TIP3     19958    TIP3     OH2      OT      -0.834000       15.9994           0
     82319 TIP3     19958    TIP3     H1       HT       0.417000       1.00800           0
     82320 TIP3     19958    TIP3     H2       HT       0.417000       1.00800           0
     82321 TIP3     19959    TIP3     OH2      OT      -0.834000       15.9994           0
     82322 TIP3     19959    TIP3     H1       HT       0.417000       1.00800           0
     82323 TIP3     19959    TIP3     H2       HT       0.417000       1.00800           0
     82324 TIP3     19960    TIP3     OH2      OT      -0.834000       15.9994           0
     82325 TIP3     19960    TIP3     H1       HT       0.417000       1.00800           0
     82326 TIP3     19960    TIP3     H2       HT       0.417000       1.00800           0
     82327 TIP3     19961    TIP3     OH2      OT      -0.834000       15.9994           0
     82328 TIP3     19961    TIP3     H1       HT       0.417000       1.00800           0
     82329 TIP3     19961    TIP3     H2       HT       0.417000       1.00800           0
     82330 TIP3     19962    TIP3     OH2      OT      -0.834000       15.9994           0
     82331 TIP3     19962    TIP3     H1       HT       0.417000       1.00800           0
     82332 TIP3     19962    TIP3     H2       HT       0.417000       1.00800           0
     82333 TIP3     19963    TIP3     OH2      OT      -0.834000       15.9994           0
     82334 TIP3     19963    TIP3     H1       HT       0.417000       1.00800           0
     82335 TIP3     19963    TIP3     H2       HT       0.417000       1.00800           0
     82336 TIP3     19964    TIP3     OH2      OT      -0.834000       15.9994           0
     82337 TIP3     19964    TIP3     H1       HT       0.417000       1.00800           0
     82338 TIP3     19964    TIP3     H2       HT       0.417000       1.00800           0
     82339 TIP3     19965    TIP3     OH2      OT      -0.834000       15.9994           0
     82340 TIP3     19965    TIP3     H1       HT       0.417000       1.00800           0
     82341 TIP3     19965    TIP3     H2       HT       0.417000       1.00800           0
     82342 TIP3     19966    TIP3     OH2      OT      -0.834000       15.9994           0
     82343 TIP3     19966    TIP3     H1       HT       0.417000       1.00800           0
     82344 TIP3     19966    TIP3     H2       HT       0.417000       1.00800           0
     82345 TIP3     19967    TIP3     OH2      OT      -0.834000       15.9994           0
     82346 TIP3     19967    TIP3     H1       HT       0.417000       1.00800           0
     82347 TIP3     19967    TIP3     H2       HT       0.417000       1.00800           0
     82348 TIP3     19968    TIP3     OH2      OT      -0.834000       15.9994           0
     82349 TIP3     19968    TIP3     H1       HT       0.417000       1.00800           0
     82350 TIP3     19968    TIP3     H2       HT       0.417000       1.00800           0

     82260 !NBOND: bonds
         1         2         1         3         1         4         1         5
         9         7         7         5         7         8         5         6
         5        10        18        17        10        11        10        12
        10        16        16        13        13        17        13        14
        13        15        18        19        18        20        18        21
        21        22        21        29        21        23        29        30
        29        31        29        32        23        24        24        26
        24        25        26        27        26        28        26        38
        38        39        38        40        38        41        41        42
        41        43        41        44        44        45        44        46
        46        47        46        48        48        49        48        50
        48        51        51        52        51        53        53        54
        53        55        55        56        55        57        55        58
        58        59        58        60        60        61        60        62
        62        63        62        64        62        65        65        66
        65        67        67        68        67        69        69        70
        69        71        69        72        72        73        72        74
        72        75        75        76        75        77        75        78
        78        79        78        80        78        81        81        82
        81        83        81        84        32        33        33        35
        33        34        35        36        35        37        35        85
        85        86        85        87        85        88        88        89
        88        90        88        91        91        92        91        93
        91        94        94        95        94        96        94        97
        97        98        97        99        97       100       100       101
       100       102       100       103       103       104       103       105
       103       106       106       107       106       108       106       109
       109       110       109       111       109       112       112       113
       112       114       112       115       115       116       115       117
       115       118       118       119       118       120       118       121
       121       122       121       123       121       124       124       125
       124       126       124       127       127       128       127       129
       127       130       130       131       130       132       130       133
      2129      2133      2129      2137      2129      2141      2133      2134
      2133      2135      2133      2136      2137      2138      2137      2139
      2137      2140      2141      2142      2141      2143      2141      2144
      2129      2130      2130      2131      2130      2132      2130      2145
      2145      2146      2145      2147      2145      2151      2152      2153
      2151      2148      2148      2152      2148      2149      2148      2150
      2153      2154      2153      2155      2153      2156      2156      2157
      2156      2164      2156      2158      2164      2165      2164      2166
      2164      2167      2158      2159      2159      2161      2159      2160
      2161      2162      2161      2163      2161      2173      2173      2174
      2173      2175      2173      2176      2176      2177      2176      2178
      2176      2179      2179      2180      2179      2181      2181      2182
      2181      2183      2183      2184      2183      2185      2183      2186
      2186      2187      2186      2188      2188      2189      2188      2190
      2190      2191      2190      2192      2190      2193      2193      2194
      2193      2195      2195      2196      2195      2197      2197      2198
      2197      2199      2197      2200      2200      2201      2200      2202
      2202      2203      2202      2204      2204      2205      2204      2206
      2204      2207      2207      2208      2207      2209      2207      2210
      2210      2211      2210      2212      2210      2213      2213      2214
      2213      2215      2213      2216      2216      2217      2216      2218
      2216      2219      2167      2168      2168      2170      2168      2169
      2170      2171      2170      2172      2170      2220      2220      2221
      2220      2222      2220      2223      2223      2224      2223      2225
      2223      2226      2226      2227      2226      2228      2226      2229
      2229      2230      2229      2231      2229      2232      2232      2233
      2232      2234      2232      2235      2235      2236      2235      2237
      2235      2238      2238      2239      2238      2240      2238      2241
      2241      2242      2241      2243      2241      2244      2244      2245
      2244      2246      2244      2247      2247      2248      2247      2249
      2247      2250      2250      2251      2250      2252      2250      2253
      2253      2254      2253      2255      2253      2256      2256      2257
      2256      2258      2256      2259      2259      2260      2259      2261
      2259      2262      2262      2263      2262      2264      2262      2265
      2265      2266      2265      2267      2265      2268      4369      4373
      4369      4377      4369      4381      4373      4374      4373      4375
      4373      4376      4377      4378      4377      4379      4377      4380
      4381      4382      4381      4383      4381      4384      4369      4370
      4370      4371      4370      4372      4370      4385      4385      4386
      4385      4387      4385      4391      4392      4393      4391      4388
      4388      4392      4388      4389      4388      4390      4393      4394
      4393      4395      4393      4396      4396      4397      4396      4404
      4396      4398      4404      4405      4404      4406      4404      4407
      4398      4399      4399      4401      4399      4400      4401      4402
      4401      4403      4401      4413      4413      4414      4413      4415
      4413      4416      4416      4417      4416      4418      4416      4419
      4419      4420      4419      4421      4419      4422      4422      4423
      4422      4424      4422      4425      4425      4426      4425      4427
      4425      4428      4428      4429      4428      4430      4428      4431
      4431      4432      4431      4433      4433      4434      4433      4435
      4435      4436      4435      4437      4435      4438      4438      4439
      4438      4440      4438      4441      4441      4442      4441      4443
      4441      4444      4444      4445      4444      4446      4444      4447
      4447      4448      4447      4449      4447      4450      4450      4451
      4450      4452      4450      4453      4453      4454      4453      4455
      4453      4456      4456      4457      4456      4458      4456      4459
      4407      4408      4408      4410      4408      4409      4410      4411
      4410      4412      4410      4460      4460      4461      4460      4462
      4460      4463      4463      4464      4463      4465      4463      4466
      4466      4467      4466      4468      4466      4469      4469      4470
      4469      4471      4469      4472      4472      4473      4472      4474
      4472      4475      4475      4476      4475      4477      4475      4478
      4478      4479      4478      4480      4478      4481      4481      4482
      4481      4483      4481      4484      4484      4485      4484      4486
      4484      4487      4487      4488      4487      4489      4487      4490
      4490      4491      4490      4492      4490      4493      4493      4494
      4493      4495      4493      4496      4496      4497      4496      4498
      4496      4499      4499      4500      4499      4501      4499      4502
      5441      5443      5441      5442      5443      5444      5441      5487
      5487      5488      5487      5489      5487      5484      5484      5485
      5484      5486      5441      5445      5445      5446      5445      5447
      5445      5448      5448      5479      5479      5484      5479      5480
      5480      5481      5480      5482      5480      5483      5448      5449
      5449      5450      5449      5451      5451      5452      5451      5453
      5451      5454      5454      5455      5454      5477      5477      5478
      5477      5479      5454      5456      5456      5457      5456      5466
      5466      5471      5471      5472      5471      5473      5471      5474
      5474      5475      5474      5476      5474      5477      5466      5467
      5467      5468      5467      5469      5467      5470      5456      5458
      5458      5459      5458      5460      5458      5461      5461      5462
      5461      5463      5461      5464      5464      5465      5464      5466
      5464      5490      5490      5491      5490      5492      5492      5493
      5492      5494      5492      5495      5490      5496      5496      5497
      5496      5498      5496      5499      5499      5500      5499      5501
      5499      5502      5502      5503      5502      5504      5502      5505
      5505      5506      5505      5507      5507      5508      5507      5509
      5507      5510      5505      5511      5511      5512      5511      5513
      5511      5514      9660      9661      9660      9662      9660      9663
      9660      9657      9657      9658      9657      9659      9657      9654
      9654      9655      9654      9656      9654      9651      9651      9652
      9651      9653      9651      9648      9648      9649      9648      9650
      9648      9645      9645      9646      9645      9647      9645      9642
      9642      9643      9642      9644      9642      9639      9639      9640
      9639      9641      9639      9636      9636      9637      9636      9638
      9636      9633      9633      9634      9633      9635      9633      9630
      9630      9631      9630      9632      9630      9627      9627      9628
      9627      9629      9627      9624      9624      9625      9624      9626
      9624      9622      9622      9623      9620      9621      9620      9616
      9616      9617      9616      9618      9618      9619      9616      9614
      9614      9615      9614      9609      9609      9610      9609      9611
      9609      9607      9607      9604      9608      9604      9605      9604
      9606      9604      9608      9601      9601      9602      9601      9603
      9601      9598      9598      9599      9598      9600      9598      9585
      9585      9594      9585      9590      9585      9586      9594      9595
      9594      9596      9594      9597      9590      9591      9590      9592
      9590      9593      9586      9587      9586      9588      9586      9589
      9614      9612      9612      9613      9612      9664      9664      9666
      9666      9667      9666      9668      9666      9669      9669      9670
      9669      9671      9669      9672      9672      9673      9672      9674
      9672      9675      9675      9676      9675      9677      9675      9678
      9678      9679      9678      9680      9678      9681      9681      9682
      9681      9683      9681      9684      9684      9685      9684      9686
      9684      9687      9687      9688      9689      9690      9689      9691
      9691      9692      9691      9693      9691      9694      9694      9695
      9694      9696      9694      9697      9697      9698      9697      9699
      9697      9700      9700      9701      9700      9702      9700      9703
      9703      9704      9703      9705      9703      9706      9706      9707
      9706      9708      9706      9709      9709      9710      9709      9711
      9709      9712      9712      9713      9712      9714      9712      9715
      9620      9622      9687      9689      9664      9665     14301     14302
     14301     14303     14301     14304     14301     14305     14305     14306
     14305     14307     14305     14308     14308     14309     14308     14310
     14308     14314     14316     14315     14314     14311     14311     14315
     14311     14312     14311     14313     14316     14317     14316     14318
     14316     14319     14319     14320     14319     14327     14319     14321
     14327     14328     14327     14329     14327     14330     14321     14322
     14322     14324     14322     14323     14324     14325     14324     14326
     14324     14336     14336     14337     14336     14338     14336     14339
     14339     14340     14339     14341     14339     14342     14342     14343
     14342     14344     14344     14345     14344     14346     14346     14347
     14346     14348     14346     14349     14349     14350     14349     14351
     14351     14352     14351     14353     14353     14354     14353     14355
     14353     14356     14356     14357     14356     14358     14358     14359
     14358     14360     14360     14361     14360     14362     14360     14363
     14363     14364     14363     14365     14365     14366     14365     14367
     14367     14368     14367     14369     14367     14370     14370     14371
     14370     14372     14370     14373     14373     14374     14373     14375
     14373     14376     14376     14377     14376     14378     14376     14379
     14379     14380     14379     14381     14379     14382     14330     14331
     14331     14333     14331     14332     14333     14334     14333     14335
     14333     14383     14383     14384     14383     14385     14383     14386
     14386     14387     14386     14388     14386     14389     14389     14390
     14389     14391     14389     14392     14392     14393     14392     14394
     14392     14395     14395     14396     14395     14397     14395     14398
     14398     14399     14398     14400     14398     14401     14401     14402
     14401     14403     14401     14404     14404     14405     14404     14406
     14404     14407     14407     14408     14407     14409     14407     14410
     14410     14411     14410     14412     14410     14413     14413     14414
     14413     14415     14413     14416     14416     14417     14416     14418
     14416     14419     14419     14420     14419     14421     14419     14422
     14422     14423     14422     14424     14422     14425     14425     14426
     14425     14427     14425     14428     14428     14429     14428     14430
     14428     14431      5515      5517      5515      5516      5517      5518
      5515      5561      5561      5562      5561      5563      5561      5558
      5558      5559      5558      5560      5515      5519      5519      5520
      5519      5521      5519      5522      5522      5553      5553      5558
      5553      5554      5554      5555      5554      5556      5554      5557
      5522      5523      5523      5524      5523      5525      5525      5526
      5525      5527      5525      5528      5528      5529      5528      5551
      5551      5552      5551      5553      5528      5530      5530      5531
      5530      5540      5540      5545      5545      5546      5545      5547
      5545      5548      5548      5549      5548      5550      5548      5551
      5540      5541      5541      5542      5541      5543      5541      5544
      5530      5532      5532      5533      5532      5534      5532      5535
      5535      5536      5535      5537      5535      5538      5538      5539
      5538      5540      5538      5564      5564      5565      5564      5566
      5566      5567      5566      5568      5566      5569      5564      5570
      5570      5571      5570      5572      5570      5573      5573      5574
      5573      5575      5573      5576      5576      5577      5576      5578
      5576      5579      5579      5580      5579      5581      5581      5582
      5581      5583      5581      5584      5579      5585      5585      5586
      5585      5587      5585      5588      2269      2273      2269      2277
      2269      2281      2273      2274      2273      2275      2273      2276
      2277      2278      2277      2279      2277      2280      2281      2282
      2281      2283      2281      2284      2269      2270      2270      2271
      2270      2272      2270      2285      2285      2286      2285      2287
      2285      2291      2292      2293      2291      2288      2288      2292
      2288      2289      2288      2290      2293      2294      2293      2295
      2293      2296      2296      2297      2296      2304      2296      2298
      2304      2305      2304      2306      2304      2307      2298      2299
      2299      2301      2299      2300      2301      2302      2301      2303
      2301      2313      2313      2314      2313      2315      2313      2316
      2316      2317      2316      2318      2316      2319      2319      2320
      2319      2321      2321      2322      2321      2323      2323      2324
      2323      2325      2323      2326      2326      2327      2326      2328
      2328      2329      2328      2330      2330      2331      2330      2332
      2330      2333      2333      2334      2333      2335      2335      2336
      2335      2337      2337      2338      2337      2339      2337      2340
      2340      2341      2340      2342      2342      2343      2342      2344
      2344      2345      2344      2346      2344      2347      2347      2348
      2347      2349      2347      2350      2350      2351      2350      2352
      2350      2353      2353      2354      2353      2355      2353      2356
      2356      2357      2356      2358      2356      2359      2307      2308
      2308      2310      2308      2309      2310      2311      2310      2312
      2310      2360      2360      2361      2360      2362      2360      2363
      2363      2364      2363      2365      2363      2366      2366      2367
      2366      2368      2366      2369      2369      2370      2369      2371
      2369      2372      2372      2373      2372      2374      2372      2375
      2375      2376      2375      2377      2375      2378      2378      2379
      2378      2380      2378      2381      2381      2382      2381      2383
      2381      2384      2384      2385      2384      2386      2384      2387
      2387      2388      2387      2389      2387      2390      2390      2391
      2390      2392      2390      2393      2393      2394      2393      2395
      2393      2396      2396      2397      2396      2398      2396      2399
      2399      2400      2399      2401      2399      2402      2402      2403
      2402      2404      2402      2405      2405      2406      2405      2407
      2405      2408      5589      5591      5589      5590      5591      5592
      5589      5635      5635      5636      5635      5637      5635      5632
      5632      5633      5632      5634      5589      5593      5593      5594
      5593      5595      5593      5596      5596      5627      5627      5632
      5627      5628      5628      5629      5628      5630      5628      5631
      5596      5597      5597      5598      5597      5599      5599      5600
      5599      5601      5599      5602      5602      5603      5602      5625
      5625      5626      5625      5627      5602      5604      5604      5605
      5604      5614      5614      5619      5619      5620      5619      5621
      5619      5622      5622      5623      5622      5624      5622      5625
      5614      5615      5615      5616      5615      5617      5615      5618
      5604      5606      5606      5607      5606      5608      5606      5609
      5609      5610      5609      5611      5609      5612      5612      5613
      5612      5614      5612      5638      5638      5639      5638      5640
      5640      5641      5640      5642      5640      5643      5638      5644
      5644      5645      5644      5646      5644      5647      5647      5648
      5647      5649      5647      5650      5650      5651      5650      5652
      5650      5653      5653      5654      5653      5655      5655      5656
      5655      5657      5655      5658      5653      5659      5659      5660
      5659      5661      5659      5662      5663      5665      5663      5664
      5665      5666      5663      5709      5709      5710      5709      5711
      5709      5706      5706      5707      5706      5708      5663      5667
      5667      5668      5667      5669      5667      5670      5670      5701
      5701      5706      5701      5702      5702      5703      5702      5704
      5702      5705      5670      5671      5671      5672      5671      5673
      5673      5674      5673      5675      5673      5676      5676      5677
      5676      5699      5699      5700      5699      5701      5676      5678
      5678      5679      5678      5688      5688      5693      5693      5694
      5693      5695      5693      5696      5696      5697      5696      5698
      5696      5699      5688      5689      5689      5690      5689      5691
      5689      5692      5678      5680      5680      5681      5680      5682
      5680      5683      5683      5684      5683      5685      5683      5686
      5686      5687      5686      5688      5686      5712      5712      5713
      5712      5714      5714      5715      5714      5716      5714      5717
      5712      5718      5718      5719      5718      5720      5718      5721
      5721      5722      5721      5723      5721      5724      5724      5725
      5724      5726      5724      5727      5727      5728      5727      5729
      5729      5730      5729      5731      5729      5732      5727      5733
      5733      5734      5733      5735      5733      5736     17969     17970
     17969     17971     17969     17972     17969     17973     17973     17974
     17973     17975     17973     17976     17976     17977     17976     17978
     17976     17982     17984     17983     17982     17979     17979     17983
     17979     17980     17979     17981     17984     17985     17984     17986
     17984     17987     17987     17988     17987     17995     17987     17989
     17995     17996     17995     17997     17995     17998     17989     17990
     17990     17992     17990     17991     17992     17993     17992     17994
     17992     18004     18004     18005     18004     18006     18004     18007
     18007     18008     18007     18009     18007     18010     18010     18011
     18010     18012     18010     18013     18013     18014     18013     18015
     18013     18016     18016     18017     18016     18018     18016     18019
     18019     18020     18019     18021     18019     18022     18022     18023
     18022     18024     18024     18025     18024     18026     18026     18027
     18026     18028     18026     18029     18029     18030     18029     18031
     18029     18032     18032     18033     18032     18034     18032     18035
     18035     18036     18035     18037     18035     18038     18038     18039
     18038     18040     18038     18041     18041     18042     18041     18043
     18041     18044     18044     18045     18044     18046     18044     18047
     18047     18048     18047     18049     18047     18050     17998     17999
     17999     18001     17999     18000     18001     18002     18001     18003
     18001     18051     18051     18052     18051     18053     18051     18054
     18054     18055     18054     18056     18054     18057     18057     18058
     18057     18059     18057     18060     18060     18061     18060     18062
     18060     18063     18063     18064     18063     18065     18063     18066
     18066     18067     18066     18068     18066     18069     18069     18070
     18069     18071     18069     18072     18072     18073     18072     18074
     18072     18075     18075     18076     18075     18077     18075     18078
     18078     18079     18078     18080     18078     18081     18081     18082
     18081     18083     18081     18084     18084     18085     18084     18086
     18084     18087     18087     18088     18087     18089     18087     18090
     18090     18091     18090     18092     18090     18093     18093     18094
     18093     18095     18093     18096     18096     18097     18096     18098
     18096     18099      9791      9792      9791      9793      9791      9794
      9791      9788      9788      9789      9788      9790      9788      9785
      9785      9786      9785      9787      9785      9782      9782      9783
      9782      9784      9782      9779      9779      9780      9779      9781
      9779      9776      9776      9777      9776      9778      9776      9773
      9773      9774      9773      9775      9773      9770      9770      9771
      9770      9772      9770      9767      9767      9768      9767      9769
      9767      9764      9764      9765      9764      9766      9764      9761
      9761      9762      9761      9763      9761      9758      9758      9759
      9758      9760      9758      9755      9755      9756      9755      9757
      9755      9753      9753      9754      9751      9752      9751      9747
      9747      9748      9747      9749      9749      9750      9747      9745
      9745      9746      9745      9740      9740      9741      9740      9742
      9740      9738      9738      9735      9739      9735      9736      9735
      9737      9735      9739      9732      9732      9733      9732      9734
      9732      9729      9729      9730      9729      9731      9729      9716
      9716      9725      9716      9721      9716      9717      9725      9726
      9725      9727      9725      9728      9721      9722      9721      9723
      9721      9724      9717      9718      9717      9719      9717      9720
      9745      9743      9743      9744      9743      9795      9795      9797
      9797      9798      9797      9799      9797      9800      9800      9801
      9800      9802      9800      9803      9803      9804      9803      9805
      9803      9806      9806      9807      9806      9808      9806      9809
      9809      9810      9809      9811      9809      9812      9812      9813
      9812      9814      9812      9815      9815      9816      9815      9817
      9815      9818      9818      9819      9820      9821      9820      9822
      9822      9823      9822      9824      9822      9825      9825      9826
      9825      9827      9825      9828      9828      9829      9828      9830
      9828      9831      9831      9832      9831      9833      9831      9834
      9834      9835      9834      9836      9834      9837      9837      9838
      9837      9839      9837      9840      9840      9841      9840      9842
      9840      9843      9843      9844      9843      9845      9843      9846
      9751      9753      9818      9820      9795      9796      4503      4507
      4503      4511      4503      4515      4507      4508      4507      4509
      4507      4510      4511      4512      4511      4513      4511      4514
      4515      4516      4515      4517      4515      4518      4503      4504
      4504      4505      4504      4506      4504      4519      4519      4520
      4519      4521      4519      4525      4526      4527      4525      4522
      4522      4526      4522      4523      4522      4524      4527      4528
      4527      4529      4527      4530      4530      4531      4530      4538
      4530      4532      4538      4539      4538      4540      4538      4541
      4532      4533      4533      4535      4533      4534      4535      4536
      4535      4537      4535      4547      4547      4548      4547      4549
      4547      4550      4550      4551      4550      4552      4550      4553
      4553      4554      4553      4555      4553      4556      4556      4557
      4556      4558      4556      4559      4559      4560      4559      4561
      4559      4562      4562      4563      4562      4564      4562      4565
      4565      4566      4565      4567      4567      4568      4567      4569
      4569      4570      4569      4571      4569      4572      4572      4573
      4572      4574      4572      4575      4575      4576      4575      4577
      4575      4578      4578      4579      4578      4580      4578      4581
      4581      4582      4581      4583      4581      4584      4584      4585
      4584      4586      4584      4587      4587      4588      4587      4589
      4587      4590      4590      4591      4590      4592      4590      4593
      4541      4542      4542      4544      4542      4543      4544      4545
      4544      4546      4544      4594      4594      4595      4594      4596
      4594      4597      4597      4598      4597      4599      4597      4600
      4600      4601      4600      4602      4600      4603      4603      4604
      4603      4605      4603      4606      4606      4607      4606      4608
      4606      4609      4609      4610      4609      4611      4609      4612
      4612      4613      4612      4614      4612      4615      4615      4616
      4615      4617      4615      4618      4618      4619      4618      4620
      4618      4621      4621      4622      4621      4623      4621      4624
      4624      4625      4624      4626      4624      4627      4627      4628
      4627      4629      4627      4630      4630      4631      4630      4632
      4630      4633      4633      4634      4633      4635      4633      4636
      5737      5739      5737      5738      5739      5740      5737      5783
      5783      5784      5783      5785      5783      5780      5780      5781
      5780      5782      5737      5741      5741      5742      5741      5743
      5741      5744      5744      5775      5775      5780      5775      5776
      5776      5777      5776      5778      5776      5779      5744      5745
      5745      5746      5745      5747      5747      5748      5747      5749
      5747      5750      5750      5751      5750      5773      5773      5774
      5773      5775      5750      5752      5752      5753      5752      5762
      5762      5767      5767      5768      5767      5769      5767      5770
      5770      5771      5770      5772      5770      5773      5762      5763
      5763      5764      5763      5765      5763      5766      5752      5754
      5754      5755      5754      5756      5754      5757      5757      5758
      5757      5759      5757      5760      5760      5761      5760      5762
      5760      5786      5786      5787      5786      5788      5788      5789
      5788      5790      5788      5791      5786      5792      5792      5793
      5792      5794      5792      5795      5795      5796      5795      5797
      5795      5798      5798      5799      5798      5800      5798      5801
      5801      5802      5801      5803      5803      5804      5803      5805
      5803      5806      5801      5807      5807      5808      5807      5809
      5807      5810      5811      5813      5811      5812      5813      5814
      5811      5857      5857      5858      5857      5859      5857      5854
      5854      5855      5854      5856      5811      5815      5815      5816
      5815      5817      5815      5818      5818      5849      5849      5854
      5849      5850      5850      5851      5850      5852      5850      5853
      5818      5819      5819      5820      5819      5821      5821      5822
      5821      5823      5821      5824      5824      5825      5824      5847
      5847      5848      5847      5849      5824      5826      5826      5827
      5826      5836      5836      5841      5841      5842      5841      5843
      5841      5844      5844      5845      5844      5846      5844      5847
      5836      5837      5837      5838      5837      5839      5837      5840
      5826      5828      5828      5829      5828      5830      5828      5831
      5831      5832      5831      5833      5831      5834      5834      5835
      5834      5836      5834      5860      5860      5861      5860      5862
      5862      5863      5862      5864      5862      5865      5860      5866
      5866      5867      5866      5868      5866      5869      5869      5870
      5869      5871      5869      5872      5872      5873      5872      5874
      5872      5875      5875      5876      5875      5877      5877      5878
      5877      5879      5877      5880      5875      5881      5881      5882
      5881      5883      5881      5884      5885      5887      5885      5886
      5887      5888      5885      5931      5931      5932      5931      5933
      5931      5928      5928      5929      5928      5930      5885      5889
      5889      5890      5889      5891      5889      5892      5892      5923
      5923      5928      5923      5924      5924      5925      5924      5926
      5924      5927      5892      5893      5893      5894      5893      5895
      5895      5896      5895      5897      5895      5898      5898      5899
      5898      5921      5921      5922      5921      5923      5898      5900
      5900      5901      5900      5910      5910      5915      5915      5916
      5915      5917      5915      5918      5918      5919      5918      5920
      5918      5921      5910      5911      5911      5912      5911      5913
      5911      5914      5900      5902      5902      5903      5902      5904
      5902      5905      5905      5906      5905      5907      5905      5908
      5908      5909      5908      5910      5908      5934      5934      5935
      5934      5936      5936      5937      5936      5938      5936      5939
      5934      5940      5940      5941      5940      5942      5940      5943
      5943      5944      5943      5945      5943      5946      5946      5947
      5946      5948      5946      5949      5949      5950      5949      5951
      5951      5952      5951      5953      5951      5954      5949      5955
      5955      5956      5955      5957      5955      5958       134       135
       134       136       134       137       134       138       142       140
       140       138       140       141       138       139       138       143
       151       150       143       144       143       145       143       149
       149       146       146       150       146       147       146       148
       151       152       151       153       151       154       154       155
       154       162       154       156       162       163       162       164
       162       165       156       157       157       159       157       158
       159       160       159       161       159       171       171       172
       171       173       171       174       174       175       174       176
       174       177       177       178       177       179       179       180
       179       181       181       182       181       183       181       184
       184       185       184       186       186       187       186       188
       188       189       188       190       188       191       191       192
       191       193       193       194       193       195       195       196
       195       197       195       198       198       199       198       200
       200       201       200       202       202       203       202       204
       202       205       205       206       205       207       205       208
       208       209       208       210       208       211       211       212
       211       213       211       214       214       215       214       216
       214       217       165       166       166       168       166       167
       168       169       168       170       168       218       218       219
       218       220       218       221       221       222       221       223
       221       224       224       225       224       226       224       227
       227       228       227       229       227       230       230       231
       230       232       230       233       233       234       233       235
       233       236       236       237       236       238       236       239
       239       240       239       241       239       242       242       243
       242       244       242       245       245       246       245       247
       245       248       248       249       248       250       248       251
       251       252       251       253       251       254       254       255
       254       256       254       257       257       258       257       259
       257       260       260       261       260       262       260       263
       263       264       263       265       263       266      9922      9923
      9922      9924      9922      9925      9922      9919      9919      9920
      9919      9921      9919      9916      9916      9917      9916      9918
      9916      9913      9913      9914      9913      9915      9913      9910
      9910      9911      9910      9912      9910      9907      9907      9908
      9907      9909      9907      9904      9904      9905      9904      9906
      9904      9901      9901      9902      9901      9903      9901      9898
      9898      9899      9898      9900      9898      9895      9895      9896
      9895      9897      9895      9892      9892      9893      9892      9894
      9892      9889      9889      9890      9889      9891      9889      9886
      9886      9887      9886      9888      9886      9884      9884      9885
      9882      9883      9882      9878      9878      9879      9878      9880
      9880      9881      9878      9876      9876      9877      9876      9871
      9871      9872      9871      9873      9871      9869      9869      9866
      9870      9866      9867      9866      9868      9866      9870      9863
      9863      9864      9863      9865      9863      9860      9860      9861
      9860      9862      9860      9847      9847      9856      9847      9852
      9847      9848      9856      9857      9856      9858      9856      9859
      9852      9853      9852      9854      9852      9855      9848      9849
      9848      9850      9848      9851      9876      9874      9874      9875
      9874      9926      9926      9928      9928      9929      9928      9930
      9928      9931      9931      9932      9931      9933      9931      9934
      9934      9935      9934      9936      9934      9937      9937      9938
      9937      9939      9937      9940      9940      9941      9940      9942
      9940      9943      9943      9944      9943      9945      9943      9946
      9946      9947      9946      9948      9946      9949      9949      9950
      9951      9952      9951      9953      9953      9954      9953      9955
      9953      9956      9956      9957      9956      9958      9956      9959
      9959      9960      9959      9961      9959      9962      9962      9963
      9962      9964      9962      9965      9965      9966      9965      9967
      9965      9968      9968      9969      9968      9970      9968      9971
      9971      9972      9971      9973      9971      9974      9974      9975
      9974      9976      9974      9977      9882      9884      9949      9951
      9926      9927     19561     19562     19561     19557     19561     19541
     19561     19566     19541     19542     19541     19543     19543     19544
     19541     19545     19545     19546     19545     19547     19547     19548
     19545     19549     19549     19550     19549     19551     19551     19552
     19549     19553     19553     19554     19553     19557     19557     19558
     19557     19559     19559     19560     19553     19555     19555     19556
     19566     19563     19563     19567     19563     19564     19563     19565
     19567     19568     19568     19569     19568     19570     19568     19571
     19571     19572     19571     19579     19571     19573     19579     19580
     19579     19581     19579     19582     19573     19574     19574     19576
     19574     19575     19576     19577     19576     19578     19576     19588
     19588     19589     19588     19590     19588     19591     19591     19592
     19591     19593     19591     19594     19594     19595     19594     19596
     19596     19597     19596     19598     19598     19599     19598     19600
     19598     19601     19601     19602     19601     19603     19603     19604
     19603     19605     19605     19606     19605     19607     19605     19608
     19608     19609     19608     19610     19610     19611     19610     19612
     19612     19613     19612     19614     19612     19615     19615     19616
     19615     19617     19617     19618     19617     19619     19619     19620
     19619     19621     19619     19622     19622     19623     19622     19624
     19622     19625     19625     19626     19625     19627     19625     19628
     19628     19629     19628     19630     19628     19631     19631     19632
     19631     19633     19631     19634     19582     19583     19583     19585
     19583     19584     19585     19586     19585     19587     19585     19635
     19635     19636     19635     19637     19635     19638     19638     19639
     19638     19640     19638     19641     19641     19642     19641     19643
     19641     19644     19644     19645     19644     19646     19644     19647
     19647     19648     19647     19649     19647     19650     19650     19651
     19650     19652     19650     19653     19653     19654     19653     19655
     19653     19656     19656     19657     19656     19658     19656     19659
     19659     19660     19659     19661     19659     19662     19662     19663
     19662     19664     19662     19665     19665     19666     19665     19667
     19665     19668     19668     19669     19668     19670     19668     19671
     19671     19672     19671     19673     19671     19674     19674     19675
     19674     19676     19674     19677     19677     19678     19677     19679
     19677     19680     19680     19681     19680     19682     19680     19683
     14432     14433     14432     14434     14432     14435     14432     14436
     14436     14437     14436     14438     14436     14439     14439     14440
     14439     14441     14439     14445     14447     14446     14445     14442
     14442     14446     14442     14443     14442     14444     14447     14448
     14447     14449     14447     14450     14450     14451     14450     14458
     14450     14452     14458     14459     14458     14460     14458     14461
     14452     14453     14453     14455     14453     14454     14455     14456
     14455     14457     14455     14467     14467     14468     14467     14469
     14467     14470     14470     14471     14470     14472     14470     14473
     14473     14474     14473     14475     14475     14476     14475     14477
     14477     14478     14477     14479     14477     14480     14480     14481
     14480     14482     14482     14483     14482     14484     14484     14485
     14484     14486     14484     14487     14487     14488     14487     14489
     14489     14490     14489     14491     14491     14492     14491     14493
     14491     14494     14494     14495     14494     14496     14496     14497
     14496     14498     14498     14499     14498     14500     14498     14501
     14501     14502     14501     14503     14501     14504     14504     14505
     14504     14506     14504     14507     14507     14508     14507     14509
     14507     14510     14510     14511     14510     14512     14510     14513
     14461     14462     14462     14464     14462     14463     14464     14465
     14464     14466     14464     14514     14514     14515     14514     14516
     14514     14517     14517     14518     14517     14519     14517     14520
     14520     14521     14520     14522     14520     14523     14523     14524
     14523     14525     14523     14526     14526     14527     14526     14528
     14526     14529     14529     14530     14529     14531     14529     14532
     14532     14533     14532     14534     14532     14535     14535     14536
     14535     14537     14535     14538     14538     14539     14538     14540
     14538     14541     14541     14542     14541     14543     14541     14544
     14544     14545     14544     14546     14544     14547     14547     14548
     14547     14549     14547     14550     14550     14551     14550     14552
     14550     14553     14553     14554     14553     14555     14553     14556
     14556     14557     14556     14558     14556     14559     14559     14560
     14559     14561     14559     14562      5959      5961      5959      5960
      5961      5962      5959      6005      6005      6006      6005      6007
      6005      6002      6002      6003      6002      6004      5959      5963
      5963      5964      5963      5965      5963      5966      5966      5997
      5997      6002      5997      5998      5998      5999      5998      6000
      5998      6001      5966      5967      5967      5968      5967      5969
      5969      5970      5969      5971      5969      5972      5972      5973
      5972      5995      5995      5996      5995      5997      5972      5974
      5974      5975      5974      5984      5984      5989      5989      5990
      5989      5991      5989      5992      5992      5993      5992      5994
      5992      5995      5984      5985      5985      5986      5985      5987
      5985      5988      5974      5976      5976      5977      5976      5978
      5976      5979      5979      5980      5979      5981      5979      5982
      5982      5983      5982      5984      5982      6008      6008      6009
      6008      6010      6010      6011      6010      6012      6010      6013
      6008      6014      6014      6015      6014      6016      6014      6017
      6017      6018      6017      6019      6017      6020      6020      6021
      6020      6022      6020      6023      6023      6024      6023      6025
      6025      6026      6025      6027      6025      6028      6023      6029
      6029      6030      6029      6031      6029      6032     14563     14564
     14563     14565     14563     14566     14563     14567     14567     14568
     14567     14569     14567     14570     14570     14571     14570     14572
     14570     14576     14578     14577     14576     14573     14573     14577
     14573     14574     14573     14575     14578     14579     14578     14580
     14578     14581     14581     14582     14581     14589     14581     14583
     14589     14590     14589     14591     14589     14592     14583     14584
     14584     14586     14584     14585     14586     14587     14586     14588
     14586     14598     14598     14599     14598     14600     14598     14601
     14601     14602     14601     14603     14601     14604     14604     14605
     14604     14606     14606     14607     14606     14608     14608     14609
     14608     14610     14608     14611     14611     14612     14611     14613
     14613     14614     14613     14615     14615     14616     14615     14617
     14615     14618     14618     14619     14618     14620     14620     14621
     14620     14622     14622     14623     14622     14624     14622     14625
     14625     14626     14625     14627     14627     14628     14627     14629
     14629     14630     14629     14631     14629     14632     14632     14633
     14632     14634     14632     14635     14635     14636     14635     14637
     14635     14638     14638     14639     14638     14640     14638     14641
     14641     14642     14641     14643     14641     14644     14592     14593
     14593     14595     14593     14594     14595     14596     14595     14597
     14595     14645     14645     14646     14645     14647     14645     14648
     14648     14649     14648     14650     14648     14651     14651     14652
     14651     14653     14651     14654     14654     14655     14654     14656
     14654     14657     14657     14658     14657     14659     14657     14660
     14660     14661     14660     14662     14660     14663     14663     14664
     14663     14665     14663     14666     14666     14667     14666     14668
     14666     14669     14669     14670     14669     14671     14669     14672
     14672     14673     14672     14674     14672     14675     14675     14676
     14675     14677     14675     14678     14678     14679     14678     14680
     14678     14681     14681     14682     14681     14683     14681     14684
     14684     14685     14684     14686     14684     14687     14687     14688
     14687     14689     14687     14690     14690     14691     14690     14692
     14690     14693     20113     20114     20113     20118     20113     20122
     20114     20115     20114     20116     20114     20117     20118     20119
     20118     20120     20118     20121     20122     20123     20122     20124
     20122     20125     20113     20126     20126     20127     20126     20128
     20126     20129     20129     20130     20129     20131     20129     20135
     20136     20137     20135     20132     20132     20136     20132     20133
     20132     20134     20137     20138     20137     20139     20137     20140
     20140     20141     20140     20148     20140     20142     20148     20149
     20148     20150     20148     20151     20142     20143     20143     20145
     20143     20144     20145     20146     20145     20147     20145     20157
     20157     20158     20157     20159     20157     20160     20160     20161
     20160     20162     20160     20163     20163     20164     20163     20165
     20163     20166     20166     20167     20166     20168     20166     20169
     20169     20170     20169     20171     20169     20172     20172     20173
     20172     20174     20172     20175     20175     20176     20175     20177
     20177     20178     20177     20179     20179     20180     20179     20181
     20179     20182     20182     20183     20182     20184     20184     20185
     20184     20186     20186     20187     20186     20188     20186     20189
     20189     20190     20189     20191     20189     20192     20192     20193
     20192     20194     20192     20195     20195     20196     20195     20197
     20195     20198     20198     20199     20198     20200     20198     20201
     20151     20152     20152     20154     20152     20153     20154     20155
     20154     20156     20154     20202     20202     20203     20202     20204
     20202     20205     20205     20206     20205     20207     20205     20208
     20208     20209     20208     20210     20208     20211     20211     20212
     20211     20213     20211     20214     20214     20215     20214     20216
     20214     20217     20217     20218     20217     20219     20217     20220
     20220     20221     20220     20222     20220     20223     20223     20224
     20223     20225     20223     20226     20226     20227     20226     20228
     20226     20229     20229     20230     20229     20231     20229     20232
     20232     20233     20232     20234     20232     20235     20235     20236
     20235     20237     20235     20238     20238     20239     20238     20240
     20238     20241     20241     20242     20241     20243     20241     20244
     20244     20245     20244     20246     20244     20247     20247     20248
     20247     20249     20247     20250     10053     10054     10053     10055
     10053     10056     10053     10050     10050     10051     10050     10052
     10050     10047     10047     10048     10047     10049     10047     10044
     10044     10045     10044     10046     10044     10041     10041     10042
     10041     10043     10041     10038     10038     10039     10038     10040
     10038     10035     10035     10036     10035     10037     10035     10032
     10032     10033     10032     10034     10032     10029     10029     10030
     10029     10031     10029     10026     10026     10027     10026     10028
     10026     10023     10023     10024     10023     10025     10023     10020
     10020     10021     10020     10022     10020     10017     10017     10018
     10017     10019     10017     10015     10015     10016     10013     10014
     10013     10009     10009     10010     10009     10011     10011     10012
     10009     10007     10007     10008     10007     10002     10002     10003
     10002     10004     10002     10000     10000      9997     10001      9997
      9998      9997      9999      9997     10001      9994      9994      9995
      9994      9996      9994      9991      9991      9992      9991      9993
      9991      9978      9978      9987      9978      9983      9978      9979
      9987      9988      9987      9989      9987      9990      9983      9984
      9983      9985      9983      9986      9979      9980      9979      9981
      9979      9982     10007     10005     10005     10006     10005     10057
     10057     10059     10059     10060     10059     10061     10059     10062
     10062     10063     10062     10064     10062     10065     10065     10066
     10065     10067     10065     10068     10068     10069     10068     10070
     10068     10071     10071     10072     10071     10073     10071     10074
     10074     10075     10074     10076     10074     10077     10077     10078
     10077     10079     10077     10080     10080     10081     10082     10083
     10082     10084     10084     10085     10084     10086     10084     10087
     10087     10088     10087     10089     10087     10090     10090     10091
     10090     10092     10090     10093     10093     10094     10093     10095
     10093     10096     10096     10097     10096     10098     10096     10099
     10099     10100     10099     10101     10099     10102     10102     10103
     10102     10104     10102     10105     10105     10106     10105     10107
     10105     10108     10013     10015     10080     10082     10057     10058
      6033      6035      6033      6034      6035      6036      6033      6079
      6079      6080      6079      6081      6079      6076      6076      6077
      6076      6078      6033      6037      6037      6038      6037      6039
      6037      6040      6040      6071      6071      6076      6071      6072
      6072      6073      6072      6074      6072      6075      6040      6041
      6041      6042      6041      6043      6043      6044      6043      6045
      6043      6046      6046      6047      6046      6069      6069      6070
      6069      6071      6046      6048      6048      6049      6048      6058
      6058      6063      6063      6064      6063      6065      6063      6066
      6066      6067      6066      6068      6066      6069      6058      6059
      6059      6060      6059      6061      6059      6062      6048      6050
      6050      6051      6050      6052      6050      6053      6053      6054
      6053      6055      6053      6056      6056      6057      6056      6058
      6056      6082      6082      6083      6082      6084      6084      6085
      6084      6086      6084      6087      6082      6088      6088      6089
      6088      6090      6088      6091      6091      6092      6091      6093
      6091      6094      6094      6095      6094      6096      6094      6097
      6097      6098      6097      6099      6099      6100      6099      6101
      6099      6102      6097      6103      6103      6104      6103      6105
      6103      6106     14694     14695     14694     14696     14694     14697
     14694     14698     14698     14699     14698     14700     14698     14701
     14701     14702     14701     14703     14701     14707     14709     14708
     14707     14704     14704     14708     14704     14705     14704     14706
     14709     14710     14709     14711     14709     14712     14712     14713
     14712     14720     14712     14714     14720     14721     14720     14722
     14720     14723     14714     14715     14715     14717     14715     14716
     14717     14718     14717     14719     14717     14729     14729     14730
     14729     14731     14729     14732     14732     14733     14732     14734
     14732     14735     14735     14736     14735     14737     14737     14738
     14737     14739     14739     14740     14739     14741     14739     14742
     14742     14743     14742     14744     14744     14745     14744     14746
     14746     14747     14746     14748     14746     14749     14749     14750
     14749     14751     14751     14752     14751     14753     14753     14754
     14753     14755     14753     14756     14756     14757     14756     14758
     14758     14759     14758     14760     14760     14761     14760     14762
     14760     14763     14763     14764     14763     14765     14763     14766
     14766     14767     14766     14768     14766     14769     14769     14770
     14769     14771     14769     14772     14772     14773     14772     14774
     14772     14775     14723     14724     14724     14726     14724     14725
     14726     14727     14726     14728     14726     14776     14776     14777
     14776     14778     14776     14779     14779     14780     14779     14781
     14779     14782     14782     14783     14782     14784     14782     14785
     14785     14786     14785     14787     14785     14788     14788     14789
     14788     14790     14788     14791     14791     14792     14791     14793
     14791     14794     14794     14795     14794     14796     14794     14797
     14797     14798     14797     14799     14797     14800     14800     14801
     14800     14802     14800     14803     14803     14804     14803     14805
     14803     14806     14806     14807     14806     14808     14806     14809
     14809     14810     14809     14811     14809     14812     14812     14813
     14812     14814     14812     14815     14815     14816     14815     14817
     14815     14818     14818     14819     14818     14820     14818     14821
     14821     14822     14821     14823     14821     14824     18100     18101
     18100     18102     18100     18103     18100     18104     18104     18105
     18104     18106     18104     18107     18107     18108     18107     18109
     18107     18113     18115     18114     18113     18110     18110     18114
     18110     18111     18110     18112     18115     18116     18115     18117
     18115     18118     18118     18119     18118     18126     18118     18120
     18126     18127     18126     18128     18126     18129     18120     18121
     18121     18123     18121     18122     18123     18124     18123     18125
     18123     18135     18135     18136     18135     18137     18135     18138
     18138     18139     18138     18140     18138     18141     18141     18142
     18141     18143     18141     18144     18144     18145     18144     18146
     18144     18147     18147     18148     18147     18149     18147     18150
     18150     18151     18150     18152     18150     18153     18153     18154
     18153     18155     18155     18156     18155     18157     18157     18158
     18157     18159     18157     18160     18160     18161     18160     18162
     18160     18163     18163     18164     18163     18165     18163     18166
     18166     18167     18166     18168     18166     18169     18169     18170
     18169     18171     18169     18172     18172     18173     18172     18174
     18172     18175     18175     18176     18175     18177     18175     18178
     18178     18179     18178     18180     18178     18181     18129     18130
     18130     18132     18130     18131     18132     18133     18132     18134
     18132     18182     18182     18183     18182     18184     18182     18185
     18185     18186     18185     18187     18185     18188     18188     18189
     18188     18190     18188     18191     18191     18192     18191     18193
     18191     18194     18194     18195     18194     18196     18194     18197
     18197     18198     18197     18199     18197     18200     18200     18201
     18200     18202     18200     18203     18203     18204     18203     18205
     18203     18206     18206     18207     18206     18208     18206     18209
     18209     18210     18209     18211     18209     18212     18212     18213
     18212     18214     18212     18215     18215     18216     18215     18217
     18215     18218     18218     18219     18218     18220     18218     18221
     18221     18222     18221     18223     18221     18224     18224     18225
     18224     18226     18224     18227     18227     18228     18227     18229
     18227     18230     20251     20252     20251     20256     20251     20260
     20252     20253     20252     20254     20252     20255     20256     20257
     20256     20258     20256     20259     20260     20261     20260     20262
     20260     20263     20251     20264     20264     20265     20264     20266
     20264     20267     20267     20268     20267     20269     20267     20273
     20274     20275     20273     20270     20270     20274     20270     20271
     20270     20272     20275     20276     20275     20277     20275     20278
     20278     20279     20278     20286     20278     20280     20286     20287
     20286     20288     20286     20289     20280     20281     20281     20283
     20281     20282     20283     20284     20283     20285     20283     20295
     20295     20296     20295     20297     20295     20298     20298     20299
     20298     20300     20298     20301     20301     20302     20301     20303
     20301     20304     20304     20305     20304     20306     20304     20307
     20307     20308     20307     20309     20307     20310     20310     20311
     20310     20312     20310     20313     20313     20314     20313     20315
     20315     20316     20315     20317     20317     20318     20317     20319
     20317     20320     20320     20321     20320     20322     20322     20323
     20322     20324     20324     20325     20324     20326     20324     20327
     20327     20328     20327     20329     20327     20330     20330     20331
     20330     20332     20330     20333     20333     20334     20333     20335
     20333     20336     20336     20337     20336     20338     20336     20339
     20289     20290     20290     20292     20290     20291     20292     20293
     20292     20294     20292     20340     20340     20341     20340     20342
     20340     20343     20343     20344     20343     20345     20343     20346
     20346     20347     20346     20348     20346     20349     20349     20350
     20349     20351     20349     20352     20352     20353     20352     20354
     20352     20355     20355     20356     20355     20357     20355     20358
     20358     20359     20358     20360     20358     20361     20361     20362
     20361     20363     20361     20364     20364     20365     20364     20366
     20364     20367     20367     20368     20367     20369     20367     20370
     20370     20371     20370     20372     20370     20373     20373     20374
     20373     20375     20373     20376     20376     20377     20376     20378
     20376     20379     20379     20380     20379     20381     20379     20382
     20382     20383     20382     20384     20382     20385     20385     20386
     20385     20387     20385     20388     10184     10185     10184     10186
     10184     10187     10184     10181     10181     10182     10181     10183
     10181     10178     10178     10179     10178     10180     10178     10175
     10175     10176     10175     10177     10175     10172     10172     10173
     10172     10174     10172     10169     10169     10170     10169     10171
     10169     10166     10166     10167     10166     10168     10166     10163
     10163     10164     10163     10165     10163     10160     10160     10161
     10160     10162     10160     10157     10157     10158     10157     10159
     10157     10154     10154     10155     10154     10156     10154     10151
     10151     10152     10151     10153     10151     10148     10148     10149
     10148     10150     10148     10146     10146     10147     10144     10145
     10144     10140     10140     10141     10140     10142     10142     10143
     10140     10138     10138     10139     10138     10133     10133     10134
     10133     10135     10133     10131     10131     10128     10132     10128
     10129     10128     10130     10128     10132     10125     10125     10126
     10125     10127     10125     10122     10122     10123     10122     10124
     10122     10109     10109     10118     10109     10114     10109     10110
     10118     10119     10118     10120     10118     10121     10114     10115
     10114     10116     10114     10117     10110     10111     10110     10112
     10110     10113     10138     10136     10136     10137     10136     10188
     10188     10190     10190     10191     10190     10192     10190     10193
     10193     10194     10193     10195     10193     10196     10196     10197
     10196     10198     10196     10199     10199     10200     10199     10201
     10199     10202     10202     10203     10202     10204     10202     10205
     10205     10206     10205     10207     10205     10208     10208     10209
     10208     10210     10208     10211     10211     10212     10213     10214
     10213     10215     10215     10216     10215     10217     10215     10218
     10218     10219     10218     10220     10218     10221     10221     10222
     10221     10223     10221     10224     10224     10225     10224     10226
     10224     10227     10227     10228     10227     10229     10227     10230
     10230     10231     10230     10232     10230     10233     10233     10234
     10233     10235     10233     10236     10236     10237     10236     10238
     10236     10239     10144     10146     10211     10213     10188     10189
     10315     10316     10315     10317     10315     10318     10315     10312
     10312     10313     10312     10314     10312     10309     10309     10310
     10309     10311     10309     10306     10306     10307     10306     10308
     10306     10303     10303     10304     10303     10305     10303     10300
     10300     10301     10300     10302     10300     10297     10297     10298
     10297     10299     10297     10294     10294     10295     10294     10296
     10294     10291     10291     10292     10291     10293     10291     10288
     10288     10289     10288     10290     10288     10285     10285     10286
     10285     10287     10285     10282     10282     10283     10282     10284
     10282     10279     10279     10280     10279     10281     10279     10277
     10277     10278     10275     10276     10275     10271     10271     10272
     10271     10273     10273     10274     10271     10269     10269     10270
     10269     10264     10264     10265     10264     10266     10264     10262
     10262     10259     10263     10259     10260     10259     10261     10259
     10263     10256     10256     10257     10256     10258     10256     10253
     10253     10254     10253     10255     10253     10240     10240     10249
     10240     10245     10240     10241     10249     10250     10249     10251
     10249     10252     10245     10246     10245     10247     10245     10248
     10241     10242     10241     10243     10241     10244     10269     10267
     10267     10268     10267     10319     10319     10321     10321     10322
     10321     10323     10321     10324     10324     10325     10324     10326
     10324     10327     10327     10328     10327     10329     10327     10330
     10330     10331     10330     10332     10330     10333     10333     10334
     10333     10335     10333     10336     10336     10337     10336     10338
     10336     10339     10339     10340     10339     10341     10339     10342
     10342     10343     10344     10345     10344     10346     10346     10347
     10346     10348     10346     10349     10349     10350     10349     10351
     10349     10352     10352     10353     10352     10354     10352     10355
     10355     10356     10355     10357     10355     10358     10358     10359
     10358     10360     10358     10361     10361     10362     10361     10363
     10361     10364     10364     10365     10364     10366     10364     10367
     10367     10368     10367     10369     10367     10370     10275     10277
     10342     10344     10319     10320       267       268       267       269
       267       270       267       271       275       273       273       271
       273       274       271       272       271       276       284       283
       276       277       276       278       276       282       282       279
       279       283       279       280       279       281       284       285
       284       286       284       287       287       288       287       295
       287       289       295       296       295       297       295       298
       289       290       290       292       290       291       292       293
       292       294       292       304       304       305       304       306
       304       307       307       308       307       309       307       310
       310       311       310       312       312       313       312       314
       314       315       314       316       314       317       317       318
       317       319       319       320       319       321       321       322
       321       323       321       324       324       325       324       326
       326       327       326       328       328       329       328       330
       328       331       331       332       331       333       333       334
       333       335       335       336       335       337       335       338
       338       339       338       340       338       341       341       342
       341       343       341       344       344       345       344       346
       344       347       347       348       347       349       347       350
       298       299       299       301       299       300       301       302
       301       303       301       351       351       352       351       353
       351       354       354       355       354       356       354       357
       357       358       357       359       357       360       360       361
       360       362       360       363       363       364       363       365
       363       366       366       367       366       368       366       369
       369       370       369       371       369       372       372       373
       372       374       372       375       375       376       375       377
       375       378       378       379       378       380       378       381
       381       382       381       383       381       384       384       385
       384       386       384       387       387       388       387       389
       387       390       390       391       390       392       390       393
       393       394       393       395       393       396       396       397
       396       398       396       399     20389     20390     20389     20394
     20389     20398     20390     20391     20390     20392     20390     20393
     20394     20395     20394     20396     20394     20397     20398     20399
     20398     20400     20398     20401     20389     20402     20402     20403
     20402     20404     20402     20405     20405     20406     20405     20407
     20405     20411     20412     20413     20411     20408     20408     20412
     20408     20409     20408     20410     20413     20414     20413     20415
     20413     20416     20416     20417     20416     20424     20416     20418
     20424     20425     20424     20426     20424     20427     20418     20419
     20419     20421     20419     20420     20421     20422     20421     20423
     20421     20433     20433     20434     20433     20435     20433     20436
     20436     20437     20436     20438     20436     20439     20439     20440
     20439     20441     20439     20442     20442     20443     20442     20444
     20442     20445     20445     20446     20445     20447     20445     20448
     20448     20449     20448     20450     20448     20451     20451     20452
     20451     20453     20453     20454     20453     20455     20455     20456
     20455     20457     20455     20458     20458     20459     20458     20460
     20460     20461     20460     20462     20462     20463     20462     20464
     20462     20465     20465     20466     20465     20467     20465     20468
     20468     20469     20468     20470     20468     20471     20471     20472
     20471     20473     20471     20474     20474     20475     20474     20476
     20474     20477     20427     20428     20428     20430     20428     20429
     20430     20431     20430     20432     20430     20478     20478     20479
     20478     20480     20478     20481     20481     20482     20481     20483
     20481     20484     20484     20485     20484     20486     20484     20487
     20487     20488     20487     20489     20487     20490     20490     20491
     20490     20492     20490     20493     20493     20494     20493     20495
     20493     20496     20496     20497     20496     20498     20496     20499
     20499     20500     20499     20501     20499     20502     20502     20503
     20502     20504     20502     20505     20505     20506     20505     20507
     20505     20508     20508     20509     20508     20510     20508     20511
     20511     20512     20511     20513     20511     20514     20514     20515
     20514     20516     20514     20517     20517     20518     20517     20519
     20517     20520     20520     20521     20520     20522     20520     20523
     20523     20524     20523     20525     20523     20526     18231     18232
     18231     18233     18231     18234     18231     18235     18235     18236
     18235     18237     18235     18238     18238     18239     18238     18240
     18238     18244     18246     18245     18244     18241     18241     18245
     18241     18242     18241     18243     18246     18247     18246     18248
     18246     18249     18249     18250     18249     18257     18249     18251
     18257     18258     18257     18259     18257     18260     18251     18252
     18252     18254     18252     18253     18254     18255     18254     18256
     18254     18266     18266     18267     18266     18268     18266     18269
     18269     18270     18269     18271     18269     18272     18272     18273
     18272     18274     18272     18275     18275     18276     18275     18277
     18275     18278     18278     18279     18278     18280     18278     18281
     18281     18282     18281     18283     18281     18284     18284     18285
     18284     18286     18286     18287     18286     18288     18288     18289
     18288     18290     18288     18291     18291     18292     18291     18293
     18291     18294     18294     18295     18294     18296     18294     18297
     18297     18298     18297     18299     18297     18300     18300     18301
     18300     18302     18300     18303     18303     18304     18303     18305
     18303     18306     18306     18307     18306     18308     18306     18309
     18309     18310     18309     18311     18309     18312     18260     18261
     18261     18263     18261     18262     18263     18264     18263     18265
     18263     18313     18313     18314     18313     18315     18313     18316
     18316     18317     18316     18318     18316     18319     18319     18320
     18319     18321     18319     18322     18322     18323     18322     18324
     18322     18325     18325     18326     18325     18327     18325     18328
     18328     18329     18328     18330     18328     18331     18331     18332
     18331     18333     18331     18334     18334     18335     18334     18336
     18334     18337     18337     18338     18337     18339     18337     18340
     18340     18341     18340     18342     18340     18343     18343     18344
     18343     18345     18343     18346     18346     18347     18346     18348
     18346     18349     18349     18350     18349     18351     18349     18352
     18352     18353     18352     18354     18352     18355     18355     18356
     18355     18357     18355     18358     18358     18359     18358     18360
     18358     18361     19704     19705     19704     19700     19704     19684
     19704     19709     19684     19685     19684     19686     19686     19687
     19684     19688     19688     19689     19688     19690     19690     19691
     19688     19692     19692     19693     19692     19694     19694     19695
     19692     19696     19696     19697     19696     19700     19700     19701
     19700     19702     19702     19703     19696     19698     19698     19699
     19709     19706     19706     19710     19706     19707     19706     19708
     19710     19711     19711     19712     19711     19713     19711     19714
     19714     19715     19714     19722     19714     19716     19722     19723
     19722     19724     19722     19725     19716     19717     19717     19719
     19717     19718     19719     19720     19719     19721     19719     19731
     19731     19732     19731     19733     19731     19734     19734     19735
     19734     19736     19734     19737     19737     19738     19737     19739
     19739     19740     19739     19741     19741     19742     19741     19743
     19741     19744     19744     19745     19744     19746     19746     19747
     19746     19748     19748     19749     19748     19750     19748     19751
     19751     19752     19751     19753     19753     19754     19753     19755
     19755     19756     19755     19757     19755     19758     19758     19759
     19758     19760     19760     19761     19760     19762     19762     19763
     19762     19764     19762     19765     19765     19766     19765     19767
     19765     19768     19768     19769     19768     19770     19768     19771
     19771     19772     19771     19773     19771     19774     19774     19775
     19774     19776     19774     19777     19725     19726     19726     19728
     19726     19727     19728     19729     19728     19730     19728     19778
     19778     19779     19778     19780     19778     19781     19781     19782
     19781     19783     19781     19784     19784     19785     19784     19786
     19784     19787     19787     19788     19787     19789     19787     19790
     19790     19791     19790     19792     19790     19793     19793     19794
     19793     19795     19793     19796     19796     19797     19796     19798
     19796     19799     19799     19800     19799     19801     19799     19802
     19802     19803     19802     19804     19802     19805     19805     19806
     19805     19807     19805     19808     19808     19809     19808     19810
     19808     19811     19811     19812     19811     19813     19811     19814
     19814     19815     19814     19816     19814     19817     19817     19818
     19817     19819     19817     19820     19820     19821     19820     19822
     19820     19823     19823     19824     19823     19825     19823     19826
      6107      6109      6107      6108      6109      6110      6107      6153
      6153      6154      6153      6155      6153      6150      6150      6151
      6150      6152      6107      6111      6111      6112      6111      6113
      6111      6114      6114      6145      6145      6150      6145      6146
      6146      6147      6146      6148      6146      6149      6114      6115
      6115      6116      6115      6117      6117      6118      6117      6119
      6117      6120      6120      6121      6120      6143      6143      6144
      6143      6145      6120      6122      6122      6123      6122      6132
      6132      6137      6137      6138      6137      6139      6137      6140
      6140      6141      6140      6142      6140      6143      6132      6133
      6133      6134      6133      6135      6133      6136      6122      6124
      6124      6125      6124      6126      6124      6127      6127      6128
      6127      6129      6127      6130      6130      6131      6130      6132
      6130      6156      6156      6157      6156      6158      6158      6159
      6158      6160      6158      6161      6156      6162      6162      6163
      6162      6164      6162      6165      6165      6166      6165      6167
      6165      6168      6168      6169      6168      6170      6168      6171
      6171      6172      6171      6173      6173      6174      6173      6175
      6173      6176      6171      6177      6177      6178      6177      6179
      6177      6180     10446     10447     10446     10448     10446     10449
     10446     10443     10443     10444     10443     10445     10443     10440
     10440     10441     10440     10442     10440     10437     10437     10438
     10437     10439     10437     10434     10434     10435     10434     10436
     10434     10431     10431     10432     10431     10433     10431     10428
     10428     10429     10428     10430     10428     10425     10425     10426
     10425     10427     10425     10422     10422     10423     10422     10424
     10422     10419     10419     10420     10419     10421     10419     10416
     10416     10417     10416     10418     10416     10413     10413     10414
     10413     10415     10413     10410     10410     10411     10410     10412
     10410     10408     10408     10409     10406     10407     10406     10402
     10402     10403     10402     10404     10404     10405     10402     10400
     10400     10401     10400     10395     10395     10396     10395     10397
     10395     10393     10393     10390     10394     10390     10391     10390
     10392     10390     10394     10387     10387     10388     10387     10389
     10387     10384     10384     10385     10384     10386     10384     10371
     10371     10380     10371     10376     10371     10372     10380     10381
     10380     10382     10380     10383     10376     10377     10376     10378
     10376     10379     10372     10373     10372     10374     10372     10375
     10400     10398     10398     10399     10398     10450     10450     10452
     10452     10453     10452     10454     10452     10455     10455     10456
     10455     10457     10455     10458     10458     10459     10458     10460
     10458     10461     10461     10462     10461     10463     10461     10464
     10464     10465     10464     10466     10464     10467     10467     10468
     10467     10469     10467     10470     10470     10471     10470     10472
     10470     10473     10473     10474     10475     10476     10475     10477
     10477     10478     10477     10479     10477     10480     10480     10481
     10480     10482     10480     10483     10483     10484     10483     10485
     10483     10486     10486     10487     10486     10488     10486     10489
     10489     10490     10489     10491     10489     10492     10492     10493
     10492     10494     10492     10495     10495     10496     10495     10497
     10495     10498     10498     10499     10498     10500     10498     10501
     10406     10408     10473     10475     10450     10451      6181      6183
      6181      6182      6183      6184      6181      6227      6227      6228
      6227      6229      6227      6224      6224      6225      6224      6226
      6181      6185      6185      6186      6185      6187      6185      6188
      6188      6219      6219      6224      6219      6220      6220      6221
      6220      6222      6220      6223      6188      6189      6189      6190
      6189      6191      6191      6192      6191      6193      6191      6194
      6194      6195      6194      6217      6217      6218      6217      6219
      6194      6196      6196      6197      6196      6206      6206      6211
      6211      6212      6211      6213      6211      6214      6214      6215
      6214      6216      6214      6217      6206      6207      6207      6208
      6207      6209      6207      6210      6196      6198      6198      6199
      6198      6200      6198      6201      6201      6202      6201      6203
      6201      6204      6204      6205      6204      6206      6204      6230
      6230      6231      6230      6232      6232      6233      6232      6234
      6232      6235      6230      6236      6236      6237      6236      6238
      6236      6239      6239      6240      6239      6241      6239      6242
      6242      6243      6242      6244      6242      6245      6245      6246
      6245      6247      6247      6248      6247      6249      6247      6250
      6245      6251      6251      6252      6251      6253      6251      6254
     14825     14826     14825     14827     14825     14828     14825     14829
     14829     14830     14829     14831     14829     14832     14832     14833
     14832     14834     14832     14838     14840     14839     14838     14835
     14835     14839     14835     14836     14835     14837     14840     14841
     14840     14842     14840     14843     14843     14844     14843     14851
     14843     14845     14851     14852     14851     14853     14851     14854
     14845     14846     14846     14848     14846     14847     14848     14849
     14848     14850     14848     14860     14860     14861     14860     14862
     14860     14863     14863     14864     14863     14865     14863     14866
     14866     14867     14866     14868     14868     14869     14868     14870
     14870     14871     14870     14872     14870     14873     14873     14874
     14873     14875     14875     14876     14875     14877     14877     14878
     14877     14879     14877     14880     14880     14881     14880     14882
     14882     14883     14882     14884     14884     14885     14884     14886
     14884     14887     14887     14888     14887     14889     14889     14890
     14889     14891     14891     14892     14891     14893     14891     14894
     14894     14895     14894     14896     14894     14897     14897     14898
     14897     14899     14897     14900     14900     14901     14900     14902
     14900     14903     14903     14904     14903     14905     14903     14906
     14854     14855     14855     14857     14855     14856     14857     14858
     14857     14859     14857     14907     14907     14908     14907     14909
     14907     14910     14910     14911     14910     14912     14910     14913
     14913     14914     14913     14915     14913     14916     14916     14917
     14916     14918     14916     14919     14919     14920     14919     14921
     14919     14922     14922     14923     14922     14924     14922     14925
     14925     14926     14925     14927     14925     14928     14928     14929
     14928     14930     14928     14931     14931     14932     14931     14933
     14931     14934     14934     14935     14934     14936     14934     14937
     14937     14938     14937     14939     14937     14940     14940     14941
     14940     14942     14940     14943     14943     14944     14943     14945
     14943     14946     14946     14947     14946     14948     14946     14949
     14949     14950     14949     14951     14949     14952     14952     14953
     14952     14954     14952     14955      6255      6257      6255      6256
      6257      6258      6255      6301      6301      6302      6301      6303
      6301      6298      6298      6299      6298      6300      6255      6259
      6259      6260      6259      6261      6259      6262      6262      6293
      6293      6298      6293      6294      6294      6295      6294      6296
      6294      6297      6262      6263      6263      6264      6263      6265
      6265      6266      6265      6267      6265      6268      6268      6269
      6268      6291      6291      6292      6291      6293      6268      6270
      6270      6271      6270      6280      6280      6285      6285      6286
      6285      6287      6285      6288      6288      6289      6288      6290
      6288      6291      6280      6281      6281      6282      6281      6283
      6281      6284      6270      6272      6272      6273      6272      6274
      6272      6275      6275      6276      6275      6277      6275      6278
      6278      6279      6278      6280      6278      6304      6304      6305
      6304      6306      6306      6307      6306      6308      6306      6309
      6304      6310      6310      6311      6310      6312      6310      6313
      6313      6314      6313      6315      6313      6316      6316      6317
      6316      6318      6316      6319      6319      6320      6319      6321
      6321      6322      6321      6323      6321      6324      6319      6325
      6325      6326      6325      6327      6325      6328      6329      6331
      6329      6330      6331      6332      6329      6375      6375      6376
      6375      6377      6375      6372      6372      6373      6372      6374
      6329      6333      6333      6334      6333      6335      6333      6336
      6336      6367      6367      6372      6367      6368      6368      6369
      6368      6370      6368      6371      6336      6337      6337      6338
      6337      6339      6339      6340      6339      6341      6339      6342
      6342      6343      6342      6365      6365      6366      6365      6367
      6342      6344      6344      6345      6344      6354      6354      6359
      6359      6360      6359      6361      6359      6362      6362      6363
      6362      6364      6362      6365      6354      6355      6355      6356
      6355      6357      6355      6358      6344      6346      6346      6347
      6346      6348      6346      6349      6349      6350      6349      6351
      6349      6352      6352      6353      6352      6354      6352      6378
      6378      6379      6378      6380      6380      6381      6380      6382
      6380      6383      6378      6384      6384      6385      6384      6386
      6384      6387      6387      6388      6387      6389      6387      6390
      6390      6391      6390      6392      6390      6393      6393      6394
      6393      6395      6395      6396      6395      6397      6395      6398
      6393      6399      6399      6400      6399      6401      6399      6402
     18362     18363     18362     18364     18362     18365     18362     18366
     18366     18367     18366     18368     18366     18369     18369     18370
     18369     18371     18369     18375     18377     18376     18375     18372
     18372     18376     18372     18373     18372     18374     18377     18378
     18377     18379     18377     18380     18380     18381     18380     18388
     18380     18382     18388     18389     18388     18390     18388     18391
     18382     18383     18383     18385     18383     18384     18385     18386
     18385     18387     18385     18397     18397     18398     18397     18399
     18397     18400     18400     18401     18400     18402     18400     18403
     18403     18404     18403     18405     18403     18406     18406     18407
     18406     18408     18406     18409     18409     18410     18409     18411
     18409     18412     18412     18413     18412     18414     18412     18415
     18415     18416     18415     18417     18417     18418     18417     18419
     18419     18420     18419     18421     18419     18422     18422     18423
     18422     18424     18422     18425     18425     18426     18425     18427
     18425     18428     18428     18429     18428     18430     18428     18431
     18431     18432     18431     18433     18431     18434     18434     18435
     18434     18436     18434     18437     18437     18438     18437     18439
     18437     18440     18440     18441     18440     18442     18440     18443
     18391     18392     18392     18394     18392     18393     18394     18395
     18394     18396     18394     18444     18444     18445     18444     18446
     18444     18447     18447     18448     18447     18449     18447     18450
     18450     18451     18450     18452     18450     18453     18453     18454
     18453     18455     18453     18456     18456     18457     18456     18458
     18456     18459     18459     18460     18459     18461     18459     18462
     18462     18463     18462     18464     18462     18465     18465     18466
     18465     18467     18465     18468     18468     18469     18468     18470
     18468     18471     18471     18472     18471     18473     18471     18474
     18474     18475     18474     18476     18474     18477     18477     18478
     18477     18479     18477     18480     18480     18481     18480     18482
     18480     18483     18483     18484     18483     18485     18483     18486
     18486     18487     18486     18488     18486     18489     18489     18490
     18489     18491     18489     18492     20527     20528     20527     20532
     20527     20536     20528     20529     20528     20530     20528     20531
     20532     20533     20532     20534     20532     20535     20536     20537
     20536     20538     20536     20539     20527     20540     20540     20541
     20540     20542     20540     20543     20543     20544     20543     20545
     20543     20549     20550     20551     20549     20546     20546     20550
     20546     20547     20546     20548     20551     20552     20551     20553
     20551     20554     20554     20555     20554     20562     20554     20556
     20562     20563     20562     20564     20562     20565     20556     20557
     20557     20559     20557     20558     20559     20560     20559     20561
     20559     20571     20571     20572     20571     20573     20571     20574
     20574     20575     20574     20576     20574     20577     20577     20578
     20577     20579     20577     20580     20580     20581     20580     20582
     20580     20583     20583     20584     20583     20585     20583     20586
     20586     20587     20586     20588     20586     20589     20589     20590
     20589     20591     20591     20592     20591     20593     20593     20594
     20593     20595     20593     20596     20596     20597     20596     20598
     20598     20599     20598     20600     20600     20601     20600     20602
     20600     20603     20603     20604     20603     20605     20603     20606
     20606     20607     20606     20608     20606     20609     20609     20610
     20609     20611     20609     20612     20612     20613     20612     20614
     20612     20615     20565     20566     20566     20568     20566     20567
     20568     20569     20568     20570     20568     20616     20616     20617
     20616     20618     20616     20619     20619     20620     20619     20621
     20619     20622     20622     20623     20622     20624     20622     20625
     20625     20626     20625     20627     20625     20628     20628     20629
     20628     20630     20628     20631     20631     20632     20631     20633
     20631     20634     20634     20635     20634     20636     20634     20637
     20637     20638     20637     20639     20637     20640     20640     20641
     20640     20642     20640     20643     20643     20644     20643     20645
     20643     20646     20646     20647     20646     20648     20646     20649
     20649     20650     20649     20651     20649     20652     20652     20653
     20652     20654     20652     20655     20655     20656     20655     20657
     20655     20658     20658     20659     20658     20660     20658     20661
     20661     20662     20661     20663     20661     20664     18493     18494
     18493     18495     18493     18496     18493     18497     18497     18498
     18497     18499     18497     18500     18500     18501     18500     18502
     18500     18506     18508     18507     18506     18503     18503     18507
     18503     18504     18503     18505     18508     18509     18508     18510
     18508     18511     18511     18512     18511     18519     18511     18513
     18519     18520     18519     18521     18519     18522     18513     18514
     18514     18516     18514     18515     18516     18517     18516     18518
     18516     18528     18528     18529     18528     18530     18528     18531
     18531     18532     18531     18533     18531     18534     18534     18535
     18534     18536     18534     18537     18537     18538     18537     18539
     18537     18540     18540     18541     18540     18542     18540     18543
     18543     18544     18543     18545     18543     18546     18546     18547
     18546     18548     18548     18549     18548     18550     18550     18551
     18550     18552     18550     18553     18553     18554     18553     18555
     18553     18556     18556     18557     18556     18558     18556     18559
     18559     18560     18559     18561     18559     18562     18562     18563
     18562     18564     18562     18565     18565     18566     18565     18567
     18565     18568     18568     18569     18568     18570     18568     18571
     18571     18572     18571     18573     18571     18574     18522     18523
     18523     18525     18523     18524     18525     18526     18525     18527
     18525     18575     18575     18576     18575     18577     18575     18578
     18578     18579     18578     18580     18578     18581     18581     18582
     18581     18583     18581     18584     18584     18585     18584     18586
     18584     18587     18587     18588     18587     18589     18587     18590
     18590     18591     18590     18592     18590     18593     18593     18594
     18593     18595     18593     18596     18596     18597     18596     18598
     18596     18599     18599     18600     18599     18601     18599     18602
     18602     18603     18602     18604     18602     18605     18605     18606
     18605     18607     18605     18608     18608     18609     18608     18610
     18608     18611     18611     18612     18611     18613     18611     18614
     18614     18615     18614     18616     18614     18617     18617     18618
     18617     18619     18617     18620     18620     18621     18620     18622
     18620     18623      4637      4641      4637      4645      4637      4649
      4641      4642      4641      4643      4641      4644      4645      4646
      4645      4647      4645      4648      4649      4650      4649      4651
      4649      4652      4637      4638      4638      4639      4638      4640
      4638      4653      4653      4654      4653      4655      4653      4659
      4660      4661      4659      4656      4656      4660      4656      4657
      4656      4658      4661      4662      4661      4663      4661      4664
      4664      4665      4664      4672      4664      4666      4672      4673
      4672      4674      4672      4675      4666      4667      4667      4669
      4667      4668      4669      4670      4669      4671      4669      4681
      4681      4682      4681      4683      4681      4684      4684      4685
      4684      4686      4684      4687      4687      4688      4687      4689
      4687      4690      4690      4691      4690      4692      4690      4693
      4693      4694      4693      4695      4693      4696      4696      4697
      4696      4698      4696      4699      4699      4700      4699      4701
      4701      4702      4701      4703      4703      4704      4703      4705
      4703      4706      4706      4707      4706      4708      4706      4709
      4709      4710      4709      4711      4709      4712      4712      4713
      4712      4714      4712      4715      4715      4716      4715      4717
      4715      4718      4718      4719      4718      4720      4718      4721
      4721      4722      4721      4723      4721      4724      4724      4725
      4724      4726      4724      4727      4675      4676      4676      4678
      4676      4677      4678      4679      4678      4680      4678      4728
      4728      4729      4728      4730      4728      4731      4731      4732
      4731      4733      4731      4734      4734      4735      4734      4736
      4734      4737      4737      4738      4737      4739      4737      4740
      4740      4741      4740      4742      4740      4743      4743      4744
      4743      4745      4743      4746      4746      4747      4746      4748
      4746      4749      4749      4750      4749      4751      4749      4752
      4752      4753      4752      4754      4752      4755      4755      4756
      4755      4757      4755      4758      4758      4759      4758      4760
      4758      4761      4761      4762      4761      4763      4761      4764
      4764      4765      4764      4766      4764      4767      4767      4768
      4767      4769      4767      4770     10577     10578     10577     10579
     10577     10580     10577     10574     10574     10575     10574     10576
     10574     10571     10571     10572     10571     10573     10571     10568
     10568     10569     10568     10570     10568     10565     10565     10566
     10565     10567     10565     10562     10562     10563     10562     10564
     10562     10559     10559     10560     10559     10561     10559     10556
     10556     10557     10556     10558     10556     10553     10553     10554
     10553     10555     10553     10550     10550     10551     10550     10552
     10550     10547     10547     10548     10547     10549     10547     10544
     10544     10545     10544     10546     10544     10541     10541     10542
     10541     10543     10541     10539     10539     10540     10537     10538
     10537     10533     10533     10534     10533     10535     10535     10536
     10533     10531     10531     10532     10531     10526     10526     10527
     10526     10528     10526     10524     10524     10521     10525     10521
     10522     10521     10523     10521     10525     10518     10518     10519
     10518     10520     10518     10515     10515     10516     10515     10517
     10515     10502     10502     10511     10502     10507     10502     10503
     10511     10512     10511     10513     10511     10514     10507     10508
     10507     10509     10507     10510     10503     10504     10503     10505
     10503     10506     10531     10529     10529     10530     10529     10581
     10581     10583     10583     10584     10583     10585     10583     10586
     10586     10587     10586     10588     10586     10589     10589     10590
     10589     10591     10589     10592     10592     10593     10592     10594
     10592     10595     10595     10596     10595     10597     10595     10598
     10598     10599     10598     10600     10598     10601     10601     10602
     10601     10603     10601     10604     10604     10605     10606     10607
     10606     10608     10608     10609     10608     10610     10608     10611
     10611     10612     10611     10613     10611     10614     10614     10615
     10614     10616     10614     10617     10617     10618     10617     10619
     10617     10620     10620     10621     10620     10622     10620     10623
     10623     10624     10623     10625     10623     10626     10626     10627
     10626     10628     10626     10629     10629     10630     10629     10631
     10629     10632     10537     10539     10604     10606     10581     10582
     10708     10709     10708     10710     10708     10711     10708     10705
     10705     10706     10705     10707     10705     10702     10702     10703
     10702     10704     10702     10699     10699     10700     10699     10701
     10699     10696     10696     10697     10696     10698     10696     10693
     10693     10694     10693     10695     10693     10690     10690     10691
     10690     10692     10690     10687     10687     10688     10687     10689
     10687     10684     10684     10685     10684     10686     10684     10681
     10681     10682     10681     10683     10681     10678     10678     10679
     10678     10680     10678     10675     10675     10676     10675     10677
     10675     10672     10672     10673     10672     10674     10672     10670
     10670     10671     10668     10669     10668     10664     10664     10665
     10664     10666     10666     10667     10664     10662     10662     10663
     10662     10657     10657     10658     10657     10659     10657     10655
     10655     10652     10656     10652     10653     10652     10654     10652
     10656     10649     10649     10650     10649     10651     10649     10646
     10646     10647     10646     10648     10646     10633     10633     10642
     10633     10638     10633     10634     10642     10643     10642     10644
     10642     10645     10638     10639     10638     10640     10638     10641
     10634     10635     10634     10636     10634     10637     10662     10660
     10660     10661     10660     10712     10712     10714     10714     10715
     10714     10716     10714     10717     10717     10718     10717     10719
     10717     10720     10720     10721     10720     10722     10720     10723
     10723     10724     10723     10725     10723     10726     10726     10727
     10726     10728     10726     10729     10729     10730     10729     10731
     10729     10732     10732     10733     10732     10734     10732     10735
     10735     10736     10737     10738     10737     10739     10739     10740
     10739     10741     10739     10742     10742     10743     10742     10744
     10742     10745     10745     10746     10745     10747     10745     10748
     10748     10749     10748     10750     10748     10751     10751     10752
     10751     10753     10751     10754     10754     10755     10754     10756
     10754     10757     10757     10758     10757     10759     10757     10760
     10760     10761     10760     10762     10760     10763     10668     10670
     10735     10737     10712     10713      6403      6405      6403      6404
      6405      6406      6403      6449      6449      6450      6449      6451
      6449      6446      6446      6447      6446      6448      6403      6407
      6407      6408      6407      6409      6407      6410      6410      6441
      6441      6446      6441      6442      6442      6443      6442      6444
      6442      6445      6410      6411      6411      6412      6411      6413
      6413      6414      6413      6415      6413      6416      6416      6417
      6416      6439      6439      6440      6439      6441      6416      6418
      6418      6419      6418      6428      6428      6433      6433      6434
      6433      6435      6433      6436      6436      6437      6436      6438
      6436      6439      6428      6429      6429      6430      6429      6431
      6429      6432      6418      6420      6420      6421      6420      6422
      6420      6423      6423      6424      6423      6425      6423      6426
      6426      6427      6426      6428      6426      6452      6452      6453
      6452      6454      6454      6455      6454      6456      6454      6457
      6452      6458      6458      6459      6458      6460      6458      6461
      6461      6462      6461      6463      6461      6464      6464      6465
      6464      6466      6464      6467      6467      6468      6467      6469
      6469      6470      6469      6471      6469      6472      6467      6473
      6473      6474      6473      6475      6473      6476      6477      6479
      6477      6478      6479      6480      6477      6523      6523      6524
      6523      6525      6523      6520      6520      6521      6520      6522
      6477      6481      6481      6482      6481      6483      6481      6484
      6484      6515      6515      6520      6515      6516      6516      6517
      6516      6518      6516      6519      6484      6485      6485      6486
      6485      6487      6487      6488      6487      6489      6487      6490
      6490      6491      6490      6513      6513      6514      6513      6515
      6490      6492      6492      6493      6492      6502      6502      6507
      6507      6508      6507      6509      6507      6510      6510      6511
      6510      6512      6510      6513      6502      6503      6503      6504
      6503      6505      6503      6506      6492      6494      6494      6495
      6494      6496      6494      6497      6497      6498      6497      6499
      6497      6500      6500      6501      6500      6502      6500      6526
      6526      6527      6526      6528      6528      6529      6528      6530
      6528      6531      6526      6532      6532      6533      6532      6534
      6532      6535      6535      6536      6535      6537      6535      6538
      6538      6539      6538      6540      6538      6541      6541      6542
      6541      6543      6543      6544      6543      6545      6543      6546
      6541      6547      6547      6548      6547      6549      6547      6550
      6551      6553      6551      6552      6553      6554      6551      6597
      6597      6598      6597      6599      6597      6594      6594      6595
      6594      6596      6551      6555      6555      6556      6555      6557
      6555      6558      6558      6589      6589      6594      6589      6590
      6590      6591      6590      6592      6590      6593      6558      6559
      6559      6560      6559      6561      6561      6562      6561      6563
      6561      6564      6564      6565      6564      6587      6587      6588
      6587      6589      6564      6566      6566      6567      6566      6576
      6576      6581      6581      6582      6581      6583      6581      6584
      6584      6585      6584      6586      6584      6587      6576      6577
      6577      6578      6577      6579      6577      6580      6566      6568
      6568      6569      6568      6570      6568      6571      6571      6572
      6571      6573      6571      6574      6574      6575      6574      6576
      6574      6600      6600      6601      6600      6602      6602      6603
      6602      6604      6602      6605      6600      6606      6606      6607
      6606      6608      6606      6609      6609      6610      6609      6611
      6609      6612      6612      6613      6612      6614      6612      6615
      6615      6616      6615      6617      6617      6618      6617      6619
      6617      6620      6615      6621      6621      6622      6621      6623
      6621      6624      6625      6627      6625      6626      6627      6628
      6625      6671      6671      6672      6671      6673      6671      6668
      6668      6669      6668      6670      6625      6629      6629      6630
      6629      6631      6629      6632      6632      6663      6663      6668
      6663      6664      6664      6665      6664      6666      6664      6667
      6632      6633      6633      6634      6633      6635      6635      6636
      6635      6637      6635      6638      6638      6639      6638      6661
      6661      6662      6661      6663      6638      6640      6640      6641
      6640      6650      6650      6655      6655      6656      6655      6657
      6655      6658      6658      6659      6658      6660      6658      6661
      6650      6651      6651      6652      6651      6653      6651      6654
      6640      6642      6642      6643      6642      6644      6642      6645
      6645      6646      6645      6647      6645      6648      6648      6649
      6648      6650      6648      6674      6674      6675      6674      6676
      6676      6677      6676      6678      6676      6679      6674      6680
      6680      6681      6680      6682      6680      6683      6683      6684
      6683      6685      6683      6686      6686      6687      6686      6688
      6686      6689      6689      6690      6689      6691      6691      6692
      6691      6693      6691      6694      6689      6695      6695      6696
      6695      6697      6695      6698     14956     14957     14956     14958
     14956     14959     14956     14960     14960     14961     14960     14962
     14960     14963     14963     14964     14963     14965     14963     14969
     14971     14970     14969     14966     14966     14970     14966     14967
     14966     14968     14971     14972     14971     14973     14971     14974
     14974     14975     14974     14982     14974     14976     14982     14983
     14982     14984     14982     14985     14976     14977     14977     14979
     14977     14978     14979     14980     14979     14981     14979     14991
     14991     14992     14991     14993     14991     14994     14994     14995
     14994     14996     14994     14997     14997     14998     14997     14999
     14999     15000     14999     15001     15001     15002     15001     15003
     15001     15004     15004     15005     15004     15006     15006     15007
     15006     15008     15008     15009     15008     15010     15008     15011
     15011     15012     15011     15013     15013     15014     15013     15015
     15015     15016     15015     15017     15015     15018     15018     15019
     15018     15020     15020     15021     15020     15022     15022     15023
     15022     15024     15022     15025     15025     15026     15025     15027
     15025     15028     15028     15029     15028     15030     15028     15031
     15031     15032     15031     15033     15031     15034     15034     15035
     15034     15036     15034     15037     14985     14986     14986     14988
     14986     14987     14988     14989     14988     14990     14988     15038
     15038     15039     15038     15040     15038     15041     15041     15042
     15041     15043     15041     15044     15044     15045     15044     15046
     15044     15047     15047     15048     15047     15049     15047     15050
     15050     15051     15050     15052     15050     15053     15053     15054
     15053     15055     15053     15056     15056     15057     15056     15058
     15056     15059     15059     15060     15059     15061     15059     15062
     15062     15063     15062     15064     15062     15065     15065     15066
     15065     15067     15065     15068     15068     15069     15068     15070
     15068     15071     15071     15072     15071     15073     15071     15074
     15074     15075     15074     15076     15074     15077     15077     15078
     15077     15079     15077     15080     15080     15081     15080     15082
     15080     15083     15083     15084     15083     15085     15083     15086
      6699      6701      6699      6700      6701      6702      6699      6745
      6745      6746      6745      6747      6745      6742      6742      6743
      6742      6744      6699      6703      6703      6704      6703      6705
      6703      6706      6706      6737      6737      6742      6737      6738
      6738      6739      6738      6740      6738      6741      6706      6707
      6707      6708      6707      6709      6709      6710      6709      6711
      6709      6712      6712      6713      6712      6735      6735      6736
      6735      6737      6712      6714      6714      6715      6714      6724
      6724      6729      6729      6730      6729      6731      6729      6732
      6732      6733      6732      6734      6732      6735      6724      6725
      6725      6726      6725      6727      6725      6728      6714      6716
      6716      6717      6716      6718      6716      6719      6719      6720
      6719      6721      6719      6722      6722      6723      6722      6724
      6722      6748      6748      6749      6748      6750      6750      6751
      6750      6752      6750      6753      6748      6754      6754      6755
      6754      6756      6754      6757      6757      6758      6757      6759
      6757      6760      6760      6761      6760      6762      6760      6763
      6763      6764      6763      6765      6765      6766      6765      6767
      6765      6768      6763      6769      6769      6770      6769      6771
      6769      6772       400       401       400       402       400       403
       400       404       408       406       406       404       406       407
       404       405       404       409       417       416       409       410
       409       411       409       415       415       412       412       416
       412       413       412       414       417       418       417       419
       417       420       420       421       420       428       420       422
       428       429       428       430       428       431       422       423
       423       425       423       424       425       426       425       427
       425       437       437       438       437       439       437       440
       440       441       440       442       440       443       443       444
       443       445       445       446       445       447       447       448
       447       449       447       450       450       451       450       452
       452       453       452       454       454       455       454       456
       454       457       457       458       457       459       459       460
       459       461       461       462       461       463       461       464
       464       465       464       466       466       467       466       468
       468       469       468       470       468       471       471       472
       471       473       471       474       474       475       474       476
       474       477       477       478       477       479       477       480
       480       481       480       482       480       483       431       432
       432       434       432       433       434       435       434       436
       434       484       484       485       484       486       484       487
       487       488       487       489       487       490       490       491
       490       492       490       493       493       494       493       495
       493       496       496       497       496       498       496       499
       499       500       499       501       499       502       502       503
       502       504       502       505       505       506       505       507
       505       508       508       509       508       510       508       511
       511       512       511       513       511       514       514       515
       514       516       514       517       517       518       517       519
       517       520       520       521       520       522       520       523
       523       524       523       525       523       526       526       527
       526       528       526       529       529       530       529       531
       529       532      6773      6775      6773      6774      6775      6776
      6773      6819      6819      6820      6819      6821      6819      6816
      6816      6817      6816      6818      6773      6777      6777      6778
      6777      6779      6777      6780      6780      6811      6811      6816
      6811      6812      6812      6813      6812      6814      6812      6815
      6780      6781      6781      6782      6781      6783      6783      6784
      6783      6785      6783      6786      6786      6787      6786      6809
      6809      6810      6809      6811      6786      6788      6788      6789
      6788      6798      6798      6803      6803      6804      6803      6805
      6803      6806      6806      6807      6806      6808      6806      6809
      6798      6799      6799      6800      6799      6801      6799      6802
      6788      6790      6790      6791      6790      6792      6790      6793
      6793      6794      6793      6795      6793      6796      6796      6797
      6796      6798      6796      6822      6822      6823      6822      6824
      6824      6825      6824      6826      6824      6827      6822      6828
      6828      6829      6828      6830      6828      6831      6831      6832
      6831      6833      6831      6834      6834      6835      6834      6836
      6834      6837      6837      6838      6837      6839      6839      6840
      6839      6841      6839      6842      6837      6843      6843      6844
      6843      6845      6843      6846      6847      6849      6847      6848
      6849      6850      6847      6893      6893      6894      6893      6895
      6893      6890      6890      6891      6890      6892      6847      6851
      6851      6852      6851      6853      6851      6854      6854      6885
      6885      6890      6885      6886      6886      6887      6886      6888
      6886      6889      6854      6855      6855      6856      6855      6857
      6857      6858      6857      6859      6857      6860      6860      6861
      6860      6883      6883      6884      6883      6885      6860      6862
      6862      6863      6862      6872      6872      6877      6877      6878
      6877      6879      6877      6880      6880      6881      6880      6882
      6880      6883      6872      6873      6873      6874      6873      6875
      6873      6876      6862      6864      6864      6865      6864      6866
      6864      6867      6867      6868      6867      6869      6867      6870
      6870      6871      6870      6872      6870      6896      6896      6897
      6896      6898      6898      6899      6898      6900      6898      6901
      6896      6902      6902      6903      6902      6904      6902      6905
      6905      6906      6905      6907      6905      6908      6908      6909
      6908      6910      6908      6911      6911      6912      6911      6913
      6913      6914      6913      6915      6913      6916      6911      6917
      6917      6918      6917      6919      6917      6920     15087     15088
     15087     15089     15087     15090     15087     15091     15091     15092
     15091     15093     15091     15094     15094     15095     15094     15096
     15094     15100     15102     15101     15100     15097     15097     15101
     15097     15098     15097     15099     15102     15103     15102     15104
     15102     15105     15105     15106     15105     15113     15105     15107
     15113     15114     15113     15115     15113     15116     15107     15108
     15108     15110     15108     15109     15110     15111     15110     15112
     15110     15122     15122     15123     15122     15124     15122     15125
     15125     15126     15125     15127     15125     15128     15128     15129
     15128     15130     15130     15131     15130     15132     15132     15133
     15132     15134     15132     15135     15135     15136     15135     15137
     15137     15138     15137     15139     15139     15140     15139     15141
     15139     15142     15142     15143     15142     15144     15144     15145
     15144     15146     15146     15147     15146     15148     15146     15149
     15149     15150     15149     15151     15151     15152     15151     15153
     15153     15154     15153     15155     15153     15156     15156     15157
     15156     15158     15156     15159     15159     15160     15159     15161
     15159     15162     15162     15163     15162     15164     15162     15165
     15165     15166     15165     15167     15165     15168     15116     15117
     15117     15119     15117     15118     15119     15120     15119     15121
     15119     15169     15169     15170     15169     15171     15169     15172
     15172     15173     15172     15174     15172     15175     15175     15176
     15175     15177     15175     15178     15178     15179     15178     15180
     15178     15181     15181     15182     15181     15183     15181     15184
     15184     15185     15184     15186     15184     15187     15187     15188
     15187     15189     15187     15190     15190     15191     15190     15192
     15190     15193     15193     15194     15193     15195     15193     15196
     15196     15197     15196     15198     15196     15199     15199     15200
     15199     15201     15199     15202     15202     15203     15202     15204
     15202     15205     15205     15206     15205     15207     15205     15208
     15208     15209     15208     15210     15208     15211     15211     15212
     15211     15213     15211     15214     15214     15215     15214     15216
     15214     15217     15218     15219     15218     15220     15218     15221
     15218     15222     15222     15223     15222     15224     15222     15225
     15225     15226     15225     15227     15225     15231     15233     15232
     15231     15228     15228     15232     15228     15229     15228     15230
     15233     15234     15233     15235     15233     15236     15236     15237
     15236     15244     15236     15238     15244     15245     15244     15246
     15244     15247     15238     15239     15239     15241     15239     15240
     15241     15242     15241     15243     15241     15253     15253     15254
     15253     15255     15253     15256     15256     15257     15256     15258
     15256     15259     15259     15260     15259     15261     15261     15262
     15261     15263     15263     15264     15263     15265     15263     15266
     15266     15267     15266     15268     15268     15269     15268     15270
     15270     15271     15270     15272     15270     15273     15273     15274
     15273     15275     15275     15276     15275     15277     15277     15278
     15277     15279     15277     15280     15280     15281     15280     15282
     15282     15283     15282     15284     15284     15285     15284     15286
     15284     15287     15287     15288     15287     15289     15287     15290
     15290     15291     15290     15292     15290     15293     15293     15294
     15293     15295     15293     15296     15296     15297     15296     15298
     15296     15299     15247     15248     15248     15250     15248     15249
     15250     15251     15250     15252     15250     15300     15300     15301
     15300     15302     15300     15303     15303     15304     15303     15305
     15303     15306     15306     15307     15306     15308     15306     15309
     15309     15310     15309     15311     15309     15312     15312     15313
     15312     15314     15312     15315     15315     15316     15315     15317
     15315     15318     15318     15319     15318     15320     15318     15321
     15321     15322     15321     15323     15321     15324     15324     15325
     15324     15326     15324     15327     15327     15328     15327     15329
     15327     15330     15330     15331     15330     15332     15330     15333
     15333     15334     15333     15335     15333     15336     15336     15337
     15336     15338     15336     15339     15339     15340     15339     15341
     15339     15342     15342     15343     15342     15344     15342     15345
     15345     15346     15345     15347     15345     15348     10839     10840
     10839     10841     10839     10842     10839     10836     10836     10837
     10836     10838     10836     10833     10833     10834     10833     10835
     10833     10830     10830     10831     10830     10832     10830     10827
     10827     10828     10827     10829     10827     10824     10824     10825
     10824     10826     10824     10821     10821     10822     10821     10823
     10821     10818     10818     10819     10818     10820     10818     10815
     10815     10816     10815     10817     10815     10812     10812     10813
     10812     10814     10812     10809     10809     10810     10809     10811
     10809     10806     10806     10807     10806     10808     10806     10803
     10803     10804     10803     10805     10803     10801     10801     10802
     10799     10800     10799     10795     10795     10796     10795     10797
     10797     10798     10795     10793     10793     10794     10793     10788
     10788     10789     10788     10790     10788     10786     10786     10783
     10787     10783     10784     10783     10785     10783     10787     10780
     10780     10781     10780     10782     10780     10777     10777     10778
     10777     10779     10777     10764     10764     10773     10764     10769
     10764     10765     10773     10774     10773     10775     10773     10776
     10769     10770     10769     10771     10769     10772     10765     10766
     10765     10767     10765     10768     10793     10791     10791     10792
     10791     10843     10843     10845     10845     10846     10845     10847
     10845     10848     10848     10849     10848     10850     10848     10851
     10851     10852     10851     10853     10851     10854     10854     10855
     10854     10856     10854     10857     10857     10858     10857     10859
     10857     10860     10860     10861     10860     10862     10860     10863
     10863     10864     10863     10865     10863     10866     10866     10867
     10868     10869     10868     10870     10870     10871     10870     10872
     10870     10873     10873     10874     10873     10875     10873     10876
     10876     10877     10876     10878     10876     10879     10879     10880
     10879     10881     10879     10882     10882     10883     10882     10884
     10882     10885     10885     10886     10885     10887     10885     10888
     10888     10889     10888     10890     10888     10891     10891     10892
     10891     10893     10891     10894     10799     10801     10866     10868
     10843     10844     20665     20666     20665     20670     20665     20674
     20666     20667     20666     20668     20666     20669     20670     20671
     20670     20672     20670     20673     20674     20675     20674     20676
     20674     20677     20665     20678     20678     20679     20678     20680
     20678     20681     20681     20682     20681     20683     20681     20687
     20688     20689     20687     20684     20684     20688     20684     20685
     20684     20686     20689     20690     20689     20691     20689     20692
     20692     20693     20692     20700     20692     20694     20700     20701
     20700     20702     20700     20703     20694     20695     20695     20697
     20695     20696     20697     20698     20697     20699     20697     20709
     20709     20710     20709     20711     20709     20712     20712     20713
     20712     20714     20712     20715     20715     20716     20715     20717
     20715     20718     20718     20719     20718     20720     20718     20721
     20721     20722     20721     20723     20721     20724     20724     20725
     20724     20726     20724     20727     20727     20728     20727     20729
     20729     20730     20729     20731     20731     20732     20731     20733
     20731     20734     20734     20735     20734     20736     20736     20737
     20736     20738     20738     20739     20738     20740     20738     20741
     20741     20742     20741     20743     20741     20744     20744     20745
     20744     20746     20744     20747     20747     20748     20747     20749
     20747     20750     20750     20751     20750     20752     20750     20753
     20703     20704     20704     20706     20704     20705     20706     20707
     20706     20708     20706     20754     20754     20755     20754     20756
     20754     20757     20757     20758     20757     20759     20757     20760
     20760     20761     20760     20762     20760     20763     20763     20764
     20763     20765     20763     20766     20766     20767     20766     20768
     20766     20769     20769     20770     20769     20771     20769     20772
     20772     20773     20772     20774     20772     20775     20775     20776
     20775     20777     20775     20778     20778     20779     20778     20780
     20778     20781     20781     20782     20781     20783     20781     20784
     20784     20785     20784     20786     20784     20787     20787     20788
     20787     20789     20787     20790     20790     20791     20790     20792
     20790     20793     20793     20794     20793     20795     20793     20796
     20796     20797     20796     20798     20796     20799     20799     20800
     20799     20801     20799     20802      2409      2413      2409      2417
      2409      2421      2413      2414      2413      2415      2413      2416
      2417      2418      2417      2419      2417      2420      2421      2422
      2421      2423      2421      2424      2409      2410      2410      2411
      2410      2412      2410      2425      2425      2426      2425      2427
      2425      2431      2432      2433      2431      2428      2428      2432
      2428      2429      2428      2430      2433      2434      2433      2435
      2433      2436      2436      2437      2436      2444      2436      2438
      2444      2445      2444      2446      2444      2447      2438      2439
      2439      2441      2439      2440      2441      2442      2441      2443
      2441      2453      2453      2454      2453      2455      2453      2456
      2456      2457      2456      2458      2456      2459      2459      2460
      2459      2461      2461      2462      2461      2463      2463      2464
      2463      2465      2463      2466      2466      2467      2466      2468
      2468      2469      2468      2470      2470      2471      2470      2472
      2470      2473      2473      2474      2473      2475      2475      2476
      2475      2477      2477      2478      2477      2479      2477      2480
      2480      2481      2480      2482      2482      2483      2482      2484
      2484      2485      2484      2486      2484      2487      2487      2488
      2487      2489      2487      2490      2490      2491      2490      2492
      2490      2493      2493      2494      2493      2495      2493      2496
      2496      2497      2496      2498      2496      2499      2447      2448
      2448      2450      2448      2449      2450      2451      2450      2452
      2450      2500      2500      2501      2500      2502      2500      2503
      2503      2504      2503      2505      2503      2506      2506      2507
      2506      2508      2506      2509      2509      2510      2509      2511
      2509      2512      2512      2513      2512      2514      2512      2515
      2515      2516      2515      2517      2515      2518      2518      2519
      2518      2520      2518      2521      2521      2522      2521      2523
      2521      2524      2524      2525      2524      2526      2524      2527
      2527      2528      2527      2529      2527      2530      2530      2531
      2530      2532      2530      2533      2533      2534      2533      2535
      2533      2536      2536      2537      2536      2538      2536      2539
      2539      2540      2539      2541      2539      2542      2542      2543
      2542      2544      2542      2545      2545      2546      2545      2547
      2545      2548     15349     15350     15349     15351     15349     15352
     15349     15353     15353     15354     15353     15355     15353     15356
     15356     15357     15356     15358     15356     15362     15364     15363
     15362     15359     15359     15363     15359     15360     15359     15361
     15364     15365     15364     15366     15364     15367     15367     15368
     15367     15375     15367     15369     15375     15376     15375     15377
     15375     15378     15369     15370     15370     15372     15370     15371
     15372     15373     15372     15374     15372     15384     15384     15385
     15384     15386     15384     15387     15387     15388     15387     15389
     15387     15390     15390     15391     15390     15392     15392     15393
     15392     15394     15394     15395     15394     15396     15394     15397
     15397     15398     15397     15399     15399     15400     15399     15401
     15401     15402     15401     15403     15401     15404     15404     15405
     15404     15406     15406     15407     15406     15408     15408     15409
     15408     15410     15408     15411     15411     15412     15411     15413
     15413     15414     15413     15415     15415     15416     15415     15417
     15415     15418     15418     15419     15418     15420     15418     15421
     15421     15422     15421     15423     15421     15424     15424     15425
     15424     15426     15424     15427     15427     15428     15427     15429
     15427     15430     15378     15379     15379     15381     15379     15380
     15381     15382     15381     15383     15381     15431     15431     15432
     15431     15433     15431     15434     15434     15435     15434     15436
     15434     15437     15437     15438     15437     15439     15437     15440
     15440     15441     15440     15442     15440     15443     15443     15444
     15443     15445     15443     15446     15446     15447     15446     15448
     15446     15449     15449     15450     15449     15451     15449     15452
     15452     15453     15452     15454     15452     15455     15455     15456
     15455     15457     15455     15458     15458     15459     15458     15460
     15458     15461     15461     15462     15461     15463     15461     15464
     15464     15465     15464     15466     15464     15467     15467     15468
     15467     15469     15467     15470     15470     15471     15470     15472
     15470     15473     15473     15474     15473     15475     15473     15476
     15476     15477     15476     15478     15476     15479     15480     15481
     15480     15482     15480     15483     15480     15484     15484     15485
     15484     15486     15484     15487     15487     15488     15487     15489
     15487     15493     15495     15494     15493     15490     15490     15494
     15490     15491     15490     15492     15495     15496     15495     15497
     15495     15498     15498     15499     15498     15506     15498     15500
     15506     15507     15506     15508     15506     15509     15500     15501
     15501     15503     15501     15502     15503     15504     15503     15505
     15503     15515     15515     15516     15515     15517     15515     15518
     15518     15519     15518     15520     15518     15521     15521     15522
     15521     15523     15523     15524     15523     15525     15525     15526
     15525     15527     15525     15528     15528     15529     15528     15530
     15530     15531     15530     15532     15532     15533     15532     15534
     15532     15535     15535     15536     15535     15537     15537     15538
     15537     15539     15539     15540     15539     15541     15539     15542
     15542     15543     15542     15544     15544     15545     15544     15546
     15546     15547     15546     15548     15546     15549     15549     15550
     15549     15551     15549     15552     15552     15553     15552     15554
     15552     15555     15555     15556     15555     15557     15555     15558
     15558     15559     15558     15560     15558     15561     15509     15510
     15510     15512     15510     15511     15512     15513     15512     15514
     15512     15562     15562     15563     15562     15564     15562     15565
     15565     15566     15565     15567     15565     15568     15568     15569
     15568     15570     15568     15571     15571     15572     15571     15573
     15571     15574     15574     15575     15574     15576     15574     15577
     15577     15578     15577     15579     15577     15580     15580     15581
     15580     15582     15580     15583     15583     15584     15583     15585
     15583     15586     15586     15587     15586     15588     15586     15589
     15589     15590     15589     15591     15589     15592     15592     15593
     15592     15594     15592     15595     15595     15596     15595     15597
     15595     15598     15598     15599     15598     15600     15598     15601
     15601     15602     15601     15603     15601     15604     15604     15605
     15604     15606     15604     15607     15607     15608     15607     15609
     15607     15610     10970     10971     10970     10972     10970     10973
     10970     10967     10967     10968     10967     10969     10967     10964
     10964     10965     10964     10966     10964     10961     10961     10962
     10961     10963     10961     10958     10958     10959     10958     10960
     10958     10955     10955     10956     10955     10957     10955     10952
     10952     10953     10952     10954     10952     10949     10949     10950
     10949     10951     10949     10946     10946     10947     10946     10948
     10946     10943     10943     10944     10943     10945     10943     10940
     10940     10941     10940     10942     10940     10937     10937     10938
     10937     10939     10937     10934     10934     10935     10934     10936
     10934     10932     10932     10933     10930     10931     10930     10926
     10926     10927     10926     10928     10928     10929     10926     10924
     10924     10925     10924     10919     10919     10920     10919     10921
     10919     10917     10917     10914     10918     10914     10915     10914
     10916     10914     10918     10911     10911     10912     10911     10913
     10911     10908     10908     10909     10908     10910     10908     10895
     10895     10904     10895     10900     10895     10896     10904     10905
     10904     10906     10904     10907     10900     10901     10900     10902
     10900     10903     10896     10897     10896     10898     10896     10899
     10924     10922     10922     10923     10922     10974     10974     10976
     10976     10977     10976     10978     10976     10979     10979     10980
     10979     10981     10979     10982     10982     10983     10982     10984
     10982     10985     10985     10986     10985     10987     10985     10988
     10988     10989     10988     10990     10988     10991     10991     10992
     10991     10993     10991     10994     10994     10995     10994     10996
     10994     10997     10997     10998     10999     11000     10999     11001
     11001     11002     11001     11003     11001     11004     11004     11005
     11004     11006     11004     11007     11007     11008     11007     11009
     11007     11010     11010     11011     11010     11012     11010     11013
     11013     11014     11013     11015     11013     11016     11016     11017
     11016     11018     11016     11019     11019     11020     11019     11021
     11019     11022     11022     11023     11022     11024     11022     11025
     10930     10932     10997     10999     10974     10975      6921      6923
      6921      6922      6923      6924      6921      6967      6967      6968
      6967      6969      6967      6964      6964      6965      6964      6966
      6921      6925      6925      6926      6925      6927      6925      6928
      6928      6959      6959      6964      6959      6960      6960      6961
      6960      6962      6960      6963      6928      6929      6929      6930
      6929      6931      6931      6932      6931      6933      6931      6934
      6934      6935      6934      6957      6957      6958      6957      6959
      6934      6936      6936      6937      6936      6946      6946      6951
      6951      6952      6951      6953      6951      6954      6954      6955
      6954      6956      6954      6957      6946      6947      6947      6948
      6947      6949      6947      6950      6936      6938      6938      6939
      6938      6940      6938      6941      6941      6942      6941      6943
      6941      6944      6944      6945      6944      6946      6944      6970
      6970      6971      6970      6972      6972      6973      6972      6974
      6972      6975      6970      6976      6976      6977      6976      6978
      6976      6979      6979      6980      6979      6981      6979      6982
      6982      6983      6982      6984      6982      6985      6985      6986
      6985      6987      6987      6988      6987      6989      6987      6990
      6985      6991      6991      6992      6991      6993      6991      6994
      6995      6997      6995      6996      6997      6998      6995      7041
      7041      7042      7041      7043      7041      7038      7038      7039
      7038      7040      6995      6999      6999      7000      6999      7001
      6999      7002      7002      7033      7033      7038      7033      7034
      7034      7035      7034      7036      7034      7037      7002      7003
      7003      7004      7003      7005      7005      7006      7005      7007
      7005      7008      7008      7009      7008      7031      7031      7032
      7031      7033      7008      7010      7010      7011      7010      7020
      7020      7025      7025      7026      7025      7027      7025      7028
      7028      7029      7028      7030      7028      7031      7020      7021
      7021      7022      7021      7023      7021      7024      7010      7012
      7012      7013      7012      7014      7012      7015      7015      7016
      7015      7017      7015      7018      7018      7019      7018      7020
      7018      7044      7044      7045      7044      7046      7046      7047
      7046      7048      7046      7049      7044      7050      7050      7051
      7050      7052      7050      7053      7053      7054      7053      7055
      7053      7056      7056      7057      7056      7058      7056      7059
      7059      7060      7059      7061      7061      7062      7061      7063
      7061      7064      7059      7065      7065      7066      7065      7067
      7065      7068       533       534       533       535       533       536
       533       537       541       539       539       537       539       540
       537       538       537       542       550       549       542       543
       542       544       542       548       548       545       545       549
       545       546       545       547       550       551       550       552
       550       553       553       554       553       561       553       555
       561       562       561       563       561       564       555       556
       556       558       556       557       558       559       558       560
       558       570       570       571       570       572       570       573
       573       574       573       575       573       576       576       577
       576       578       578       579       578       580       580       581
       580       582       580       583       583       584       583       585
       585       586       585       587       587       588       587       589
       587       590       590       591       590       592       592       593
       592       594       594       595       594       596       594       597
       597       598       597       599       599       600       599       601
       601       602       601       603       601       604       604       605
       604       606       604       607       607       608       607       609
       607       610       610       611       610       612       610       613
       613       614       613       615       613       616       564       565
       565       567       565       566       567       568       567       569
       567       617       617       618       617       619       617       620
       620       621       620       622       620       623       623       624
       623       625       623       626       626       627       626       628
       626       629       629       630       629       631       629       632
       632       633       632       634       632       635       635       636
       635       637       635       638       638       639       638       640
       638       641       641       642       641       643       641       644
       644       645       644       646       644       647       647       648
       647       649       647       650       650       651       650       652
       650       653       653       654       653       655       653       656
       656       657       656       658       656       659       659       660
       659       661       659       662       662       663       662       664
       662       665      7069      7071      7069      7070      7071      7072
      7069      7115      7115      7116      7115      7117      7115      7112
      7112      7113      7112      7114      7069      7073      7073      7074
      7073      7075      7073      7076      7076      7107      7107      7112
      7107      7108      7108      7109      7108      7110      7108      7111
      7076      7077      7077      7078      7077      7079      7079      7080
      7079      7081      7079      7082      7082      7083      7082      7105
      7105      7106      7105      7107      7082      7084      7084      7085
      7084      7094      7094      7099      7099      7100      7099      7101
      7099      7102      7102      7103      7102      7104      7102      7105
      7094      7095      7095      7096      7095      7097      7095      7098
      7084      7086      7086      7087      7086      7088      7086      7089
      7089      7090      7089      7091      7089      7092      7092      7093
      7092      7094      7092      7118      7118      7119      7118      7120
      7120      7121      7120      7122      7120      7123      7118      7124
      7124      7125      7124      7126      7124      7127      7127      7128
      7127      7129      7127      7130      7130      7131      7130      7132
      7130      7133      7133      7134      7133      7135      7135      7136
      7135      7137      7135      7138      7133      7139      7139      7140
      7139      7141      7139      7142     11101     11102     11101     11103
     11101     11104     11101     11098     11098     11099     11098     11100
     11098     11095     11095     11096     11095     11097     11095     11092
     11092     11093     11092     11094     11092     11089     11089     11090
     11089     11091     11089     11086     11086     11087     11086     11088
     11086     11083     11083     11084     11083     11085     11083     11080
     11080     11081     11080     11082     11080     11077     11077     11078
     11077     11079     11077     11074     11074     11075     11074     11076
     11074     11071     11071     11072     11071     11073     11071     11068
     11068     11069     11068     11070     11068     11065     11065     11066
     11065     11067     11065     11063     11063     11064     11061     11062
     11061     11057     11057     11058     11057     11059     11059     11060
     11057     11055     11055     11056     11055     11050     11050     11051
     11050     11052     11050     11048     11048     11045     11049     11045
     11046     11045     11047     11045     11049     11042     11042     11043
     11042     11044     11042     11039     11039     11040     11039     11041
     11039     11026     11026     11035     11026     11031     11026     11027
     11035     11036     11035     11037     11035     11038     11031     11032
     11031     11033     11031     11034     11027     11028     11027     11029
     11027     11030     11055     11053     11053     11054     11053     11105
     11105     11107     11107     11108     11107     11109     11107     11110
     11110     11111     11110     11112     11110     11113     11113     11114
     11113     11115     11113     11116     11116     11117     11116     11118
     11116     11119     11119     11120     11119     11121     11119     11122
     11122     11123     11122     11124     11122     11125     11125     11126
     11125     11127     11125     11128     11128     11129     11130     11131
     11130     11132     11132     11133     11132     11134     11132     11135
     11135     11136     11135     11137     11135     11138     11138     11139
     11138     11140     11138     11141     11141     11142     11141     11143
     11141     11144     11144     11145     11144     11146     11144     11147
     11147     11148     11147     11149     11147     11150     11150     11151
     11150     11152     11150     11153     11153     11154     11153     11155
     11153     11156     11061     11063     11128     11130     11105     11106
     15611     15612     15611     15613     15611     15614     15611     15615
     15615     15616     15615     15617     15615     15618     15618     15619
     15618     15620     15618     15624     15626     15625     15624     15621
     15621     15625     15621     15622     15621     15623     15626     15627
     15626     15628     15626     15629     15629     15630     15629     15637
     15629     15631     15637     15638     15637     15639     15637     15640
     15631     15632     15632     15634     15632     15633     15634     15635
     15634     15636     15634     15646     15646     15647     15646     15648
     15646     15649     15649     15650     15649     15651     15649     15652
     15652     15653     15652     15654     15654     15655     15654     15656
     15656     15657     15656     15658     15656     15659     15659     15660
     15659     15661     15661     15662     15661     15663     15663     15664
     15663     15665     15663     15666     15666     15667     15666     15668
     15668     15669     15668     15670     15670     15671     15670     15672
     15670     15673     15673     15674     15673     15675     15675     15676
     15675     15677     15677     15678     15677     15679     15677     15680
     15680     15681     15680     15682     15680     15683     15683     15684
     15683     15685     15683     15686     15686     15687     15686     15688
     15686     15689     15689     15690     15689     15691     15689     15692
     15640     15641     15641     15643     15641     15642     15643     15644
     15643     15645     15643     15693     15693     15694     15693     15695
     15693     15696     15696     15697     15696     15698     15696     15699
     15699     15700     15699     15701     15699     15702     15702     15703
     15702     15704     15702     15705     15705     15706     15705     15707
     15705     15708     15708     15709     15708     15710     15708     15711
     15711     15712     15711     15713     15711     15714     15714     15715
     15714     15716     15714     15717     15717     15718     15717     15719
     15717     15720     15720     15721     15720     15722     15720     15723
     15723     15724     15723     15725     15723     15726     15726     15727
     15726     15728     15726     15729     15729     15730     15729     15731
     15729     15732     15732     15733     15732     15734     15732     15735
     15735     15736     15735     15737     15735     15738     15738     15739
     15738     15740     15738     15741      7143      7145      7143      7144
      7145      7146      7143      7189      7189      7190      7189      7191
      7189      7186      7186      7187      7186      7188      7143      7147
      7147      7148      7147      7149      7147      7150      7150      7181
      7181      7186      7181      7182      7182      7183      7182      7184
      7182      7185      7150      7151      7151      7152      7151      7153
      7153      7154      7153      7155      7153      7156      7156      7157
      7156      7179      7179      7180      7179      7181      7156      7158
      7158      7159      7158      7168      7168      7173      7173      7174
      7173      7175      7173      7176      7176      7177      7176      7178
      7176      7179      7168      7169      7169      7170      7169      7171
      7169      7172      7158      7160      7160      7161      7160      7162
      7160      7163      7163      7164      7163      7165      7163      7166
      7166      7167      7166      7168      7166      7192      7192      7193
      7192      7194      7194      7195      7194      7196      7194      7197
      7192      7198      7198      7199      7198      7200      7198      7201
      7201      7202      7201      7203      7201      7204      7204      7205
      7204      7206      7204      7207      7207      7208      7207      7209
      7209      7210      7209      7211      7209      7212      7207      7213
      7213      7214      7213      7215      7213      7216      2549      2553
      2549      2557      2549      2561      2553      2554      2553      2555
      2553      2556      2557      2558      2557      2559      2557      2560
      2561      2562      2561      2563      2561      2564      2549      2550
      2550      2551      2550      2552      2550      2565      2565      2566
      2565      2567      2565      2571      2572      2573      2571      2568
      2568      2572      2568      2569      2568      2570      2573      2574
      2573      2575      2573      2576      2576      2577      2576      2584
      2576      2578      2584      2585      2584      2586      2584      2587
      2578      2579      2579      2581      2579      2580      2581      2582
      2581      2583      2581      2593      2593      2594      2593      2595
      2593      2596      2596      2597      2596      2598      2596      2599
      2599      2600      2599      2601      2601      2602      2601      2603
      2603      2604      2603      2605      2603      2606      2606      2607
      2606      2608      2608      2609      2608      2610      2610      2611
      2610      2612      2610      2613      2613      2614      2613      2615
      2615      2616      2615      2617      2617      2618      2617      2619
      2617      2620      2620      2621      2620      2622      2622      2623
      2622      2624      2624      2625      2624      2626      2624      2627
      2627      2628      2627      2629      2627      2630      2630      2631
      2630      2632      2630      2633      2633      2634      2633      2635
      2633      2636      2636      2637      2636      2638      2636      2639
      2587      2588      2588      2590      2588      2589      2590      2591
      2590      2592      2590      2640      2640      2641      2640      2642
      2640      2643      2643      2644      2643      2645      2643      2646
      2646      2647      2646      2648      2646      2649      2649      2650
      2649      2651      2649      2652      2652      2653      2652      2654
      2652      2655      2655      2656      2655      2657      2655      2658
      2658      2659      2658      2660      2658      2661      2661      2662
      2661      2663      2661      2664      2664      2665      2664      2666
      2664      2667      2667      2668      2667      2669      2667      2670
      2670      2671      2670      2672      2670      2673      2673      2674
      2673      2675      2673      2676      2676      2677      2676      2678
      2676      2679      2679      2680      2679      2681      2679      2682
      2682      2683      2682      2684      2682      2685      2685      2686
      2685      2687      2685      2688     11232     11233     11232     11234
     11232     11235     11232     11229     11229     11230     11229     11231
     11229     11226     11226     11227     11226     11228     11226     11223
     11223     11224     11223     11225     11223     11220     11220     11221
     11220     11222     11220     11217     11217     11218     11217     11219
     11217     11214     11214     11215     11214     11216     11214     11211
     11211     11212     11211     11213     11211     11208     11208     11209
     11208     11210     11208     11205     11205     11206     11205     11207
     11205     11202     11202     11203     11202     11204     11202     11199
     11199     11200     11199     11201     11199     11196     11196     11197
     11196     11198     11196     11194     11194     11195     11192     11193
     11192     11188     11188     11189     11188     11190     11190     11191
     11188     11186     11186     11187     11186     11181     11181     11182
     11181     11183     11181     11179     11179     11176     11180     11176
     11177     11176     11178     11176     11180     11173     11173     11174
     11173     11175     11173     11170     11170     11171     11170     11172
     11170     11157     11157     11166     11157     11162     11157     11158
     11166     11167     11166     11168     11166     11169     11162     11163
     11162     11164     11162     11165     11158     11159     11158     11160
     11158     11161     11186     11184     11184     11185     11184     11236
     11236     11238     11238     11239     11238     11240     11238     11241
     11241     11242     11241     11243     11241     11244     11244     11245
     11244     11246     11244     11247     11247     11248     11247     11249
     11247     11250     11250     11251     11250     11252     11250     11253
     11253     11254     11253     11255     11253     11256     11256     11257
     11256     11258     11256     11259     11259     11260     11261     11262
     11261     11263     11263     11264     11263     11265     11263     11266
     11266     11267     11266     11268     11266     11269     11269     11270
     11269     11271     11269     11272     11272     11273     11272     11274
     11272     11275     11275     11276     11275     11277     11275     11278
     11278     11279     11278     11280     11278     11281     11281     11282
     11281     11283     11281     11284     11284     11285     11284     11286
     11284     11287     11192     11194     11259     11261     11236     11237
     11363     11364     11363     11365     11363     11366     11363     11360
     11360     11361     11360     11362     11360     11357     11357     11358
     11357     11359     11357     11354     11354     11355     11354     11356
     11354     11351     11351     11352     11351     11353     11351     11348
     11348     11349     11348     11350     11348     11345     11345     11346
     11345     11347     11345     11342     11342     11343     11342     11344
     11342     11339     11339     11340     11339     11341     11339     11336
     11336     11337     11336     11338     11336     11333     11333     11334
     11333     11335     11333     11330     11330     11331     11330     11332
     11330     11327     11327     11328     11327     11329     11327     11325
     11325     11326     11323     11324     11323     11319     11319     11320
     11319     11321     11321     11322     11319     11317     11317     11318
     11317     11312     11312     11313     11312     11314     11312     11310
     11310     11307     11311     11307     11308     11307     11309     11307
     11311     11304     11304     11305     11304     11306     11304     11301
     11301     11302     11301     11303     11301     11288     11288     11297
     11288     11293     11288     11289     11297     11298     11297     11299
     11297     11300     11293     11294     11293     11295     11293     11296
     11289     11290     11289     11291     11289     11292     11317     11315
     11315     11316     11315     11367     11367     11369     11369     11370
     11369     11371     11369     11372     11372     11373     11372     11374
     11372     11375     11375     11376     11375     11377     11375     11378
     11378     11379     11378     11380     11378     11381     11381     11382
     11381     11383     11381     11384     11384     11385     11384     11386
     11384     11387     11387     11388     11387     11389     11387     11390
     11390     11391     11392     11393     11392     11394     11394     11395
     11394     11396     11394     11397     11397     11398     11397     11399
     11397     11400     11400     11401     11400     11402     11400     11403
     11403     11404     11403     11405     11403     11406     11406     11407
     11406     11408     11406     11409     11409     11410     11409     11411
     11409     11412     11412     11413     11412     11414     11412     11415
     11415     11416     11415     11417     11415     11418     11323     11325
     11390     11392     11367     11368     11494     11495     11494     11496
     11494     11497     11494     11491     11491     11492     11491     11493
     11491     11488     11488     11489     11488     11490     11488     11485
     11485     11486     11485     11487     11485     11482     11482     11483
     11482     11484     11482     11479     11479     11480     11479     11481
     11479     11476     11476     11477     11476     11478     11476     11473
     11473     11474     11473     11475     11473     11470     11470     11471
     11470     11472     11470     11467     11467     11468     11467     11469
     11467     11464     11464     11465     11464     11466     11464     11461
     11461     11462     11461     11463     11461     11458     11458     11459
     11458     11460     11458     11456     11456     11457     11454     11455
     11454     11450     11450     11451     11450     11452     11452     11453
     11450     11448     11448     11449     11448     11443     11443     11444
     11443     11445     11443     11441     11441     11438     11442     11438
     11439     11438     11440     11438     11442     11435     11435     11436
     11435     11437     11435     11432     11432     11433     11432     11434
     11432     11419     11419     11428     11419     11424     11419     11420
     11428     11429     11428     11430     11428     11431     11424     11425
     11424     11426     11424     11427     11420     11421     11420     11422
     11420     11423     11448     11446     11446     11447     11446     11498
     11498     11500     11500     11501     11500     11502     11500     11503
     11503     11504     11503     11505     11503     11506     11506     11507
     11506     11508     11506     11509     11509     11510     11509     11511
     11509     11512     11512     11513     11512     11514     11512     11515
     11515     11516     11515     11517     11515     11518     11518     11519
     11518     11520     11518     11521     11521     11522     11523     11524
     11523     11525     11525     11526     11525     11527     11525     11528
     11528     11529     11528     11530     11528     11531     11531     11532
     11531     11533     11531     11534     11534     11535     11534     11536
     11534     11537     11537     11538     11537     11539     11537     11540
     11540     11541     11540     11542     11540     11543     11543     11544
     11543     11545     11543     11546     11546     11547     11546     11548
     11546     11549     11454     11456     11521     11523     11498     11499
      2689      2693      2689      2697      2689      2701      2693      2694
      2693      2695      2693      2696      2697      2698      2697      2699
      2697      2700      2701      2702      2701      2703      2701      2704
      2689      2690      2690      2691      2690      2692      2690      2705
      2705      2706      2705      2707      2705      2711      2712      2713
      2711      2708      2708      2712      2708      2709      2708      2710
      2713      2714      2713      2715      2713      2716      2716      2717
      2716      2724      2716      2718      2724      2725      2724      2726
      2724      2727      2718      2719      2719      2721      2719      2720
      2721      2722      2721      2723      2721      2733      2733      2734
      2733      2735      2733      2736      2736      2737      2736      2738
      2736      2739      2739      2740      2739      2741      2741      2742
      2741      2743      2743      2744      2743      2745      2743      2746
      2746      2747      2746      2748      2748      2749      2748      2750
      2750      2751      2750      2752      2750      2753      2753      2754
      2753      2755      2755      2756      2755      2757      2757      2758
      2757      2759      2757      2760      2760      2761      2760      2762
      2762      2763      2762      2764      2764      2765      2764      2766
      2764      2767      2767      2768      2767      2769      2767      2770
      2770      2771      2770      2772      2770      2773      2773      2774
      2773      2775      2773      2776      2776      2777      2776      2778
      2776      2779      2727      2728      2728      2730      2728      2729
      2730      2731      2730      2732      2730      2780      2780      2781
      2780      2782      2780      2783      2783      2784      2783      2785
      2783      2786      2786      2787      2786      2788      2786      2789
      2789      2790      2789      2791      2789      2792      2792      2793
      2792      2794      2792      2795      2795      2796      2795      2797
      2795      2798      2798      2799      2798      2800      2798      2801
      2801      2802      2801      2803      2801      2804      2804      2805
      2804      2806      2804      2807      2807      2808      2807      2809
      2807      2810      2810      2811      2810      2812      2810      2813
      2813      2814      2813      2815      2813      2816      2816      2817
      2816      2818      2816      2819      2819      2820      2819      2821
      2819      2822      2822      2823      2822      2824      2822      2825
      2825      2826      2825      2827      2825      2828       666       667
       666       668       666       669       666       670       674       672
       672       670       672       673       670       671       670       675
       683       682       675       676       675       677       675       681
       681       678       678       682       678       679       678       680
       683       684       683       685       683       686       686       687
       686       694       686       688       694       695       694       696
       694       697       688       689       689       691       689       690
       691       692       691       693       691       703       703       704
       703       705       703       706       706       707       706       708
       706       709       709       710       709       711       711       712
       711       713       713       714       713       715       713       716
       716       717       716       718       718       719       718       720
       720       721       720       722       720       723       723       724
       723       725       725       726       725       727       727       728
       727       729       727       730       730       731       730       732
       732       733       732       734       734       735       734       736
       734       737       737       738       737       739       737       740
       740       741       740       742       740       743       743       744
       743       745       743       746       746       747       746       748
       746       749       697       698       698       700       698       699
       700       701       700       702       700       750       750       751
       750       752       750       753       753       754       753       755
       753       756       756       757       756       758       756       759
       759       760       759       761       759       762       762       763
       762       764       762       765       765       766       765       767
       765       768       768       769       768       770       768       771
       771       772       771       773       771       774       774       775
       774       776       774       777       777       778       777       779
       777       780       780       781       780       782       780       783
       783       784       783       785       783       786       786       787
       786       788       786       789       789       790       789       791
       789       792       792       793       792       794       792       795
       795       796       795       797       795       798     11625     11626
     11625     11627     11625     11628     11625     11622     11622     11623
     11622     11624     11622     11619     11619     11620     11619     11621
     11619     11616     11616     11617     11616     11618     11616     11613
     11613     11614     11613     11615     11613     11610     11610     11611
     11610     11612     11610     11607     11607     11608     11607     11609
     11607     11604     11604     11605     11604     11606     11604     11601
     11601     11602     11601     11603     11601     11598     11598     11599
     11598     11600     11598     11595     11595     11596     11595     11597
     11595     11592     11592     11593     11592     11594     11592     11589
     11589     11590     11589     11591     11589     11587     11587     11588
     11585     11586     11585     11581     11581     11582     11581     11583
     11583     11584     11581     11579     11579     11580     11579     11574
     11574     11575     11574     11576     11574     11572     11572     11569
     11573     11569     11570     11569     11571     11569     11573     11566
     11566     11567     11566     11568     11566     11563     11563     11564
     11563     11565     11563     11550     11550     11559     11550     11555
     11550     11551     11559     11560     11559     11561     11559     11562
     11555     11556     11555     11557     11555     11558     11551     11552
     11551     11553     11551     11554     11579     11577     11577     11578
     11577     11629     11629     11631     11631     11632     11631     11633
     11631     11634     11634     11635     11634     11636     11634     11637
     11637     11638     11637     11639     11637     11640     11640     11641
     11640     11642     11640     11643     11643     11644     11643     11645
     11643     11646     11646     11647     11646     11648     11646     11649
     11649     11650     11649     11651     11649     11652     11652     11653
     11654     11655     11654     11656     11656     11657     11656     11658
     11656     11659     11659     11660     11659     11661     11659     11662
     11662     11663     11662     11664     11662     11665     11665     11666
     11665     11667     11665     11668     11668     11669     11668     11670
     11668     11671     11671     11672     11671     11673     11671     11674
     11674     11675     11674     11676     11674     11677     11677     11678
     11677     11679     11677     11680     11585     11587     11652     11654
     11629     11630     15742     15743     15742     15744     15742     15745
     15742     15746     15746     15747     15746     15748     15746     15749
     15749     15750     15749     15751     15749     15755     15757     15756
     15755     15752     15752     15756     15752     15753     15752     15754
     15757     15758     15757     15759     15757     15760     15760     15761
     15760     15768     15760     15762     15768     15769     15768     15770
     15768     15771     15762     15763     15763     15765     15763     15764
     15765     15766     15765     15767     15765     15777     15777     15778
     15777     15779     15777     15780     15780     15781     15780     15782
     15780     15783     15783     15784     15783     15785     15785     15786
     15785     15787     15787     15788     15787     15789     15787     15790
     15790     15791     15790     15792     15792     15793     15792     15794
     15794     15795     15794     15796     15794     15797     15797     15798
     15797     15799     15799     15800     15799     15801     15801     15802
     15801     15803     15801     15804     15804     15805     15804     15806
     15806     15807     15806     15808     15808     15809     15808     15810
     15808     15811     15811     15812     15811     15813     15811     15814
     15814     15815     15814     15816     15814     15817     15817     15818
     15817     15819     15817     15820     15820     15821     15820     15822
     15820     15823     15771     15772     15772     15774     15772     15773
     15774     15775     15774     15776     15774     15824     15824     15825
     15824     15826     15824     15827     15827     15828     15827     15829
     15827     15830     15830     15831     15830     15832     15830     15833
     15833     15834     15833     15835     15833     15836     15836     15837
     15836     15838     15836     15839     15839     15840     15839     15841
     15839     15842     15842     15843     15842     15844     15842     15845
     15845     15846     15845     15847     15845     15848     15848     15849
     15848     15850     15848     15851     15851     15852     15851     15853
     15851     15854     15854     15855     15854     15856     15854     15857
     15857     15858     15857     15859     15857     15860     15860     15861
     15860     15862     15860     15863     15863     15864     15863     15865
     15863     15866     15866     15867     15866     15868     15866     15869
     15869     15870     15869     15871     15869     15872      7217      7219
      7217      7218      7219      7220      7217      7263      7263      7264
      7263      7265      7263      7260      7260      7261      7260      7262
      7217      7221      7221      7222      7221      7223      7221      7224
      7224      7255      7255      7260      7255      7256      7256      7257
      7256      7258      7256      7259      7224      7225      7225      7226
      7225      7227      7227      7228      7227      7229      7227      7230
      7230      7231      7230      7253      7253      7254      7253      7255
      7230      7232      7232      7233      7232      7242      7242      7247
      7247      7248      7247      7249      7247      7250      7250      7251
      7250      7252      7250      7253      7242      7243      7243      7244
      7243      7245      7243      7246      7232      7234      7234      7235
      7234      7236      7234      7237      7237      7238      7237      7239
      7237      7240      7240      7241      7240      7242      7240      7266
      7266      7267      7266      7268      7268      7269      7268      7270
      7268      7271      7266      7272      7272      7273      7272      7274
      7272      7275      7275      7276      7275      7277      7275      7278
      7278      7279      7278      7280      7278      7281      7281      7282
      7281      7283      7283      7284      7283      7285      7283      7286
      7281      7287      7287      7288      7287      7289      7287      7290
     15873     15874     15873     15875     15873     15876     15873     15877
     15877     15878     15877     15879     15877     15880     15880     15881
     15880     15882     15880     15886     15888     15887     15886     15883
     15883     15887     15883     15884     15883     15885     15888     15889
     15888     15890     15888     15891     15891     15892     15891     15899
     15891     15893     15899     15900     15899     15901     15899     15902
     15893     15894     15894     15896     15894     15895     15896     15897
     15896     15898     15896     15908     15908     15909     15908     15910
     15908     15911     15911     15912     15911     15913     15911     15914
     15914     15915     15914     15916     15916     15917     15916     15918
     15918     15919     15918     15920     15918     15921     15921     15922
     15921     15923     15923     15924     15923     15925     15925     15926
     15925     15927     15925     15928     15928     15929     15928     15930
     15930     15931     15930     15932     15932     15933     15932     15934
     15932     15935     15935     15936     15935     15937     15937     15938
     15937     15939     15939     15940     15939     15941     15939     15942
     15942     15943     15942     15944     15942     15945     15945     15946
     15945     15947     15945     15948     15948     15949     15948     15950
     15948     15951     15951     15952     15951     15953     15951     15954
     15902     15903     15903     15905     15903     15904     15905     15906
     15905     15907     15905     15955     15955     15956     15955     15957
     15955     15958     15958     15959     15958     15960     15958     15961
     15961     15962     15961     15963     15961     15964     15964     15965
     15964     15966     15964     15967     15967     15968     15967     15969
     15967     15970     15970     15971     15970     15972     15970     15973
     15973     15974     15973     15975     15973     15976     15976     15977
     15976     15978     15976     15979     15979     15980     15979     15981
     15979     15982     15982     15983     15982     15984     15982     15985
     15985     15986     15985     15987     15985     15988     15988     15989
     15988     15990     15988     15991     15991     15992     15991     15993
     15991     15994     15994     15995     15994     15996     15994     15997
     15997     15998     15997     15999     15997     16000     16000     16001
     16000     16002     16000     16003      2829      2833      2829      2837
      2829      2841      2833      2834      2833      2835      2833      2836
      2837      2838      2837      2839      2837      2840      2841      2842
      2841      2843      2841      2844      2829      2830      2830      2831
      2830      2832      2830      2845      2845      2846      2845      2847
      2845      2851      2852      2853      2851      2848      2848      2852
      2848      2849      2848      2850      2853      2854      2853      2855
      2853      2856      2856      2857      2856      2864      2856      2858
      2864      2865      2864      2866      2864      2867      2858      2859
      2859      2861      2859      2860      2861      2862      2861      2863
      2861      2873      2873      2874      2873      2875      2873      2876
      2876      2877      2876      2878      2876      2879      2879      2880
      2879      2881      2881      2882      2881      2883      2883      2884
      2883      2885      2883      2886      2886      2887      2886      2888
      2888      2889      2888      2890      2890      2891      2890      2892
      2890      2893      2893      2894      2893      2895      2895      2896
      2895      2897      2897      2898      2897      2899      2897      2900
      2900      2901      2900      2902      2902      2903      2902      2904
      2904      2905      2904      2906      2904      2907      2907      2908
      2907      2909      2907      2910      2910      2911      2910      2912
      2910      2913      2913      2914      2913      2915      2913      2916
      2916      2917      2916      2918      2916      2919      2867      2868
      2868      2870      2868      2869      2870      2871      2870      2872
      2870      2920      2920      2921      2920      2922      2920      2923
      2923      2924      2923      2925      2923      2926      2926      2927
      2926      2928      2926      2929      2929      2930      2929      2931
      2929      2932      2932      2933      2932      2934      2932      2935
      2935      2936      2935      2937      2935      2938      2938      2939
      2938      2940      2938      2941      2941      2942      2941      2943
      2941      2944      2944      2945      2944      2946      2944      2947
      2947      2948      2947      2949      2947      2950      2950      2951
      2950      2952      2950      2953      2953      2954      2953      2955
      2953      2956      2956      2957      2956      2958      2956      2959
      2959      2960      2959      2961      2959      2962      2962      2963
      2962      2964      2962      2965      2965      2966      2965      2967
      2965      2968       799       800       799       801       799       802
       799       803       807       805       805       803       805       806
       803       804       803       808       816       815       808       809
       808       810       808       814       814       811       811       815
       811       812       811       813       816       817       816       818
       816       819       819       820       819       827       819       821
       827       828       827       829       827       830       821       822
       822       824       822       823       824       825       824       826
       824       836       836       837       836       838       836       839
       839       840       839       841       839       842       842       843
       842       844       844       845       844       846       846       847
       846       848       846       849       849       850       849       851
       851       852       851       853       853       854       853       855
       853       856       856       857       856       858       858       859
       858       860       860       861       860       862       860       863
       863       864       863       865       865       866       865       867
       867       868       867       869       867       870       870       871
       870       872       870       873       873       874       873       875
       873       876       876       877       876       878       876       879
       879       880       879       881       879       882       830       831
       831       833       831       832       833       834       833       835
       833       883       883       884       883       885       883       886
       886       887       886       888       886       889       889       890
       889       891       889       892       892       893       892       894
       892       895       895       896       895       897       895       898
       898       899       898       900       898       901       901       902
       901       903       901       904       904       905       904       906
       904       907       907       908       907       909       907       910
       910       911       910       912       910       913       913       914
       913       915       913       916       916       917       916       918
       916       919       919       920       919       921       919       922
       922       923       922       924       922       925       925       926
       925       927       925       928       928       929       928       930
       928       931      7291      7293      7291      7292      7293      7294
      7291      7337      7337      7338      7337      7339      7337      7334
      7334      7335      7334      7336      7291      7295      7295      7296
      7295      7297      7295      7298      7298      7329      7329      7334
      7329      7330      7330      7331      7330      7332      7330      7333
      7298      7299      7299      7300      7299      7301      7301      7302
      7301      7303      7301      7304      7304      7305      7304      7327
      7327      7328      7327      7329      7304      7306      7306      7307
      7306      7316      7316      7321      7321      7322      7321      7323
      7321      7324      7324      7325      7324      7326      7324      7327
      7316      7317      7317      7318      7317      7319      7317      7320
      7306      7308      7308      7309      7308      7310      7308      7311
      7311      7312      7311      7313      7311      7314      7314      7315
      7314      7316      7314      7340      7340      7341      7340      7342
      7342      7343      7342      7344      7342      7345      7340      7346
      7346      7347      7346      7348      7346      7349      7349      7350
      7349      7351      7349      7352      7352      7353      7352      7354
      7352      7355      7355      7356      7355      7357      7357      7358
      7357      7359      7357      7360      7355      7361      7361      7362
      7361      7363      7361      7364     11756     11757     11756     11758
     11756     11759     11756     11753     11753     11754     11753     11755
     11753     11750     11750     11751     11750     11752     11750     11747
     11747     11748     11747     11749     11747     11744     11744     11745
     11744     11746     11744     11741     11741     11742     11741     11743
     11741     11738     11738     11739     11738     11740     11738     11735
     11735     11736     11735     11737     11735     11732     11732     11733
     11732     11734     11732     11729     11729     11730     11729     11731
     11729     11726     11726     11727     11726     11728     11726     11723
     11723     11724     11723     11725     11723     11720     11720     11721
     11720     11722     11720     11718     11718     11719     11716     11717
     11716     11712     11712     11713     11712     11714     11714     11715
     11712     11710     11710     11711     11710     11705     11705     11706
     11705     11707     11705     11703     11703     11700     11704     11700
     11701     11700     11702     11700     11704     11697     11697     11698
     11697     11699     11697     11694     11694     11695     11694     11696
     11694     11681     11681     11690     11681     11686     11681     11682
     11690     11691     11690     11692     11690     11693     11686     11687
     11686     11688     11686     11689     11682     11683     11682     11684
     11682     11685     11710     11708     11708     11709     11708     11760
     11760     11762     11762     11763     11762     11764     11762     11765
     11765     11766     11765     11767     11765     11768     11768     11769
     11768     11770     11768     11771     11771     11772     11771     11773
     11771     11774     11774     11775     11774     11776     11774     11777
     11777     11778     11777     11779     11777     11780     11780     11781
     11780     11782     11780     11783     11783     11784     11785     11786
     11785     11787     11787     11788     11787     11789     11787     11790
     11790     11791     11790     11792     11790     11793     11793     11794
     11793     11795     11793     11796     11796     11797     11796     11798
     11796     11799     11799     11800     11799     11801     11799     11802
     11802     11803     11802     11804     11802     11805     11805     11806
     11805     11807     11805     11808     11808     11809     11808     11810
     11808     11811     11716     11718     11783     11785     11760     11761
       932       933       932       934       932       935       932       936
       940       938       938       936       938       939       936       937
       936       941       949       948       941       942       941       943
       941       947       947       944       944       948       944       945
       944       946       949       950       949       951       949       952
       952       953       952       960       952       954       960       961
       960       962       960       963       954       955       955       957
       955       956       957       958       957       959       957       969
       969       970       969       971       969       972       972       973
       972       974       972       975       975       976       975       977
       977       978       977       979       979       980       979       981
       979       982       982       983       982       984       984       985
       984       986       986       987       986       988       986       989
       989       990       989       991       991       992       991       993
       993       994       993       995       993       996       996       997
       996       998       998       999       998      1000      1000      1001
      1000      1002      1000      1003      1003      1004      1003      1005
      1003      1006      1006      1007      1006      1008      1006      1009
      1009      1010      1009      1011      1009      1012      1012      1013
      1012      1014      1012      1015       963       964       964       966
       964       965       966       967       966       968       966      1016
      1016      1017      1016      1018      1016      1019      1019      1020
      1019      1021      1019      1022      1022      1023      1022      1024
      1022      1025      1025      1026      1025      1027      1025      1028
      1028      1029      1028      1030      1028      1031      1031      1032
      1031      1033      1031      1034      1034      1035      1034      1036
      1034      1037      1037      1038      1037      1039      1037      1040
      1040      1041      1040      1042      1040      1043      1043      1044
      1043      1045      1043      1046      1046      1047      1046      1048
      1046      1049      1049      1050      1049      1051      1049      1052
      1052      1053      1052      1054      1052      1055      1055      1056
      1055      1057      1055      1058      1058      1059      1058      1060
      1058      1061      1061      1062      1061      1063      1061      1064
      2969      2973      2969      2977      2969      2981      2973      2974
      2973      2975      2973      2976      2977      2978      2977      2979
      2977      2980      2981      2982      2981      2983      2981      2984
      2969      2970      2970      2971      2970      2972      2970      2985
      2985      2986      2985      2987      2985      2991      2992      2993
      2991      2988      2988      2992      2988      2989      2988      2990
      2993      2994      2993      2995      2993      2996      2996      2997
      2996      3004      2996      2998      3004      3005      3004      3006
      3004      3007      2998      2999      2999      3001      2999      3000
      3001      3002      3001      3003      3001      3013      3013      3014
      3013      3015      3013      3016      3016      3017      3016      3018
      3016      3019      3019      3020      3019      3021      3021      3022
      3021      3023      3023      3024      3023      3025      3023      3026
      3026      3027      3026      3028      3028      3029      3028      3030
      3030      3031      3030      3032      3030      3033      3033      3034
      3033      3035      3035      3036      3035      3037      3037      3038
      3037      3039      3037      3040      3040      3041      3040      3042
      3042      3043      3042      3044      3044      3045      3044      3046
      3044      3047      3047      3048      3047      3049      3047      3050
      3050      3051      3050      3052      3050      3053      3053      3054
      3053      3055      3053      3056      3056      3057      3056      3058
      3056      3059      3007      3008      3008      3010      3008      3009
      3010      3011      3010      3012      3010      3060      3060      3061
      3060      3062      3060      3063      3063      3064      3063      3065
      3063      3066      3066      3067      3066      3068      3066      3069
      3069      3070      3069      3071      3069      3072      3072      3073
      3072      3074      3072      3075      3075      3076      3075      3077
      3075      3078      3078      3079      3078      3080      3078      3081
      3081      3082      3081      3083      3081      3084      3084      3085
      3084      3086      3084      3087      3087      3088      3087      3089
      3087      3090      3090      3091      3090      3092      3090      3093
      3093      3094      3093      3095      3093      3096      3096      3097
      3096      3098      3096      3099      3099      3100      3099      3101
      3099      3102      3102      3103      3102      3104      3102      3105
      3105      3106      3105      3107      3105      3108      7365      7367
      7365      7366      7367      7368      7365      7411      7411      7412
      7411      7413      7411      7408      7408      7409      7408      7410
      7365      7369      7369      7370      7369      7371      7369      7372
      7372      7403      7403      7408      7403      7404      7404      7405
      7404      7406      7404      7407      7372      7373      7373      7374
      7373      7375      7375      7376      7375      7377      7375      7378
      7378      7379      7378      7401      7401      7402      7401      7403
      7378      7380      7380      7381      7380      7390      7390      7395
      7395      7396      7395      7397      7395      7398      7398      7399
      7398      7400      7398      7401      7390      7391      7391      7392
      7391      7393      7391      7394      7380      7382      7382      7383
      7382      7384      7382      7385      7385      7386      7385      7387
      7385      7388      7388      7389      7388      7390      7388      7414
      7414      7415      7414      7416      7416      7417      7416      7418
      7416      7419      7414      7420      7420      7421      7420      7422
      7420      7423      7423      7424      7423      7425      7423      7426
      7426      7427      7426      7428      7426      7429      7429      7430
      7429      7431      7431      7432      7431      7433      7431      7434
      7429      7435      7435      7436      7435      7437      7435      7438
     20803     20804     20803     20808     20803     20812     20804     20805
     20804     20806     20804     20807     20808     20809     20808     20810
     20808     20811     20812     20813     20812     20814     20812     20815
     20803     20816     20816     20817     20816     20818     20816     20819
     20819     20820     20819     20821     20819     20825     20826     20827
     20825     20822     20822     20826     20822     20823     20822     20824
     20827     20828     20827     20829     20827     20830     20830     20831
     20830     20838     20830     20832     20838     20839     20838     20840
     20838     20841     20832     20833     20833     20835     20833     20834
     20835     20836     20835     20837     20835     20847     20847     20848
     20847     20849     20847     20850     20850     20851     20850     20852
     20850     20853     20853     20854     20853     20855     20853     20856
     20856     20857     20856     20858     20856     20859     20859     20860
     20859     20861     20859     20862     20862     20863     20862     20864
     20862     20865     20865     20866     20865     20867     20867     20868
     20867     20869     20869     20870     20869     20871     20869     20872
     20872     20873     20872     20874     20874     20875     20874     20876
     20876     20877     20876     20878     20876     20879     20879     20880
     20879     20881     20879     20882     20882     20883     20882     20884
     20882     20885     20885     20886     20885     20887     20885     20888
     20888     20889     20888     20890     20888     20891     20841     20842
     20842     20844     20842     20843     20844     20845     20844     20846
     20844     20892     20892     20893     20892     20894     20892     20895
     20895     20896     20895     20897     20895     20898     20898     20899
     20898     20900     20898     20901     20901     20902     20901     20903
     20901     20904     20904     20905     20904     20906     20904     20907
     20907     20908     20907     20909     20907     20910     20910     20911
     20910     20912     20910     20913     20913     20914     20913     20915
     20913     20916     20916     20917     20916     20918     20916     20919
     20919     20920     20919     20921     20919     20922     20922     20923
     20922     20924     20922     20925     20925     20926     20925     20927
     20925     20928     20928     20929     20928     20930     20928     20931
     20931     20932     20931     20933     20931     20934     20934     20935
     20934     20936     20934     20937     20937     20938     20937     20939
     20937     20940     20941     20942     20941     20946     20941     20950
     20942     20943     20942     20944     20942     20945     20946     20947
     20946     20948     20946     20949     20950     20951     20950     20952
     20950     20953     20941     20954     20954     20955     20954     20956
     20954     20957     20957     20958     20957     20959     20957     20963
     20964     20965     20963     20960     20960     20964     20960     20961
     20960     20962     20965     20966     20965     20967     20965     20968
     20968     20969     20968     20976     20968     20970     20976     20977
     20976     20978     20976     20979     20970     20971     20971     20973
     20971     20972     20973     20974     20973     20975     20973     20985
     20985     20986     20985     20987     20985     20988     20988     20989
     20988     20990     20988     20991     20991     20992     20991     20993
     20991     20994     20994     20995     20994     20996     20994     20997
     20997     20998     20997     20999     20997     21000     21000     21001
     21000     21002     21000     21003     21003     21004     21003     21005
     21005     21006     21005     21007     21007     21008     21007     21009
     21007     21010     21010     21011     21010     21012     21012     21013
     21012     21014     21014     21015     21014     21016     21014     21017
     21017     21018     21017     21019     21017     21020     21020     21021
     21020     21022     21020     21023     21023     21024     21023     21025
     21023     21026     21026     21027     21026     21028     21026     21029
     20979     20980     20980     20982     20980     20981     20982     20983
     20982     20984     20982     21030     21030     21031     21030     21032
     21030     21033     21033     21034     21033     21035     21033     21036
     21036     21037     21036     21038     21036     21039     21039     21040
     21039     21041     21039     21042     21042     21043     21042     21044
     21042     21045     21045     21046     21045     21047     21045     21048
     21048     21049     21048     21050     21048     21051     21051     21052
     21051     21053     21051     21054     21054     21055     21054     21056
     21054     21057     21057     21058     21057     21059     21057     21060
     21060     21061     21060     21062     21060     21063     21063     21064
     21063     21065     21063     21066     21066     21067     21066     21068
     21066     21069     21069     21070     21069     21071     21069     21072
     21072     21073     21072     21074     21072     21075     21075     21076
     21075     21077     21075     21078      4771      4775      4771      4779
      4771      4783      4775      4776      4775      4777      4775      4778
      4779      4780      4779      4781      4779      4782      4783      4784
      4783      4785      4783      4786      4771      4772      4772      4773
      4772      4774      4772      4787      4787      4788      4787      4789
      4787      4793      4794      4795      4793      4790      4790      4794
      4790      4791      4790      4792      4795      4796      4795      4797
      4795      4798      4798      4799      4798      4806      4798      4800
      4806      4807      4806      4808      4806      4809      4800      4801
      4801      4803      4801      4802      4803      4804      4803      4805
      4803      4815      4815      4816      4815      4817      4815      4818
      4818      4819      4818      4820      4818      4821      4821      4822
      4821      4823      4821      4824      4824      4825      4824      4826
      4824      4827      4827      4828      4827      4829      4827      4830
      4830      4831      4830      4832      4830      4833      4833      4834
      4833      4835      4835      4836      4835      4837      4837      4838
      4837      4839      4837      4840      4840      4841      4840      4842
      4840      4843      4843      4844      4843      4845      4843      4846
      4846      4847      4846      4848      4846      4849      4849      4850
      4849      4851      4849      4852      4852      4853      4852      4854
      4852      4855      4855      4856      4855      4857      4855      4858
      4858      4859      4858      4860      4858      4861      4809      4810
      4810      4812      4810      4811      4812      4813      4812      4814
      4812      4862      4862      4863      4862      4864      4862      4865
      4865      4866      4865      4867      4865      4868      4868      4869
      4868      4870      4868      4871      4871      4872      4871      4873
      4871      4874      4874      4875      4874      4876      4874      4877
      4877      4878      4877      4879      4877      4880      4880      4881
      4880      4882      4880      4883      4883      4884      4883      4885
      4883      4886      4886      4887      4886      4888      4886      4889
      4889      4890      4889      4891      4889      4892      4892      4893
      4892      4894      4892      4895      4895      4896      4895      4897
      4895      4898      4898      4899      4898      4900      4898      4901
      4901      4902      4901      4903      4901      4904      7439      7441
      7439      7440      7441      7442      7439      7485      7485      7486
      7485      7487      7485      7482      7482      7483      7482      7484
      7439      7443      7443      7444      7443      7445      7443      7446
      7446      7477      7477      7482      7477      7478      7478      7479
      7478      7480      7478      7481      7446      7447      7447      7448
      7447      7449      7449      7450      7449      7451      7449      7452
      7452      7453      7452      7475      7475      7476      7475      7477
      7452      7454      7454      7455      7454      7464      7464      7469
      7469      7470      7469      7471      7469      7472      7472      7473
      7472      7474      7472      7475      7464      7465      7465      7466
      7465      7467      7465      7468      7454      7456      7456      7457
      7456      7458      7456      7459      7459      7460      7459      7461
      7459      7462      7462      7463      7462      7464      7462      7488
      7488      7489      7488      7490      7490      7491      7490      7492
      7490      7493      7488      7494      7494      7495      7494      7496
      7494      7497      7497      7498      7497      7499      7497      7500
      7500      7501      7500      7502      7500      7503      7503      7504
      7503      7505      7505      7506      7505      7507      7505      7508
      7503      7509      7509      7510      7509      7511      7509      7512
     18624     18625     18624     18626     18624     18627     18624     18628
     18628     18629     18628     18630     18628     18631     18631     18632
     18631     18633     18631     18637     18639     18638     18637     18634
     18634     18638     18634     18635     18634     18636     18639     18640
     18639     18641     18639     18642     18642     18643     18642     18650
     18642     18644     18650     18651     18650     18652     18650     18653
     18644     18645     18645     18647     18645     18646     18647     18648
     18647     18649     18647     18659     18659     18660     18659     18661
     18659     18662     18662     18663     18662     18664     18662     18665
     18665     18666     18665     18667     18665     18668     18668     18669
     18668     18670     18668     18671     18671     18672     18671     18673
     18671     18674     18674     18675     18674     18676     18674     18677
     18677     18678     18677     18679     18679     18680     18679     18681
     18681     18682     18681     18683     18681     18684     18684     18685
     18684     18686     18684     18687     18687     18688     18687     18689
     18687     18690     18690     18691     18690     18692     18690     18693
     18693     18694     18693     18695     18693     18696     18696     18697
     18696     18698     18696     18699     18699     18700     18699     18701
     18699     18702     18702     18703     18702     18704     18702     18705
     18653     18654     18654     18656     18654     18655     18656     18657
     18656     18658     18656     18706     18706     18707     18706     18708
     18706     18709     18709     18710     18709     18711     18709     18712
     18712     18713     18712     18714     18712     18715     18715     18716
     18715     18717     18715     18718     18718     18719     18718     18720
     18718     18721     18721     18722     18721     18723     18721     18724
     18724     18725     18724     18726     18724     18727     18727     18728
     18727     18729     18727     18730     18730     18731     18730     18732
     18730     18733     18733     18734     18733     18735     18733     18736
     18736     18737     18736     18738     18736     18739     18739     18740
     18739     18741     18739     18742     18742     18743     18742     18744
     18742     18745     18745     18746     18745     18747     18745     18748
     18748     18749     18748     18750     18748     18751     18751     18752
     18751     18753     18751     18754     16004     16005     16004     16006
     16004     16007     16004     16008     16008     16009     16008     16010
     16008     16011     16011     16012     16011     16013     16011     16017
     16019     16018     16017     16014     16014     16018     16014     16015
     16014     16016     16019     16020     16019     16021     16019     16022
     16022     16023     16022     16030     16022     16024     16030     16031
     16030     16032     16030     16033     16024     16025     16025     16027
     16025     16026     16027     16028     16027     16029     16027     16039
     16039     16040     16039     16041     16039     16042     16042     16043
     16042     16044     16042     16045     16045     16046     16045     16047
     16047     16048     16047     16049     16049     16050     16049     16051
     16049     16052     16052     16053     16052     16054     16054     16055
     16054     16056     16056     16057     16056     16058     16056     16059
     16059     16060     16059     16061     16061     16062     16061     16063
     16063     16064     16063     16065     16063     16066     16066     16067
     16066     16068     16068     16069     16068     16070     16070     16071
     16070     16072     16070     16073     16073     16074     16073     16075
     16073     16076     16076     16077     16076     16078     16076     16079
     16079     16080     16079     16081     16079     16082     16082     16083
     16082     16084     16082     16085     16033     16034     16034     16036
     16034     16035     16036     16037     16036     16038     16036     16086
     16086     16087     16086     16088     16086     16089     16089     16090
     16089     16091     16089     16092     16092     16093     16092     16094
     16092     16095     16095     16096     16095     16097     16095     16098
     16098     16099     16098     16100     16098     16101     16101     16102
     16101     16103     16101     16104     16104     16105     16104     16106
     16104     16107     16107     16108     16107     16109     16107     16110
     16110     16111     16110     16112     16110     16113     16113     16114
     16113     16115     16113     16116     16116     16117     16116     16118
     16116     16119     16119     16120     16119     16121     16119     16122
     16122     16123     16122     16124     16122     16125     16125     16126
     16125     16127     16125     16128     16128     16129     16128     16130
     16128     16131     16131     16132     16131     16133     16131     16134
     21079     21080     21079     21084     21079     21088     21080     21081
     21080     21082     21080     21083     21084     21085     21084     21086
     21084     21087     21088     21089     21088     21090     21088     21091
     21079     21092     21092     21093     21092     21094     21092     21095
     21095     21096     21095     21097     21095     21101     21102     21103
     21101     21098     21098     21102     21098     21099     21098     21100
     21103     21104     21103     21105     21103     21106     21106     21107
     21106     21114     21106     21108     21114     21115     21114     21116
     21114     21117     21108     21109     21109     21111     21109     21110
     21111     21112     21111     21113     21111     21123     21123     21124
     21123     21125     21123     21126     21126     21127     21126     21128
     21126     21129     21129     21130     21129     21131     21129     21132
     21132     21133     21132     21134     21132     21135     21135     21136
     21135     21137     21135     21138     21138     21139     21138     21140
     21138     21141     21141     21142     21141     21143     21143     21144
     21143     21145     21145     21146     21145     21147     21145     21148
     21148     21149     21148     21150     21150     21151     21150     21152
     21152     21153     21152     21154     21152     21155     21155     21156
     21155     21157     21155     21158     21158     21159     21158     21160
     21158     21161     21161     21162     21161     21163     21161     21164
     21164     21165     21164     21166     21164     21167     21117     21118
     21118     21120     21118     21119     21120     21121     21120     21122
     21120     21168     21168     21169     21168     21170     21168     21171
     21171     21172     21171     21173     21171     21174     21174     21175
     21174     21176     21174     21177     21177     21178     21177     21179
     21177     21180     21180     21181     21180     21182     21180     21183
     21183     21184     21183     21185     21183     21186     21186     21187
     21186     21188     21186     21189     21189     21190     21189     21191
     21189     21192     21192     21193     21192     21194     21192     21195
     21195     21196     21195     21197     21195     21198     21198     21199
     21198     21200     21198     21201     21201     21202     21201     21203
     21201     21204     21204     21205     21204     21206     21204     21207
     21207     21208     21207     21209     21207     21210     21210     21211
     21210     21212     21210     21213     21213     21214     21213     21215
     21213     21216      3109      3113      3109      3117      3109      3121
      3113      3114      3113      3115      3113      3116      3117      3118
      3117      3119      3117      3120      3121      3122      3121      3123
      3121      3124      3109      3110      3110      3111      3110      3112
      3110      3125      3125      3126      3125      3127      3125      3131
      3132      3133      3131      3128      3128      3132      3128      3129
      3128      3130      3133      3134      3133      3135      3133      3136
      3136      3137      3136      3144      3136      3138      3144      3145
      3144      3146      3144      3147      3138      3139      3139      3141
      3139      3140      3141      3142      3141      3143      3141      3153
      3153      3154      3153      3155      3153      3156      3156      3157
      3156      3158      3156      3159      3159      3160      3159      3161
      3161      3162      3161      3163      3163      3164      3163      3165
      3163      3166      3166      3167      3166      3168      3168      3169
      3168      3170      3170      3171      3170      3172      3170      3173
      3173      3174      3173      3175      3175      3176      3175      3177
      3177      3178      3177      3179      3177      3180      3180      3181
      3180      3182      3182      3183      3182      3184      3184      3185
      3184      3186      3184      3187      3187      3188      3187      3189
      3187      3190      3190      3191      3190      3192      3190      3193
      3193      3194      3193      3195      3193      3196      3196      3197
      3196      3198      3196      3199      3147      3148      3148      3150
      3148      3149      3150      3151      3150      3152      3150      3200
      3200      3201      3200      3202      3200      3203      3203      3204
      3203      3205      3203      3206      3206      3207      3206      3208
      3206      3209      3209      3210      3209      3211      3209      3212
      3212      3213      3212      3214      3212      3215      3215      3216
      3215      3217      3215      3218      3218      3219      3218      3220
      3218      3221      3221      3222      3221      3223      3221      3224
      3224      3225      3224      3226      3224      3227      3227      3228
      3227      3229      3227      3230      3230      3231      3230      3232
      3230      3233      3233      3234      3233      3235      3233      3236
      3236      3237      3236      3238      3236      3239      3239      3240
      3239      3241      3239      3242      3242      3243      3242      3244
      3242      3245      3245      3246      3245      3247      3245      3248
     11887     11888     11887     11889     11887     11890     11887     11884
     11884     11885     11884     11886     11884     11881     11881     11882
     11881     11883     11881     11878     11878     11879     11878     11880
     11878     11875     11875     11876     11875     11877     11875     11872
     11872     11873     11872     11874     11872     11869     11869     11870
     11869     11871     11869     11866     11866     11867     11866     11868
     11866     11863     11863     11864     11863     11865     11863     11860
     11860     11861     11860     11862     11860     11857     11857     11858
     11857     11859     11857     11854     11854     11855     11854     11856
     11854     11851     11851     11852     11851     11853     11851     11849
     11849     11850     11847     11848     11847     11843     11843     11844
     11843     11845     11845     11846     11843     11841     11841     11842
     11841     11836     11836     11837     11836     11838     11836     11834
     11834     11831     11835     11831     11832     11831     11833     11831
     11835     11828     11828     11829     11828     11830     11828     11825
     11825     11826     11825     11827     11825     11812     11812     11821
     11812     11817     11812     11813     11821     11822     11821     11823
     11821     11824     11817     11818     11817     11819     11817     11820
     11813     11814     11813     11815     11813     11816     11841     11839
     11839     11840     11839     11891     11891     11893     11893     11894
     11893     11895     11893     11896     11896     11897     11896     11898
     11896     11899     11899     11900     11899     11901     11899     11902
     11902     11903     11902     11904     11902     11905     11905     11906
     11905     11907     11905     11908     11908     11909     11908     11910
     11908     11911     11911     11912     11911     11913     11911     11914
     11914     11915     11916     11917     11916     11918     11918     11919
     11918     11920     11918     11921     11921     11922     11921     11923
     11921     11924     11924     11925     11924     11926     11924     11927
     11927     11928     11927     11929     11927     11930     11930     11931
     11930     11932     11930     11933     11933     11934     11933     11935
     11933     11936     11936     11937     11936     11938     11936     11939
     11939     11940     11939     11941     11939     11942     11847     11849
     11914     11916     11891     11892     16135     16136     16135     16137
     16135     16138     16135     16139     16139     16140     16139     16141
     16139     16142     16142     16143     16142     16144     16142     16148
     16150     16149     16148     16145     16145     16149     16145     16146
     16145     16147     16150     16151     16150     16152     16150     16153
     16153     16154     16153     16161     16153     16155     16161     16162
     16161     16163     16161     16164     16155     16156     16156     16158
     16156     16157     16158     16159     16158     16160     16158     16170
     16170     16171     16170     16172     16170     16173     16173     16174
     16173     16175     16173     16176     16176     16177     16176     16178
     16178     16179     16178     16180     16180     16181     16180     16182
     16180     16183     16183     16184     16183     16185     16185     16186
     16185     16187     16187     16188     16187     16189     16187     16190
     16190     16191     16190     16192     16192     16193     16192     16194
     16194     16195     16194     16196     16194     16197     16197     16198
     16197     16199     16199     16200     16199     16201     16201     16202
     16201     16203     16201     16204     16204     16205     16204     16206
     16204     16207     16207     16208     16207     16209     16207     16210
     16210     16211     16210     16212     16210     16213     16213     16214
     16213     16215     16213     16216     16164     16165     16165     16167
     16165     16166     16167     16168     16167     16169     16167     16217
     16217     16218     16217     16219     16217     16220     16220     16221
     16220     16222     16220     16223     16223     16224     16223     16225
     16223     16226     16226     16227     16226     16228     16226     16229
     16229     16230     16229     16231     16229     16232     16232     16233
     16232     16234     16232     16235     16235     16236     16235     16237
     16235     16238     16238     16239     16238     16240     16238     16241
     16241     16242     16241     16243     16241     16244     16244     16245
     16244     16246     16244     16247     16247     16248     16247     16249
     16247     16250     16250     16251     16250     16252     16250     16253
     16253     16254     16253     16255     16253     16256     16256     16257
     16256     16258     16256     16259     16259     16260     16259     16261
     16259     16262     16262     16263     16262     16264     16262     16265
     16266     16267     16266     16268     16266     16269     16266     16270
     16270     16271     16270     16272     16270     16273     16273     16274
     16273     16275     16273     16279     16281     16280     16279     16276
     16276     16280     16276     16277     16276     16278     16281     16282
     16281     16283     16281     16284     16284     16285     16284     16292
     16284     16286     16292     16293     16292     16294     16292     16295
     16286     16287     16287     16289     16287     16288     16289     16290
     16289     16291     16289     16301     16301     16302     16301     16303
     16301     16304     16304     16305     16304     16306     16304     16307
     16307     16308     16307     16309     16309     16310     16309     16311
     16311     16312     16311     16313     16311     16314     16314     16315
     16314     16316     16316     16317     16316     16318     16318     16319
     16318     16320     16318     16321     16321     16322     16321     16323
     16323     16324     16323     16325     16325     16326     16325     16327
     16325     16328     16328     16329     16328     16330     16330     16331
     16330     16332     16332     16333     16332     16334     16332     16335
     16335     16336     16335     16337     16335     16338     16338     16339
     16338     16340     16338     16341     16341     16342     16341     16343
     16341     16344     16344     16345     16344     16346     16344     16347
     16295     16296     16296     16298     16296     16297     16298     16299
     16298     16300     16298     16348     16348     16349     16348     16350
     16348     16351     16351     16352     16351     16353     16351     16354
     16354     16355     16354     16356     16354     16357     16357     16358
     16357     16359     16357     16360     16360     16361     16360     16362
     16360     16363     16363     16364     16363     16365     16363     16366
     16366     16367     16366     16368     16366     16369     16369     16370
     16369     16371     16369     16372     16372     16373     16372     16374
     16372     16375     16375     16376     16375     16377     16375     16378
     16378     16379     16378     16380     16378     16381     16381     16382
     16381     16383     16381     16384     16384     16385     16384     16386
     16384     16387     16387     16388     16387     16389     16387     16390
     16390     16391     16390     16392     16390     16393     16393     16394
     16393     16395     16393     16396     16397     16398     16397     16399
     16397     16400     16397     16401     16401     16402     16401     16403
     16401     16404     16404     16405     16404     16406     16404     16410
     16412     16411     16410     16407     16407     16411     16407     16408
     16407     16409     16412     16413     16412     16414     16412     16415
     16415     16416     16415     16423     16415     16417     16423     16424
     16423     16425     16423     16426     16417     16418     16418     16420
     16418     16419     16420     16421     16420     16422     16420     16432
     16432     16433     16432     16434     16432     16435     16435     16436
     16435     16437     16435     16438     16438     16439     16438     16440
     16440     16441     16440     16442     16442     16443     16442     16444
     16442     16445     16445     16446     16445     16447     16447     16448
     16447     16449     16449     16450     16449     16451     16449     16452
     16452     16453     16452     16454     16454     16455     16454     16456
     16456     16457     16456     16458     16456     16459     16459     16460
     16459     16461     16461     16462     16461     16463     16463     16464
     16463     16465     16463     16466     16466     16467     16466     16468
     16466     16469     16469     16470     16469     16471     16469     16472
     16472     16473     16472     16474     16472     16475     16475     16476
     16475     16477     16475     16478     16426     16427     16427     16429
     16427     16428     16429     16430     16429     16431     16429     16479
     16479     16480     16479     16481     16479     16482     16482     16483
     16482     16484     16482     16485     16485     16486     16485     16487
     16485     16488     16488     16489     16488     16490     16488     16491
     16491     16492     16491     16493     16491     16494     16494     16495
     16494     16496     16494     16497     16497     16498     16497     16499
     16497     16500     16500     16501     16500     16502     16500     16503
     16503     16504     16503     16505     16503     16506     16506     16507
     16506     16508     16506     16509     16509     16510     16509     16511
     16509     16512     16512     16513     16512     16514     16512     16515
     16515     16516     16515     16517     16515     16518     16518     16519
     16518     16520     16518     16521     16521     16522     16521     16523
     16521     16524     16524     16525     16524     16526     16524     16527
      1065      1066      1065      1067      1065      1068      1065      1069
      1073      1071      1071      1069      1071      1072      1069      1070
      1069      1074      1082      1081      1074      1075      1074      1076
      1074      1080      1080      1077      1077      1081      1077      1078
      1077      1079      1082      1083      1082      1084      1082      1085
      1085      1086      1085      1093      1085      1087      1093      1094
      1093      1095      1093      1096      1087      1088      1088      1090
      1088      1089      1090      1091      1090      1092      1090      1102
      1102      1103      1102      1104      1102      1105      1105      1106
      1105      1107      1105      1108      1108      1109      1108      1110
      1110      1111      1110      1112      1112      1113      1112      1114
      1112      1115      1115      1116      1115      1117      1117      1118
      1117      1119      1119      1120      1119      1121      1119      1122
      1122      1123      1122      1124      1124      1125      1124      1126
      1126      1127      1126      1128      1126      1129      1129      1130
      1129      1131      1131      1132      1131      1133      1133      1134
      1133      1135      1133      1136      1136      1137      1136      1138
      1136      1139      1139      1140      1139      1141      1139      1142
      1142      1143      1142      1144      1142      1145      1145      1146
      1145      1147      1145      1148      1096      1097      1097      1099
      1097      1098      1099      1100      1099      1101      1099      1149
      1149      1150      1149      1151      1149      1152      1152      1153
      1152      1154      1152      1155      1155      1156      1155      1157
      1155      1158      1158      1159      1158      1160      1158      1161
      1161      1162      1161      1163      1161      1164      1164      1165
      1164      1166      1164      1167      1167      1168      1167      1169
      1167      1170      1170      1171      1170      1172      1170      1173
      1173      1174      1173      1175      1173      1176      1176      1177
      1176      1178      1176      1179      1179      1180      1179      1181
      1179      1182      1182      1183      1182      1184      1182      1185
      1185      1186      1185      1187      1185      1188      1188      1189
      1188      1190      1188      1191      1191      1192      1191      1193
      1191      1194      1194      1195      1194      1196      1194      1197
     12018     12019     12018     12020     12018     12021     12018     12015
     12015     12016     12015     12017     12015     12012     12012     12013
     12012     12014     12012     12009     12009     12010     12009     12011
     12009     12006     12006     12007     12006     12008     12006     12003
     12003     12004     12003     12005     12003     12000     12000     12001
     12000     12002     12000     11997     11997     11998     11997     11999
     11997     11994     11994     11995     11994     11996     11994     11991
     11991     11992     11991     11993     11991     11988     11988     11989
     11988     11990     11988     11985     11985     11986     11985     11987
     11985     11982     11982     11983     11982     11984     11982     11980
     11980     11981     11978     11979     11978     11974     11974     11975
     11974     11976     11976     11977     11974     11972     11972     11973
     11972     11967     11967     11968     11967     11969     11967     11965
     11965     11962     11966     11962     11963     11962     11964     11962
     11966     11959     11959     11960     11959     11961     11959     11956
     11956     11957     11956     11958     11956     11943     11943     11952
     11943     11948     11943     11944     11952     11953     11952     11954
     11952     11955     11948     11949     11948     11950     11948     11951
     11944     11945     11944     11946     11944     11947     11972     11970
     11970     11971     11970     12022     12022     12024     12024     12025
     12024     12026     12024     12027     12027     12028     12027     12029
     12027     12030     12030     12031     12030     12032     12030     12033
     12033     12034     12033     12035     12033     12036     12036     12037
     12036     12038     12036     12039     12039     12040     12039     12041
     12039     12042     12042     12043     12042     12044     12042     12045
     12045     12046     12047     12048     12047     12049     12049     12050
     12049     12051     12049     12052     12052     12053     12052     12054
     12052     12055     12055     12056     12055     12057     12055     12058
     12058     12059     12058     12060     12058     12061     12061     12062
     12061     12063     12061     12064     12064     12065     12064     12066
     12064     12067     12067     12068     12067     12069     12067     12070
     12070     12071     12070     12072     12070     12073     11978     11980
     12045     12047     12022     12023      4905      4909      4905      4913
      4905      4917      4909      4910      4909      4911      4909      4912
      4913      4914      4913      4915      4913      4916      4917      4918
      4917      4919      4917      4920      4905      4906      4906      4907
      4906      4908      4906      4921      4921      4922      4921      4923
      4921      4927      4928      4929      4927      4924      4924      4928
      4924      4925      4924      4926      4929      4930      4929      4931
      4929      4932      4932      4933      4932      4940      4932      4934
      4940      4941      4940      4942      4940      4943      4934      4935
      4935      4937      4935      4936      4937      4938      4937      4939
      4937      4949      4949      4950      4949      4951      4949      4952
      4952      4953      4952      4954      4952      4955      4955      4956
      4955      4957      4955      4958      4958      4959      4958      4960
      4958      4961      4961      4962      4961      4963      4961      4964
      4964      4965      4964      4966      4964      4967      4967      4968
      4967      4969      4969      4970      4969      4971      4971      4972
      4971      4973      4971      4974      4974      4975      4974      4976
      4974      4977      4977      4978      4977      4979      4977      4980
      4980      4981      4980      4982      4980      4983      4983      4984
      4983      4985      4983      4986      4986      4987      4986      4988
      4986      4989      4989      4990      4989      4991      4989      4992
      4992      4993      4992      4994      4992      4995      4943      4944
      4944      4946      4944      4945      4946      4947      4946      4948
      4946      4996      4996      4997      4996      4998      4996      4999
      4999      5000      4999      5001      4999      5002      5002      5003
      5002      5004      5002      5005      5005      5006      5005      5007
      5005      5008      5008      5009      5008      5010      5008      5011
      5011      5012      5011      5013      5011      5014      5014      5015
      5014      5016      5014      5017      5017      5018      5017      5019
      5017      5020      5020      5021      5020      5022      5020      5023
      5023      5024      5023      5025      5023      5026      5026      5027
      5026      5028      5026      5029      5029      5030      5029      5031
      5029      5032      5032      5033      5032      5034      5032      5035
      5035      5036      5035      5037      5035      5038      3249      3253
      3249      3257      3249      3261      3253      3254      3253      3255
      3253      3256      3257      3258      3257      3259      3257      3260
      3261      3262      3261      3263      3261      3264      3249      3250
      3250      3251      3250      3252      3250      3265      3265      3266
      3265      3267      3265      3271      3272      3273      3271      3268
      3268      3272      3268      3269      3268      3270      3273      3274
      3273      3275      3273      3276      3276      3277      3276      3284
      3276      3278      3284      3285      3284      3286      3284      3287
      3278      3279      3279      3281      3279      3280      3281      3282
      3281      3283      3281      3293      3293      3294      3293      3295
      3293      3296      3296      3297      3296      3298      3296      3299
      3299      3300      3299      3301      3301      3302      3301      3303
      3303      3304      3303      3305      3303      3306      3306      3307
      3306      3308      3308      3309      3308      3310      3310      3311
      3310      3312      3310      3313      3313      3314      3313      3315
      3315      3316      3315      3317      3317      3318      3317      3319
      3317      3320      3320      3321      3320      3322      3322      3323
      3322      3324      3324      3325      3324      3326      3324      3327
      3327      3328      3327      3329      3327      3330      3330      3331
      3330      3332      3330      3333      3333      3334      3333      3335
      3333      3336      3336      3337      3336      3338      3336      3339
      3287      3288      3288      3290      3288      3289      3290      3291
      3290      3292      3290      3340      3340      3341      3340      3342
      3340      3343      3343      3344      3343      3345      3343      3346
      3346      3347      3346      3348      3346      3349      3349      3350
      3349      3351      3349      3352      3352      3353      3352      3354
      3352      3355      3355      3356      3355      3357      3355      3358
      3358      3359      3358      3360      3358      3361      3361      3362
      3361      3363      3361      3364      3364      3365      3364      3366
      3364      3367      3367      3368      3367      3369      3367      3370
      3370      3371      3370      3372      3370      3373      3373      3374
      3373      3375      3373      3376      3376      3377      3376      3378
      3376      3379      3379      3380      3379      3381      3379      3382
      3382      3383      3382      3384      3382      3385      3385      3386
      3385      3387      3385      3388      7513      7515      7513      7514
      7515      7516      7513      7559      7559      7560      7559      7561
      7559      7556      7556      7557      7556      7558      7513      7517
      7517      7518      7517      7519      7517      7520      7520      7551
      7551      7556      7551      7552      7552      7553      7552      7554
      7552      7555      7520      7521      7521      7522      7521      7523
      7523      7524      7523      7525      7523      7526      7526      7527
      7526      7549      7549      7550      7549      7551      7526      7528
      7528      7529      7528      7538      7538      7543      7543      7544
      7543      7545      7543      7546      7546      7547      7546      7548
      7546      7549      7538      7539      7539      7540      7539      7541
      7539      7542      7528      7530      7530      7531      7530      7532
      7530      7533      7533      7534      7533      7535      7533      7536
      7536      7537      7536      7538      7536      7562      7562      7563
      7562      7564      7564      7565      7564      7566      7564      7567
      7562      7568      7568      7569      7568      7570      7568      7571
      7571      7572      7571      7573      7571      7574      7574      7575
      7574      7576      7574      7577      7577      7578      7577      7579
      7579      7580      7579      7581      7579      7582      7577      7583
      7583      7584      7583      7585      7583      7586      7587      7589
      7587      7588      7589      7590      7587      7633      7633      7634
      7633      7635      7633      7630      7630      7631      7630      7632
      7587      7591      7591      7592      7591      7593      7591      7594
      7594      7625      7625      7630      7625      7626      7626      7627
      7626      7628      7626      7629      7594      7595      7595      7596
      7595      7597      7597      7598      7597      7599      7597      7600
      7600      7601      7600      7623      7623      7624      7623      7625
      7600      7602      7602      7603      7602      7612      7612      7617
      7617      7618      7617      7619      7617      7620      7620      7621
      7620      7622      7620      7623      7612      7613      7613      7614
      7613      7615      7613      7616      7602      7604      7604      7605
      7604      7606      7604      7607      7607      7608      7607      7609
      7607      7610      7610      7611      7610      7612      7610      7636
      7636      7637      7636      7638      7638      7639      7638      7640
      7638      7641      7636      7642      7642      7643      7642      7644
      7642      7645      7645      7646      7645      7647      7645      7648
      7648      7649      7648      7650      7648      7651      7651      7652
      7651      7653      7653      7654      7653      7655      7653      7656
      7651      7657      7657      7658      7657      7659      7657      7660
     21217     21218     21217     21222     21217     21226     21218     21219
     21218     21220     21218     21221     21222     21223     21222     21224
     21222     21225     21226     21227     21226     21228     21226     21229
     21217     21230     21230     21231     21230     21232     21230     21233
     21233     21234     21233     21235     21233     21239     21240     21241
     21239     21236     21236     21240     21236     21237     21236     21238
     21241     21242     21241     21243     21241     21244     21244     21245
     21244     21252     21244     21246     21252     21253     21252     21254
     21252     21255     21246     21247     21247     21249     21247     21248
     21249     21250     21249     21251     21249     21261     21261     21262
     21261     21263     21261     21264     21264     21265     21264     21266
     21264     21267     21267     21268     21267     21269     21267     21270
     21270     21271     21270     21272     21270     21273     21273     21274
     21273     21275     21273     21276     21276     21277     21276     21278
     21276     21279     21279     21280     21279     21281     21281     21282
     21281     21283     21283     21284     21283     21285     21283     21286
     21286     21287     21286     21288     21288     21289     21288     21290
     21290     21291     21290     21292     21290     21293     21293     21294
     21293     21295     21293     21296     21296     21297     21296     21298
     21296     21299     21299     21300     21299     21301     21299     21302
     21302     21303     21302     21304     21302     21305     21255     21256
     21256     21258     21256     21257     21258     21259     21258     21260
     21258     21306     21306     21307     21306     21308     21306     21309
     21309     21310     21309     21311     21309     21312     21312     21313
     21312     21314     21312     21315     21315     21316     21315     21317
     21315     21318     21318     21319     21318     21320     21318     21321
     21321     21322     21321     21323     21321     21324     21324     21325
     21324     21326     21324     21327     21327     21328     21327     21329
     21327     21330     21330     21331     21330     21332     21330     21333
     21333     21334     21333     21335     21333     21336     21336     21337
     21336     21338     21336     21339     21339     21340     21339     21341
     21339     21342     21342     21343     21342     21344     21342     21345
     21345     21346     21345     21347     21345     21348     21348     21349
     21348     21350     21348     21351     21351     21352     21351     21353
     21351     21354      7661      7663      7661      7662      7663      7664
      7661      7707      7707      7708      7707      7709      7707      7704
      7704      7705      7704      7706      7661      7665      7665      7666
      7665      7667      7665      7668      7668      7699      7699      7704
      7699      7700      7700      7701      7700      7702      7700      7703
      7668      7669      7669      7670      7669      7671      7671      7672
      7671      7673      7671      7674      7674      7675      7674      7697
      7697      7698      7697      7699      7674      7676      7676      7677
      7676      7686      7686      7691      7691      7692      7691      7693
      7691      7694      7694      7695      7694      7696      7694      7697
      7686      7687      7687      7688      7687      7689      7687      7690
      7676      7678      7678      7679      7678      7680      7678      7681
      7681      7682      7681      7683      7681      7684      7684      7685
      7684      7686      7684      7710      7710      7711      7710      7712
      7712      7713      7712      7714      7712      7715      7710      7716
      7716      7717      7716      7718      7716      7719      7719      7720
      7719      7721      7719      7722      7722      7723      7722      7724
      7722      7725      7725      7726      7725      7727      7727      7728
      7727      7729      7727      7730      7725      7731      7731      7732
      7731      7733      7731      7734     16528     16529     16528     16530
     16528     16531     16528     16532     16532     16533     16532     16534
     16532     16535     16535     16536     16535     16537     16535     16541
     16543     16542     16541     16538     16538     16542     16538     16539
     16538     16540     16543     16544     16543     16545     16543     16546
     16546     16547     16546     16554     16546     16548     16554     16555
     16554     16556     16554     16557     16548     16549     16549     16551
     16549     16550     16551     16552     16551     16553     16551     16563
     16563     16564     16563     16565     16563     16566     16566     16567
     16566     16568     16566     16569     16569     16570     16569     16571
     16571     16572     16571     16573     16573     16574     16573     16575
     16573     16576     16576     16577     16576     16578     16578     16579
     16578     16580     16580     16581     16580     16582     16580     16583
     16583     16584     16583     16585     16585     16586     16585     16587
     16587     16588     16587     16589     16587     16590     16590     16591
     16590     16592     16592     16593     16592     16594     16594     16595
     16594     16596     16594     16597     16597     16598     16597     16599
     16597     16600     16600     16601     16600     16602     16600     16603
     16603     16604     16603     16605     16603     16606     16606     16607
     16606     16608     16606     16609     16557     16558     16558     16560
     16558     16559     16560     16561     16560     16562     16560     16610
     16610     16611     16610     16612     16610     16613     16613     16614
     16613     16615     16613     16616     16616     16617     16616     16618
     16616     16619     16619     16620     16619     16621     16619     16622
     16622     16623     16622     16624     16622     16625     16625     16626
     16625     16627     16625     16628     16628     16629     16628     16630
     16628     16631     16631     16632     16631     16633     16631     16634
     16634     16635     16634     16636     16634     16637     16637     16638
     16637     16639     16637     16640     16640     16641     16640     16642
     16640     16643     16643     16644     16643     16645     16643     16646
     16646     16647     16646     16648     16646     16649     16649     16650
     16649     16651     16649     16652     16652     16653     16652     16654
     16652     16655     16655     16656     16655     16657     16655     16658
     18755     18756     18755     18757     18755     18758     18755     18759
     18759     18760     18759     18761     18759     18762     18762     18763
     18762     18764     18762     18768     18770     18769     18768     18765
     18765     18769     18765     18766     18765     18767     18770     18771
     18770     18772     18770     18773     18773     18774     18773     18781
     18773     18775     18781     18782     18781     18783     18781     18784
     18775     18776     18776     18778     18776     18777     18778     18779
     18778     18780     18778     18790     18790     18791     18790     18792
     18790     18793     18793     18794     18793     18795     18793     18796
     18796     18797     18796     18798     18796     18799     18799     18800
     18799     18801     18799     18802     18802     18803     18802     18804
     18802     18805     18805     18806     18805     18807     18805     18808
     18808     18809     18808     18810     18810     18811     18810     18812
     18812     18813     18812     18814     18812     18815     18815     18816
     18815     18817     18815     18818     18818     18819     18818     18820
     18818     18821     18821     18822     18821     18823     18821     18824
     18824     18825     18824     18826     18824     18827     18827     18828
     18827     18829     18827     18830     18830     18831     18830     18832
     18830     18833     18833     18834     18833     18835     18833     18836
     18784     18785     18785     18787     18785     18786     18787     18788
     18787     18789     18787     18837     18837     18838     18837     18839
     18837     18840     18840     18841     18840     18842     18840     18843
     18843     18844     18843     18845     18843     18846     18846     18847
     18846     18848     18846     18849     18849     18850     18849     18851
     18849     18852     18852     18853     18852     18854     18852     18855
     18855     18856     18855     18857     18855     18858     18858     18859
     18858     18860     18858     18861     18861     18862     18861     18863
     18861     18864     18864     18865     18864     18866     18864     18867
     18867     18868     18867     18869     18867     18870     18870     18871
     18870     18872     18870     18873     18873     18874     18873     18875
     18873     18876     18876     18877     18876     18878     18876     18879
     18879     18880     18879     18881     18879     18882     18882     18883
     18882     18884     18882     18885      7735      7737      7735      7736
      7737      7738      7735      7781      7781      7782      7781      7783
      7781      7778      7778      7779      7778      7780      7735      7739
      7739      7740      7739      7741      7739      7742      7742      7773
      7773      7778      7773      7774      7774      7775      7774      7776
      7774      7777      7742      7743      7743      7744      7743      7745
      7745      7746      7745      7747      7745      7748      7748      7749
      7748      7771      7771      7772      7771      7773      7748      7750
      7750      7751      7750      7760      7760      7765      7765      7766
      7765      7767      7765      7768      7768      7769      7768      7770
      7768      7771      7760      7761      7761      7762      7761      7763
      7761      7764      7750      7752      7752      7753      7752      7754
      7752      7755      7755      7756      7755      7757      7755      7758
      7758      7759      7758      7760      7758      7784      7784      7785
      7784      7786      7786      7787      7786      7788      7786      7789
      7784      7790      7790      7791      7790      7792      7790      7793
      7793      7794      7793      7795      7793      7796      7796      7797
      7796      7798      7796      7799      7799      7800      7799      7801
      7801      7802      7801      7803      7801      7804      7799      7805
      7805      7806      7805      7807      7805      7808     21355     21356
     21355     21360     21355     21364     21356     21357     21356     21358
     21356     21359     21360     21361     21360     21362     21360     21363
     21364     21365     21364     21366     21364     21367     21355     21368
     21368     21369     21368     21370     21368     21371     21371     21372
     21371     21373     21371     21377     21378     21379     21377     21374
     21374     21378     21374     21375     21374     21376     21379     21380
     21379     21381     21379     21382     21382     21383     21382     21390
     21382     21384     21390     21391     21390     21392     21390     21393
     21384     21385     21385     21387     21385     21386     21387     21388
     21387     21389     21387     21399     21399     21400     21399     21401
     21399     21402     21402     21403     21402     21404     21402     21405
     21405     21406     21405     21407     21405     21408     21408     21409
     21408     21410     21408     21411     21411     21412     21411     21413
     21411     21414     21414     21415     21414     21416     21414     21417
     21417     21418     21417     21419     21419     21420     21419     21421
     21421     21422     21421     21423     21421     21424     21424     21425
     21424     21426     21426     21427     21426     21428     21428     21429
     21428     21430     21428     21431     21431     21432     21431     21433
     21431     21434     21434     21435     21434     21436     21434     21437
     21437     21438     21437     21439     21437     21440     21440     21441
     21440     21442     21440     21443     21393     21394     21394     21396
     21394     21395     21396     21397     21396     21398     21396     21444
     21444     21445     21444     21446     21444     21447     21447     21448
     21447     21449     21447     21450     21450     21451     21450     21452
     21450     21453     21453     21454     21453     21455     21453     21456
     21456     21457     21456     21458     21456     21459     21459     21460
     21459     21461     21459     21462     21462     21463     21462     21464
     21462     21465     21465     21466     21465     21467     21465     21468
     21468     21469     21468     21470     21468     21471     21471     21472
     21471     21473     21471     21474     21474     21475     21474     21476
     21474     21477     21477     21478     21477     21479     21477     21480
     21480     21481     21480     21482     21480     21483     21483     21484
     21483     21485     21483     21486     21486     21487     21486     21488
     21486     21489     21489     21490     21489     21491     21489     21492
      7809      7811      7809      7810      7811      7812      7809      7855
      7855      7856      7855      7857      7855      7852      7852      7853
      7852      7854      7809      7813      7813      7814      7813      7815
      7813      7816      7816      7847      7847      7852      7847      7848
      7848      7849      7848      7850      7848      7851      7816      7817
      7817      7818      7817      7819      7819      7820      7819      7821
      7819      7822      7822      7823      7822      7845      7845      7846
      7845      7847      7822      7824      7824      7825      7824      7834
      7834      7839      7839      7840      7839      7841      7839      7842
      7842      7843      7842      7844      7842      7845      7834      7835
      7835      7836      7835      7837      7835      7838      7824      7826
      7826      7827      7826      7828      7826      7829      7829      7830
      7829      7831      7829      7832      7832      7833      7832      7834
      7832      7858      7858      7859      7858      7860      7860      7861
      7860      7862      7860      7863      7858      7864      7864      7865
      7864      7866      7864      7867      7867      7868      7867      7869
      7867      7870      7870      7871      7870      7872      7870      7873
      7873      7874      7873      7875      7875      7876      7875      7877
      7875      7878      7873      7879      7879      7880      7879      7881
      7879      7882     12149     12150     12149     12151     12149     12152
     12149     12146     12146     12147     12146     12148     12146     12143
     12143     12144     12143     12145     12143     12140     12140     12141
     12140     12142     12140     12137     12137     12138     12137     12139
     12137     12134     12134     12135     12134     12136     12134     12131
     12131     12132     12131     12133     12131     12128     12128     12129
     12128     12130     12128     12125     12125     12126     12125     12127
     12125     12122     12122     12123     12122     12124     12122     12119
     12119     12120     12119     12121     12119     12116     12116     12117
     12116     12118     12116     12113     12113     12114     12113     12115
     12113     12111     12111     12112     12109     12110     12109     12105
     12105     12106     12105     12107     12107     12108     12105     12103
     12103     12104     12103     12098     12098     12099     12098     12100
     12098     12096     12096     12093     12097     12093     12094     12093
     12095     12093     12097     12090     12090     12091     12090     12092
     12090     12087     12087     12088     12087     12089     12087     12074
     12074     12083     12074     12079     12074     12075     12083     12084
     12083     12085     12083     12086     12079     12080     12079     12081
     12079     12082     12075     12076     12075     12077     12075     12078
     12103     12101     12101     12102     12101     12153     12153     12155
     12155     12156     12155     12157     12155     12158     12158     12159
     12158     12160     12158     12161     12161     12162     12161     12163
     12161     12164     12164     12165     12164     12166     12164     12167
     12167     12168     12167     12169     12167     12170     12170     12171
     12170     12172     12170     12173     12173     12174     12173     12175
     12173     12176     12176     12177     12178     12179     12178     12180
     12180     12181     12180     12182     12180     12183     12183     12184
     12183     12185     12183     12186     12186     12187     12186     12188
     12186     12189     12189     12190     12189     12191     12189     12192
     12192     12193     12192     12194     12192     12195     12195     12196
     12195     12197     12195     12198     12198     12199     12198     12200
     12198     12201     12201     12202     12201     12203     12201     12204
     12109     12111     12176     12178     12153     12154     12280     12281
     12280     12282     12280     12283     12280     12277     12277     12278
     12277     12279     12277     12274     12274     12275     12274     12276
     12274     12271     12271     12272     12271     12273     12271     12268
     12268     12269     12268     12270     12268     12265     12265     12266
     12265     12267     12265     12262     12262     12263     12262     12264
     12262     12259     12259     12260     12259     12261     12259     12256
     12256     12257     12256     12258     12256     12253     12253     12254
     12253     12255     12253     12250     12250     12251     12250     12252
     12250     12247     12247     12248     12247     12249     12247     12244
     12244     12245     12244     12246     12244     12242     12242     12243
     12240     12241     12240     12236     12236     12237     12236     12238
     12238     12239     12236     12234     12234     12235     12234     12229
     12229     12230     12229     12231     12229     12227     12227     12224
     12228     12224     12225     12224     12226     12224     12228     12221
     12221     12222     12221     12223     12221     12218     12218     12219
     12218     12220     12218     12205     12205     12214     12205     12210
     12205     12206     12214     12215     12214     12216     12214     12217
     12210     12211     12210     12212     12210     12213     12206     12207
     12206     12208     12206     12209     12234     12232     12232     12233
     12232     12284     12284     12286     12286     12287     12286     12288
     12286     12289     12289     12290     12289     12291     12289     12292
     12292     12293     12292     12294     12292     12295     12295     12296
     12295     12297     12295     12298     12298     12299     12298     12300
     12298     12301     12301     12302     12301     12303     12301     12304
     12304     12305     12304     12306     12304     12307     12307     12308
     12309     12310     12309     12311     12311     12312     12311     12313
     12311     12314     12314     12315     12314     12316     12314     12317
     12317     12318     12317     12319     12317     12320     12320     12321
     12320     12322     12320     12323     12323     12324     12323     12325
     12323     12326     12326     12327     12326     12328     12326     12329
     12329     12330     12329     12331     12329     12332     12332     12333
     12332     12334     12332     12335     12240     12242     12307     12309
     12284     12285     12411     12412     12411     12413     12411     12414
     12411     12408     12408     12409     12408     12410     12408     12405
     12405     12406     12405     12407     12405     12402     12402     12403
     12402     12404     12402     12399     12399     12400     12399     12401
     12399     12396     12396     12397     12396     12398     12396     12393
     12393     12394     12393     12395     12393     12390     12390     12391
     12390     12392     12390     12387     12387     12388     12387     12389
     12387     12384     12384     12385     12384     12386     12384     12381
     12381     12382     12381     12383     12381     12378     12378     12379
     12378     12380     12378     12375     12375     12376     12375     12377
     12375     12373     12373     12374     12371     12372     12371     12367
     12367     12368     12367     12369     12369     12370     12367     12365
     12365     12366     12365     12360     12360     12361     12360     12362
     12360     12358     12358     12355     12359     12355     12356     12355
     12357     12355     12359     12352     12352     12353     12352     12354
     12352     12349     12349     12350     12349     12351     12349     12336
     12336     12345     12336     12341     12336     12337     12345     12346
     12345     12347     12345     12348     12341     12342     12341     12343
     12341     12344     12337     12338     12337     12339     12337     12340
     12365     12363     12363     12364     12363     12415     12415     12417
     12417     12418     12417     12419     12417     12420     12420     12421
     12420     12422     12420     12423     12423     12424     12423     12425
     12423     12426     12426     12427     12426     12428     12426     12429
     12429     12430     12429     12431     12429     12432     12432     12433
     12432     12434     12432     12435     12435     12436     12435     12437
     12435     12438     12438     12439     12440     12441     12440     12442
     12442     12443     12442     12444     12442     12445     12445     12446
     12445     12447     12445     12448     12448     12449     12448     12450
     12448     12451     12451     12452     12451     12453     12451     12454
     12454     12455     12454     12456     12454     12457     12457     12458
     12457     12459     12457     12460     12460     12461     12460     12462
     12460     12463     12463     12464     12463     12465     12463     12466
     12371     12373     12438     12440     12415     12416     12542     12543
     12542     12544     12542     12545     12542     12539     12539     12540
     12539     12541     12539     12536     12536     12537     12536     12538
     12536     12533     12533     12534     12533     12535     12533     12530
     12530     12531     12530     12532     12530     12527     12527     12528
     12527     12529     12527     12524     12524     12525     12524     12526
     12524     12521     12521     12522     12521     12523     12521     12518
     12518     12519     12518     12520     12518     12515     12515     12516
     12515     12517     12515     12512     12512     12513     12512     12514
     12512     12509     12509     12510     12509     12511     12509     12506
     12506     12507     12506     12508     12506     12504     12504     12505
     12502     12503     12502     12498     12498     12499     12498     12500
     12500     12501     12498     12496     12496     12497     12496     12491
     12491     12492     12491     12493     12491     12489     12489     12486
     12490     12486     12487     12486     12488     12486     12490     12483
     12483     12484     12483     12485     12483     12480     12480     12481
     12480     12482     12480     12467     12467     12476     12467     12472
     12467     12468     12476     12477     12476     12478     12476     12479
     12472     12473     12472     12474     12472     12475     12468     12469
     12468     12470     12468     12471     12496     12494     12494     12495
     12494     12546     12546     12548     12548     12549     12548     12550
     12548     12551     12551     12552     12551     12553     12551     12554
     12554     12555     12554     12556     12554     12557     12557     12558
     12557     12559     12557     12560     12560     12561     12560     12562
     12560     12563     12563     12564     12563     12565     12563     12566
     12566     12567     12566     12568     12566     12569     12569     12570
     12571     12572     12571     12573     12573     12574     12573     12575
     12573     12576     12576     12577     12576     12578     12576     12579
     12579     12580     12579     12581     12579     12582     12582     12583
     12582     12584     12582     12585     12585     12586     12585     12587
     12585     12588     12588     12589     12588     12590     12588     12591
     12591     12592     12591     12593     12591     12594     12594     12595
     12594     12596     12594     12597     12502     12504     12569     12571
     12546     12547     12673     12674     12673     12675     12673     12676
     12673     12670     12670     12671     12670     12672     12670     12667
     12667     12668     12667     12669     12667     12664     12664     12665
     12664     12666     12664     12661     12661     12662     12661     12663
     12661     12658     12658     12659     12658     12660     12658     12655
     12655     12656     12655     12657     12655     12652     12652     12653
     12652     12654     12652     12649     12649     12650     12649     12651
     12649     12646     12646     12647     12646     12648     12646     12643
     12643     12644     12643     12645     12643     12640     12640     12641
     12640     12642     12640     12637     12637     12638     12637     12639
     12637     12635     12635     12636     12633     12634     12633     12629
     12629     12630     12629     12631     12631     12632     12629     12627
     12627     12628     12627     12622     12622     12623     12622     12624
     12622     12620     12620     12617     12621     12617     12618     12617
     12619     12617     12621     12614     12614     12615     12614     12616
     12614     12611     12611     12612     12611     12613     12611     12598
     12598     12607     12598     12603     12598     12599     12607     12608
     12607     12609     12607     12610     12603     12604     12603     12605
     12603     12606     12599     12600     12599     12601     12599     12602
     12627     12625     12625     12626     12625     12677     12677     12679
     12679     12680     12679     12681     12679     12682     12682     12683
     12682     12684     12682     12685     12685     12686     12685     12687
     12685     12688     12688     12689     12688     12690     12688     12691
     12691     12692     12691     12693     12691     12694     12694     12695
     12694     12696     12694     12697     12697     12698     12697     12699
     12697     12700     12700     12701     12702     12703     12702     12704
     12704     12705     12704     12706     12704     12707     12707     12708
     12707     12709     12707     12710     12710     12711     12710     12712
     12710     12713     12713     12714     12713     12715     12713     12716
     12716     12717     12716     12718     12716     12719     12719     12720
     12719     12721     12719     12722     12722     12723     12722     12724
     12722     12725     12725     12726     12725     12727     12725     12728
     12633     12635     12700     12702     12677     12678      3389      3393
      3389      3397      3389      3401      3393      3394      3393      3395
      3393      3396      3397      3398      3397      3399      3397      3400
      3401      3402      3401      3403      3401      3404      3389      3390
      3390      3391      3390      3392      3390      3405      3405      3406
      3405      3407      3405      3411      3412      3413      3411      3408
      3408      3412      3408      3409      3408      3410      3413      3414
      3413      3415      3413      3416      3416      3417      3416      3424
      3416      3418      3424      3425      3424      3426      3424      3427
      3418      3419      3419      3421      3419      3420      3421      3422
      3421      3423      3421      3433      3433      3434      3433      3435
      3433      3436      3436      3437      3436      3438      3436      3439
      3439      3440      3439      3441      3441      3442      3441      3443
      3443      3444      3443      3445      3443      3446      3446      3447
      3446      3448      3448      3449      3448      3450      3450      3451
      3450      3452      3450      3453      3453      3454      3453      3455
      3455      3456      3455      3457      3457      3458      3457      3459
      3457      3460      3460      3461      3460      3462      3462      3463
      3462      3464      3464      3465      3464      3466      3464      3467
      3467      3468      3467      3469      3467      3470      3470      3471
      3470      3472      3470      3473      3473      3474      3473      3475
      3473      3476      3476      3477      3476      3478      3476      3479
      3427      3428      3428      3430      3428      3429      3430      3431
      3430      3432      3430      3480      3480      3481      3480      3482
      3480      3483      3483      3484      3483      3485      3483      3486
      3486      3487      3486      3488      3486      3489      3489      3490
      3489      3491      3489      3492      3492      3493      3492      3494
      3492      3495      3495      3496      3495      3497      3495      3498
      3498      3499      3498      3500      3498      3501      3501      3502
      3501      3503      3501      3504      3504      3505      3504      3506
      3504      3507      3507      3508      3507      3509      3507      3510
      3510      3511      3510      3512      3510      3513      3513      3514
      3513      3515      3513      3516      3516      3517      3516      3518
      3516      3519      3519      3520      3519      3521      3519      3522
      3522      3523      3522      3524      3522      3525      3525      3526
      3525      3527      3525      3528      7883      7885      7883      7884
      7885      7886      7883      7929      7929      7930      7929      7931
      7929      7926      7926      7927      7926      7928      7883      7887
      7887      7888      7887      7889      7887      7890      7890      7921
      7921      7926      7921      7922      7922      7923      7922      7924
      7922      7925      7890      7891      7891      7892      7891      7893
      7893      7894      7893      7895      7893      7896      7896      7897
      7896      7919      7919      7920      7919      7921      7896      7898
      7898      7899      7898      7908      7908      7913      7913      7914
      7913      7915      7913      7916      7916      7917      7916      7918
      7916      7919      7908      7909      7909      7910      7909      7911
      7909      7912      7898      7900      7900      7901      7900      7902
      7900      7903      7903      7904      7903      7905      7903      7906
      7906      7907      7906      7908      7906      7932      7932      7933
      7932      7934      7934      7935      7934      7936      7934      7937
      7932      7938      7938      7939      7938      7940      7938      7941
      7941      7942      7941      7943      7941      7944      7944      7945
      7944      7946      7944      7947      7947      7948      7947      7949
      7949      7950      7949      7951      7949      7952      7947      7953
      7953      7954      7953      7955      7953      7956     16659     16660
     16659     16661     16659     16662     16659     16663     16663     16664
     16663     16665     16663     16666     16666     16667     16666     16668
     16666     16672     16674     16673     16672     16669     16669     16673
     16669     16670     16669     16671     16674     16675     16674     16676
     16674     16677     16677     16678     16677     16685     16677     16679
     16685     16686     16685     16687     16685     16688     16679     16680
     16680     16682     16680     16681     16682     16683     16682     16684
     16682     16694     16694     16695     16694     16696     16694     16697
     16697     16698     16697     16699     16697     16700     16700     16701
     16700     16702     16702     16703     16702     16704     16704     16705
     16704     16706     16704     16707     16707     16708     16707     16709
     16709     16710     16709     16711     16711     16712     16711     16713
     16711     16714     16714     16715     16714     16716     16716     16717
     16716     16718     16718     16719     16718     16720     16718     16721
     16721     16722     16721     16723     16723     16724     16723     16725
     16725     16726     16725     16727     16725     16728     16728     16729
     16728     16730     16728     16731     16731     16732     16731     16733
     16731     16734     16734     16735     16734     16736     16734     16737
     16737     16738     16737     16739     16737     16740     16688     16689
     16689     16691     16689     16690     16691     16692     16691     16693
     16691     16741     16741     16742     16741     16743     16741     16744
     16744     16745     16744     16746     16744     16747     16747     16748
     16747     16749     16747     16750     16750     16751     16750     16752
     16750     16753     16753     16754     16753     16755     16753     16756
     16756     16757     16756     16758     16756     16759     16759     16760
     16759     16761     16759     16762     16762     16763     16762     16764
     16762     16765     16765     16766     16765     16767     16765     16768
     16768     16769     16768     16770     16768     16771     16771     16772
     16771     16773     16771     16774     16774     16775     16774     16776
     16774     16777     16777     16778     16777     16779     16777     16780
     16780     16781     16780     16782     16780     16783     16783     16784
     16783     16785     16783     16786     16786     16787     16786     16788
     16786     16789     21493     21494     21493     21498     21493     21502
     21494     21495     21494     21496     21494     21497     21498     21499
     21498     21500     21498     21501     21502     21503     21502     21504
     21502     21505     21493     21506     21506     21507     21506     21508
     21506     21509     21509     21510     21509     21511     21509     21515
     21516     21517     21515     21512     21512     21516     21512     21513
     21512     21514     21517     21518     21517     21519     21517     21520
     21520     21521     21520     21528     21520     21522     21528     21529
     21528     21530     21528     21531     21522     21523     21523     21525
     21523     21524     21525     21526     21525     21527     21525     21537
     21537     21538     21537     21539     21537     21540     21540     21541
     21540     21542     21540     21543     21543     21544     21543     21545
     21543     21546     21546     21547     21546     21548     21546     21549
     21549     21550     21549     21551     21549     21552     21552     21553
     21552     21554     21552     21555     21555     21556     21555     21557
     21557     21558     21557     21559     21559     21560     21559     21561
     21559     21562     21562     21563     21562     21564     21564     21565
     21564     21566     21566     21567     21566     21568     21566     21569
     21569     21570     21569     21571     21569     21572     21572     21573
     21572     21574     21572     21575     21575     21576     21575     21577
     21575     21578     21578     21579     21578     21580     21578     21581
     21531     21532     21532     21534     21532     21533     21534     21535
     21534     21536     21534     21582     21582     21583     21582     21584
     21582     21585     21585     21586     21585     21587     21585     21588
     21588     21589     21588     21590     21588     21591     21591     21592
     21591     21593     21591     21594     21594     21595     21594     21596
     21594     21597     21597     21598     21597     21599     21597     21600
     21600     21601     21600     21602     21600     21603     21603     21604
     21603     21605     21603     21606     21606     21607     21606     21608
     21606     21609     21609     21610     21609     21611     21609     21612
     21612     21613     21612     21614     21612     21615     21615     21616
     21615     21617     21615     21618     21618     21619     21618     21620
     21618     21621     21621     21622     21621     21623     21621     21624
     21624     21625     21624     21626     21624     21627     21627     21628
     21627     21629     21627     21630     19847     19848     19847     19843
     19847     19827     19847     19852     19827     19828     19827     19829
     19829     19830     19827     19831     19831     19832     19831     19833
     19833     19834     19831     19835     19835     19836     19835     19837
     19837     19838     19835     19839     19839     19840     19839     19843
     19843     19844     19843     19845     19845     19846     19839     19841
     19841     19842     19852     19849     19849     19853     19849     19850
     19849     19851     19853     19854     19854     19855     19854     19856
     19854     19857     19857     19858     19857     19865     19857     19859
     19865     19866     19865     19867     19865     19868     19859     19860
     19860     19862     19860     19861     19862     19863     19862     19864
     19862     19874     19874     19875     19874     19876     19874     19877
     19877     19878     19877     19879     19877     19880     19880     19881
     19880     19882     19882     19883     19882     19884     19884     19885
     19884     19886     19884     19887     19887     19888     19887     19889
     19889     19890     19889     19891     19891     19892     19891     19893
     19891     19894     19894     19895     19894     19896     19896     19897
     19896     19898     19898     19899     19898     19900     19898     19901
     19901     19902     19901     19903     19903     19904     19903     19905
     19905     19906     19905     19907     19905     19908     19908     19909
     19908     19910     19908     19911     19911     19912     19911     19913
     19911     19914     19914     19915     19914     19916     19914     19917
     19917     19918     19917     19919     19917     19920     19868     19869
     19869     19871     19869     19870     19871     19872     19871     19873
     19871     19921     19921     19922     19921     19923     19921     19924
     19924     19925     19924     19926     19924     19927     19927     19928
     19927     19929     19927     19930     19930     19931     19930     19932
     19930     19933     19933     19934     19933     19935     19933     19936
     19936     19937     19936     19938     19936     19939     19939     19940
     19939     19941     19939     19942     19942     19943     19942     19944
     19942     19945     19945     19946     19945     19947     19945     19948
     19948     19949     19948     19950     19948     19951     19951     19952
     19951     19953     19951     19954     19954     19955     19954     19956
     19954     19957     19957     19958     19957     19959     19957     19960
     19960     19961     19960     19962     19960     19963     19963     19964
     19963     19965     19963     19966     19966     19967     19966     19968
     19966     19969     16790     16791     16790     16792     16790     16793
     16790     16794     16794     16795     16794     16796     16794     16797
     16797     16798     16797     16799     16797     16803     16805     16804
     16803     16800     16800     16804     16800     16801     16800     16802
     16805     16806     16805     16807     16805     16808     16808     16809
     16808     16816     16808     16810     16816     16817     16816     16818
     16816     16819     16810     16811     16811     16813     16811     16812
     16813     16814     16813     16815     16813     16825     16825     16826
     16825     16827     16825     16828     16828     16829     16828     16830
     16828     16831     16831     16832     16831     16833     16833     16834
     16833     16835     16835     16836     16835     16837     16835     16838
     16838     16839     16838     16840     16840     16841     16840     16842
     16842     16843     16842     16844     16842     16845     16845     16846
     16845     16847     16847     16848     16847     16849     16849     16850
     16849     16851     16849     16852     16852     16853     16852     16854
     16854     16855     16854     16856     16856     16857     16856     16858
     16856     16859     16859     16860     16859     16861     16859     16862
     16862     16863     16862     16864     16862     16865     16865     16866
     16865     16867     16865     16868     16868     16869     16868     16870
     16868     16871     16819     16820     16820     16822     16820     16821
     16822     16823     16822     16824     16822     16872     16872     16873
     16872     16874     16872     16875     16875     16876     16875     16877
     16875     16878     16878     16879     16878     16880     16878     16881
     16881     16882     16881     16883     16881     16884     16884     16885
     16884     16886     16884     16887     16887     16888     16887     16889
     16887     16890     16890     16891     16890     16892     16890     16893
     16893     16894     16893     16895     16893     16896     16896     16897
     16896     16898     16896     16899     16899     16900     16899     16901
     16899     16902     16902     16903     16902     16904     16902     16905
     16905     16906     16905     16907     16905     16908     16908     16909
     16908     16910     16908     16911     16911     16912     16911     16913
     16911     16914     16914     16915     16914     16916     16914     16917
     16917     16918     16917     16919     16917     16920     21631     21632
     21631     21636     21631     21640     21632     21633     21632     21634
     21632     21635     21636     21637     21636     21638     21636     21639
     21640     21641     21640     21642     21640     21643     21631     21644
     21644     21645     21644     21646     21644     21647     21647     21648
     21647     21649     21647     21653     21654     21655     21653     21650
     21650     21654     21650     21651     21650     21652     21655     21656
     21655     21657     21655     21658     21658     21659     21658     21666
     21658     21660     21666     21667     21666     21668     21666     21669
     21660     21661     21661     21663     21661     21662     21663     21664
     21663     21665     21663     21675     21675     21676     21675     21677
     21675     21678     21678     21679     21678     21680     21678     21681
     21681     21682     21681     21683     21681     21684     21684     21685
     21684     21686     21684     21687     21687     21688     21687     21689
     21687     21690     21690     21691     21690     21692     21690     21693
     21693     21694     21693     21695     21695     21696     21695     21697
     21697     21698     21697     21699     21697     21700     21700     21701
     21700     21702     21702     21703     21702     21704     21704     21705
     21704     21706     21704     21707     21707     21708     21707     21709
     21707     21710     21710     21711     21710     21712     21710     21713
     21713     21714     21713     21715     21713     21716     21716     21717
     21716     21718     21716     21719     21669     21670     21670     21672
     21670     21671     21672     21673     21672     21674     21672     21720
     21720     21721     21720     21722     21720     21723     21723     21724
     21723     21725     21723     21726     21726     21727     21726     21728
     21726     21729     21729     21730     21729     21731     21729     21732
     21732     21733     21732     21734     21732     21735     21735     21736
     21735     21737     21735     21738     21738     21739     21738     21740
     21738     21741     21741     21742     21741     21743     21741     21744
     21744     21745     21744     21746     21744     21747     21747     21748
     21747     21749     21747     21750     21750     21751     21750     21752
     21750     21753     21753     21754     21753     21755     21753     21756
     21756     21757     21756     21758     21756     21759     21759     21760
     21759     21761     21759     21762     21762     21763     21762     21764
     21762     21765     21765     21766     21765     21767     21765     21768
     12804     12805     12804     12806     12804     12807     12804     12801
     12801     12802     12801     12803     12801     12798     12798     12799
     12798     12800     12798     12795     12795     12796     12795     12797
     12795     12792     12792     12793     12792     12794     12792     12789
     12789     12790     12789     12791     12789     12786     12786     12787
     12786     12788     12786     12783     12783     12784     12783     12785
     12783     12780     12780     12781     12780     12782     12780     12777
     12777     12778     12777     12779     12777     12774     12774     12775
     12774     12776     12774     12771     12771     12772     12771     12773
     12771     12768     12768     12769     12768     12770     12768     12766
     12766     12767     12764     12765     12764     12760     12760     12761
     12760     12762     12762     12763     12760     12758     12758     12759
     12758     12753     12753     12754     12753     12755     12753     12751
     12751     12748     12752     12748     12749     12748     12750     12748
     12752     12745     12745     12746     12745     12747     12745     12742
     12742     12743     12742     12744     12742     12729     12729     12738
     12729     12734     12729     12730     12738     12739     12738     12740
     12738     12741     12734     12735     12734     12736     12734     12737
     12730     12731     12730     12732     12730     12733     12758     12756
     12756     12757     12756     12808     12808     12810     12810     12811
     12810     12812     12810     12813     12813     12814     12813     12815
     12813     12816     12816     12817     12816     12818     12816     12819
     12819     12820     12819     12821     12819     12822     12822     12823
     12822     12824     12822     12825     12825     12826     12825     12827
     12825     12828     12828     12829     12828     12830     12828     12831
     12831     12832     12833     12834     12833     12835     12835     12836
     12835     12837     12835     12838     12838     12839     12838     12840
     12838     12841     12841     12842     12841     12843     12841     12844
     12844     12845     12844     12846     12844     12847     12847     12848
     12847     12849     12847     12850     12850     12851     12850     12852
     12850     12853     12853     12854     12853     12855     12853     12856
     12856     12857     12856     12858     12856     12859     12764     12766
     12831     12833     12808     12809     12935     12936     12935     12937
     12935     12938     12935     12932     12932     12933     12932     12934
     12932     12929     12929     12930     12929     12931     12929     12926
     12926     12927     12926     12928     12926     12923     12923     12924
     12923     12925     12923     12920     12920     12921     12920     12922
     12920     12917     12917     12918     12917     12919     12917     12914
     12914     12915     12914     12916     12914     12911     12911     12912
     12911     12913     12911     12908     12908     12909     12908     12910
     12908     12905     12905     12906     12905     12907     12905     12902
     12902     12903     12902     12904     12902     12899     12899     12900
     12899     12901     12899     12897     12897     12898     12895     12896
     12895     12891     12891     12892     12891     12893     12893     12894
     12891     12889     12889     12890     12889     12884     12884     12885
     12884     12886     12884     12882     12882     12879     12883     12879
     12880     12879     12881     12879     12883     12876     12876     12877
     12876     12878     12876     12873     12873     12874     12873     12875
     12873     12860     12860     12869     12860     12865     12860     12861
     12869     12870     12869     12871     12869     12872     12865     12866
     12865     12867     12865     12868     12861     12862     12861     12863
     12861     12864     12889     12887     12887     12888     12887     12939
     12939     12941     12941     12942     12941     12943     12941     12944
     12944     12945     12944     12946     12944     12947     12947     12948
     12947     12949     12947     12950     12950     12951     12950     12952
     12950     12953     12953     12954     12953     12955     12953     12956
     12956     12957     12956     12958     12956     12959     12959     12960
     12959     12961     12959     12962     12962     12963     12964     12965
     12964     12966     12966     12967     12966     12968     12966     12969
     12969     12970     12969     12971     12969     12972     12972     12973
     12972     12974     12972     12975     12975     12976     12975     12977
     12975     12978     12978     12979     12978     12980     12978     12981
     12981     12982     12981     12983     12981     12984     12984     12985
     12984     12986     12984     12987     12987     12988     12987     12989
     12987     12990     12895     12897     12962     12964     12939     12940
     13066     13067     13066     13068     13066     13069     13066     13063
     13063     13064     13063     13065     13063     13060     13060     13061
     13060     13062     13060     13057     13057     13058     13057     13059
     13057     13054     13054     13055     13054     13056     13054     13051
     13051     13052     13051     13053     13051     13048     13048     13049
     13048     13050     13048     13045     13045     13046     13045     13047
     13045     13042     13042     13043     13042     13044     13042     13039
     13039     13040     13039     13041     13039     13036     13036     13037
     13036     13038     13036     13033     13033     13034     13033     13035
     13033     13030     13030     13031     13030     13032     13030     13028
     13028     13029     13026     13027     13026     13022     13022     13023
     13022     13024     13024     13025     13022     13020     13020     13021
     13020     13015     13015     13016     13015     13017     13015     13013
     13013     13010     13014     13010     13011     13010     13012     13010
     13014     13007     13007     13008     13007     13009     13007     13004
     13004     13005     13004     13006     13004     12991     12991     13000
     12991     12996     12991     12992     13000     13001     13000     13002
     13000     13003     12996     12997     12996     12998     12996     12999
     12992     12993     12992     12994     12992     12995     13020     13018
     13018     13019     13018     13070     13070     13072     13072     13073
     13072     13074     13072     13075     13075     13076     13075     13077
     13075     13078     13078     13079     13078     13080     13078     13081
     13081     13082     13081     13083     13081     13084     13084     13085
     13084     13086     13084     13087     13087     13088     13087     13089
     13087     13090     13090     13091     13090     13092     13090     13093
     13093     13094     13095     13096     13095     13097     13097     13098
     13097     13099     13097     13100     13100     13101     13100     13102
     13100     13103     13103     13104     13103     13105     13103     13106
     13106     13107     13106     13108     13106     13109     13109     13110
     13109     13111     13109     13112     13112     13113     13112     13114
     13112     13115     13115     13116     13115     13117     13115     13118
     13118     13119     13118     13120     13118     13121     13026     13028
     13093     13095     13070     13071      5039      5043      5039      5047
      5039      5051      5043      5044      5043      5045      5043      5046
      5047      5048      5047      5049      5047      5050      5051      5052
      5051      5053      5051      5054      5039      5040      5040      5041
      5040      5042      5040      5055      5055      5056      5055      5057
      5055      5061      5062      5063      5061      5058      5058      5062
      5058      5059      5058      5060      5063      5064      5063      5065
      5063      5066      5066      5067      5066      5074      5066      5068
      5074      5075      5074      5076      5074      5077      5068      5069
      5069      5071      5069      5070      5071      5072      5071      5073
      5071      5083      5083      5084      5083      5085      5083      5086
      5086      5087      5086      5088      5086      5089      5089      5090
      5089      5091      5089      5092      5092      5093      5092      5094
      5092      5095      5095      5096      5095      5097      5095      5098
      5098      5099      5098      5100      5098      5101      5101      5102
      5101      5103      5103      5104      5103      5105      5105      5106
      5105      5107      5105      5108      5108      5109      5108      5110
      5108      5111      5111      5112      5111      5113      5111      5114
      5114      5115      5114      5116      5114      5117      5117      5118
      5117      5119      5117      5120      5120      5121      5120      5122
      5120      5123      5123      5124      5123      5125      5123      5126
      5126      5127      5126      5128      5126      5129      5077      5078
      5078      5080      5078      5079      5080      5081      5080      5082
      5080      5130      5130      5131      5130      5132      5130      5133
      5133      5134      5133      5135      5133      5136      5136      5137
      5136      5138      5136      5139      5139      5140      5139      5141
      5139      5142      5142      5143      5142      5144      5142      5145
      5145      5146      5145      5147      5145      5148      5148      5149
      5148      5150      5148      5151      5151      5152      5151      5153
      5151      5154      5154      5155      5154      5156      5154      5157
      5157      5158      5157      5159      5157      5160      5160      5161
      5160      5162      5160      5163      5163      5164      5163      5165
      5163      5166      5166      5167      5166      5168      5166      5169
      5169      5170      5169      5171      5169      5172      1198      1199
      1198      1200      1198      1201      1198      1202      1206      1204
      1204      1202      1204      1205      1202      1203      1202      1207
      1215      1214      1207      1208      1207      1209      1207      1213
      1213      1210      1210      1214      1210      1211      1210      1212
      1215      1216      1215      1217      1215      1218      1218      1219
      1218      1226      1218      1220      1226      1227      1226      1228
      1226      1229      1220      1221      1221      1223      1221      1222
      1223      1224      1223      1225      1223      1235      1235      1236
      1235      1237      1235      1238      1238      1239      1238      1240
      1238      1241      1241      1242      1241      1243      1243      1244
      1243      1245      1245      1246      1245      1247      1245      1248
      1248      1249      1248      1250      1250      1251      1250      1252
      1252      1253      1252      1254      1252      1255      1255      1256
      1255      1257      1257      1258      1257      1259      1259      1260
      1259      1261      1259      1262      1262      1263      1262      1264
      1264      1265      1264      1266      1266      1267      1266      1268
      1266      1269      1269      1270      1269      1271      1269      1272
      1272      1273      1272      1274      1272      1275      1275      1276
      1275      1277      1275      1278      1278      1279      1278      1280
      1278      1281      1229      1230      1230      1232      1230      1231
      1232      1233      1232      1234      1232      1282      1282      1283
      1282      1284      1282      1285      1285      1286      1285      1287
      1285      1288      1288      1289      1288      1290      1288      1291
      1291      1292      1291      1293      1291      1294      1294      1295
      1294      1296      1294      1297      1297      1298      1297      1299
      1297      1300      1300      1301      1300      1302      1300      1303
      1303      1304      1303      1305      1303      1306      1306      1307
      1306      1308      1306      1309      1309      1310      1309      1311
      1309      1312      1312      1313      1312      1314      1312      1315
      1315      1316      1315      1317      1315      1318      1318      1319
      1318      1320      1318      1321      1321      1322      1321      1323
      1321      1324      1324      1325      1324      1326      1324      1327
      1327      1328      1327      1329      1327      1330      7957      7959
      7957      7958      7959      7960      7957      8003      8003      8004
      8003      8005      8003      8000      8000      8001      8000      8002
      7957      7961      7961      7962      7961      7963      7961      7964
      7964      7995      7995      8000      7995      7996      7996      7997
      7996      7998      7996      7999      7964      7965      7965      7966
      7965      7967      7967      7968      7967      7969      7967      7970
      7970      7971      7970      7993      7993      7994      7993      7995
      7970      7972      7972      7973      7972      7982      7982      7987
      7987      7988      7987      7989      7987      7990      7990      7991
      7990      7992      7990      7993      7982      7983      7983      7984
      7983      7985      7983      7986      7972      7974      7974      7975
      7974      7976      7974      7977      7977      7978      7977      7979
      7977      7980      7980      7981      7980      7982      7980      8006
      8006      8007      8006      8008      8008      8009      8008      8010
      8008      8011      8006      8012      8012      8013      8012      8014
      8012      8015      8015      8016      8015      8017      8015      8018
      8018      8019      8018      8020      8018      8021      8021      8022
      8021      8023      8023      8024      8023      8025      8023      8026
      8021      8027      8027      8028      8027      8029      8027      8030
     16921     16922     16921     16923     16921     16924     16921     16925
     16925     16926     16925     16927     16925     16928     16928     16929
     16928     16930     16928     16934     16936     16935     16934     16931
     16931     16935     16931     16932     16931     16933     16936     16937
     16936     16938     16936     16939     16939     16940     16939     16947
     16939     16941     16947     16948     16947     16949     16947     16950
     16941     16942     16942     16944     16942     16943     16944     16945
     16944     16946     16944     16956     16956     16957     16956     16958
     16956     16959     16959     16960     16959     16961     16959     16962
     16962     16963     16962     16964     16964     16965     16964     16966
     16966     16967     16966     16968     16966     16969     16969     16970
     16969     16971     16971     16972     16971     16973     16973     16974
     16973     16975     16973     16976     16976     16977     16976     16978
     16978     16979     16978     16980     16980     16981     16980     16982
     16980     16983     16983     16984     16983     16985     16985     16986
     16985     16987     16987     16988     16987     16989     16987     16990
     16990     16991     16990     16992     16990     16993     16993     16994
     16993     16995     16993     16996     16996     16997     16996     16998
     16996     16999     16999     17000     16999     17001     16999     17002
     16950     16951     16951     16953     16951     16952     16953     16954
     16953     16955     16953     17003     17003     17004     17003     17005
     17003     17006     17006     17007     17006     17008     17006     17009
     17009     17010     17009     17011     17009     17012     17012     17013
     17012     17014     17012     17015     17015     17016     17015     17017
     17015     17018     17018     17019     17018     17020     17018     17021
     17021     17022     17021     17023     17021     17024     17024     17025
     17024     17026     17024     17027     17027     17028     17027     17029
     17027     17030     17030     17031     17030     17032     17030     17033
     17033     17034     17033     17035     17033     17036     17036     17037
     17036     17038     17036     17039     17039     17040     17039     17041
     17039     17042     17042     17043     17042     17044     17042     17045
     17045     17046     17045     17047     17045     17048     17048     17049
     17048     17050     17048     17051      5173      5177      5173      5181
      5173      5185      5177      5178      5177      5179      5177      5180
      5181      5182      5181      5183      5181      5184      5185      5186
      5185      5187      5185      5188      5173      5174      5174      5175
      5174      5176      5174      5189      5189      5190      5189      5191
      5189      5195      5196      5197      5195      5192      5192      5196
      5192      5193      5192      5194      5197      5198      5197      5199
      5197      5200      5200      5201      5200      5208      5200      5202
      5208      5209      5208      5210      5208      5211      5202      5203
      5203      5205      5203      5204      5205      5206      5205      5207
      5205      5217      5217      5218      5217      5219      5217      5220
      5220      5221      5220      5222      5220      5223      5223      5224
      5223      5225      5223      5226      5226      5227      5226      5228
      5226      5229      5229      5230      5229      5231      5229      5232
      5232      5233      5232      5234      5232      5235      5235      5236
      5235      5237      5237      5238      5237      5239      5239      5240
      5239      5241      5239      5242      5242      5243      5242      5244
      5242      5245      5245      5246      5245      5247      5245      5248
      5248      5249      5248      5250      5248      5251      5251      5252
      5251      5253      5251      5254      5254      5255      5254      5256
      5254      5257      5257      5258      5257      5259      5257      5260
      5260      5261      5260      5262      5260      5263      5211      5212
      5212      5214      5212      5213      5214      5215      5214      5216
      5214      5264      5264      5265      5264      5266      5264      5267
      5267      5268      5267      5269      5267      5270      5270      5271
      5270      5272      5270      5273      5273      5274      5273      5275
      5273      5276      5276      5277      5276      5278      5276      5279
      5279      5280      5279      5281      5279      5282      5282      5283
      5282      5284      5282      5285      5285      5286      5285      5287
      5285      5288      5288      5289      5288      5290      5288      5291
      5291      5292      5291      5293      5291      5294      5294      5295
      5294      5296      5294      5297      5297      5298      5297      5299
      5297      5300      5300      5301      5300      5302      5300      5303
      5303      5304      5303      5305      5303      5306      8031      8033
      8031      8032      8033      8034      8031      8077      8077      8078
      8077      8079      8077      8074      8074      8075      8074      8076
      8031      8035      8035      8036      8035      8037      8035      8038
      8038      8069      8069      8074      8069      8070      8070      8071
      8070      8072      8070      8073      8038      8039      8039      8040
      8039      8041      8041      8042      8041      8043      8041      8044
      8044      8045      8044      8067      8067      8068      8067      8069
      8044      8046      8046      8047      8046      8056      8056      8061
      8061      8062      8061      8063      8061      8064      8064      8065
      8064      8066      8064      8067      8056      8057      8057      8058
      8057      8059      8057      8060      8046      8048      8048      8049
      8048      8050      8048      8051      8051      8052      8051      8053
      8051      8054      8054      8055      8054      8056      8054      8080
      8080      8081      8080      8082      8082      8083      8082      8084
      8082      8085      8080      8086      8086      8087      8086      8088
      8086      8089      8089      8090      8089      8091      8089      8092
      8092      8093      8092      8094      8092      8095      8095      8096
      8095      8097      8097      8098      8097      8099      8097      8100
      8095      8101      8101      8102      8101      8103      8101      8104
      8105      8107      8105      8106      8107      8108      8105      8151
      8151      8152      8151      8153      8151      8148      8148      8149
      8148      8150      8105      8109      8109      8110      8109      8111
      8109      8112      8112      8143      8143      8148      8143      8144
      8144      8145      8144      8146      8144      8147      8112      8113
      8113      8114      8113      8115      8115      8116      8115      8117
      8115      8118      8118      8119      8118      8141      8141      8142
      8141      8143      8118      8120      8120      8121      8120      8130
      8130      8135      8135      8136      8135      8137      8135      8138
      8138      8139      8138      8140      8138      8141      8130      8131
      8131      8132      8131      8133      8131      8134      8120      8122
      8122      8123      8122      8124      8122      8125      8125      8126
      8125      8127      8125      8128      8128      8129      8128      8130
      8128      8154      8154      8155      8154      8156      8156      8157
      8156      8158      8156      8159      8154      8160      8160      8161
      8160      8162      8160      8163      8163      8164      8163      8165
      8163      8166      8166      8167      8166      8168      8166      8169
      8169      8170      8169      8171      8171      8172      8171      8173
      8171      8174      8169      8175      8175      8176      8175      8177
      8175      8178      8179      8181      8179      8180      8181      8182
      8179      8225      8225      8226      8225      8227      8225      8222
      8222      8223      8222      8224      8179      8183      8183      8184
      8183      8185      8183      8186      8186      8217      8217      8222
      8217      8218      8218      8219      8218      8220      8218      8221
      8186      8187      8187      8188      8187      8189      8189      8190
      8189      8191      8189      8192      8192      8193      8192      8215
      8215      8216      8215      8217      8192      8194      8194      8195
      8194      8204      8204      8209      8209      8210      8209      8211
      8209      8212      8212      8213      8212      8214      8212      8215
      8204      8205      8205      8206      8205      8207      8205      8208
      8194      8196      8196      8197      8196      8198      8196      8199
      8199      8200      8199      8201      8199      8202      8202      8203
      8202      8204      8202      8228      8228      8229      8228      8230
      8230      8231      8230      8232      8230      8233      8228      8234
      8234      8235      8234      8236      8234      8237      8237      8238
      8237      8239      8237      8240      8240      8241      8240      8242
      8240      8243      8243      8244      8243      8245      8245      8246
      8245      8247      8245      8248      8243      8249      8249      8250
      8249      8251      8249      8252     18886     18887     18886     18888
     18886     18889     18886     18890     18890     18891     18890     18892
     18890     18893     18893     18894     18893     18895     18893     18899
     18901     18900     18899     18896     18896     18900     18896     18897
     18896     18898     18901     18902     18901     18903     18901     18904
     18904     18905     18904     18912     18904     18906     18912     18913
     18912     18914     18912     18915     18906     18907     18907     18909
     18907     18908     18909     18910     18909     18911     18909     18921
     18921     18922     18921     18923     18921     18924     18924     18925
     18924     18926     18924     18927     18927     18928     18927     18929
     18927     18930     18930     18931     18930     18932     18930     18933
     18933     18934     18933     18935     18933     18936     18936     18937
     18936     18938     18936     18939     18939     18940     18939     18941
     18941     18942     18941     18943     18943     18944     18943     18945
     18943     18946     18946     18947     18946     18948     18946     18949
     18949     18950     18949     18951     18949     18952     18952     18953
     18952     18954     18952     18955     18955     18956     18955     18957
     18955     18958     18958     18959     18958     18960     18958     18961
     18961     18962     18961     18963     18961     18964     18964     18965
     18964     18966     18964     18967     18915     18916     18916     18918
     18916     18917     18918     18919     18918     18920     18918     18968
     18968     18969     18968     18970     18968     18971     18971     18972
     18971     18973     18971     18974     18974     18975     18974     18976
     18974     18977     18977     18978     18977     18979     18977     18980
     18980     18981     18980     18982     18980     18983     18983     18984
     18983     18985     18983     18986     18986     18987     18986     18988
     18986     18989     18989     18990     18989     18991     18989     18992
     18992     18993     18992     18994     18992     18995     18995     18996
     18995     18997     18995     18998     18998     18999     18998     19000
     18998     19001     19001     19002     19001     19003     19001     19004
     19004     19005     19004     19006     19004     19007     19007     19008
     19007     19009     19007     19010     19010     19011     19010     19012
     19010     19013     19013     19014     19013     19015     19013     19016
     13197     13198     13197     13199     13197     13200     13197     13194
     13194     13195     13194     13196     13194     13191     13191     13192
     13191     13193     13191     13188     13188     13189     13188     13190
     13188     13185     13185     13186     13185     13187     13185     13182
     13182     13183     13182     13184     13182     13179     13179     13180
     13179     13181     13179     13176     13176     13177     13176     13178
     13176     13173     13173     13174     13173     13175     13173     13170
     13170     13171     13170     13172     13170     13167     13167     13168
     13167     13169     13167     13164     13164     13165     13164     13166
     13164     13161     13161     13162     13161     13163     13161     13159
     13159     13160     13157     13158     13157     13153     13153     13154
     13153     13155     13155     13156     13153     13151     13151     13152
     13151     13146     13146     13147     13146     13148     13146     13144
     13144     13141     13145     13141     13142     13141     13143     13141
     13145     13138     13138     13139     13138     13140     13138     13135
     13135     13136     13135     13137     13135     13122     13122     13131
     13122     13127     13122     13123     13131     13132     13131     13133
     13131     13134     13127     13128     13127     13129     13127     13130
     13123     13124     13123     13125     13123     13126     13151     13149
     13149     13150     13149     13201     13201     13203     13203     13204
     13203     13205     13203     13206     13206     13207     13206     13208
     13206     13209     13209     13210     13209     13211     13209     13212
     13212     13213     13212     13214     13212     13215     13215     13216
     13215     13217     13215     13218     13218     13219     13218     13220
     13218     13221     13221     13222     13221     13223     13221     13224
     13224     13225     13226     13227     13226     13228     13228     13229
     13228     13230     13228     13231     13231     13232     13231     13233
     13231     13234     13234     13235     13234     13236     13234     13237
     13237     13238     13237     13239     13237     13240     13240     13241
     13240     13242     13240     13243     13243     13244     13243     13245
     13243     13246     13246     13247     13246     13248     13246     13249
     13249     13250     13249     13251     13249     13252     13157     13159
     13224     13226     13201     13202      8253      8255      8253      8254
      8255      8256      8253      8299      8299      8300      8299      8301
      8299      8296      8296      8297      8296      8298      8253      8257
      8257      8258      8257      8259      8257      8260      8260      8291
      8291      8296      8291      8292      8292      8293      8292      8294
      8292      8295      8260      8261      8261      8262      8261      8263
      8263      8264      8263      8265      8263      8266      8266      8267
      8266      8289      8289      8290      8289      8291      8266      8268
      8268      8269      8268      8278      8278      8283      8283      8284
      8283      8285      8283      8286      8286      8287      8286      8288
      8286      8289      8278      8279      8279      8280      8279      8281
      8279      8282      8268      8270      8270      8271      8270      8272
      8270      8273      8273      8274      8273      8275      8273      8276
      8276      8277      8276      8278      8276      8302      8302      8303
      8302      8304      8304      8305      8304      8306      8304      8307
      8302      8308      8308      8309      8308      8310      8308      8311
      8311      8312      8311      8313      8311      8314      8314      8315
      8314      8316      8314      8317      8317      8318      8317      8319
      8319      8320      8319      8321      8319      8322      8317      8323
      8323      8324      8323      8325      8323      8326      8327      8329
      8327      8328      8329      8330      8327      8373      8373      8374
      8373      8375      8373      8370      8370      8371      8370      8372
      8327      8331      8331      8332      8331      8333      8331      8334
      8334      8365      8365      8370      8365      8366      8366      8367
      8366      8368      8366      8369      8334      8335      8335      8336
      8335      8337      8337      8338      8337      8339      8337      8340
      8340      8341      8340      8363      8363      8364      8363      8365
      8340      8342      8342      8343      8342      8352      8352      8357
      8357      8358      8357      8359      8357      8360      8360      8361
      8360      8362      8360      8363      8352      8353      8353      8354
      8353      8355      8353      8356      8342      8344      8344      8345
      8344      8346      8344      8347      8347      8348      8347      8349
      8347      8350      8350      8351      8350      8352      8350      8376
      8376      8377      8376      8378      8378      8379      8378      8380
      8378      8381      8376      8382      8382      8383      8382      8384
      8382      8385      8385      8386      8385      8387      8385      8388
      8388      8389      8388      8390      8388      8391      8391      8392
      8391      8393      8393      8394      8393      8395      8393      8396
      8391      8397      8397      8398      8397      8399      8397      8400
      1331      1332      1331      1333      1331      1334      1331      1335
      1339      1337      1337      1335      1337      1338      1335      1336
      1335      1340      1348      1347      1340      1341      1340      1342
      1340      1346      1346      1343      1343      1347      1343      1344
      1343      1345      1348      1349      1348      1350      1348      1351
      1351      1352      1351      1359      1351      1353      1359      1360
      1359      1361      1359      1362      1353      1354      1354      1356
      1354      1355      1356      1357      1356      1358      1356      1368
      1368      1369      1368      1370      1368      1371      1371      1372
      1371      1373      1371      1374      1374      1375      1374      1376
      1376      1377      1376      1378      1378      1379      1378      1380
      1378      1381      1381      1382      1381      1383      1383      1384
      1383      1385      1385      1386      1385      1387      1385      1388
      1388      1389      1388      1390      1390      1391      1390      1392
      1392      1393      1392      1394      1392      1395      1395      1396
      1395      1397      1397      1398      1397      1399      1399      1400
      1399      1401      1399      1402      1402      1403      1402      1404
      1402      1405      1405      1406      1405      1407      1405      1408
      1408      1409      1408      1410      1408      1411      1411      1412
      1411      1413      1411      1414      1362      1363      1363      1365
      1363      1364      1365      1366      1365      1367      1365      1415
      1415      1416      1415      1417      1415      1418      1418      1419
      1418      1420      1418      1421      1421      1422      1421      1423
      1421      1424      1424      1425      1424      1426      1424      1427
      1427      1428      1427      1429      1427      1430      1430      1431
      1430      1432      1430      1433      1433      1434      1433      1435
      1433      1436      1436      1437      1436      1438      1436      1439
      1439      1440      1439      1441      1439      1442      1442      1443
      1442      1444      1442      1445      1445      1446      1445      1447
      1445      1448      1448      1449      1448      1450      1448      1451
      1451      1452      1451      1453      1451      1454      1454      1455
      1454      1456      1454      1457      1457      1458      1457      1459
      1457      1460      1460      1461      1460      1462      1460      1463
     13328     13329     13328     13330     13328     13331     13328     13325
     13325     13326     13325     13327     13325     13322     13322     13323
     13322     13324     13322     13319     13319     13320     13319     13321
     13319     13316     13316     13317     13316     13318     13316     13313
     13313     13314     13313     13315     13313     13310     13310     13311
     13310     13312     13310     13307     13307     13308     13307     13309
     13307     13304     13304     13305     13304     13306     13304     13301
     13301     13302     13301     13303     13301     13298     13298     13299
     13298     13300     13298     13295     13295     13296     13295     13297
     13295     13292     13292     13293     13292     13294     13292     13290
     13290     13291     13288     13289     13288     13284     13284     13285
     13284     13286     13286     13287     13284     13282     13282     13283
     13282     13277     13277     13278     13277     13279     13277     13275
     13275     13272     13276     13272     13273     13272     13274     13272
     13276     13269     13269     13270     13269     13271     13269     13266
     13266     13267     13266     13268     13266     13253     13253     13262
     13253     13258     13253     13254     13262     13263     13262     13264
     13262     13265     13258     13259     13258     13260     13258     13261
     13254     13255     13254     13256     13254     13257     13282     13280
     13280     13281     13280     13332     13332     13334     13334     13335
     13334     13336     13334     13337     13337     13338     13337     13339
     13337     13340     13340     13341     13340     13342     13340     13343
     13343     13344     13343     13345     13343     13346     13346     13347
     13346     13348     13346     13349     13349     13350     13349     13351
     13349     13352     13352     13353     13352     13354     13352     13355
     13355     13356     13357     13358     13357     13359     13359     13360
     13359     13361     13359     13362     13362     13363     13362     13364
     13362     13365     13365     13366     13365     13367     13365     13368
     13368     13369     13368     13370     13368     13371     13371     13372
     13371     13373     13371     13374     13374     13375     13374     13376
     13374     13377     13377     13378     13377     13379     13377     13380
     13380     13381     13380     13382     13380     13383     13288     13290
     13355     13357     13332     13333     21769     21770     21769     21774
     21769     21778     21770     21771     21770     21772     21770     21773
     21774     21775     21774     21776     21774     21777     21778     21779
     21778     21780     21778     21781     21769     21782     21782     21783
     21782     21784     21782     21785     21785     21786     21785     21787
     21785     21791     21792     21793     21791     21788     21788     21792
     21788     21789     21788     21790     21793     21794     21793     21795
     21793     21796     21796     21797     21796     21804     21796     21798
     21804     21805     21804     21806     21804     21807     21798     21799
     21799     21801     21799     21800     21801     21802     21801     21803
     21801     21813     21813     21814     21813     21815     21813     21816
     21816     21817     21816     21818     21816     21819     21819     21820
     21819     21821     21819     21822     21822     21823     21822     21824
     21822     21825     21825     21826     21825     21827     21825     21828
     21828     21829     21828     21830     21828     21831     21831     21832
     21831     21833     21833     21834     21833     21835     21835     21836
     21835     21837     21835     21838     21838     21839     21838     21840
     21840     21841     21840     21842     21842     21843     21842     21844
     21842     21845     21845     21846     21845     21847     21845     21848
     21848     21849     21848     21850     21848     21851     21851     21852
     21851     21853     21851     21854     21854     21855     21854     21856
     21854     21857     21807     21808     21808     21810     21808     21809
     21810     21811     21810     21812     21810     21858     21858     21859
     21858     21860     21858     21861     21861     21862     21861     21863
     21861     21864     21864     21865     21864     21866     21864     21867
     21867     21868     21867     21869     21867     21870     21870     21871
     21870     21872     21870     21873     21873     21874     21873     21875
     21873     21876     21876     21877     21876     21878     21876     21879
     21879     21880     21879     21881     21879     21882     21882     21883
     21882     21884     21882     21885     21885     21886     21885     21887
     21885     21888     21888     21889     21888     21890     21888     21891
     21891     21892     21891     21893     21891     21894     21894     21895
     21894     21896     21894     21897     21897     21898     21897     21899
     21897     21900     21900     21901     21900     21902     21900     21903
     21903     21904     21903     21905     21903     21906      8401      8403
      8401      8402      8403      8404      8401      8447      8447      8448
      8447      8449      8447      8444      8444      8445      8444      8446
      8401      8405      8405      8406      8405      8407      8405      8408
      8408      8439      8439      8444      8439      8440      8440      8441
      8440      8442      8440      8443      8408      8409      8409      8410
      8409      8411      8411      8412      8411      8413      8411      8414
      8414      8415      8414      8437      8437      8438      8437      8439
      8414      8416      8416      8417      8416      8426      8426      8431
      8431      8432      8431      8433      8431      8434      8434      8435
      8434      8436      8434      8437      8426      8427      8427      8428
      8427      8429      8427      8430      8416      8418      8418      8419
      8418      8420      8418      8421      8421      8422      8421      8423
      8421      8424      8424      8425      8424      8426      8424      8450
      8450      8451      8450      8452      8452      8453      8452      8454
      8452      8455      8450      8456      8456      8457      8456      8458
      8456      8459      8459      8460      8459      8461      8459      8462
      8462      8463      8462      8464      8462      8465      8465      8466
      8465      8467      8467      8468      8467      8469      8467      8470
      8465      8471      8471      8472      8471      8473      8471      8474
     19017     19018     19017     19019     19017     19020     19017     19021
     19021     19022     19021     19023     19021     19024     19024     19025
     19024     19026     19024     19030     19032     19031     19030     19027
     19027     19031     19027     19028     19027     19029     19032     19033
     19032     19034     19032     19035     19035     19036     19035     19043
     19035     19037     19043     19044     19043     19045     19043     19046
     19037     19038     19038     19040     19038     19039     19040     19041
     19040     19042     19040     19052     19052     19053     19052     19054
     19052     19055     19055     19056     19055     19057     19055     19058
     19058     19059     19058     19060     19058     19061     19061     19062
     19061     19063     19061     19064     19064     19065     19064     19066
     19064     19067     19067     19068     19067     19069     19067     19070
     19070     19071     19070     19072     19072     19073     19072     19074
     19074     19075     19074     19076     19074     19077     19077     19078
     19077     19079     19077     19080     19080     19081     19080     19082
     19080     19083     19083     19084     19083     19085     19083     19086
     19086     19087     19086     19088     19086     19089     19089     19090
     19089     19091     19089     19092     19092     19093     19092     19094
     19092     19095     19095     19096     19095     19097     19095     19098
     19046     19047     19047     19049     19047     19048     19049     19050
     19049     19051     19049     19099     19099     19100     19099     19101
     19099     19102     19102     19103     19102     19104     19102     19105
     19105     19106     19105     19107     19105     19108     19108     19109
     19108     19110     19108     19111     19111     19112     19111     19113
     19111     19114     19114     19115     19114     19116     19114     19117
     19117     19118     19117     19119     19117     19120     19120     19121
     19120     19122     19120     19123     19123     19124     19123     19125
     19123     19126     19126     19127     19126     19128     19126     19129
     19129     19130     19129     19131     19129     19132     19132     19133
     19132     19134     19132     19135     19135     19136     19135     19137
     19135     19138     19138     19139     19138     19140     19138     19141
     19141     19142     19141     19143     19141     19144     19144     19145
     19144     19146     19144     19147     13459     13460     13459     13461
     13459     13462     13459     13456     13456     13457     13456     13458
     13456     13453     13453     13454     13453     13455     13453     13450
     13450     13451     13450     13452     13450     13447     13447     13448
     13447     13449     13447     13444     13444     13445     13444     13446
     13444     13441     13441     13442     13441     13443     13441     13438
     13438     13439     13438     13440     13438     13435     13435     13436
     13435     13437     13435     13432     13432     13433     13432     13434
     13432     13429     13429     13430     13429     13431     13429     13426
     13426     13427     13426     13428     13426     13423     13423     13424
     13423     13425     13423     13421     13421     13422     13419     13420
     13419     13415     13415     13416     13415     13417     13417     13418
     13415     13413     13413     13414     13413     13408     13408     13409
     13408     13410     13408     13406     13406     13403     13407     13403
     13404     13403     13405     13403     13407     13400     13400     13401
     13400     13402     13400     13397     13397     13398     13397     13399
     13397     13384     13384     13393     13384     13389     13384     13385
     13393     13394     13393     13395     13393     13396     13389     13390
     13389     13391     13389     13392     13385     13386     13385     13387
     13385     13388     13413     13411     13411     13412     13411     13463
     13463     13465     13465     13466     13465     13467     13465     13468
     13468     13469     13468     13470     13468     13471     13471     13472
     13471     13473     13471     13474     13474     13475     13474     13476
     13474     13477     13477     13478     13477     13479     13477     13480
     13480     13481     13480     13482     13480     13483     13483     13484
     13483     13485     13483     13486     13486     13487     13488     13489
     13488     13490     13490     13491     13490     13492     13490     13493
     13493     13494     13493     13495     13493     13496     13496     13497
     13496     13498     13496     13499     13499     13500     13499     13501
     13499     13502     13502     13503     13502     13504     13502     13505
     13505     13506     13505     13507     13505     13508     13508     13509
     13508     13510     13508     13511     13511     13512     13511     13513
     13511     13514     13419     13421     13486     13488     13463     13464
     17052     17053     17052     17054     17052     17055     17052     17056
     17056     17057     17056     17058     17056     17059     17059     17060
     17059     17061     17059     17065     17067     17066     17065     17062
     17062     17066     17062     17063     17062     17064     17067     17068
     17067     17069     17067     17070     17070     17071     17070     17078
     17070     17072     17078     17079     17078     17080     17078     17081
     17072     17073     17073     17075     17073     17074     17075     17076
     17075     17077     17075     17087     17087     17088     17087     17089
     17087     17090     17090     17091     17090     17092     17090     17093
     17093     17094     17093     17095     17095     17096     17095     17097
     17097     17098     17097     17099     17097     17100     17100     17101
     17100     17102     17102     17103     17102     17104     17104     17105
     17104     17106     17104     17107     17107     17108     17107     17109
     17109     17110     17109     17111     17111     17112     17111     17113
     17111     17114     17114     17115     17114     17116     17116     17117
     17116     17118     17118     17119     17118     17120     17118     17121
     17121     17122     17121     17123     17121     17124     17124     17125
     17124     17126     17124     17127     17127     17128     17127     17129
     17127     17130     17130     17131     17130     17132     17130     17133
     17081     17082     17082     17084     17082     17083     17084     17085
     17084     17086     17084     17134     17134     17135     17134     17136
     17134     17137     17137     17138     17137     17139     17137     17140
     17140     17141     17140     17142     17140     17143     17143     17144
     17143     17145     17143     17146     17146     17147     17146     17148
     17146     17149     17149     17150     17149     17151     17149     17152
     17152     17153     17152     17154     17152     17155     17155     17156
     17155     17157     17155     17158     17158     17159     17158     17160
     17158     17161     17161     17162     17161     17163     17161     17164
     17164     17165     17164     17166     17164     17167     17167     17168
     17167     17169     17167     17170     17170     17171     17170     17172
     17170     17173     17173     17174     17173     17175     17173     17176
     17176     17177     17176     17178     17176     17179     17179     17180
     17179     17181     17179     17182     17183     17184     17183     17185
     17183     17186     17183     17187     17187     17188     17187     17189
     17187     17190     17190     17191     17190     17192     17190     17196
     17198     17197     17196     17193     17193     17197     17193     17194
     17193     17195     17198     17199     17198     17200     17198     17201
     17201     17202     17201     17209     17201     17203     17209     17210
     17209     17211     17209     17212     17203     17204     17204     17206
     17204     17205     17206     17207     17206     17208     17206     17218
     17218     17219     17218     17220     17218     17221     17221     17222
     17221     17223     17221     17224     17224     17225     17224     17226
     17226     17227     17226     17228     17228     17229     17228     17230
     17228     17231     17231     17232     17231     17233     17233     17234
     17233     17235     17235     17236     17235     17237     17235     17238
     17238     17239     17238     17240     17240     17241     17240     17242
     17242     17243     17242     17244     17242     17245     17245     17246
     17245     17247     17247     17248     17247     17249     17249     17250
     17249     17251     17249     17252     17252     17253     17252     17254
     17252     17255     17255     17256     17255     17257     17255     17258
     17258     17259     17258     17260     17258     17261     17261     17262
     17261     17263     17261     17264     17212     17213     17213     17215
     17213     17214     17215     17216     17215     17217     17215     17265
     17265     17266     17265     17267     17265     17268     17268     17269
     17268     17270     17268     17271     17271     17272     17271     17273
     17271     17274     17274     17275     17274     17276     17274     17277
     17277     17278     17277     17279     17277     17280     17280     17281
     17280     17282     17280     17283     17283     17284     17283     17285
     17283     17286     17286     17287     17286     17288     17286     17289
     17289     17290     17289     17291     17289     17292     17292     17293
     17292     17294     17292     17295     17295     17296     17295     17297
     17295     17298     17298     17299     17298     17300     17298     17301
     17301     17302     17301     17303     17301     17304     17304     17305
     17304     17306     17304     17307     17307     17308     17307     17309
     17307     17310     17310     17311     17310     17312     17310     17313
     19148     19149     19148     19150     19148     19151     19148     19152
     19152     19153     19152     19154     19152     19155     19155     19156
     19155     19157     19155     19161     19163     19162     19161     19158
     19158     19162     19158     19159     19158     19160     19163     19164
     19163     19165     19163     19166     19166     19167     19166     19174
     19166     19168     19174     19175     19174     19176     19174     19177
     19168     19169     19169     19171     19169     19170     19171     19172
     19171     19173     19171     19183     19183     19184     19183     19185
     19183     19186     19186     19187     19186     19188     19186     19189
     19189     19190     19189     19191     19189     19192     19192     19193
     19192     19194     19192     19195     19195     19196     19195     19197
     19195     19198     19198     19199     19198     19200     19198     19201
     19201     19202     19201     19203     19203     19204     19203     19205
     19205     19206     19205     19207     19205     19208     19208     19209
     19208     19210     19208     19211     19211     19212     19211     19213
     19211     19214     19214     19215     19214     19216     19214     19217
     19217     19218     19217     19219     19217     19220     19220     19221
     19220     19222     19220     19223     19223     19224     19223     19225
     19223     19226     19226     19227     19226     19228     19226     19229
     19177     19178     19178     19180     19178     19179     19180     19181
     19180     19182     19180     19230     19230     19231     19230     19232
     19230     19233     19233     19234     19233     19235     19233     19236
     19236     19237     19236     19238     19236     19239     19239     19240
     19239     19241     19239     19242     19242     19243     19242     19244
     19242     19245     19245     19246     19245     19247     19245     19248
     19248     19249     19248     19250     19248     19251     19251     19252
     19251     19253     19251     19254     19254     19255     19254     19256
     19254     19257     19257     19258     19257     19259     19257     19260
     19260     19261     19260     19262     19260     19263     19263     19264
     19263     19265     19263     19266     19266     19267     19266     19268
     19266     19269     19269     19270     19269     19271     19269     19272
     19272     19273     19272     19274     19272     19275     19275     19276
     19275     19277     19275     19278     19990     19991     19990     19986
     19990     19970     19990     19995     19970     19971     19970     19972
     19972     19973     19970     19974     19974     19975     19974     19976
     19976     19977     19974     19978     19978     19979     19978     19980
     19980     19981     19978     19982     19982     19983     19982     19986
     19986     19987     19986     19988     19988     19989     19982     19984
     19984     19985     19995     19992     19992     19996     19992     19993
     19992     19994     19996     19997     19997     19998     19997     19999
     19997     20000     20000     20001     20000     20008     20000     20002
     20008     20009     20008     20010     20008     20011     20002     20003
     20003     20005     20003     20004     20005     20006     20005     20007
     20005     20017     20017     20018     20017     20019     20017     20020
     20020     20021     20020     20022     20020     20023     20023     20024
     20023     20025     20025     20026     20025     20027     20027     20028
     20027     20029     20027     20030     20030     20031     20030     20032
     20032     20033     20032     20034     20034     20035     20034     20036
     20034     20037     20037     20038     20037     20039     20039     20040
     20039     20041     20041     20042     20041     20043     20041     20044
     20044     20045     20044     20046     20046     20047     20046     20048
     20048     20049     20048     20050     20048     20051     20051     20052
     20051     20053     20051     20054     20054     20055     20054     20056
     20054     20057     20057     20058     20057     20059     20057     20060
     20060     20061     20060     20062     20060     20063     20011     20012
     20012     20014     20012     20013     20014     20015     20014     20016
     20014     20064     20064     20065     20064     20066     20064     20067
     20067     20068     20067     20069     20067     20070     20070     20071
     20070     20072     20070     20073     20073     20074     20073     20075
     20073     20076     20076     20077     20076     20078     20076     20079
     20079     20080     20079     20081     20079     20082     20082     20083
     20082     20084     20082     20085     20085     20086     20085     20087
     20085     20088     20088     20089     20088     20090     20088     20091
     20091     20092     20091     20093     20091     20094     20094     20095
     20094     20096     20094     20097     20097     20098     20097     20099
     20097     20100     20100     20101     20100     20102     20100     20103
     20103     20104     20103     20105     20103     20106     20106     20107
     20106     20108     20106     20109     20109     20110     20109     20111
     20109     20112     13590     13591     13590     13592     13590     13593
     13590     13587     13587     13588     13587     13589     13587     13584
     13584     13585     13584     13586     13584     13581     13581     13582
     13581     13583     13581     13578     13578     13579     13578     13580
     13578     13575     13575     13576     13575     13577     13575     13572
     13572     13573     13572     13574     13572     13569     13569     13570
     13569     13571     13569     13566     13566     13567     13566     13568
     13566     13563     13563     13564     13563     13565     13563     13560
     13560     13561     13560     13562     13560     13557     13557     13558
     13557     13559     13557     13554     13554     13555     13554     13556
     13554     13552     13552     13553     13550     13551     13550     13546
     13546     13547     13546     13548     13548     13549     13546     13544
     13544     13545     13544     13539     13539     13540     13539     13541
     13539     13537     13537     13534     13538     13534     13535     13534
     13536     13534     13538     13531     13531     13532     13531     13533
     13531     13528     13528     13529     13528     13530     13528     13515
     13515     13524     13515     13520     13515     13516     13524     13525
     13524     13526     13524     13527     13520     13521     13520     13522
     13520     13523     13516     13517     13516     13518     13516     13519
     13544     13542     13542     13543     13542     13594     13594     13596
     13596     13597     13596     13598     13596     13599     13599     13600
     13599     13601     13599     13602     13602     13603     13602     13604
     13602     13605     13605     13606     13605     13607     13605     13608
     13608     13609     13608     13610     13608     13611     13611     13612
     13611     13613     13611     13614     13614     13615     13614     13616
     13614     13617     13617     13618     13619     13620     13619     13621
     13621     13622     13621     13623     13621     13624     13624     13625
     13624     13626     13624     13627     13627     13628     13627     13629
     13627     13630     13630     13631     13630     13632     13630     13633
     13633     13634     13633     13635     13633     13636     13636     13637
     13636     13638     13636     13639     13639     13640     13639     13641
     13639     13642     13642     13643     13642     13644     13642     13645
     13550     13552     13617     13619     13594     13595      8475      8477
      8475      8476      8477      8478      8475      8521      8521      8522
      8521      8523      8521      8518      8518      8519      8518      8520
      8475      8479      8479      8480      8479      8481      8479      8482
      8482      8513      8513      8518      8513      8514      8514      8515
      8514      8516      8514      8517      8482      8483      8483      8484
      8483      8485      8485      8486      8485      8487      8485      8488
      8488      8489      8488      8511      8511      8512      8511      8513
      8488      8490      8490      8491      8490      8500      8500      8505
      8505      8506      8505      8507      8505      8508      8508      8509
      8508      8510      8508      8511      8500      8501      8501      8502
      8501      8503      8501      8504      8490      8492      8492      8493
      8492      8494      8492      8495      8495      8496      8495      8497
      8495      8498      8498      8499      8498      8500      8498      8524
      8524      8525      8524      8526      8526      8527      8526      8528
      8526      8529      8524      8530      8530      8531      8530      8532
      8530      8533      8533      8534      8533      8535      8533      8536
      8536      8537      8536      8538      8536      8539      8539      8540
      8539      8541      8541      8542      8541      8543      8541      8544
      8539      8545      8545      8546      8545      8547      8545      8548
      8549      8551      8549      8550      8551      8552      8549      8595
      8595      8596      8595      8597      8595      8592      8592      8593
      8592      8594      8549      8553      8553      8554      8553      8555
      8553      8556      8556      8587      8587      8592      8587      8588
      8588      8589      8588      8590      8588      8591      8556      8557
      8557      8558      8557      8559      8559      8560      8559      8561
      8559      8562      8562      8563      8562      8585      8585      8586
      8585      8587      8562      8564      8564      8565      8564      8574
      8574      8579      8579      8580      8579      8581      8579      8582
      8582      8583      8582      8584      8582      8585      8574      8575
      8575      8576      8575      8577      8575      8578      8564      8566
      8566      8567      8566      8568      8566      8569      8569      8570
      8569      8571      8569      8572      8572      8573      8572      8574
      8572      8598      8598      8599      8598      8600      8600      8601
      8600      8602      8600      8603      8598      8604      8604      8605
      8604      8606      8604      8607      8607      8608      8607      8609
      8607      8610      8610      8611      8610      8612      8610      8613
      8613      8614      8613      8615      8615      8616      8615      8617
      8615      8618      8613      8619      8619      8620      8619      8621
      8619      8622      8623      8625      8623      8624      8625      8626
      8623      8669      8669      8670      8669      8671      8669      8666
      8666      8667      8666      8668      8623      8627      8627      8628
      8627      8629      8627      8630      8630      8661      8661      8666
      8661      8662      8662      8663      8662      8664      8662      8665
      8630      8631      8631      8632      8631      8633      8633      8634
      8633      8635      8633      8636      8636      8637      8636      8659
      8659      8660      8659      8661      8636      8638      8638      8639
      8638      8648      8648      8653      8653      8654      8653      8655
      8653      8656      8656      8657      8656      8658      8656      8659
      8648      8649      8649      8650      8649      8651      8649      8652
      8638      8640      8640      8641      8640      8642      8640      8643
      8643      8644      8643      8645      8643      8646      8646      8647
      8646      8648      8646      8672      8672      8673      8672      8674
      8674      8675      8674      8676      8674      8677      8672      8678
      8678      8679      8678      8680      8678      8681      8681      8682
      8681      8683      8681      8684      8684      8685      8684      8686
      8684      8687      8687      8688      8687      8689      8689      8690
      8689      8691      8689      8692      8687      8693      8693      8694
      8693      8695      8693      8696      8697      8699      8697      8698
      8699      8700      8697      8743      8743      8744      8743      8745
      8743      8740      8740      8741      8740      8742      8697      8701
      8701      8702      8701      8703      8701      8704      8704      8735
      8735      8740      8735      8736      8736      8737      8736      8738
      8736      8739      8704      8705      8705      8706      8705      8707
      8707      8708      8707      8709      8707      8710      8710      8711
      8710      8733      8733      8734      8733      8735      8710      8712
      8712      8713      8712      8722      8722      8727      8727      8728
      8727      8729      8727      8730      8730      8731      8730      8732
      8730      8733      8722      8723      8723      8724      8723      8725
      8723      8726      8712      8714      8714      8715      8714      8716
      8714      8717      8717      8718      8717      8719      8717      8720
      8720      8721      8720      8722      8720      8746      8746      8747
      8746      8748      8748      8749      8748      8750      8748      8751
      8746      8752      8752      8753      8752      8754      8752      8755
      8755      8756      8755      8757      8755      8758      8758      8759
      8758      8760      8758      8761      8761      8762      8761      8763
      8763      8764      8763      8765      8763      8766      8761      8767
      8767      8768      8767      8769      8767      8770      8771      8773
      8771      8772      8773      8774      8771      8817      8817      8818
      8817      8819      8817      8814      8814      8815      8814      8816
      8771      8775      8775      8776      8775      8777      8775      8778
      8778      8809      8809      8814      8809      8810      8810      8811
      8810      8812      8810      8813      8778      8779      8779      8780
      8779      8781      8781      8782      8781      8783      8781      8784
      8784      8785      8784      8807      8807      8808      8807      8809
      8784      8786      8786      8787      8786      8796      8796      8801
      8801      8802      8801      8803      8801      8804      8804      8805
      8804      8806      8804      8807      8796      8797      8797      8798
      8797      8799      8797      8800      8786      8788      8788      8789
      8788      8790      8788      8791      8791      8792      8791      8793
      8791      8794      8794      8795      8794      8796      8794      8820
      8820      8821      8820      8822      8822      8823      8822      8824
      8822      8825      8820      8826      8826      8827      8826      8828
      8826      8829      8829      8830      8829      8831      8829      8832
      8832      8833      8832      8834      8832      8835      8835      8836
      8835      8837      8837      8838      8837      8839      8837      8840
      8835      8841      8841      8842      8841      8843      8841      8844
      8845      8847      8845      8846      8847      8848      8845      8891
      8891      8892      8891      8893      8891      8888      8888      8889
      8888      8890      8845      8849      8849      8850      8849      8851
      8849      8852      8852      8883      8883      8888      8883      8884
      8884      8885      8884      8886      8884      8887      8852      8853
      8853      8854      8853      8855      8855      8856      8855      8857
      8855      8858      8858      8859      8858      8881      8881      8882
      8881      8883      8858      8860      8860      8861      8860      8870
      8870      8875      8875      8876      8875      8877      8875      8878
      8878      8879      8878      8880      8878      8881      8870      8871
      8871      8872      8871      8873      8871      8874      8860      8862
      8862      8863      8862      8864      8862      8865      8865      8866
      8865      8867      8865      8868      8868      8869      8868      8870
      8868      8894      8894      8895      8894      8896      8896      8897
      8896      8898      8896      8899      8894      8900      8900      8901
      8900      8902      8900      8903      8903      8904      8903      8905
      8903      8906      8906      8907      8906      8908      8906      8909
      8909      8910      8909      8911      8911      8912      8911      8913
      8911      8914      8909      8915      8915      8916      8915      8917
      8915      8918     13721     13722     13721     13723     13721     13724
     13721     13718     13718     13719     13718     13720     13718     13715
     13715     13716     13715     13717     13715     13712     13712     13713
     13712     13714     13712     13709     13709     13710     13709     13711
     13709     13706     13706     13707     13706     13708     13706     13703
     13703     13704     13703     13705     13703     13700     13700     13701
     13700     13702     13700     13697     13697     13698     13697     13699
     13697     13694     13694     13695     13694     13696     13694     13691
     13691     13692     13691     13693     13691     13688     13688     13689
     13688     13690     13688     13685     13685     13686     13685     13687
     13685     13683     13683     13684     13681     13682     13681     13677
     13677     13678     13677     13679     13679     13680     13677     13675
     13675     13676     13675     13670     13670     13671     13670     13672
     13670     13668     13668     13665     13669     13665     13666     13665
     13667     13665     13669     13662     13662     13663     13662     13664
     13662     13659     13659     13660     13659     13661     13659     13646
     13646     13655     13646     13651     13646     13647     13655     13656
     13655     13657     13655     13658     13651     13652     13651     13653
     13651     13654     13647     13648     13647     13649     13647     13650
     13675     13673     13673     13674     13673     13725     13725     13727
     13727     13728     13727     13729     13727     13730     13730     13731
     13730     13732     13730     13733     13733     13734     13733     13735
     13733     13736     13736     13737     13736     13738     13736     13739
     13739     13740     13739     13741     13739     13742     13742     13743
     13742     13744     13742     13745     13745     13746     13745     13747
     13745     13748     13748     13749     13750     13751     13750     13752
     13752     13753     13752     13754     13752     13755     13755     13756
     13755     13757     13755     13758     13758     13759     13758     13760
     13758     13761     13761     13762     13761     13763     13761     13764
     13764     13765     13764     13766     13764     13767     13767     13768
     13767     13769     13767     13770     13770     13771     13770     13772
     13770     13773     13773     13774     13773     13775     13773     13776
     13681     13683     13748     13750     13725     13726      3529      3533
      3529      3537      3529      3541      3533      3534      3533      3535
      3533      3536      3537      3538      3537      3539      3537      3540
      3541      3542      3541      3543      3541      3544      3529      3530
      3530      3531      3530      3532      3530      3545      3545      3546
      3545      3547      3545      3551      3552      3553      3551      3548
      3548      3552      3548      3549      3548      3550      3553      3554
      3553      3555      3553      3556      3556      3557      3556      3564
      3556      3558      3564      3565      3564      3566      3564      3567
      3558      3559      3559      3561      3559      3560      3561      3562
      3561      3563      3561      3573      3573      3574      3573      3575
      3573      3576      3576      3577      3576      3578      3576      3579
      3579      3580      3579      3581      3581      3582      3581      3583
      3583      3584      3583      3585      3583      3586      3586      3587
      3586      3588      3588      3589      3588      3590      3590      3591
      3590      3592      3590      3593      3593      3594      3593      3595
      3595      3596      3595      3597      3597      3598      3597      3599
      3597      3600      3600      3601      3600      3602      3602      3603
      3602      3604      3604      3605      3604      3606      3604      3607
      3607      3608      3607      3609      3607      3610      3610      3611
      3610      3612      3610      3613      3613      3614      3613      3615
      3613      3616      3616      3617      3616      3618      3616      3619
      3567      3568      3568      3570      3568      3569      3570      3571
      3570      3572      3570      3620      3620      3621      3620      3622
      3620      3623      3623      3624      3623      3625      3623      3626
      3626      3627      3626      3628      3626      3629      3629      3630
      3629      3631      3629      3632      3632      3633      3632      3634
      3632      3635      3635      3636      3635      3637      3635      3638
      3638      3639      3638      3640      3638      3641      3641      3642
      3641      3643      3641      3644      3644      3645      3644      3646
      3644      3647      3647      3648      3647      3649      3647      3650
      3650      3651      3650      3652      3650      3653      3653      3654
      3653      3655      3653      3656      3656      3657      3656      3658
      3656      3659      3659      3660      3659      3661      3659      3662
      3662      3663      3662      3664      3662      3665      3665      3666
      3665      3667      3665      3668     17314     17315     17314     17316
     17314     17317     17314     17318     17318     17319     17318     17320
     17318     17321     17321     17322     17321     17323     17321     17327
     17329     17328     17327     17324     17324     17328     17324     17325
     17324     17326     17329     17330     17329     17331     17329     17332
     17332     17333     17332     17340     17332     17334     17340     17341
     17340     17342     17340     17343     17334     17335     17335     17337
     17335     17336     17337     17338     17337     17339     17337     17349
     17349     17350     17349     17351     17349     17352     17352     17353
     17352     17354     17352     17355     17355     17356     17355     17357
     17357     17358     17357     17359     17359     17360     17359     17361
     17359     17362     17362     17363     17362     17364     17364     17365
     17364     17366     17366     17367     17366     17368     17366     17369
     17369     17370     17369     17371     17371     17372     17371     17373
     17373     17374     17373     17375     17373     17376     17376     17377
     17376     17378     17378     17379     17378     17380     17380     17381
     17380     17382     17380     17383     17383     17384     17383     17385
     17383     17386     17386     17387     17386     17388     17386     17389
     17389     17390     17389     17391     17389     17392     17392     17393
     17392     17394     17392     17395     17343     17344     17344     17346
     17344     17345     17346     17347     17346     17348     17346     17396
     17396     17397     17396     17398     17396     17399     17399     17400
     17399     17401     17399     17402     17402     17403     17402     17404
     17402     17405     17405     17406     17405     17407     17405     17408
     17408     17409     17408     17410     17408     17411     17411     17412
     17411     17413     17411     17414     17414     17415     17414     17416
     17414     17417     17417     17418     17417     17419     17417     17420
     17420     17421     17420     17422     17420     17423     17423     17424
     17423     17425     17423     17426     17426     17427     17426     17428
     17426     17429     17429     17430     17429     17431     17429     17432
     17432     17433     17432     17434     17432     17435     17435     17436
     17435     17437     17435     17438     17438     17439     17438     17440
     17438     17441     17441     17442     17441     17443     17441     17444
      8919      8921      8919      8920      8921      8922      8919      8965
      8965      8966      8965      8967      8965      8962      8962      8963
      8962      8964      8919      8923      8923      8924      8923      8925
      8923      8926      8926      8957      8957      8962      8957      8958
      8958      8959      8958      8960      8958      8961      8926      8927
      8927      8928      8927      8929      8929      8930      8929      8931
      8929      8932      8932      8933      8932      8955      8955      8956
      8955      8957      8932      8934      8934      8935      8934      8944
      8944      8949      8949      8950      8949      8951      8949      8952
      8952      8953      8952      8954      8952      8955      8944      8945
      8945      8946      8945      8947      8945      8948      8934      8936
      8936      8937      8936      8938      8936      8939      8939      8940
      8939      8941      8939      8942      8942      8943      8942      8944
      8942      8968      8968      8969      8968      8970      8970      8971
      8970      8972      8970      8973      8968      8974      8974      8975
      8974      8976      8974      8977      8977      8978      8977      8979
      8977      8980      8980      8981      8980      8982      8980      8983
      8983      8984      8983      8985      8985      8986      8985      8987
      8985      8988      8983      8989      8989      8990      8989      8991
      8989      8992     17445     17446     17445     17447     17445     17448
     17445     17449     17449     17450     17449     17451     17449     17452
     17452     17453     17452     17454     17452     17458     17460     17459
     17458     17455     17455     17459     17455     17456     17455     17457
     17460     17461     17460     17462     17460     17463     17463     17464
     17463     17471     17463     17465     17471     17472     17471     17473
     17471     17474     17465     17466     17466     17468     17466     17467
     17468     17469     17468     17470     17468     17480     17480     17481
     17480     17482     17480     17483     17483     17484     17483     17485
     17483     17486     17486     17487     17486     17488     17488     17489
     17488     17490     17490     17491     17490     17492     17490     17493
     17493     17494     17493     17495     17495     17496     17495     17497
     17497     17498     17497     17499     17497     17500     17500     17501
     17500     17502     17502     17503     17502     17504     17504     17505
     17504     17506     17504     17507     17507     17508     17507     17509
     17509     17510     17509     17511     17511     17512     17511     17513
     17511     17514     17514     17515     17514     17516     17514     17517
     17517     17518     17517     17519     17517     17520     17520     17521
     17520     17522     17520     17523     17523     17524     17523     17525
     17523     17526     17474     17475     17475     17477     17475     17476
     17477     17478     17477     17479     17477     17527     17527     17528
     17527     17529     17527     17530     17530     17531     17530     17532
     17530     17533     17533     17534     17533     17535     17533     17536
     17536     17537     17536     17538     17536     17539     17539     17540
     17539     17541     17539     17542     17542     17543     17542     17544
     17542     17545     17545     17546     17545     17547     17545     17548
     17548     17549     17548     17550     17548     17551     17551     17552
     17551     17553     17551     17554     17554     17555     17554     17556
     17554     17557     17557     17558     17557     17559     17557     17560
     17560     17561     17560     17562     17560     17563     17563     17564
     17563     17565     17563     17566     17566     17567     17566     17568
     17566     17569     17569     17570     17569     17571     17569     17572
     17572     17573     17572     17574     17572     17575      8993      8995
      8993      8994      8995      8996      8993      9039      9039      9040
      9039      9041      9039      9036      9036      9037      9036      9038
      8993      8997      8997      8998      8997      8999      8997      9000
      9000      9031      9031      9036      9031      9032      9032      9033
      9032      9034      9032      9035      9000      9001      9001      9002
      9001      9003      9003      9004      9003      9005      9003      9006
      9006      9007      9006      9029      9029      9030      9029      9031
      9006      9008      9008      9009      9008      9018      9018      9023
      9023      9024      9023      9025      9023      9026      9026      9027
      9026      9028      9026      9029      9018      9019      9019      9020
      9019      9021      9019      9022      9008      9010      9010      9011
      9010      9012      9010      9013      9013      9014      9013      9015
      9013      9016      9016      9017      9016      9018      9016      9042
      9042      9043      9042      9044      9044      9045      9044      9046
      9044      9047      9042      9048      9048      9049      9048      9050
      9048      9051      9051      9052      9051      9053      9051      9054
      9054      9055      9054      9056      9054      9057      9057      9058
      9057      9059      9059      9060      9059      9061      9059      9062
      9057      9063      9063      9064      9063      9065      9063      9066
     13852     13853     13852     13854     13852     13855     13852     13849
     13849     13850     13849     13851     13849     13846     13846     13847
     13846     13848     13846     13843     13843     13844     13843     13845
     13843     13840     13840     13841     13840     13842     13840     13837
     13837     13838     13837     13839     13837     13834     13834     13835
     13834     13836     13834     13831     13831     13832     13831     13833
     13831     13828     13828     13829     13828     13830     13828     13825
     13825     13826     13825     13827     13825     13822     13822     13823
     13822     13824     13822     13819     13819     13820     13819     13821
     13819     13816     13816     13817     13816     13818     13816     13814
     13814     13815     13812     13813     13812     13808     13808     13809
     13808     13810     13810     13811     13808     13806     13806     13807
     13806     13801     13801     13802     13801     13803     13801     13799
     13799     13796     13800     13796     13797     13796     13798     13796
     13800     13793     13793     13794     13793     13795     13793     13790
     13790     13791     13790     13792     13790     13777     13777     13786
     13777     13782     13777     13778     13786     13787     13786     13788
     13786     13789     13782     13783     13782     13784     13782     13785
     13778     13779     13778     13780     13778     13781     13806     13804
     13804     13805     13804     13856     13856     13858     13858     13859
     13858     13860     13858     13861     13861     13862     13861     13863
     13861     13864     13864     13865     13864     13866     13864     13867
     13867     13868     13867     13869     13867     13870     13870     13871
     13870     13872     13870     13873     13873     13874     13873     13875
     13873     13876     13876     13877     13876     13878     13876     13879
     13879     13880     13881     13882     13881     13883     13883     13884
     13883     13885     13883     13886     13886     13887     13886     13888
     13886     13889     13889     13890     13889     13891     13889     13892
     13892     13893     13892     13894     13892     13895     13895     13896
     13895     13897     13895     13898     13898     13899     13898     13900
     13898     13901     13901     13902     13901     13903     13901     13904
     13904     13905     13904     13906     13904     13907     13812     13814
     13879     13881     13856     13857     21907     21908     21907     21912
     21907     21916     21908     21909     21908     21910     21908     21911
     21912     21913     21912     21914     21912     21915     21916     21917
     21916     21918     21916     21919     21907     21920     21920     21921
     21920     21922     21920     21923     21923     21924     21923     21925
     21923     21929     21930     21931     21929     21926     21926     21930
     21926     21927     21926     21928     21931     21932     21931     21933
     21931     21934     21934     21935     21934     21942     21934     21936
     21942     21943     21942     21944     21942     21945     21936     21937
     21937     21939     21937     21938     21939     21940     21939     21941
     21939     21951     21951     21952     21951     21953     21951     21954
     21954     21955     21954     21956     21954     21957     21957     21958
     21957     21959     21957     21960     21960     21961     21960     21962
     21960     21963     21963     21964     21963     21965     21963     21966
     21966     21967     21966     21968     21966     21969     21969     21970
     21969     21971     21971     21972     21971     21973     21973     21974
     21973     21975     21973     21976     21976     21977     21976     21978
     21978     21979     21978     21980     21980     21981     21980     21982
     21980     21983     21983     21984     21983     21985     21983     21986
     21986     21987     21986     21988     21986     21989     21989     21990
     21989     21991     21989     21992     21992     21993     21992     21994
     21992     21995     21945     21946     21946     21948     21946     21947
     21948     21949     21948     21950     21948     21996     21996     21997
     21996     21998     21996     21999     21999     22000     21999     22001
     21999     22002     22002     22003     22002     22004     22002     22005
     22005     22006     22005     22007     22005     22008     22008     22009
     22008     22010     22008     22011     22011     22012     22011     22013
     22011     22014     22014     22015     22014     22016     22014     22017
     22017     22018     22017     22019     22017     22020     22020     22021
     22020     22022     22020     22023     22023     22024     22023     22025
     22023     22026     22026     22027     22026     22028     22026     22029
     22029     22030     22029     22031     22029     22032     22032     22033
     22032     22034     22032     22035     22035     22036     22035     22037
     22035     22038     22038     22039     22038     22040     22038     22041
     22041     22042     22041     22043     22041     22044      3669      3673
      3669      3677      3669      3681      3673      3674      3673      3675
      3673      3676      3677      3678      3677      3679      3677      3680
      3681      3682      3681      3683      3681      3684      3669      3670
      3670      3671      3670      3672      3670      3685      3685      3686
      3685      3687      3685      3691      3692      3693      3691      3688
      3688      3692      3688      3689      3688      3690      3693      3694
      3693      3695      3693      3696      3696      3697      3696      3704
      3696      3698      3704      3705      3704      3706      3704      3707
      3698      3699      3699      3701      3699      3700      3701      3702
      3701      3703      3701      3713      3713      3714      3713      3715
      3713      3716      3716      3717      3716      3718      3716      3719
      3719      3720      3719      3721      3721      3722      3721      3723
      3723      3724      3723      3725      3723      3726      3726      3727
      3726      3728      3728      3729      3728      3730      3730      3731
      3730      3732      3730      3733      3733      3734      3733      3735
      3735      3736      3735      3737      3737      3738      3737      3739
      3737      3740      3740      3741      3740      3742      3742      3743
      3742      3744      3744      3745      3744      3746      3744      3747
      3747      3748      3747      3749      3747      3750      3750      3751
      3750      3752      3750      3753      3753      3754      3753      3755
      3753      3756      3756      3757      3756      3758      3756      3759
      3707      3708      3708      3710      3708      3709      3710      3711
      3710      3712      3710      3760      3760      3761      3760      3762
      3760      3763      3763      3764      3763      3765      3763      3766
      3766      3767      3766      3768      3766      3769      3769      3770
      3769      3771      3769      3772      3772      3773      3772      3774
      3772      3775      3775      3776      3775      3777      3775      3778
      3778      3779      3778      3780      3778      3781      3781      3782
      3781      3783      3781      3784      3784      3785      3784      3786
      3784      3787      3787      3788      3787      3789      3787      3790
      3790      3791      3790      3792      3790      3793      3793      3794
      3793      3795      3793      3796      3796      3797      3796      3798
      3796      3799      3799      3800      3799      3801      3799      3802
      3802      3803      3802      3804      3802      3805      3805      3806
      3805      3807      3805      3808      1464      1465      1464      1466
      1464      1467      1464      1468      1472      1470      1470      1468
      1470      1471      1468      1469      1468      1473      1481      1480
      1473      1474      1473      1475      1473      1479      1479      1476
      1476      1480      1476      1477      1476      1478      1481      1482
      1481      1483      1481      1484      1484      1485      1484      1492
      1484      1486      1492      1493      1492      1494      1492      1495
      1486      1487      1487      1489      1487      1488      1489      1490
      1489      1491      1489      1501      1501      1502      1501      1503
      1501      1504      1504      1505      1504      1506      1504      1507
      1507      1508      1507      1509      1509      1510      1509      1511
      1511      1512      1511      1513      1511      1514      1514      1515
      1514      1516      1516      1517      1516      1518      1518      1519
      1518      1520      1518      1521      1521      1522      1521      1523
      1523      1524      1523      1525      1525      1526      1525      1527
      1525      1528      1528      1529      1528      1530      1530      1531
      1530      1532      1532      1533      1532      1534      1532      1535
      1535      1536      1535      1537      1535      1538      1538      1539
      1538      1540      1538      1541      1541      1542      1541      1543
      1541      1544      1544      1545      1544      1546      1544      1547
      1495      1496      1496      1498      1496      1497      1498      1499
      1498      1500      1498      1548      1548      1549      1548      1550
      1548      1551      1551      1552      1551      1553      1551      1554
      1554      1555      1554      1556      1554      1557      1557      1558
      1557      1559      1557      1560      1560      1561      1560      1562
      1560      1563      1563      1564      1563      1565      1563      1566
      1566      1567      1566      1568      1566      1569      1569      1570
      1569      1571      1569      1572      1572      1573      1572      1574
      1572      1575      1575      1576      1575      1577      1575      1578
      1578      1579      1578      1580      1578      1581      1581      1582
      1581      1583      1581      1584      1584      1585      1584      1586
      1584      1587      1587      1588      1587      1589      1587      1590
      1590      1591      1590      1592      1590      1593      1593      1594
      1593      1595      1593      1596      9067      9069      9067      9068
      9069      9070      9067      9113      9113      9114      9113      9115
      9113      9110      9110      9111      9110      9112      9067      9071
      9071      9072      9071      9073      9071      9074      9074      9105
      9105      9110      9105      9106      9106      9107      9106      9108
      9106      9109      9074      9075      9075      9076      9075      9077
      9077      9078      9077      9079      9077      9080      9080      9081
      9080      9103      9103      9104      9103      9105      9080      9082
      9082      9083      9082      9092      9092      9097      9097      9098
      9097      9099      9097      9100      9100      9101      9100      9102
      9100      9103      9092      9093      9093      9094      9093      9095
      9093      9096      9082      9084      9084      9085      9084      9086
      9084      9087      9087      9088      9087      9089      9087      9090
      9090      9091      9090      9092      9090      9116      9116      9117
      9116      9118      9118      9119      9118      9120      9118      9121
      9116      9122      9122      9123      9122      9124      9122      9125
      9125      9126      9125      9127      9125      9128      9128      9129
      9128      9130      9128      9131      9131      9132      9131      9133
      9133      9134      9133      9135      9133      9136      9131      9137
      9137      9138      9137      9139      9137      9140     19279     19280
     19279     19281     19279     19282     19279     19283     19283     19284
     19283     19285     19283     19286     19286     19287     19286     19288
     19286     19292     19294     19293     19292     19289     19289     19293
     19289     19290     19289     19291     19294     19295     19294     19296
     19294     19297     19297     19298     19297     19305     19297     19299
     19305     19306     19305     19307     19305     19308     19299     19300
     19300     19302     19300     19301     19302     19303     19302     19304
     19302     19314     19314     19315     19314     19316     19314     19317
     19317     19318     19317     19319     19317     19320     19320     19321
     19320     19322     19320     19323     19323     19324     19323     19325
     19323     19326     19326     19327     19326     19328     19326     19329
     19329     19330     19329     19331     19329     19332     19332     19333
     19332     19334     19334     19335     19334     19336     19336     19337
     19336     19338     19336     19339     19339     19340     19339     19341
     19339     19342     19342     19343     19342     19344     19342     19345
     19345     19346     19345     19347     19345     19348     19348     19349
     19348     19350     19348     19351     19351     19352     19351     19353
     19351     19354     19354     19355     19354     19356     19354     19357
     19357     19358     19357     19359     19357     19360     19308     19309
     19309     19311     19309     19310     19311     19312     19311     19313
     19311     19361     19361     19362     19361     19363     19361     19364
     19364     19365     19364     19366     19364     19367     19367     19368
     19367     19369     19367     19370     19370     19371     19370     19372
     19370     19373     19373     19374     19373     19375     19373     19376
     19376     19377     19376     19378     19376     19379     19379     19380
     19379     19381     19379     19382     19382     19383     19382     19384
     19382     19385     19385     19386     19385     19387     19385     19388
     19388     19389     19388     19390     19388     19391     19391     19392
     19391     19393     19391     19394     19394     19395     19394     19396
     19394     19397     19397     19398     19397     19399     19397     19400
     19400     19401     19400     19402     19400     19403     19403     19404
     19403     19405     19403     19406     19406     19407     19406     19408
     19406     19409      1597      1598      1597      1599      1597      1600
      1597      1601      1605      1603      1603      1601      1603      1604
      1601      1602      1601      1606      1614      1613      1606      1607
      1606      1608      1606      1612      1612      1609      1609      1613
      1609      1610      1609      1611      1614      1615      1614      1616
      1614      1617      1617      1618      1617      1625      1617      1619
      1625      1626      1625      1627      1625      1628      1619      1620
      1620      1622      1620      1621      1622      1623      1622      1624
      1622      1634      1634      1635      1634      1636      1634      1637
      1637      1638      1637      1639      1637      1640      1640      1641
      1640      1642      1642      1643      1642      1644      1644      1645
      1644      1646      1644      1647      1647      1648      1647      1649
      1649      1650      1649      1651      1651      1652      1651      1653
      1651      1654      1654      1655      1654      1656      1656      1657
      1656      1658      1658      1659      1658      1660      1658      1661
      1661      1662      1661      1663      1663      1664      1663      1665
      1665      1666      1665      1667      1665      1668      1668      1669
      1668      1670      1668      1671      1671      1672      1671      1673
      1671      1674      1674      1675      1674      1676      1674      1677
      1677      1678      1677      1679      1677      1680      1628      1629
      1629      1631      1629      1630      1631      1632      1631      1633
      1631      1681      1681      1682      1681      1683      1681      1684
      1684      1685      1684      1686      1684      1687      1687      1688
      1687      1689      1687      1690      1690      1691      1690      1692
      1690      1693      1693      1694      1693      1695      1693      1696
      1696      1697      1696      1698      1696      1699      1699      1700
      1699      1701      1699      1702      1702      1703      1702      1704
      1702      1705      1705      1706      1705      1707      1705      1708
      1708      1709      1708      1710      1708      1711      1711      1712
      1711      1713      1711      1714      1714      1715      1714      1716
      1714      1717      1717      1718      1717      1719      1717      1720
      1720      1721      1720      1722      1720      1723      1723      1724
      1723      1725      1723      1726      1726      1727      1726      1728
      1726      1729     13983     13984     13983     13985     13983     13986
     13983     13980     13980     13981     13980     13982     13980     13977
     13977     13978     13977     13979     13977     13974     13974     13975
     13974     13976     13974     13971     13971     13972     13971     13973
     13971     13968     13968     13969     13968     13970     13968     13965
     13965     13966     13965     13967     13965     13962     13962     13963
     13962     13964     13962     13959     13959     13960     13959     13961
     13959     13956     13956     13957     13956     13958     13956     13953
     13953     13954     13953     13955     13953     13950     13950     13951
     13950     13952     13950     13947     13947     13948     13947     13949
     13947     13945     13945     13946     13943     13944     13943     13939
     13939     13940     13939     13941     13941     13942     13939     13937
     13937     13938     13937     13932     13932     13933     13932     13934
     13932     13930     13930     13927     13931     13927     13928     13927
     13929     13927     13931     13924     13924     13925     13924     13926
     13924     13921     13921     13922     13921     13923     13921     13908
     13908     13917     13908     13913     13908     13909     13917     13918
     13917     13919     13917     13920     13913     13914     13913     13915
     13913     13916     13909     13910     13909     13911     13909     13912
     13937     13935     13935     13936     13935     13987     13987     13989
     13989     13990     13989     13991     13989     13992     13992     13993
     13992     13994     13992     13995     13995     13996     13995     13997
     13995     13998     13998     13999     13998     14000     13998     14001
     14001     14002     14001     14003     14001     14004     14004     14005
     14004     14006     14004     14007     14007     14008     14007     14009
     14007     14010     14010     14011     14012     14013     14012     14014
     14014     14015     14014     14016     14014     14017     14017     14018
     14017     14019     14017     14020     14020     14021     14020     14022
     14020     14023     14023     14024     14023     14025     14023     14026
     14026     14027     14026     14028     14026     14029     14029     14030
     14029     14031     14029     14032     14032     14033     14032     14034
     14032     14035     14035     14036     14035     14037     14035     14038
     13943     13945     14010     14012     13987     13988      9141      9143
      9141      9142      9143      9144      9141      9187      9187      9188
      9187      9189      9187      9184      9184      9185      9184      9186
      9141      9145      9145      9146      9145      9147      9145      9148
      9148      9179      9179      9184      9179      9180      9180      9181
      9180      9182      9180      9183      9148      9149      9149      9150
      9149      9151      9151      9152      9151      9153      9151      9154
      9154      9155      9154      9177      9177      9178      9177      9179
      9154      9156      9156      9157      9156      9166      9166      9171
      9171      9172      9171      9173      9171      9174      9174      9175
      9174      9176      9174      9177      9166      9167      9167      9168
      9167      9169      9167      9170      9156      9158      9158      9159
      9158      9160      9158      9161      9161      9162      9161      9163
      9161      9164      9164      9165      9164      9166      9164      9190
      9190      9191      9190      9192      9192      9193      9192      9194
      9192      9195      9190      9196      9196      9197      9196      9198
      9196      9199      9199      9200      9199      9201      9199      9202
      9202      9203      9202      9204      9202      9205      9205      9206
      9205      9207      9207      9208      9207      9209      9207      9210
      9205      9211      9211      9212      9211      9213      9211      9214
      9215      9217      9215      9216      9217      9218      9215      9261
      9261      9262      9261      9263      9261      9258      9258      9259
      9258      9260      9215      9219      9219      9220      9219      9221
      9219      9222      9222      9253      9253      9258      9253      9254
      9254      9255      9254      9256      9254      9257      9222      9223
      9223      9224      9223      9225      9225      9226      9225      9227
      9225      9228      9228      9229      9228      9251      9251      9252
      9251      9253      9228      9230      9230      9231      9230      9240
      9240      9245      9245      9246      9245      9247      9245      9248
      9248      9249      9248      9250      9248      9251      9240      9241
      9241      9242      9241      9243      9241      9244      9230      9232
      9232      9233      9232      9234      9232      9235      9235      9236
      9235      9237      9235      9238      9238      9239      9238      9240
      9238      9264      9264      9265      9264      9266      9266      9267
      9266      9268      9266      9269      9264      9270      9270      9271
      9270      9272      9270      9273      9273      9274      9273      9275
      9273      9276      9276      9277      9276      9278      9276      9279
      9279      9280      9279      9281      9281      9282      9281      9283
      9281      9284      9279      9285      9285      9286      9285      9287
      9285      9288      3809      3813      3809      3817      3809      3821
      3813      3814      3813      3815      3813      3816      3817      3818
      3817      3819      3817      3820      3821      3822      3821      3823
      3821      3824      3809      3810      3810      3811      3810      3812
      3810      3825      3825      3826      3825      3827      3825      3831
      3832      3833      3831      3828      3828      3832      3828      3829
      3828      3830      3833      3834      3833      3835      3833      3836
      3836      3837      3836      3844      3836      3838      3844      3845
      3844      3846      3844      3847      3838      3839      3839      3841
      3839      3840      3841      3842      3841      3843      3841      3853
      3853      3854      3853      3855      3853      3856      3856      3857
      3856      3858      3856      3859      3859      3860      3859      3861
      3861      3862      3861      3863      3863      3864      3863      3865
      3863      3866      3866      3867      3866      3868      3868      3869
      3868      3870      3870      3871      3870      3872      3870      3873
      3873      3874      3873      3875      3875      3876      3875      3877
      3877      3878      3877      3879      3877      3880      3880      3881
      3880      3882      3882      3883      3882      3884      3884      3885
      3884      3886      3884      3887      3887      3888      3887      3889
      3887      3890      3890      3891      3890      3892      3890      3893
      3893      3894      3893      3895      3893      3896      3896      3897
      3896      3898      3896      3899      3847      3848      3848      3850
      3848      3849      3850      3851      3850      3852      3850      3900
      3900      3901      3900      3902      3900      3903      3903      3904
      3903      3905      3903      3906      3906      3907      3906      3908
      3906      3909      3909      3910      3909      3911      3909      3912
      3912      3913      3912      3914      3912      3915      3915      3916
      3915      3917      3915      3918      3918      3919      3918      3920
      3918      3921      3921      3922      3921      3923      3921      3924
      3924      3925      3924      3926      3924      3927      3927      3928
      3927      3929      3927      3930      3930      3931      3930      3932
      3930      3933      3933      3934      3933      3935      3933      3936
      3936      3937      3936      3938      3936      3939      3939      3940
      3939      3941      3939      3942      3942      3943      3942      3944
      3942      3945      3945      3946      3945      3947      3945      3948
     17576     17577     17576     17578     17576     17579     17576     17580
     17580     17581     17580     17582     17580     17583     17583     17584
     17583     17585     17583     17589     17591     17590     17589     17586
     17586     17590     17586     17587     17586     17588     17591     17592
     17591     17593     17591     17594     17594     17595     17594     17602
     17594     17596     17602     17603     17602     17604     17602     17605
     17596     17597     17597     17599     17597     17598     17599     17600
     17599     17601     17599     17611     17611     17612     17611     17613
     17611     17614     17614     17615     17614     17616     17614     17617
     17617     17618     17617     17619     17619     17620     17619     17621
     17621     17622     17621     17623     17621     17624     17624     17625
     17624     17626     17626     17627     17626     17628     17628     17629
     17628     17630     17628     17631     17631     17632     17631     17633
     17633     17634     17633     17635     17635     17636     17635     17637
     17635     17638     17638     17639     17638     17640     17640     17641
     17640     17642     17642     17643     17642     17644     17642     17645
     17645     17646     17645     17647     17645     17648     17648     17649
     17648     17650     17648     17651     17651     17652     17651     17653
     17651     17654     17654     17655     17654     17656     17654     17657
     17605     17606     17606     17608     17606     17607     17608     17609
     17608     17610     17608     17658     17658     17659     17658     17660
     17658     17661     17661     17662     17661     17663     17661     17664
     17664     17665     17664     17666     17664     17667     17667     17668
     17667     17669     17667     17670     17670     17671     17670     17672
     17670     17673     17673     17674     17673     17675     17673     17676
     17676     17677     17676     17678     17676     17679     17679     17680
     17679     17681     17679     17682     17682     17683     17682     17684
     17682     17685     17685     17686     17685     17687     17685     17688
     17688     17689     17688     17690     17688     17691     17691     17692
     17691     17693     17691     17694     17694     17695     17694     17696
     17694     17697     17697     17698     17697     17699     17697     17700
     17700     17701     17700     17702     17700     17703     17703     17704
     17703     17705     17703     17706     14114     14115     14114     14116
     14114     14117     14114     14111     14111     14112     14111     14113
     14111     14108     14108     14109     14108     14110     14108     14105
     14105     14106     14105     14107     14105     14102     14102     14103
     14102     14104     14102     14099     14099     14100     14099     14101
     14099     14096     14096     14097     14096     14098     14096     14093
     14093     14094     14093     14095     14093     14090     14090     14091
     14090     14092     14090     14087     14087     14088     14087     14089
     14087     14084     14084     14085     14084     14086     14084     14081
     14081     14082     14081     14083     14081     14078     14078     14079
     14078     14080     14078     14076     14076     14077     14074     14075
     14074     14070     14070     14071     14070     14072     14072     14073
     14070     14068     14068     14069     14068     14063     14063     14064
     14063     14065     14063     14061     14061     14058     14062     14058
     14059     14058     14060     14058     14062     14055     14055     14056
     14055     14057     14055     14052     14052     14053     14052     14054
     14052     14039     14039     14048     14039     14044     14039     14040
     14048     14049     14048     14050     14048     14051     14044     14045
     14044     14046     14044     14047     14040     14041     14040     14042
     14040     14043     14068     14066     14066     14067     14066     14118
     14118     14120     14120     14121     14120     14122     14120     14123
     14123     14124     14123     14125     14123     14126     14126     14127
     14126     14128     14126     14129     14129     14130     14129     14131
     14129     14132     14132     14133     14132     14134     14132     14135
     14135     14136     14135     14137     14135     14138     14138     14139
     14138     14140     14138     14141     14141     14142     14143     14144
     14143     14145     14145     14146     14145     14147     14145     14148
     14148     14149     14148     14150     14148     14151     14151     14152
     14151     14153     14151     14154     14154     14155     14154     14156
     14154     14157     14157     14158     14157     14159     14157     14160
     14160     14161     14160     14162     14160     14163     14163     14164
     14163     14165     14163     14166     14166     14167     14166     14168
     14166     14169     14074     14076     14141     14143     14118     14119
     17707     17708     17707     17709     17707     17710     17707     17711
     17711     17712     17711     17713     17711     17714     17714     17715
     17714     17716     17714     17720     17722     17721     17720     17717
     17717     17721     17717     17718     17717     17719     17722     17723
     17722     17724     17722     17725     17725     17726     17725     17733
     17725     17727     17733     17734     17733     17735     17733     17736
     17727     17728     17728     17730     17728     17729     17730     17731
     17730     17732     17730     17742     17742     17743     17742     17744
     17742     17745     17745     17746     17745     17747     17745     17748
     17748     17749     17748     17750     17750     17751     17750     17752
     17752     17753     17752     17754     17752     17755     17755     17756
     17755     17757     17757     17758     17757     17759     17759     17760
     17759     17761     17759     17762     17762     17763     17762     17764
     17764     17765     17764     17766     17766     17767     17766     17768
     17766     17769     17769     17770     17769     17771     17771     17772
     17771     17773     17773     17774     17773     17775     17773     17776
     17776     17777     17776     17778     17776     17779     17779     17780
     17779     17781     17779     17782     17782     17783     17782     17784
     17782     17785     17785     17786     17785     17787     17785     17788
     17736     17737     17737     17739     17737     17738     17739     17740
     17739     17741     17739     17789     17789     17790     17789     17791
     17789     17792     17792     17793     17792     17794     17792     17795
     17795     17796     17795     17797     17795     17798     17798     17799
     17798     17800     17798     17801     17801     17802     17801     17803
     17801     17804     17804     17805     17804     17806     17804     17807
     17807     17808     17807     17809     17807     17810     17810     17811
     17810     17812     17810     17813     17813     17814     17813     17815
     17813     17816     17816     17817     17816     17818     17816     17819
     17819     17820     17819     17821     17819     17822     17822     17823
     17822     17824     17822     17825     17825     17826     17825     17827
     17825     17828     17828     17829     17828     17830     17828     17831
     17831     17832     17831     17833     17831     17834     17834     17835
     17834     17836     17834     17837     14245     14246     14245     14247
     14245     14248     14245     14242     14242     14243     14242     14244
     14242     14239     14239     14240     14239     14241     14239     14236
     14236     14237     14236     14238     14236     14233     14233     14234
     14233     14235     14233     14230     14230     14231     14230     14232
     14230     14227     14227     14228     14227     14229     14227     14224
     14224     14225     14224     14226     14224     14221     14221     14222
     14221     14223     14221     14218     14218     14219     14218     14220
     14218     14215     14215     14216     14215     14217     14215     14212
     14212     14213     14212     14214     14212     14209     14209     14210
     14209     14211     14209     14207     14207     14208     14205     14206
     14205     14201     14201     14202     14201     14203     14203     14204
     14201     14199     14199     14200     14199     14194     14194     14195
     14194     14196     14194     14192     14192     14189     14193     14189
     14190     14189     14191     14189     14193     14186     14186     14187
     14186     14188     14186     14183     14183     14184     14183     14185
     14183     14170     14170     14179     14170     14175     14170     14171
     14179     14180     14179     14181     14179     14182     14175     14176
     14175     14177     14175     14178     14171     14172     14171     14173
     14171     14174     14199     14197     14197     14198     14197     14249
     14249     14251     14251     14252     14251     14253     14251     14254
     14254     14255     14254     14256     14254     14257     14257     14258
     14257     14259     14257     14260     14260     14261     14260     14262
     14260     14263     14263     14264     14263     14265     14263     14266
     14266     14267     14266     14268     14266     14269     14269     14270
     14269     14271     14269     14272     14272     14273     14274     14275
     14274     14276     14276     14277     14276     14278     14276     14279
     14279     14280     14279     14281     14279     14282     14282     14283
     14282     14284     14282     14285     14285     14286     14285     14287
     14285     14288     14288     14289     14288     14290     14288     14291
     14291     14292     14291     14293     14291     14294     14294     14295
     14294     14296     14294     14297     14297     14298     14297     14299
     14297     14300     14205     14207     14272     14274     14249     14250
      9289      9291      9289      9290      9291      9292      9289      9335
      9335      9336      9335      9337      9335      9332      9332      9333
      9332      9334      9289      9293      9293      9294      9293      9295
      9293      9296      9296      9327      9327      9332      9327      9328
      9328      9329      9328      9330      9328      9331      9296      9297
      9297      9298      9297      9299      9299      9300      9299      9301
      9299      9302      9302      9303      9302      9325      9325      9326
      9325      9327      9302      9304      9304      9305      9304      9314
      9314      9319      9319      9320      9319      9321      9319      9322
      9322      9323      9322      9324      9322      9325      9314      9315
      9315      9316      9315      9317      9315      9318      9304      9306
      9306      9307      9306      9308      9306      9309      9309      9310
      9309      9311      9309      9312      9312      9313      9312      9314
      9312      9338      9338      9339      9338      9340      9340      9341
      9340      9342      9340      9343      9338      9344      9344      9345
      9344      9346      9344      9347      9347      9348      9347      9349
      9347      9350      9350      9351      9350      9352      9350      9353
      9353      9354      9353      9355      9355      9356      9355      9357
      9355      9358      9353      9359      9359      9360      9359      9361
      9359      9362      1730      1731      1730      1732      1730      1733
      1730      1734      1738      1736      1736      1734      1736      1737
      1734      1735      1734      1739      1747      1746      1739      1740
      1739      1741      1739      1745      1745      1742      1742      1746
      1742      1743      1742      1744      1747      1748      1747      1749
      1747      1750      1750      1751      1750      1758      1750      1752
      1758      1759      1758      1760      1758      1761      1752      1753
      1753      1755      1753      1754      1755      1756      1755      1757
      1755      1767      1767      1768      1767      1769      1767      1770
      1770      1771      1770      1772      1770      1773      1773      1774
      1773      1775      1775      1776      1775      1777      1777      1778
      1777      1779      1777      1780      1780      1781      1780      1782
      1782      1783      1782      1784      1784      1785      1784      1786
      1784      1787      1787      1788      1787      1789      1789      1790
      1789      1791      1791      1792      1791      1793      1791      1794
      1794      1795      1794      1796      1796      1797      1796      1798
      1798      1799      1798      1800      1798      1801      1801      1802
      1801      1803      1801      1804      1804      1805      1804      1806
      1804      1807      1807      1808      1807      1809      1807      1810
      1810      1811      1810      1812      1810      1813      1761      1762
      1762      1764      1762      1763      1764      1765      1764      1766
      1764      1814      1814      1815      1814      1816      1814      1817
      1817      1818      1817      1819      1817      1820      1820      1821
      1820      1822      1820      1823      1823      1824      1823      1825
      1823      1826      1826      1827      1826      1828      1826      1829
      1829      1830      1829      1831      1829      1832      1832      1833
      1832      1834      1832      1835      1835      1836      1835      1837
      1835      1838      1838      1839      1838      1840      1838      1841
      1841      1842      1841      1843      1841      1844      1844      1845
      1844      1846      1844      1847      1847      1848      1847      1849
      1847      1850      1850      1851      1850      1852      1850      1853
      1853      1854      1853      1855      1853      1856      1856      1857
      1856      1858      1856      1859      1859      1860      1859      1861
      1859      1862     19410     19411     19410     19412     19410     19413
     19410     19414     19414     19415     19414     19416     19414     19417
     19417     19418     19417     19419     19417     19423     19425     19424
     19423     19420     19420     19424     19420     19421     19420     19422
     19425     19426     19425     19427     19425     19428     19428     19429
     19428     19436     19428     19430     19436     19437     19436     19438
     19436     19439     19430     19431     19431     19433     19431     19432
     19433     19434     19433     19435     19433     19445     19445     19446
     19445     19447     19445     19448     19448     19449     19448     19450
     19448     19451     19451     19452     19451     19453     19451     19454
     19454     19455     19454     19456     19454     19457     19457     19458
     19457     19459     19457     19460     19460     19461     19460     19462
     19460     19463     19463     19464     19463     19465     19465     19466
     19465     19467     19467     19468     19467     19469     19467     19470
     19470     19471     19470     19472     19470     19473     19473     19474
     19473     19475     19473     19476     19476     19477     19476     19478
     19476     19479     19479     19480     19479     19481     19479     19482
     19482     19483     19482     19484     19482     19485     19485     19486
     19485     19487     19485     19488     19488     19489     19488     19490
     19488     19491     19439     19440     19440     19442     19440     19441
     19442     19443     19442     19444     19442     19492     19492     19493
     19492     19494     19492     19495     19495     19496     19495     19497
     19495     19498     19498     19499     19498     19500     19498     19501
     19501     19502     19501     19503     19501     19504     19504     19505
     19504     19506     19504     19507     19507     19508     19507     19509
     19507     19510     19510     19511     19510     19512     19510     19513
     19513     19514     19513     19515     19513     19516     19516     19517
     19516     19518     19516     19519     19519     19520     19519     19521
     19519     19522     19522     19523     19522     19524     19522     19525
     19525     19526     19525     19527     19525     19528     19528     19529
     19528     19530     19528     19531     19531     19532     19531     19533
     19531     19534     19534     19535     19534     19536     19534     19537
     19537     19538     19537     19539     19537     19540      3949      3953
      3949      3957      3949      3961      3953      3954      3953      3955
      3953      3956      3957      3958      3957      3959      3957      3960
      3961      3962      3961      3963      3961      3964      3949      3950
      3950      3951      3950      3952      3950      3965      3965      3966
      3965      3967      3965      3971      3972      3973      3971      3968
      3968      3972      3968      3969      3968      3970      3973      3974
      3973      3975      3973      3976      3976      3977      3976      3984
      3976      3978      3984      3985      3984      3986      3984      3987
      3978      3979      3979      3981      3979      3980      3981      3982
      3981      3983      3981      3993      3993      3994      3993      3995
      3993      3996      3996      3997      3996      3998      3996      3999
      3999      4000      3999      4001      4001      4002      4001      4003
      4003      4004      4003      4005      4003      4006      4006      4007
      4006      4008      4008      4009      4008      4010      4010      4011
      4010      4012      4010      4013      4013      4014      4013      4015
      4015      4016      4015      4017      4017      4018      4017      4019
      4017      4020      4020      4021      4020      4022      4022      4023
      4022      4024      4024      4025      4024      4026      4024      4027
      4027      4028      4027      4029      4027      4030      4030      4031
      4030      4032      4030      4033      4033      4034      4033      4035
      4033      4036      4036      4037      4036      4038      4036      4039
      3987      3988      3988      3990      3988      3989      3990      3991
      3990      3992      3990      4040      4040      4041      4040      4042
      4040      4043      4043      4044      4043      4045      4043      4046
      4046      4047      4046      4048      4046      4049      4049      4050
      4049      4051      4049      4052      4052      4053      4052      4054
      4052      4055      4055      4056      4055      4057      4055      4058
      4058      4059      4058      4060      4058      4061      4061      4062
      4061      4063      4061      4064      4064      4065      4064      4066
      4064      4067      4067      4068      4067      4069      4067      4070
      4070      4071      4070      4072      4070      4073      4073      4074
      4073      4075      4073      4076      4076      4077      4076      4078
      4076      4079      4079      4080      4079      4081      4079      4082
      4082      4083      4082      4084      4082      4085      4085      4086
      4085      4087      4085      4088      9363      9365      9363      9364
      9365      9366      9363      9409      9409      9410      9409      9411
      9409      9406      9406      9407      9406      9408      9363      9367
      9367      9368      9367      9369      9367      9370      9370      9401
      9401      9406      9401      9402      9402      9403      9402      9404
      9402      9405      9370      9371      9371      9372      9371      9373
      9373      9374      9373      9375      9373      9376      9376      9377
      9376      9399      9399      9400      9399      9401      9376      9378
      9378      9379      9378      9388      9388      9393      9393      9394
      9393      9395      9393      9396      9396      9397      9396      9398
      9396      9399      9388      9389      9389      9390      9389      9391
      9389      9392      9378      9380      9380      9381      9380      9382
      9380      9383      9383      9384      9383      9385      9383      9386
      9386      9387      9386      9388      9386      9412      9412      9413
      9412      9414      9414      9415      9414      9416      9414      9417
      9412      9418      9418      9419      9418      9420      9418      9421
      9421      9422      9421      9423      9421      9424      9424      9425
      9424      9426      9424      9427      9427      9428      9427      9429
      9429      9430      9429      9431      9429      9432      9427      9433
      9433      9434      9433      9435      9433      9436      1863      1864
      1863      1865      1863      1866      1863      1867      1871      1869
      1869      1867      1869      1870      1867      1868      1867      1872
      1880      1879      1872      1873      1872      1874      1872      1878
      1878      1875      1875      1879      1875      1876      1875      1877
      1880      1881      1880      1882      1880      1883      1883      1884
      1883      1891      1883      1885      1891      1892      1891      1893
      1891      1894      1885      1886      1886      1888      1886      1887
      1888      1889      1888      1890      1888      1900      1900      1901
      1900      1902      1900      1903      1903      1904      1903      1905
      1903      1906      1906      1907      1906      1908      1908      1909
      1908      1910      1910      1911      1910      1912      1910      1913
      1913      1914      1913      1915      1915      1916      1915      1917
      1917      1918      1917      1919      1917      1920      1920      1921
      1920      1922      1922      1923      1922      1924      1924      1925
      1924      1926      1924      1927      1927      1928      1927      1929
      1929      1930      1929      1931      1931      1932      1931      1933
      1931      1934      1934      1935      1934      1936      1934      1937
      1937      1938      1937      1939      1937      1940      1940      1941
      1940      1942      1940      1943      1943      1944      1943      1945
      1943      1946      1894      1895      1895      1897      1895      1896
      1897      1898      1897      1899      1897      1947      1947      1948
      1947      1949      1947      1950      1950      1951      1950      1952
      1950      1953      1953      1954      1953      1955      1953      1956
      1956      1957      1956      1958      1956      1959      1959      1960
      1959      1961      1959      1962      1962      1963      1962      1964
      1962      1965      1965      1966      1965      1967      1965      1968
      1968      1969      1968      1970      1968      1971      1971      1972
      1971      1973      1971      1974      1974      1975      1974      1976
      1974      1977      1977      1978      1977      1979      1977      1980
      1980      1981      1980      1982      1980      1983      1983      1984
      1983      1985      1983      1986      1986      1987      1986      1988
      1986      1989      1989      1990      1989      1991      1989      1992
      1992      1993      1992      1994      1992      1995      4089      4093
      4089      4097      4089      4101      4093      4094      4093      4095
      4093      4096      4097      4098      4097      4099      4097      4100
      4101      4102      4101      4103      4101      4104      4089      4090
      4090      4091      4090      4092      4090      4105      4105      4106
      4105      4107      4105      4111      4112      4113      4111      4108
      4108      4112      4108      4109      4108      4110      4113      4114
      4113      4115      4113      4116      4116      4117      4116      4124
      4116      4118      4124      4125      4124      4126      4124      4127
      4118      4119      4119      4121      4119      4120      4121      4122
      4121      4123      4121      4133      4133      4134      4133      4135
      4133      4136      4136      4137      4136      4138      4136      4139
      4139      4140      4139      4141      4141      4142      4141      4143
      4143      4144      4143      4145      4143      4146      4146      4147
      4146      4148      4148      4149      4148      4150      4150      4151
      4150      4152      4150      4153      4153      4154      4153      4155
      4155      4156      4155      4157      4157      4158      4157      4159
      4157      4160      4160      4161      4160      4162      4162      4163
      4162      4164      4164      4165      4164      4166      4164      4167
      4167      4168      4167      4169      4167      4170      4170      4171
      4170      4172      4170      4173      4173      4174      4173      4175
      4173      4176      4176      4177      4176      4178      4176      4179
      4127      4128      4128      4130      4128      4129      4130      4131
      4130      4132      4130      4180      4180      4181      4180      4182
      4180      4183      4183      4184      4183      4185      4183      4186
      4186      4187      4186      4188      4186      4189      4189      4190
      4189      4191      4189      4192      4192      4193      4192      4194
      4192      4195      4195      4196      4195      4197      4195      4198
      4198      4199      4198      4200      4198      4201      4201      4202
      4201      4203      4201      4204      4204      4205      4204      4206
      4204      4207      4207      4208      4207      4209      4207      4210
      4210      4211      4210      4212      4210      4213      4213      4214
      4213      4215      4213      4216      4216      4217      4216      4218
      4216      4219      4219      4220      4219      4221      4219      4222
      4222      4223      4222      4224      4222      4225      4225      4226
      4225      4227      4225      4228     22045     22046     22045     22050
     22045     22054     22046     22047     22046     22048     22046     22049
     22050     22051     22050     22052     22050     22053     22054     22055
     22054     22056     22054     22057     22045     22058     22058     22059
     22058     22060     22058     22061     22061     22062     22061     22063
     22061     22067     22068     22069     22067     22064     22064     22068
     22064     22065     22064     22066     22069     22070     22069     22071
     22069     22072     22072     22073     22072     22080     22072     22074
     22080     22081     22080     22082     22080     22083     22074     22075
     22075     22077     22075     22076     22077     22078     22077     22079
     22077     22089     22089     22090     22089     22091     22089     22092
     22092     22093     22092     22094     22092     22095     22095     22096
     22095     22097     22095     22098     22098     22099     22098     22100
     22098     22101     22101     22102     22101     22103     22101     22104
     22104     22105     22104     22106     22104     22107     22107     22108
     22107     22109     22109     22110     22109     22111     22111     22112
     22111     22113     22111     22114     22114     22115     22114     22116
     22116     22117     22116     22118     22118     22119     22118     22120
     22118     22121     22121     22122     22121     22123     22121     22124
     22124     22125     22124     22126     22124     22127     22127     22128
     22127     22129     22127     22130     22130     22131     22130     22132
     22130     22133     22083     22084     22084     22086     22084     22085
     22086     22087     22086     22088     22086     22134     22134     22135
     22134     22136     22134     22137     22137     22138     22137     22139
     22137     22140     22140     22141     22140     22142     22140     22143
     22143     22144     22143     22145     22143     22146     22146     22147
     22146     22148     22146     22149     22149     22150     22149     22151
     22149     22152     22152     22153     22152     22154     22152     22155
     22155     22156     22155     22157     22155     22158     22158     22159
     22158     22160     22158     22161     22161     22162     22161     22163
     22161     22164     22164     22165     22164     22166     22164     22167
     22167     22168     22167     22169     22167     22170     22170     22171
     22170     22172     22170     22173     22173     22174     22173     22175
     22173     22176     22176     22177     22176     22178     22176     22179
     22179     22180     22179     22181     22179     22182      9437      9439
      9437      9438      9439      9440      9437      9483      9483      9484
      9483      9485      9483      9480      9480      9481      9480      9482
      9437      9441      9441      9442      9441      9443      9441      9444
      9444      9475      9475      9480      9475      9476      9476      9477
      9476      9478      9476      9479      9444      9445      9445      9446
      9445      9447      9447      9448      9447      9449      9447      9450
      9450      9451      9450      9473      9473      9474      9473      9475
      9450      9452      9452      9453      9452      9462      9462      9467
      9467      9468      9467      9469      9467      9470      9470      9471
      9470      9472      9470      9473      9462      9463      9463      9464
      9463      9465      9463      9466      9452      9454      9454      9455
      9454      9456      9454      9457      9457      9458      9457      9459
      9457      9460      9460      9461      9460      9462      9460      9486
      9486      9487      9486      9488      9488      9489      9488      9490
      9488      9491      9486      9492      9492      9493      9492      9494
      9492      9495      9495      9496      9495      9497      9495      9498
      9498      9499      9498      9500      9498      9501      9501      9502
      9501      9503      9503      9504      9503      9505      9503      9506
      9501      9507      9507      9508      9507      9509      9507      9510
      9511      9513      9511      9512      9513      9514      9511      9557
      9557      9558      9557      9559      9557      9554      9554      9555
      9554      9556      9511      9515      9515      9516      9515      9517
      9515      9518      9518      9549      9549      9554      9549      9550
      9550      9551      9550      9552      9550      9553      9518      9519
      9519      9520      9519      9521      9521      9522      9521      9523
      9521      9524      9524      9525      9524      9547      9547      9548
      9547      9549      9524      9526      9526      9527      9526      9536
      9536      9541      9541      9542      9541      9543      9541      9544
      9544      9545      9544      9546      9544      9547      9536      9537
      9537      9538      9537      9539      9537      9540      9526      9528
      9528      9529      9528      9530      9528      9531      9531      9532
      9531      9533      9531      9534      9534      9535      9534      9536
      9534      9560      9560      9561      9560      9562      9562      9563
      9562      9564      9562      9565      9560      9566      9566      9567
      9566      9568      9566      9569      9569      9570      9569      9571
      9569      9572      9572      9573      9572      9574      9572      9575
      9575      9576      9575      9577      9577      9578      9577      9579
      9577      9580      9575      9581      9581      9582      9581      9583
      9581      9584      5307      5311      5307      5315      5307      5319
      5311      5312      5311      5313      5311      5314      5315      5316
      5315      5317      5315      5318      5319      5320      5319      5321
      5319      5322      5307      5308      5308      5309      5308      5310
      5308      5323      5323      5324      5323      5325      5323      5329
      5330      5331      5329      5326      5326      5330      5326      5327
      5326      5328      5331      5332      5331      5333      5331      5334
      5334      5335      5334      5342      5334      5336      5342      5343
      5342      5344      5342      5345      5336      5337      5337      5339
      5337      5338      5339      5340      5339      5341      5339      5351
      5351      5352      5351      5353      5351      5354      5354      5355
      5354      5356      5354      5357      5357      5358      5357      5359
      5357      5360      5360      5361      5360      5362      5360      5363
      5363      5364      5363      5365      5363      5366      5366      5367
      5366      5368      5366      5369      5369      5370      5369      5371
      5371      5372      5371      5373      5373      5374      5373      5375
      5373      5376      5376      5377      5376      5378      5376      5379
      5379      5380      5379      5381      5379      5382      5382      5383
      5382      5384      5382      5385      5385      5386      5385      5387
      5385      5388      5388      5389      5388      5390      5388      5391
      5391      5392      5391      5393      5391      5394      5394      5395
      5394      5396      5394      5397      5345      5346      5346      5348
      5346      5347      5348      5349      5348      5350      5348      5398
      5398      5399      5398      5400      5398      5401      5401      5402
      5401      5403      5401      5404      5404      5405      5404      5406
      5404      5407      5407      5408      5407      5409      5407      5410
      5410      5411      5410      5412      5410      5413      5413      5414
      5413      5415      5413      5416      5416      5417      5416      5418
      5416      5419      5419      5420      5419      5421      5419      5422
      5422      5423      5422      5424      5422      5425      5425      5426
      5425      5427      5425      5428      5428      5429      5428      5430
      5428      5431      5431      5432      5431      5433      5431      5434
      5434      5435      5434      5436      5434      5437      5437      5438
      5437      5439      5437      5440     17838     17839     17838     17840
     17838     17841     17838     17842     17842     17843     17842     17844
     17842     17845     17845     17846     17845     17847     17845     17851
     17853     17852     17851     17848     17848     17852     17848     17849
     17848     17850     17853     17854     17853     17855     17853     17856
     17856     17857     17856     17864     17856     17858     17864     17865
     17864     17866     17864     17867     17858     17859     17859     17861
     17859     17860     17861     17862     17861     17863     17861     17873
     17873     17874     17873     17875     17873     17876     17876     17877
     17876     17878     17876     17879     17879     17880     17879     17881
     17881     17882     17881     17883     17883     17884     17883     17885
     17883     17886     17886     17887     17886     17888     17888     17889
     17888     17890     17890     17891     17890     17892     17890     17893
     17893     17894     17893     17895     17895     17896     17895     17897
     17897     17898     17897     17899     17897     17900     17900     17901
     17900     17902     17902     17903     17902     17904     17904     17905
     17904     17906     17904     17907     17907     17908     17907     17909
     17907     17910     17910     17911     17910     17912     17910     17913
     17913     17914     17913     17915     17913     17916     17916     17917
     17916     17918     17916     17919     17867     17868     17868     17870
     17868     17869     17870     17871     17870     17872     17870     17920
     17920     17921     17920     17922     17920     17923     17923     17924
     17923     17925     17923     17926     17926     17927     17926     17928
     17926     17929     17929     17930     17929     17931     17929     17932
     17932     17933     17932     17934     17932     17935     17935     17936
     17935     17937     17935     17938     17938     17939     17938     17940
     17938     17941     17941     17942     17941     17943     17941     17944
     17944     17945     17944     17946     17944     17947     17947     17948
     17947     17949     17947     17950     17950     17951     17950     17952
     17950     17953     17953     17954     17953     17955     17953     17956
     17956     17957     17956     17958     17956     17959     17959     17960
     17959     17961     17959     17962     17962     17963     17962     17964
     17962     17965     17965     17966     17965     17967     17965     17968
      4229      4233      4229      4237      4229      4241      4233      4234
      4233      4235      4233      4236      4237      4238      4237      4239
      4237      4240      4241      4242      4241      4243      4241      4244
      4229      4230      4230      4231      4230      4232      4230      4245
      4245      4246      4245      4247      4245      4251      4252      4253
      4251      4248      4248      4252      4248      4249      4248      4250
      4253      4254      4253      4255      4253      4256      4256      4257
      4256      4264      4256      4258      4264      4265      4264      4266
      4264      4267      4258      4259      4259      4261      4259      4260
      4261      4262      4261      4263      4261      4273      4273      4274
      4273      4275      4273      4276      4276      4277      4276      4278
      4276      4279      4279      4280      4279      4281      4281      4282
      4281      4283      4283      4284      4283      4285      4283      4286
      4286      4287      4286      4288      4288      4289      4288      4290
      4290      4291      4290      4292      4290      4293      4293      4294
      4293      4295      4295      4296      4295      4297      4297      4298
      4297      4299      4297      4300      4300      4301      4300      4302
      4302      4303      4302      4304      4304      4305      4304      4306
      4304      4307      4307      4308      4307      4309      4307      4310
      4310      4311      4310      4312      4310      4313      4313      4314
      4313      4315      4313      4316      4316      4317      4316      4318
      4316      4319      4267      4268      4268      4270      4268      4269
      4270      4271      4270      4272      4270      4320      4320      4321
      4320      4322      4320      4323      4323      4324      4323      4325
      4323      4326      4326      4327      4326      4328      4326      4329
      4329      4330      4329      4331      4329      4332      4332      4333
      4332      4334      4332      4335      4335      4336      4335      4337
      4335      4338      4338      4339      4338      4340      4338      4341
      4341      4342      4341      4343      4341      4344      4344      4345
      4344      4346      4344      4347      4347      4348      4347      4349
      4347      4350      4350      4351      4350      4352      4350      4353
      4353      4354      4353      4355      4353      4356      4356      4357
      4356      4358      4356      4359      4359      4360      4359      4361
      4359      4362      4362      4363      4362      4364      4362      4365
      4365      4366      4365      4367      4365      4368     22183     22184
     22183     22188     22183     22192     22184     22185     22184     22186
     22184     22187     22188     22189     22188     22190     22188     22191
     22192     22193     22192     22194     22192     22195     22183     22196
     22196     22197     22196     22198     22196     22199     22199     22200
     22199     22201     22199     22205     22206     22207     22205     22202
     22202     22206     22202     22203     22202     22204     22207     22208
     22207     22209     22207     22210     22210     22211     22210     22218
     22210     22212     22218     22219     22218     22220     22218     22221
     22212     22213     22213     22215     22213     22214     22215     22216
     22215     22217     22215     22227     22227     22228     22227     22229
     22227     22230     22230     22231     22230     22232     22230     22233
     22233     22234     22233     22235     22233     22236     22236     22237
     22236     22238     22236     22239     22239     22240     22239     22241
     22239     22242     22242     22243     22242     22244     22242     22245
     22245     22246     22245     22247     22247     22248     22247     22249
     22249     22250     22249     22251     22249     22252     22252     22253
     22252     22254     22254     22255     22254     22256     22256     22257
     22256     22258     22256     22259     22259     22260     22259     22261
     22259     22262     22262     22263     22262     22264     22262     22265
     22265     22266     22265     22267     22265     22268     22268     22269
     22268     22270     22268     22271     22221     22222     22222     22224
     22222     22223     22224     22225     22224     22226     22224     22272
     22272     22273     22272     22274     22272     22275     22275     22276
     22275     22277     22275     22278     22278     22279     22278     22280
     22278     22281     22281     22282     22281     22283     22281     22284
     22284     22285     22284     22286     22284     22287     22287     22288
     22287     22289     22287     22290     22290     22291     22290     22292
     22290     22293     22293     22294     22293     22295     22293     22296
     22296     22297     22296     22298     22296     22299     22299     22300
     22299     22301     22299     22302     22302     22303     22302     22304
     22302     22305     22305     22306     22305     22307     22305     22308
     22308     22309     22308     22310     22308     22311     22311     22312
     22311     22313     22311     22314     22314     22315     22314     22316
     22314     22317     22317     22318     22317     22319     22317     22320
      1996      1997      1996      1998      1996      1999      1996      2000
      2004      2002      2002      2000      2002      2003      2000      2001
      2000      2005      2013      2012      2005      2006      2005      2007
      2005      2011      2011      2008      2008      2012      2008      2009
      2008      2010      2013      2014      2013      2015      2013      2016
      2016      2017      2016      2024      2016      2018      2024      2025
      2024      2026      2024      2027      2018      2019      2019      2021
      2019      2020      2021      2022      2021      2023      2021      2033
      2033      2034      2033      2035      2033      2036      2036      2037
      2036      2038      2036      2039      2039      2040      2039      2041
      2041      2042      2041      2043      2043      2044      2043      2045
      2043      2046      2046      2047      2046      2048      2048      2049
      2048      2050      2050      2051      2050      2052      2050      2053
      2053      2054      2053      2055      2055      2056      2055      2057
      2057      2058      2057      2059      2057      2060      2060      2061
      2060      2062      2062      2063      2062      2064      2064      2065
      2064      2066      2064      2067      2067      2068      2067      2069
      2067      2070      2070      2071      2070      2072      2070      2073
      2073      2074      2073      2075      2073      2076      2076      2077
      2076      2078      2076      2079      2027      2028      2028      2030
      2028      2029      2030      2031      2030      2032      2030      2080
      2080      2081      2080      2082      2080      2083      2083      2084
      2083      2085      2083      2086      2086      2087      2086      2088
      2086      2089      2089      2090      2089      2091      2089      2092
      2092      2093      2092      2094      2092      2095      2095      2096
      2095      2097      2095      2098      2098      2099      2098      2100
      2098      2101      2101      2102      2101      2103      2101      2104
      2104      2105      2104      2106      2104      2107      2107      2108
      2107      2109      2107      2110      2110      2111      2110      2112
      2110      2113      2113      2114      2113      2115      2113      2116
      2116      2117      2116      2118      2116      2119      2119      2120
      2119      2121      2119      2122      2122      2123      2122      2124
      2122      2125      2125      2126      2125      2127      2125      2128
     22447     22448     22447     22449     22448     22449     22450     22451
     22450     22452     22451     22452     22453     22454     22453     22455
     22454     22455     22456     22457     22456     22458     22457     22458
     22459     22460     22459     22461     22460     22461     22462     22463
     22462     22464     22463     22464     22465     22466     22465     22467
     22466     22467     22468     22469     22468     22470     22469     22470
     22471     22472     22471     22473     22472     22473     22474     22475
     22474     22476     22475     22476     22477     22478     22477     22479
     22478     22479     22480     22481     22480     22482     22481     22482
     22483     22484     22483     22485     22484     22485     22486     22487
     22486     22488     22487     22488     22489     22490     22489     22491
     22490     22491     22492     22493     22492     22494     22493     22494
     22495     22496     22495     22497     22496     22497     22498     22499
     22498     22500     22499     22500     22501     22502     22501     22503
     22502     22503     22504     22505     22504     22506     22505     22506
     22507     22508     22507     22509     22508     22509     22510     22511
     22510     22512     22511     22512     22513     22514     22513     22515
     22514     22515     22516     22517     22516     22518     22517     22518
     22519     22520     22519     22521     22520     22521     22522     22523
     22522     22524     22523     22524     22525     22526     22525     22527
     22526     22527     22528     22529     22528     22530     22529     22530
     22531     22532     22531     22533     22532     22533     22534     22535
     22534     22536     22535     22536     22537     22538     22537     22539
     22538     22539     22540     22541     22540     22542     22541     22542
     22543     22544     22543     22545     22544     22545     22546     22547
     22546     22548     22547     22548     22549     22550     22549     22551
     22550     22551     22552     22553     22552     22554     22553     22554
     22555     22556     22555     22557     22556     22557     22558     22559
     22558     22560     22559     22560     22561     22562     22561     22563
     22562     22563     22564     22565     22564     22566     22565     22566
     22567     22568     22567     22569     22568     22569     22570     22571
     22570     22572     22571     22572     22573     22574     22573     22575
     22574     22575     22576     22577     22576     22578     22577     22578
     22579     22580     22579     22581     22580     22581     22582     22583
     22582     22584     22583     22584     22585     22586     22585     22587
     22586     22587     22588     22589     22588     22590     22589     22590
     22591     22592     22591     22593     22592     22593     22594     22595
     22594     22596     22595     22596     22597     22598     22597     22599
     22598     22599     22600     22601     22600     22602     22601     22602
     22603     22604     22603     22605     22604     22605     22606     22607
     22606     22608     22607     22608     22609     22610     22609     22611
     22610     22611     22612     22613     22612     22614     22613     22614
     22615     22616     22615     22617     22616     22617     22618     22619
     22618     22620     22619     22620     22621     22622     22621     22623
     22622     22623     22624     22625     22624     22626     22625     22626
     22627     22628     22627     22629     22628     22629     22630     22631
     22630     22632     22631     22632     22633     22634     22633     22635
     22634     22635     22636     22637     22636     22638     22637     22638
     22639     22640     22639     22641     22640     22641     22642     22643
     22642     22644     22643     22644     22645     22646     22645     22647
     22646     22647     22648     22649     22648     22650     22649     22650
     22651     22652     22651     22653     22652     22653     22654     22655
     22654     22656     22655     22656     22657     22658     22657     22659
     22658     22659     22660     22661     22660     22662     22661     22662
     22663     22664     22663     22665     22664     22665     22666     22667
     22666     22668     22667     22668     22669     22670     22669     22671
     22670     22671     22672     22673     22672     22674     22673     22674
     22675     22676     22675     22677     22676     22677     22678     22679
     22678     22680     22679     22680     22681     22682     22681     22683
     22682     22683     22684     22685     22684     22686     22685     22686
     22687     22688     22687     22689     22688     22689     22690     22691
     22690     22692     22691     22692     22693     22694     22693     22695
     22694     22695     22696     22697     22696     22698     22697     22698
     22699     22700     22699     22701     22700     22701     22702     22703
     22702     22704     22703     22704     22705     22706     22705     22707
     22706     22707     22708     22709     22708     22710     22709     22710
     22711     22712     22711     22713     22712     22713     22714     22715
     22714     22716     22715     22716     22717     22718     22717     22719
     22718     22719     22720     22721     22720     22722     22721     22722
     22723     22724     22723     22725     22724     22725     22726     22727
     22726     22728     22727     22728     22729     22730     22729     22731
     22730     22731     22732     22733     22732     22734     22733     22734
     22735     22736     22735     22737     22736     22737     22738     22739
     22738     22740     22739     22740     22741     22742     22741     22743
     22742     22743     22744     22745     22744     22746     22745     22746
     22747     22748     22747     22749     22748     22749     22750     22751
     22750     22752     22751     22752     22753     22754     22753     22755
     22754     22755     22756     22757     22756     22758     22757     22758
     22759     22760     22759     22761     22760     22761     22762     22763
     22762     22764     22763     22764     22765     22766     22765     22767
     22766     22767     22768     22769     22768     22770     22769     22770
     22771     22772     22771     22773     22772     22773     22774     22775
     22774     22776     22775     22776     22777     22778     22777     22779
     22778     22779     22780     22781     22780     22782     22781     22782
     22783     22784     22783     22785     22784     22785     22786     22787
     22786     22788     22787     22788     22789     22790     22789     22791
     22790     22791     22792     22793     22792     22794     22793     22794
     22795     22796     22795     22797     22796     22797     22798     22799
     22798     22800     22799     22800     22801     22802     22801     22803
     22802     22803     22804     22805     22804     22806     22805     22806
     22807     22808     22807     22809     22808     22809     22810     22811
     22810     22812     22811     22812     22813     22814     22813     22815
     22814     22815     22816     22817     22816     22818     22817     22818
     22819     22820     22819     22821     22820     22821     22822     22823
     22822     22824     22823     22824     22825     22826     22825     22827
     22826     22827     22828     22829     22828     22830     22829     22830
     22831     22832     22831     22833     22832     22833     22834     22835
     22834     22836     22835     22836     22837     22838     22837     22839
     22838     22839     22840     22841     22840     22842     22841     22842
     22843     22844     22843     22845     22844     22845     22846     22847
     22846     22848     22847     22848     22849     22850     22849     22851
     22850     22851     22852     22853     22852     22854     22853     22854
     22855     22856     22855     22857     22856     22857     22858     22859
     22858     22860     22859     22860     22861     22862     22861     22863
     22862     22863     22864     22865     22864     22866     22865     22866
     22867     22868     22867     22869     22868     22869     22870     22871
     22870     22872     22871     22872     22873     22874     22873     22875
     22874     22875     22876     22877     22876     22878     22877     22878
     22879     22880     22879     22881     22880     22881     22882     22883
     22882     22884     22883     22884     22885     22886     22885     22887
     22886     22887     22888     22889     22888     22890     22889     22890
     22891     22892     22891     22893     22892     22893     22894     22895
     22894     22896     22895     22896     22897     22898     22897     22899
     22898     22899     22900     22901     22900     22902     22901     22902
     22903     22904     22903     22905     22904     22905     22906     22907
     22906     22908     22907     22908     22909     22910     22909     22911
     22910     22911     22912     22913     22912     22914     22913     22914
     22915     22916     22915     22917     22916     22917     22918     22919
     22918     22920     22919     22920     22921     22922     22921     22923
     22922     22923     22924     22925     22924     22926     22925     22926
     22927     22928     22927     22929     22928     22929     22930     22931
     22930     22932     22931     22932     22933     22934     22933     22935
     22934     22935     22936     22937     22936     22938     22937     22938
     22939     22940     22939     22941     22940     22941     22942     22943
     22942     22944     22943     22944     22945     22946     22945     22947
     22946     22947     22948     22949     22948     22950     22949     22950
     22951     22952     22951     22953     22952     22953     22954     22955
     22954     22956     22955     22956     22957     22958     22957     22959
     22958     22959     22960     22961     22960     22962     22961     22962
     22963     22964     22963     22965     22964     22965     22966     22967
     22966     22968     22967     22968     22969     22970     22969     22971
     22970     22971     22972     22973     22972     22974     22973     22974
     22975     22976     22975     22977     22976     22977     22978     22979
     22978     22980     22979     22980     22981     22982     22981     22983
     22982     22983     22984     22985     22984     22986     22985     22986
     22987     22988     22987     22989     22988     22989     22990     22991
     22990     22992     22991     22992     22993     22994     22993     22995
     22994     22995     22996     22997     22996     22998     22997     22998
     22999     23000     22999     23001     23000     23001     23002     23003
     23002     23004     23003     23004     23005     23006     23005     23007
     23006     23007     23008     23009     23008     23010     23009     23010
     23011     23012     23011     23013     23012     23013     23014     23015
     23014     23016     23015     23016     23017     23018     23017     23019
     23018     23019     23020     23021     23020     23022     23021     23022
     23023     23024     23023     23025     23024     23025     23026     23027
     23026     23028     23027     23028     23029     23030     23029     23031
     23030     23031     23032     23033     23032     23034     23033     23034
     23035     23036     23035     23037     23036     23037     23038     23039
     23038     23040     23039     23040     23041     23042     23041     23043
     23042     23043     23044     23045     23044     23046     23045     23046
     23047     23048     23047     23049     23048     23049     23050     23051
     23050     23052     23051     23052     23053     23054     23053     23055
     23054     23055     23056     23057     23056     23058     23057     23058
     23059     23060     23059     23061     23060     23061     23062     23063
     23062     23064     23063     23064     23065     23066     23065     23067
     23066     23067     23068     23069     23068     23070     23069     23070
     23071     23072     23071     23073     23072     23073     23074     23075
     23074     23076     23075     23076     23077     23078     23077     23079
     23078     23079     23080     23081     23080     23082     23081     23082
     23083     23084     23083     23085     23084     23085     23086     23087
     23086     23088     23087     23088     23089     23090     23089     23091
     23090     23091     23092     23093     23092     23094     23093     23094
     23095     23096     23095     23097     23096     23097     23098     23099
     23098     23100     23099     23100     23101     23102     23101     23103
     23102     23103     23104     23105     23104     23106     23105     23106
     23107     23108     23107     23109     23108     23109     23110     23111
     23110     23112     23111     23112     23113     23114     23113     23115
     23114     23115     23116     23117     23116     23118     23117     23118
     23119     23120     23119     23121     23120     23121     23122     23123
     23122     23124     23123     23124     23125     23126     23125     23127
     23126     23127     23128     23129     23128     23130     23129     23130
     23131     23132     23131     23133     23132     23133     23134     23135
     23134     23136     23135     23136     23137     23138     23137     23139
     23138     23139     23140     23141     23140     23142     23141     23142
     23143     23144     23143     23145     23144     23145     23146     23147
     23146     23148     23147     23148     23149     23150     23149     23151
     23150     23151     23152     23153     23152     23154     23153     23154
     23155     23156     23155     23157     23156     23157     23158     23159
     23158     23160     23159     23160     23161     23162     23161     23163
     23162     23163     23164     23165     23164     23166     23165     23166
     23167     23168     23167     23169     23168     23169     23170     23171
     23170     23172     23171     23172     23173     23174     23173     23175
     23174     23175     23176     23177     23176     23178     23177     23178
     23179     23180     23179     23181     23180     23181     23182     23183
     23182     23184     23183     23184     23185     23186     23185     23187
     23186     23187     23188     23189     23188     23190     23189     23190
     23191     23192     23191     23193     23192     23193     23194     23195
     23194     23196     23195     23196     23197     23198     23197     23199
     23198     23199     23200     23201     23200     23202     23201     23202
     23203     23204     23203     23205     23204     23205     23206     23207
     23206     23208     23207     23208     23209     23210     23209     23211
     23210     23211     23212     23213     23212     23214     23213     23214
     23215     23216     23215     23217     23216     23217     23218     23219
     23218     23220     23219     23220     23221     23222     23221     23223
     23222     23223     23224     23225     23224     23226     23225     23226
     23227     23228     23227     23229     23228     23229     23230     23231
     23230     23232     23231     23232     23233     23234     23233     23235
     23234     23235     23236     23237     23236     23238     23237     23238
     23239     23240     23239     23241     23240     23241     23242     23243
     23242     23244     23243     23244     23245     23246     23245     23247
     23246     23247     23248     23249     23248     23250     23249     23250
     23251     23252     23251     23253     23252     23253     23254     23255
     23254     23256     23255     23256     23257     23258     23257     23259
     23258     23259     23260     23261     23260     23262     23261     23262
     23263     23264     23263     23265     23264     23265     23266     23267
     23266     23268     23267     23268     23269     23270     23269     23271
     23270     23271     23272     23273     23272     23274     23273     23274
     23275     23276     23275     23277     23276     23277     23278     23279
     23278     23280     23279     23280     23281     23282     23281     23283
     23282     23283     23284     23285     23284     23286     23285     23286
     23287     23288     23287     23289     23288     23289     23290     23291
     23290     23292     23291     23292     23293     23294     23293     23295
     23294     23295     23296     23297     23296     23298     23297     23298
     23299     23300     23299     23301     23300     23301     23302     23303
     23302     23304     23303     23304     23305     23306     23305     23307
     23306     23307     23308     23309     23308     23310     23309     23310
     23311     23312     23311     23313     23312     23313     23314     23315
     23314     23316     23315     23316     23317     23318     23317     23319
     23318     23319     23320     23321     23320     23322     23321     23322
     23323     23324     23323     23325     23324     23325     23326     23327
     23326     23328     23327     23328     23329     23330     23329     23331
     23330     23331     23332     23333     23332     23334     23333     23334
     23335     23336     23335     23337     23336     23337     23338     23339
     23338     23340     23339     23340     23341     23342     23341     23343
     23342     23343     23344     23345     23344     23346     23345     23346
     23347     23348     23347     23349     23348     23349     23350     23351
     23350     23352     23351     23352     23353     23354     23353     23355
     23354     23355     23356     23357     23356     23358     23357     23358
     23359     23360     23359     23361     23360     23361     23362     23363
     23362     23364     23363     23364     23365     23366     23365     23367
     23366     23367     23368     23369     23368     23370     23369     23370
     23371     23372     23371     23373     23372     23373     23374     23375
     23374     23376     23375     23376     23377     23378     23377     23379
     23378     23379     23380     23381     23380     23382     23381     23382
     23383     23384     23383     23385     23384     23385     23386     23387
     23386     23388     23387     23388     23389     23390     23389     23391
     23390     23391     23392     23393     23392     23394     23393     23394
     23395     23396     23395     23397     23396     23397     23398     23399
     23398     23400     23399     23400     23401     23402     23401     23403
     23402     23403     23404     23405     23404     23406     23405     23406
     23407     23408     23407     23409     23408     23409     23410     23411
     23410     23412     23411     23412     23413     23414     23413     23415
     23414     23415     23416     23417     23416     23418     23417     23418
     23419     23420     23419     23421     23420     23421     23422     23423
     23422     23424     23423     23424     23425     23426     23425     23427
     23426     23427     23428     23429     23428     23430     23429     23430
     23431     23432     23431     23433     23432     23433     23434     23435
     23434     23436     23435     23436     23437     23438     23437     23439
     23438     23439     23440     23441     23440     23442     23441     23442
     23443     23444     23443     23445     23444     23445     23446     23447
     23446     23448     23447     23448     23449     23450     23449     23451
     23450     23451     23452     23453     23452     23454     23453     23454
     23455     23456     23455     23457     23456     23457     23458     23459
     23458     23460     23459     23460     23461     23462     23461     23463
     23462     23463     23464     23465     23464     23466     23465     23466
     23467     23468     23467     23469     23468     23469     23470     23471
     23470     23472     23471     23472     23473     23474     23473     23475
     23474     23475     23476     23477     23476     23478     23477     23478
     23479     23480     23479     23481     23480     23481     23482     23483
     23482     23484     23483     23484     23485     23486     23485     23487
     23486     23487     23488     23489     23488     23490     23489     23490
     23491     23492     23491     23493     23492     23493     23494     23495
     23494     23496     23495     23496     23497     23498     23497     23499
     23498     23499     23500     23501     23500     23502     23501     23502
     23503     23504     23503     23505     23504     23505     23506     23507
     23506     23508     23507     23508     23509     23510     23509     23511
     23510     23511     23512     23513     23512     23514     23513     23514
     23515     23516     23515     23517     23516     23517     23518     23519
     23518     23520     23519     23520     23521     23522     23521     23523
     23522     23523     23524     23525     23524     23526     23525     23526
     23527     23528     23527     23529     23528     23529     23530     23531
     23530     23532     23531     23532     23533     23534     23533     23535
     23534     23535     23536     23537     23536     23538     23537     23538
     23539     23540     23539     23541     23540     23541     23542     23543
     23542     23544     23543     23544     23545     23546     23545     23547
     23546     23547     23548     23549     23548     23550     23549     23550
     23551     23552     23551     23553     23552     23553     23554     23555
     23554     23556     23555     23556     23557     23558     23557     23559
     23558     23559     23560     23561     23560     23562     23561     23562
     23563     23564     23563     23565     23564     23565     23566     23567
     23566     23568     23567     23568     23569     23570     23569     23571
     23570     23571     23572     23573     23572     23574     23573     23574
     23575     23576     23575     23577     23576     23577     23578     23579
     23578     23580     23579     23580     23581     23582     23581     23583
     23582     23583     23584     23585     23584     23586     23585     23586
     23587     23588     23587     23589     23588     23589     23590     23591
     23590     23592     23591     23592     23593     23594     23593     23595
     23594     23595     23596     23597     23596     23598     23597     23598
     23599     23600     23599     23601     23600     23601     23602     23603
     23602     23604     23603     23604     23605     23606     23605     23607
     23606     23607     23608     23609     23608     23610     23609     23610
     23611     23612     23611     23613     23612     23613     23614     23615
     23614     23616     23615     23616     23617     23618     23617     23619
     23618     23619     23620     23621     23620     23622     23621     23622
     23623     23624     23623     23625     23624     23625     23626     23627
     23626     23628     23627     23628     23629     23630     23629     23631
     23630     23631     23632     23633     23632     23634     23633     23634
     23635     23636     23635     23637     23636     23637     23638     23639
     23638     23640     23639     23640     23641     23642     23641     23643
     23642     23643     23644     23645     23644     23646     23645     23646
     23647     23648     23647     23649     23648     23649     23650     23651
     23650     23652     23651     23652     23653     23654     23653     23655
     23654     23655     23656     23657     23656     23658     23657     23658
     23659     23660     23659     23661     23660     23661     23662     23663
     23662     23664     23663     23664     23665     23666     23665     23667
     23666     23667     23668     23669     23668     23670     23669     23670
     23671     23672     23671     23673     23672     23673     23674     23675
     23674     23676     23675     23676     23677     23678     23677     23679
     23678     23679     23680     23681     23680     23682     23681     23682
     23683     23684     23683     23685     23684     23685     23686     23687
     23686     23688     23687     23688     23689     23690     23689     23691
     23690     23691     23692     23693     23692     23694     23693     23694
     23695     23696     23695     23697     23696     23697     23698     23699
     23698     23700     23699     23700     23701     23702     23701     23703
     23702     23703     23704     23705     23704     23706     23705     23706
     23707     23708     23707     23709     23708     23709     23710     23711
     23710     23712     23711     23712     23713     23714     23713     23715
     23714     23715     23716     23717     23716     23718     23717     23718
     23719     23720     23719     23721     23720     23721     23722     23723
     23722     23724     23723     23724     23725     23726     23725     23727
     23726     23727     23728     23729     23728     23730     23729     23730
     23731     23732     23731     23733     23732     23733     23734     23735
     23734     23736     23735     23736     23737     23738     23737     23739
     23738     23739     23740     23741     23740     23742     23741     23742
     23743     23744     23743     23745     23744     23745     23746     23747
     23746     23748     23747     23748     23749     23750     23749     23751
     23750     23751     23752     23753     23752     23754     23753     23754
     23755     23756     23755     23757     23756     23757     23758     23759
     23758     23760     23759     23760     23761     23762     23761     23763
     23762     23763     23764     23765     23764     23766     23765     23766
     23767     23768     23767     23769     23768     23769     23770     23771
     23770     23772     23771     23772     23773     23774     23773     23775
     23774     23775     23776     23777     23776     23778     23777     23778
     23779     23780     23779     23781     23780     23781     23782     23783
     23782     23784     23783     23784     23785     23786     23785     23787
     23786     23787     23788     23789     23788     23790     23789     23790
     23791     23792     23791     23793     23792     23793     23794     23795
     23794     23796     23795     23796     23797     23798     23797     23799
     23798     23799     23800     23801     23800     23802     23801     23802
     23803     23804     23803     23805     23804     23805     23806     23807
     23806     23808     23807     23808     23809     23810     23809     23811
     23810     23811     23812     23813     23812     23814     23813     23814
     23815     23816     23815     23817     23816     23817     23818     23819
     23818     23820     23819     23820     23821     23822     23821     23823
     23822     23823     23824     23825     23824     23826     23825     23826
     23827     23828     23827     23829     23828     23829     23830     23831
     23830     23832     23831     23832     23833     23834     23833     23835
     23834     23835     23836     23837     23836     23838     23837     23838
     23839     23840     23839     23841     23840     23841     23842     23843
     23842     23844     23843     23844     23845     23846     23845     23847
     23846     23847     23848     23849     23848     23850     23849     23850
     23851     23852     23851     23853     23852     23853     23854     23855
     23854     23856     23855     23856     23857     23858     23857     23859
     23858     23859     23860     23861     23860     23862     23861     23862
     23863     23864     23863     23865     23864     23865     23866     23867
     23866     23868     23867     23868     23869     23870     23869     23871
     23870     23871     23872     23873     23872     23874     23873     23874
     23875     23876     23875     23877     23876     23877     23878     23879
     23878     23880     23879     23880     23881     23882     23881     23883
     23882     23883     23884     23885     23884     23886     23885     23886
     23887     23888     23887     23889     23888     23889     23890     23891
     23890     23892     23891     23892     23893     23894     23893     23895
     23894     23895     23896     23897     23896     23898     23897     23898
     23899     23900     23899     23901     23900     23901     23902     23903
     23902     23904     23903     23904     23905     23906     23905     23907
     23906     23907     23908     23909     23908     23910     23909     23910
     23911     23912     23911     23913     23912     23913     23914     23915
     23914     23916     23915     23916     23917     23918     23917     23919
     23918     23919     23920     23921     23920     23922     23921     23922
     23923     23924     23923     23925     23924     23925     23926     23927
     23926     23928     23927     23928     23929     23930     23929     23931
     23930     23931     23932     23933     23932     23934     23933     23934
     23935     23936     23935     23937     23936     23937     23938     23939
     23938     23940     23939     23940     23941     23942     23941     23943
     23942     23943     23944     23945     23944     23946     23945     23946
     23947     23948     23947     23949     23948     23949     23950     23951
     23950     23952     23951     23952     23953     23954     23953     23955
     23954     23955     23956     23957     23956     23958     23957     23958
     23959     23960     23959     23961     23960     23961     23962     23963
     23962     23964     23963     23964     23965     23966     23965     23967
     23966     23967     23968     23969     23968     23970     23969     23970
     23971     23972     23971     23973     23972     23973     23974     23975
     23974     23976     23975     23976     23977     23978     23977     23979
     23978     23979     23980     23981     23980     23982     23981     23982
     23983     23984     23983     23985     23984     23985     23986     23987
     23986     23988     23987     23988     23989     23990     23989     23991
     23990     23991     23992     23993     23992     23994     23993     23994
     23995     23996     23995     23997     23996     23997     23998     23999
     23998     24000     23999     24000     24001     24002     24001     24003
     24002     24003     24004     24005     24004     24006     24005     24006
     24007     24008     24007     24009     24008     24009     24010     24011
     24010     24012     24011     24012     24013     24014     24013     24015
     24014     24015     24016     24017     24016     24018     24017     24018
     24019     24020     24019     24021     24020     24021     24022     24023
     24022     24024     24023     24024     24025     24026     24025     24027
     24026     24027     24028     24029     24028     24030     24029     24030
     24031     24032     24031     24033     24032     24033     24034     24035
     24034     24036     24035     24036     24037     24038     24037     24039
     24038     24039     24040     24041     24040     24042     24041     24042
     24043     24044     24043     24045     24044     24045     24046     24047
     24046     24048     24047     24048     24049     24050     24049     24051
     24050     24051     24052     24053     24052     24054     24053     24054
     24055     24056     24055     24057     24056     24057     24058     24059
     24058     24060     24059     24060     24061     24062     24061     24063
     24062     24063     24064     24065     24064     24066     24065     24066
     24067     24068     24067     24069     24068     24069     24070     24071
     24070     24072     24071     24072     24073     24074     24073     24075
     24074     24075     24076     24077     24076     24078     24077     24078
     24079     24080     24079     24081     24080     24081     24082     24083
     24082     24084     24083     24084     24085     24086     24085     24087
     24086     24087     24088     24089     24088     24090     24089     24090
     24091     24092     24091     24093     24092     24093     24094     24095
     24094     24096     24095     24096     24097     24098     24097     24099
     24098     24099     24100     24101     24100     24102     24101     24102
     24103     24104     24103     24105     24104     24105     24106     24107
     24106     24108     24107     24108     24109     24110     24109     24111
     24110     24111     24112     24113     24112     24114     24113     24114
     24115     24116     24115     24117     24116     24117     24118     24119
     24118     24120     24119     24120     24121     24122     24121     24123
     24122     24123     24124     24125     24124     24126     24125     24126
     24127     24128     24127     24129     24128     24129     24130     24131
     24130     24132     24131     24132     24133     24134     24133     24135
     24134     24135     24136     24137     24136     24138     24137     24138
     24139     24140     24139     24141     24140     24141     24142     24143
     24142     24144     24143     24144     24145     24146     24145     24147
     24146     24147     24148     24149     24148     24150     24149     24150
     24151     24152     24151     24153     24152     24153     24154     24155
     24154     24156     24155     24156     24157     24158     24157     24159
     24158     24159     24160     24161     24160     24162     24161     24162
     24163     24164     24163     24165     24164     24165     24166     24167
     24166     24168     24167     24168     24169     24170     24169     24171
     24170     24171     24172     24173     24172     24174     24173     24174
     24175     24176     24175     24177     24176     24177     24178     24179
     24178     24180     24179     24180     24181     24182     24181     24183
     24182     24183     24184     24185     24184     24186     24185     24186
     24187     24188     24187     24189     24188     24189     24190     24191
     24190     24192     24191     24192     24193     24194     24193     24195
     24194     24195     24196     24197     24196     24198     24197     24198
     24199     24200     24199     24201     24200     24201     24202     24203
     24202     24204     24203     24204     24205     24206     24205     24207
     24206     24207     24208     24209     24208     24210     24209     24210
     24211     24212     24211     24213     24212     24213     24214     24215
     24214     24216     24215     24216     24217     24218     24217     24219
     24218     24219     24220     24221     24220     24222     24221     24222
     24223     24224     24223     24225     24224     24225     24226     24227
     24226     24228     24227     24228     24229     24230     24229     24231
     24230     24231     24232     24233     24232     24234     24233     24234
     24235     24236     24235     24237     24236     24237     24238     24239
     24238     24240     24239     24240     24241     24242     24241     24243
     24242     24243     24244     24245     24244     24246     24245     24246
     24247     24248     24247     24249     24248     24249     24250     24251
     24250     24252     24251     24252     24253     24254     24253     24255
     24254     24255     24256     24257     24256     24258     24257     24258
     24259     24260     24259     24261     24260     24261     24262     24263
     24262     24264     24263     24264     24265     24266     24265     24267
     24266     24267     24268     24269     24268     24270     24269     24270
     24271     24272     24271     24273     24272     24273     24274     24275
     24274     24276     24275     24276     24277     24278     24277     24279
     24278     24279     24280     24281     24280     24282     24281     24282
     24283     24284     24283     24285     24284     24285     24286     24287
     24286     24288     24287     24288     24289     24290     24289     24291
     24290     24291     24292     24293     24292     24294     24293     24294
     24295     24296     24295     24297     24296     24297     24298     24299
     24298     24300     24299     24300     24301     24302     24301     24303
     24302     24303     24304     24305     24304     24306     24305     24306
     24307     24308     24307     24309     24308     24309     24310     24311
     24310     24312     24311     24312     24313     24314     24313     24315
     24314     24315     24316     24317     24316     24318     24317     24318
     24319     24320     24319     24321     24320     24321     24322     24323
     24322     24324     24323     24324     24325     24326     24325     24327
     24326     24327     24328     24329     24328     24330     24329     24330
     24331     24332     24331     24333     24332     24333     24334     24335
     24334     24336     24335     24336     24337     24338     24337     24339
     24338     24339     24340     24341     24340     24342     24341     24342
     24343     24344     24343     24345     24344     24345     24346     24347
     24346     24348     24347     24348     24349     24350     24349     24351
     24350     24351     24352     24353     24352     24354     24353     24354
     24355     24356     24355     24357     24356     24357     24358     24359
     24358     24360     24359     24360     24361     24362     24361     24363
     24362     24363     24364     24365     24364     24366     24365     24366
     24367     24368     24367     24369     24368     24369     24370     24371
     24370     24372     24371     24372     24373     24374     24373     24375
     24374     24375     24376     24377     24376     24378     24377     24378
     24379     24380     24379     24381     24380     24381     24382     24383
     24382     24384     24383     24384     24385     24386     24385     24387
     24386     24387     24388     24389     24388     24390     24389     24390
     24391     24392     24391     24393     24392     24393     24394     24395
     24394     24396     24395     24396     24397     24398     24397     24399
     24398     24399     24400     24401     24400     24402     24401     24402
     24403     24404     24403     24405     24404     24405     24406     24407
     24406     24408     24407     24408     24409     24410     24409     24411
     24410     24411     24412     24413     24412     24414     24413     24414
     24415     24416     24415     24417     24416     24417     24418     24419
     24418     24420     24419     24420     24421     24422     24421     24423
     24422     24423     24424     24425     24424     24426     24425     24426
     24427     24428     24427     24429     24428     24429     24430     24431
     24430     24432     24431     24432     24433     24434     24433     24435
     24434     24435     24436     24437     24436     24438     24437     24438
     24439     24440     24439     24441     24440     24441     24442     24443
     24442     24444     24443     24444     24445     24446     24445     24447
     24446     24447     24448     24449     24448     24450     24449     24450
     24451     24452     24451     24453     24452     24453     24454     24455
     24454     24456     24455     24456     24457     24458     24457     24459
     24458     24459     24460     24461     24460     24462     24461     24462
     24463     24464     24463     24465     24464     24465     24466     24467
     24466     24468     24467     24468     24469     24470     24469     24471
     24470     24471     24472     24473     24472     24474     24473     24474
     24475     24476     24475     24477     24476     24477     24478     24479
     24478     24480     24479     24480     24481     24482     24481     24483
     24482     24483     24484     24485     24484     24486     24485     24486
     24487     24488     24487     24489     24488     24489     24490     24491
     24490     24492     24491     24492     24493     24494     24493     24495
     24494     24495     24496     24497     24496     24498     24497     24498
     24499     24500     24499     24501     24500     24501     24502     24503
     24502     24504     24503     24504     24505     24506     24505     24507
     24506     24507     24508     24509     24508     24510     24509     24510
     24511     24512     24511     24513     24512     24513     24514     24515
     24514     24516     24515     24516     24517     24518     24517     24519
     24518     24519     24520     24521     24520     24522     24521     24522
     24523     24524     24523     24525     24524     24525     24526     24527
     24526     24528     24527     24528     24529     24530     24529     24531
     24530     24531     24532     24533     24532     24534     24533     24534
     24535     24536     24535     24537     24536     24537     24538     24539
     24538     24540     24539     24540     24541     24542     24541     24543
     24542     24543     24544     24545     24544     24546     24545     24546
     24547     24548     24547     24549     24548     24549     24550     24551
     24550     24552     24551     24552     24553     24554     24553     24555
     24554     24555     24556     24557     24556     24558     24557     24558
     24559     24560     24559     24561     24560     24561     24562     24563
     24562     24564     24563     24564     24565     24566     24565     24567
     24566     24567     24568     24569     24568     24570     24569     24570
     24571     24572     24571     24573     24572     24573     24574     24575
     24574     24576     24575     24576     24577     24578     24577     24579
     24578     24579     24580     24581     24580     24582     24581     24582
     24583     24584     24583     24585     24584     24585     24586     24587
     24586     24588     24587     24588     24589     24590     24589     24591
     24590     24591     24592     24593     24592     24594     24593     24594
     24595     24596     24595     24597     24596     24597     24598     24599
     24598     24600     24599     24600     24601     24602     24601     24603
     24602     24603     24604     24605     24604     24606     24605     24606
     24607     24608     24607     24609     24608     24609     24610     24611
     24610     24612     24611     24612     24613     24614     24613     24615
     24614     24615     24616     24617     24616     24618     24617     24618
     24619     24620     24619     24621     24620     24621     24622     24623
     24622     24624     24623     24624     24625     24626     24625     24627
     24626     24627     24628     24629     24628     24630     24629     24630
     24631     24632     24631     24633     24632     24633     24634     24635
     24634     24636     24635     24636     24637     24638     24637     24639
     24638     24639     24640     24641     24640     24642     24641     24642
     24643     24644     24643     24645     24644     24645     24646     24647
     24646     24648     24647     24648     24649     24650     24649     24651
     24650     24651     24652     24653     24652     24654     24653     24654
     24655     24656     24655     24657     24656     24657     24658     24659
     24658     24660     24659     24660     24661     24662     24661     24663
     24662     24663     24664     24665     24664     24666     24665     24666
     24667     24668     24667     24669     24668     24669     24670     24671
     24670     24672     24671     24672     24673     24674     24673     24675
     24674     24675     24676     24677     24676     24678     24677     24678
     24679     24680     24679     24681     24680     24681     24682     24683
     24682     24684     24683     24684     24685     24686     24685     24687
     24686     24687     24688     24689     24688     24690     24689     24690
     24691     24692     24691     24693     24692     24693     24694     24695
     24694     24696     24695     24696     24697     24698     24697     24699
     24698     24699     24700     24701     24700     24702     24701     24702
     24703     24704     24703     24705     24704     24705     24706     24707
     24706     24708     24707     24708     24709     24710     24709     24711
     24710     24711     24712     24713     24712     24714     24713     24714
     24715     24716     24715     24717     24716     24717     24718     24719
     24718     24720     24719     24720     24721     24722     24721     24723
     24722     24723     24724     24725     24724     24726     24725     24726
     24727     24728     24727     24729     24728     24729     24730     24731
     24730     24732     24731     24732     24733     24734     24733     24735
     24734     24735     24736     24737     24736     24738     24737     24738
     24739     24740     24739     24741     24740     24741     24742     24743
     24742     24744     24743     24744     24745     24746     24745     24747
     24746     24747     24748     24749     24748     24750     24749     24750
     24751     24752     24751     24753     24752     24753     24754     24755
     24754     24756     24755     24756     24757     24758     24757     24759
     24758     24759     24760     24761     24760     24762     24761     24762
     24763     24764     24763     24765     24764     24765     24766     24767
     24766     24768     24767     24768     24769     24770     24769     24771
     24770     24771     24772     24773     24772     24774     24773     24774
     24775     24776     24775     24777     24776     24777     24778     24779
     24778     24780     24779     24780     24781     24782     24781     24783
     24782     24783     24784     24785     24784     24786     24785     24786
     24787     24788     24787     24789     24788     24789     24790     24791
     24790     24792     24791     24792     24793     24794     24793     24795
     24794     24795     24796     24797     24796     24798     24797     24798
     24799     24800     24799     24801     24800     24801     24802     24803
     24802     24804     24803     24804     24805     24806     24805     24807
     24806     24807     24808     24809     24808     24810     24809     24810
     24811     24812     24811     24813     24812     24813     24814     24815
     24814     24816     24815     24816     24817     24818     24817     24819
     24818     24819     24820     24821     24820     24822     24821     24822
     24823     24824     24823     24825     24824     24825     24826     24827
     24826     24828     24827     24828     24829     24830     24829     24831
     24830     24831     24832     24833     24832     24834     24833     24834
     24835     24836     24835     24837     24836     24837     24838     24839
     24838     24840     24839     24840     24841     24842     24841     24843
     24842     24843     24844     24845     24844     24846     24845     24846
     24847     24848     24847     24849     24848     24849     24850     24851
     24850     24852     24851     24852     24853     24854     24853     24855
     24854     24855     24856     24857     24856     24858     24857     24858
     24859     24860     24859     24861     24860     24861     24862     24863
     24862     24864     24863     24864     24865     24866     24865     24867
     24866     24867     24868     24869     24868     24870     24869     24870
     24871     24872     24871     24873     24872     24873     24874     24875
     24874     24876     24875     24876     24877     24878     24877     24879
     24878     24879     24880     24881     24880     24882     24881     24882
     24883     24884     24883     24885     24884     24885     24886     24887
     24886     24888     24887     24888     24889     24890     24889     24891
     24890     24891     24892     24893     24892     24894     24893     24894
     24895     24896     24895     24897     24896     24897     24898     24899
     24898     24900     24899     24900     24901     24902     24901     24903
     24902     24903     24904     24905     24904     24906     24905     24906
     24907     24908     24907     24909     24908     24909     24910     24911
     24910     24912     24911     24912     24913     24914     24913     24915
     24914     24915     24916     24917     24916     24918     24917     24918
     24919     24920     24919     24921     24920     24921     24922     24923
     24922     24924     24923     24924     24925     24926     24925     24927
     24926     24927     24928     24929     24928     24930     24929     24930
     24931     24932     24931     24933     24932     24933     24934     24935
     24934     24936     24935     24936     24937     24938     24937     24939
     24938     24939     24940     24941     24940     24942     24941     24942
     24943     24944     24943     24945     24944     24945     24946     24947
     24946     24948     24947     24948     24949     24950     24949     24951
     24950     24951     24952     24953     24952     24954     24953     24954
     24955     24956     24955     24957     24956     24957     24958     24959
     24958     24960     24959     24960     24961     24962     24961     24963
     24962     24963     24964     24965     24964     24966     24965     24966
     24967     24968     24967     24969     24968     24969     24970     24971
     24970     24972     24971     24972     24973     24974     24973     24975
     24974     24975     24976     24977     24976     24978     24977     24978
     24979     24980     24979     24981     24980     24981     24982     24983
     24982     24984     24983     24984     24985     24986     24985     24987
     24986     24987     24988     24989     24988     24990     24989     24990
     24991     24992     24991     24993     24992     24993     24994     24995
     24994     24996     24995     24996     24997     24998     24997     24999
     24998     24999     25000     25001     25000     25002     25001     25002
     25003     25004     25003     25005     25004     25005     25006     25007
     25006     25008     25007     25008     25009     25010     25009     25011
     25010     25011     25012     25013     25012     25014     25013     25014
     25015     25016     25015     25017     25016     25017     25018     25019
     25018     25020     25019     25020     25021     25022     25021     25023
     25022     25023     25024     25025     25024     25026     25025     25026
     25027     25028     25027     25029     25028     25029     25030     25031
     25030     25032     25031     25032     25033     25034     25033     25035
     25034     25035     25036     25037     25036     25038     25037     25038
     25039     25040     25039     25041     25040     25041     25042     25043
     25042     25044     25043     25044     25045     25046     25045     25047
     25046     25047     25048     25049     25048     25050     25049     25050
     25051     25052     25051     25053     25052     25053     25054     25055
     25054     25056     25055     25056     25057     25058     25057     25059
     25058     25059     25060     25061     25060     25062     25061     25062
     25063     25064     25063     25065     25064     25065     25066     25067
     25066     25068     25067     25068     25069     25070     25069     25071
     25070     25071     25072     25073     25072     25074     25073     25074
     25075     25076     25075     25077     25076     25077     25078     25079
     25078     25080     25079     25080     25081     25082     25081     25083
     25082     25083     25084     25085     25084     25086     25085     25086
     25087     25088     25087     25089     25088     25089     25090     25091
     25090     25092     25091     25092     25093     25094     25093     25095
     25094     25095     25096     25097     25096     25098     25097     25098
     25099     25100     25099     25101     25100     25101     25102     25103
     25102     25104     25103     25104     25105     25106     25105     25107
     25106     25107     25108     25109     25108     25110     25109     25110
     25111     25112     25111     25113     25112     25113     25114     25115
     25114     25116     25115     25116     25117     25118     25117     25119
     25118     25119     25120     25121     25120     25122     25121     25122
     25123     25124     25123     25125     25124     25125     25126     25127
     25126     25128     25127     25128     25129     25130     25129     25131
     25130     25131     25132     25133     25132     25134     25133     25134
     25135     25136     25135     25137     25136     25137     25138     25139
     25138     25140     25139     25140     25141     25142     25141     25143
     25142     25143     25144     25145     25144     25146     25145     25146
     25147     25148     25147     25149     25148     25149     25150     25151
     25150     25152     25151     25152     25153     25154     25153     25155
     25154     25155     25156     25157     25156     25158     25157     25158
     25159     25160     25159     25161     25160     25161     25162     25163
     25162     25164     25163     25164     25165     25166     25165     25167
     25166     25167     25168     25169     25168     25170     25169     25170
     25171     25172     25171     25173     25172     25173     25174     25175
     25174     25176     25175     25176     25177     25178     25177     25179
     25178     25179     25180     25181     25180     25182     25181     25182
     25183     25184     25183     25185     25184     25185     25186     25187
     25186     25188     25187     25188     25189     25190     25189     25191
     25190     25191     25192     25193     25192     25194     25193     25194
     25195     25196     25195     25197     25196     25197     25198     25199
     25198     25200     25199     25200     25201     25202     25201     25203
     25202     25203     25204     25205     25204     25206     25205     25206
     25207     25208     25207     25209     25208     25209     25210     25211
     25210     25212     25211     25212     25213     25214     25213     25215
     25214     25215     25216     25217     25216     25218     25217     25218
     25219     25220     25219     25221     25220     25221     25222     25223
     25222     25224     25223     25224     25225     25226     25225     25227
     25226     25227     25228     25229     25228     25230     25229     25230
     25231     25232     25231     25233     25232     25233     25234     25235
     25234     25236     25235     25236     25237     25238     25237     25239
     25238     25239     25240     25241     25240     25242     25241     25242
     25243     25244     25243     25245     25244     25245     25246     25247
     25246     25248     25247     25248     25249     25250     25249     25251
     25250     25251     25252     25253     25252     25254     25253     25254
     25255     25256     25255     25257     25256     25257     25258     25259
     25258     25260     25259     25260     25261     25262     25261     25263
     25262     25263     25264     25265     25264     25266     25265     25266
     25267     25268     25267     25269     25268     25269     25270     25271
     25270     25272     25271     25272     25273     25274     25273     25275
     25274     25275     25276     25277     25276     25278     25277     25278
     25279     25280     25279     25281     25280     25281     25282     25283
     25282     25284     25283     25284     25285     25286     25285     25287
     25286     25287     25288     25289     25288     25290     25289     25290
     25291     25292     25291     25293     25292     25293     25294     25295
     25294     25296     25295     25296     25297     25298     25297     25299
     25298     25299     25300     25301     25300     25302     25301     25302
     25303     25304     25303     25305     25304     25305     25306     25307
     25306     25308     25307     25308     25309     25310     25309     25311
     25310     25311     25312     25313     25312     25314     25313     25314
     25315     25316     25315     25317     25316     25317     25318     25319
     25318     25320     25319     25320     25321     25322     25321     25323
     25322     25323     25324     25325     25324     25326     25325     25326
     25327     25328     25327     25329     25328     25329     25330     25331
     25330     25332     25331     25332     25333     25334     25333     25335
     25334     25335     25336     25337     25336     25338     25337     25338
     25339     25340     25339     25341     25340     25341     25342     25343
     25342     25344     25343     25344     25345     25346     25345     25347
     25346     25347     25348     25349     25348     25350     25349     25350
     25351     25352     25351     25353     25352     25353     25354     25355
     25354     25356     25355     25356     25357     25358     25357     25359
     25358     25359     25360     25361     25360     25362     25361     25362
     25363     25364     25363     25365     25364     25365     25366     25367
     25366     25368     25367     25368     25369     25370     25369     25371
     25370     25371     25372     25373     25372     25374     25373     25374
     25375     25376     25375     25377     25376     25377     25378     25379
     25378     25380     25379     25380     25381     25382     25381     25383
     25382     25383     25384     25385     25384     25386     25385     25386
     25387     25388     25387     25389     25388     25389     25390     25391
     25390     25392     25391     25392     25393     25394     25393     25395
     25394     25395     25396     25397     25396     25398     25397     25398
     25399     25400     25399     25401     25400     25401     25402     25403
     25402     25404     25403     25404     25405     25406     25405     25407
     25406     25407     25408     25409     25408     25410     25409     25410
     25411     25412     25411     25413     25412     25413     25414     25415
     25414     25416     25415     25416     25417     25418     25417     25419
     25418     25419     25420     25421     25420     25422     25421     25422
     25423     25424     25423     25425     25424     25425     25426     25427
     25426     25428     25427     25428     25429     25430     25429     25431
     25430     25431     25432     25433     25432     25434     25433     25434
     25435     25436     25435     25437     25436     25437     25438     25439
     25438     25440     25439     25440     25441     25442     25441     25443
     25442     25443     25444     25445     25444     25446     25445     25446
     25447     25448     25447     25449     25448     25449     25450     25451
     25450     25452     25451     25452     25453     25454     25453     25455
     25454     25455     25456     25457     25456     25458     25457     25458
     25459     25460     25459     25461     25460     25461     25462     25463
     25462     25464     25463     25464     25465     25466     25465     25467
     25466     25467     25468     25469     25468     25470     25469     25470
     25471     25472     25471     25473     25472     25473     25474     25475
     25474     25476     25475     25476     25477     25478     25477     25479
     25478     25479     25480     25481     25480     25482     25481     25482
     25483     25484     25483     25485     25484     25485     25486     25487
     25486     25488     25487     25488     25489     25490     25489     25491
     25490     25491     25492     25493     25492     25494     25493     25494
     25495     25496     25495     25497     25496     25497     25498     25499
     25498     25500     25499     25500     25501     25502     25501     25503
     25502     25503     25504     25505     25504     25506     25505     25506
     25507     25508     25507     25509     25508     25509     25510     25511
     25510     25512     25511     25512     25513     25514     25513     25515
     25514     25515     25516     25517     25516     25518     25517     25518
     25519     25520     25519     25521     25520     25521     25522     25523
     25522     25524     25523     25524     25525     25526     25525     25527
     25526     25527     25528     25529     25528     25530     25529     25530
     25531     25532     25531     25533     25532     25533     25534     25535
     25534     25536     25535     25536     25537     25538     25537     25539
     25538     25539     25540     25541     25540     25542     25541     25542
     25543     25544     25543     25545     25544     25545     25546     25547
     25546     25548     25547     25548     25549     25550     25549     25551
     25550     25551     25552     25553     25552     25554     25553     25554
     25555     25556     25555     25557     25556     25557     25558     25559
     25558     25560     25559     25560     25561     25562     25561     25563
     25562     25563     25564     25565     25564     25566     25565     25566
     25567     25568     25567     25569     25568     25569     25570     25571
     25570     25572     25571     25572     25573     25574     25573     25575
     25574     25575     25576     25577     25576     25578     25577     25578
     25579     25580     25579     25581     25580     25581     25582     25583
     25582     25584     25583     25584     25585     25586     25585     25587
     25586     25587     25588     25589     25588     25590     25589     25590
     25591     25592     25591     25593     25592     25593     25594     25595
     25594     25596     25595     25596     25597     25598     25597     25599
     25598     25599     25600     25601     25600     25602     25601     25602
     25603     25604     25603     25605     25604     25605     25606     25607
     25606     25608     25607     25608     25609     25610     25609     25611
     25610     25611     25612     25613     25612     25614     25613     25614
     25615     25616     25615     25617     25616     25617     25618     25619
     25618     25620     25619     25620     25621     25622     25621     25623
     25622     25623     25624     25625     25624     25626     25625     25626
     25627     25628     25627     25629     25628     25629     25630     25631
     25630     25632     25631     25632     25633     25634     25633     25635
     25634     25635     25636     25637     25636     25638     25637     25638
     25639     25640     25639     25641     25640     25641     25642     25643
     25642     25644     25643     25644     25645     25646     25645     25647
     25646     25647     25648     25649     25648     25650     25649     25650
     25651     25652     25651     25653     25652     25653     25654     25655
     25654     25656     25655     25656     25657     25658     25657     25659
     25658     25659     25660     25661     25660     25662     25661     25662
     25663     25664     25663     25665     25664     25665     25666     25667
     25666     25668     25667     25668     25669     25670     25669     25671
     25670     25671     25672     25673     25672     25674     25673     25674
     25675     25676     25675     25677     25676     25677     25678     25679
     25678     25680     25679     25680     25681     25682     25681     25683
     25682     25683     25684     25685     25684     25686     25685     25686
     25687     25688     25687     25689     25688     25689     25690     25691
     25690     25692     25691     25692     25693     25694     25693     25695
     25694     25695     25696     25697     25696     25698     25697     25698
     25699     25700     25699     25701     25700     25701     25702     25703
     25702     25704     25703     25704     25705     25706     25705     25707
     25706     25707     25708     25709     25708     25710     25709     25710
     25711     25712     25711     25713     25712     25713     25714     25715
     25714     25716     25715     25716     25717     25718     25717     25719
     25718     25719     25720     25721     25720     25722     25721     25722
     25723     25724     25723     25725     25724     25725     25726     25727
     25726     25728     25727     25728     25729     25730     25729     25731
     25730     25731     25732     25733     25732     25734     25733     25734
     25735     25736     25735     25737     25736     25737     25738     25739
     25738     25740     25739     25740     25741     25742     25741     25743
     25742     25743     25744     25745     25744     25746     25745     25746
     25747     25748     25747     25749     25748     25749     25750     25751
     25750     25752     25751     25752     25753     25754     25753     25755
     25754     25755     25756     25757     25756     25758     25757     25758
     25759     25760     25759     25761     25760     25761     25762     25763
     25762     25764     25763     25764     25765     25766     25765     25767
     25766     25767     25768     25769     25768     25770     25769     25770
     25771     25772     25771     25773     25772     25773     25774     25775
     25774     25776     25775     25776     25777     25778     25777     25779
     25778     25779     25780     25781     25780     25782     25781     25782
     25783     25784     25783     25785     25784     25785     25786     25787
     25786     25788     25787     25788     25789     25790     25789     25791
     25790     25791     25792     25793     25792     25794     25793     25794
     25795     25796     25795     25797     25796     25797     25798     25799
     25798     25800     25799     25800     25801     25802     25801     25803
     25802     25803     25804     25805     25804     25806     25805     25806
     25807     25808     25807     25809     25808     25809     25810     25811
     25810     25812     25811     25812     25813     25814     25813     25815
     25814     25815     25816     25817     25816     25818     25817     25818
     25819     25820     25819     25821     25820     25821     25822     25823
     25822     25824     25823     25824     25825     25826     25825     25827
     25826     25827     25828     25829     25828     25830     25829     25830
     25831     25832     25831     25833     25832     25833     25834     25835
     25834     25836     25835     25836     25837     25838     25837     25839
     25838     25839     25840     25841     25840     25842     25841     25842
     25843     25844     25843     25845     25844     25845     25846     25847
     25846     25848     25847     25848     25849     25850     25849     25851
     25850     25851     25852     25853     25852     25854     25853     25854
     25855     25856     25855     25857     25856     25857     25858     25859
     25858     25860     25859     25860     25861     25862     25861     25863
     25862     25863     25864     25865     25864     25866     25865     25866
     25867     25868     25867     25869     25868     25869     25870     25871
     25870     25872     25871     25872     25873     25874     25873     25875
     25874     25875     25876     25877     25876     25878     25877     25878
     25879     25880     25879     25881     25880     25881     25882     25883
     25882     25884     25883     25884     25885     25886     25885     25887
     25886     25887     25888     25889     25888     25890     25889     25890
     25891     25892     25891     25893     25892     25893     25894     25895
     25894     25896     25895     25896     25897     25898     25897     25899
     25898     25899     25900     25901     25900     25902     25901     25902
     25903     25904     25903     25905     25904     25905     25906     25907
     25906     25908     25907     25908     25909     25910     25909     25911
     25910     25911     25912     25913     25912     25914     25913     25914
     25915     25916     25915     25917     25916     25917     25918     25919
     25918     25920     25919     25920     25921     25922     25921     25923
     25922     25923     25924     25925     25924     25926     25925     25926
     25927     25928     25927     25929     25928     25929     25930     25931
     25930     25932     25931     25932     25933     25934     25933     25935
     25934     25935     25936     25937     25936     25938     25937     25938
     25939     25940     25939     25941     25940     25941     25942     25943
     25942     25944     25943     25944     25945     25946     25945     25947
     25946     25947     25948     25949     25948     25950     25949     25950
     25951     25952     25951     25953     25952     25953     25954     25955
     25954     25956     25955     25956     25957     25958     25957     25959
     25958     25959     25960     25961     25960     25962     25961     25962
     25963     25964     25963     25965     25964     25965     25966     25967
     25966     25968     25967     25968     25969     25970     25969     25971
     25970     25971     25972     25973     25972     25974     25973     25974
     25975     25976     25975     25977     25976     25977     25978     25979
     25978     25980     25979     25980     25981     25982     25981     25983
     25982     25983     25984     25985     25984     25986     25985     25986
     25987     25988     25987     25989     25988     25989     25990     25991
     25990     25992     25991     25992     25993     25994     25993     25995
     25994     25995     25996     25997     25996     25998     25997     25998
     25999     26000     25999     26001     26000     26001     26002     26003
     26002     26004     26003     26004     26005     26006     26005     26007
     26006     26007     26008     26009     26008     26010     26009     26010
     26011     26012     26011     26013     26012     26013     26014     26015
     26014     26016     26015     26016     26017     26018     26017     26019
     26018     26019     26020     26021     26020     26022     26021     26022
     26023     26024     26023     26025     26024     26025     26026     26027
     26026     26028     26027     26028     26029     26030     26029     26031
     26030     26031     26032     26033     26032     26034     26033     26034
     26035     26036     26035     26037     26036     26037     26038     26039
     26038     26040     26039     26040     26041     26042     26041     26043
     26042     26043     26044     26045     26044     26046     26045     26046
     26047     26048     26047     26049     26048     26049     26050     26051
     26050     26052     26051     26052     26053     26054     26053     26055
     26054     26055     26056     26057     26056     26058     26057     26058
     26059     26060     26059     26061     26060     26061     26062     26063
     26062     26064     26063     26064     26065     26066     26065     26067
     26066     26067     26068     26069     26068     26070     26069     26070
     26071     26072     26071     26073     26072     26073     26074     26075
     26074     26076     26075     26076     26077     26078     26077     26079
     26078     26079     26080     26081     26080     26082     26081     26082
     26083     26084     26083     26085     26084     26085     26086     26087
     26086     26088     26087     26088     26089     26090     26089     26091
     26090     26091     26092     26093     26092     26094     26093     26094
     26095     26096     26095     26097     26096     26097     26098     26099
     26098     26100     26099     26100     26101     26102     26101     26103
     26102     26103     26104     26105     26104     26106     26105     26106
     26107     26108     26107     26109     26108     26109     26110     26111
     26110     26112     26111     26112     26113     26114     26113     26115
     26114     26115     26116     26117     26116     26118     26117     26118
     26119     26120     26119     26121     26120     26121     26122     26123
     26122     26124     26123     26124     26125     26126     26125     26127
     26126     26127     26128     26129     26128     26130     26129     26130
     26131     26132     26131     26133     26132     26133     26134     26135
     26134     26136     26135     26136     26137     26138     26137     26139
     26138     26139     26140     26141     26140     26142     26141     26142
     26143     26144     26143     26145     26144     26145     26146     26147
     26146     26148     26147     26148     26149     26150     26149     26151
     26150     26151     26152     26153     26152     26154     26153     26154
     26155     26156     26155     26157     26156     26157     26158     26159
     26158     26160     26159     26160     26161     26162     26161     26163
     26162     26163     26164     26165     26164     26166     26165     26166
     26167     26168     26167     26169     26168     26169     26170     26171
     26170     26172     26171     26172     26173     26174     26173     26175
     26174     26175     26176     26177     26176     26178     26177     26178
     26179     26180     26179     26181     26180     26181     26182     26183
     26182     26184     26183     26184     26185     26186     26185     26187
     26186     26187     26188     26189     26188     26190     26189     26190
     26191     26192     26191     26193     26192     26193     26194     26195
     26194     26196     26195     26196     26197     26198     26197     26199
     26198     26199     26200     26201     26200     26202     26201     26202
     26203     26204     26203     26205     26204     26205     26206     26207
     26206     26208     26207     26208     26209     26210     26209     26211
     26210     26211     26212     26213     26212     26214     26213     26214
     26215     26216     26215     26217     26216     26217     26218     26219
     26218     26220     26219     26220     26221     26222     26221     26223
     26222     26223     26224     26225     26224     26226     26225     26226
     26227     26228     26227     26229     26228     26229     26230     26231
     26230     26232     26231     26232     26233     26234     26233     26235
     26234     26235     26236     26237     26236     26238     26237     26238
     26239     26240     26239     26241     26240     26241     26242     26243
     26242     26244     26243     26244     26245     26246     26245     26247
     26246     26247     26248     26249     26248     26250     26249     26250
     26251     26252     26251     26253     26252     26253     26254     26255
     26254     26256     26255     26256     26257     26258     26257     26259
     26258     26259     26260     26261     26260     26262     26261     26262
     26263     26264     26263     26265     26264     26265     26266     26267
     26266     26268     26267     26268     26269     26270     26269     26271
     26270     26271     26272     26273     26272     26274     26273     26274
     26275     26276     26275     26277     26276     26277     26278     26279
     26278     26280     26279     26280     26281     26282     26281     26283
     26282     26283     26284     26285     26284     26286     26285     26286
     26287     26288     26287     26289     26288     26289     26290     26291
     26290     26292     26291     26292     26293     26294     26293     26295
     26294     26295     26296     26297     26296     26298     26297     26298
     26299     26300     26299     26301     26300     26301     26302     26303
     26302     26304     26303     26304     26305     26306     26305     26307
     26306     26307     26308     26309     26308     26310     26309     26310
     26311     26312     26311     26313     26312     26313     26314     26315
     26314     26316     26315     26316     26317     26318     26317     26319
     26318     26319     26320     26321     26320     26322     26321     26322
     26323     26324     26323     26325     26324     26325     26326     26327
     26326     26328     26327     26328     26329     26330     26329     26331
     26330     26331     26332     26333     26332     26334     26333     26334
     26335     26336     26335     26337     26336     26337     26338     26339
     26338     26340     26339     26340     26341     26342     26341     26343
     26342     26343     26344     26345     26344     26346     26345     26346
     26347     26348     26347     26349     26348     26349     26350     26351
     26350     26352     26351     26352     26353     26354     26353     26355
     26354     26355     26356     26357     26356     26358     26357     26358
     26359     26360     26359     26361     26360     26361     26362     26363
     26362     26364     26363     26364     26365     26366     26365     26367
     26366     26367     26368     26369     26368     26370     26369     26370
     26371     26372     26371     26373     26372     26373     26374     26375
     26374     26376     26375     26376     26377     26378     26377     26379
     26378     26379     26380     26381     26380     26382     26381     26382
     26383     26384     26383     26385     26384     26385     26386     26387
     26386     26388     26387     26388     26389     26390     26389     26391
     26390     26391     26392     26393     26392     26394     26393     26394
     26395     26396     26395     26397     26396     26397     26398     26399
     26398     26400     26399     26400     26401     26402     26401     26403
     26402     26403     26404     26405     26404     26406     26405     26406
     26407     26408     26407     26409     26408     26409     26410     26411
     26410     26412     26411     26412     26413     26414     26413     26415
     26414     26415     26416     26417     26416     26418     26417     26418
     26419     26420     26419     26421     26420     26421     26422     26423
     26422     26424     26423     26424     26425     26426     26425     26427
     26426     26427     26428     26429     26428     26430     26429     26430
     26431     26432     26431     26433     26432     26433     26434     26435
     26434     26436     26435     26436     26437     26438     26437     26439
     26438     26439     26440     26441     26440     26442     26441     26442
     26443     26444     26443     26445     26444     26445     26446     26447
     26446     26448     26447     26448     26449     26450     26449     26451
     26450     26451     26452     26453     26452     26454     26453     26454
     26455     26456     26455     26457     26456     26457     26458     26459
     26458     26460     26459     26460     26461     26462     26461     26463
     26462     26463     26464     26465     26464     26466     26465     26466
     26467     26468     26467     26469     26468     26469     26470     26471
     26470     26472     26471     26472     26473     26474     26473     26475
     26474     26475     26476     26477     26476     26478     26477     26478
     26479     26480     26479     26481     26480     26481     26482     26483
     26482     26484     26483     26484     26485     26486     26485     26487
     26486     26487     26488     26489     26488     26490     26489     26490
     26491     26492     26491     26493     26492     26493     26494     26495
     26494     26496     26495     26496     26497     26498     26497     26499
     26498     26499     26500     26501     26500     26502     26501     26502
     26503     26504     26503     26505     26504     26505     26506     26507
     26506     26508     26507     26508     26509     26510     26509     26511
     26510     26511     26512     26513     26512     26514     26513     26514
     26515     26516     26515     26517     26516     26517     26518     26519
     26518     26520     26519     26520     26521     26522     26521     26523
     26522     26523     26524     26525     26524     26526     26525     26526
     26527     26528     26527     26529     26528     26529     26530     26531
     26530     26532     26531     26532     26533     26534     26533     26535
     26534     26535     26536     26537     26536     26538     26537     26538
     26539     26540     26539     26541     26540     26541     26542     26543
     26542     26544     26543     26544     26545     26546     26545     26547
     26546     26547     26548     26549     26548     26550     26549     26550
     26551     26552     26551     26553     26552     26553     26554     26555
     26554     26556     26555     26556     26557     26558     26557     26559
     26558     26559     26560     26561     26560     26562     26561     26562
     26563     26564     26563     26565     26564     26565     26566     26567
     26566     26568     26567     26568     26569     26570     26569     26571
     26570     26571     26572     26573     26572     26574     26573     26574
     26575     26576     26575     26577     26576     26577     26578     26579
     26578     26580     26579     26580     26581     26582     26581     26583
     26582     26583     26584     26585     26584     26586     26585     26586
     26587     26588     26587     26589     26588     26589     26590     26591
     26590     26592     26591     26592     26593     26594     26593     26595
     26594     26595     26596     26597     26596     26598     26597     26598
     26599     26600     26599     26601     26600     26601     26602     26603
     26602     26604     26603     26604     26605     26606     26605     26607
     26606     26607     26608     26609     26608     26610     26609     26610
     26611     26612     26611     26613     26612     26613     26614     26615
     26614     26616     26615     26616     26617     26618     26617     26619
     26618     26619     26620     26621     26620     26622     26621     26622
     26623     26624     26623     26625     26624     26625     26626     26627
     26626     26628     26627     26628     26629     26630     26629     26631
     26630     26631     26632     26633     26632     26634     26633     26634
     26635     26636     26635     26637     26636     26637     26638     26639
     26638     26640     26639     26640     26641     26642     26641     26643
     26642     26643     26644     26645     26644     26646     26645     26646
     26647     26648     26647     26649     26648     26649     26650     26651
     26650     26652     26651     26652     26653     26654     26653     26655
     26654     26655     26656     26657     26656     26658     26657     26658
     26659     26660     26659     26661     26660     26661     26662     26663
     26662     26664     26663     26664     26665     26666     26665     26667
     26666     26667     26668     26669     26668     26670     26669     26670
     26671     26672     26671     26673     26672     26673     26674     26675
     26674     26676     26675     26676     26677     26678     26677     26679
     26678     26679     26680     26681     26680     26682     26681     26682
     26683     26684     26683     26685     26684     26685     26686     26687
     26686     26688     26687     26688     26689     26690     26689     26691
     26690     26691     26692     26693     26692     26694     26693     26694
     26695     26696     26695     26697     26696     26697     26698     26699
     26698     26700     26699     26700     26701     26702     26701     26703
     26702     26703     26704     26705     26704     26706     26705     26706
     26707     26708     26707     26709     26708     26709     26710     26711
     26710     26712     26711     26712     26713     26714     26713     26715
     26714     26715     26716     26717     26716     26718     26717     26718
     26719     26720     26719     26721     26720     26721     26722     26723
     26722     26724     26723     26724     26725     26726     26725     26727
     26726     26727     26728     26729     26728     26730     26729     26730
     26731     26732     26731     26733     26732     26733     26734     26735
     26734     26736     26735     26736     26737     26738     26737     26739
     26738     26739     26740     26741     26740     26742     26741     26742
     26743     26744     26743     26745     26744     26745     26746     26747
     26746     26748     26747     26748     26749     26750     26749     26751
     26750     26751     26752     26753     26752     26754     26753     26754
     26755     26756     26755     26757     26756     26757     26758     26759
     26758     26760     26759     26760     26761     26762     26761     26763
     26762     26763     26764     26765     26764     26766     26765     26766
     26767     26768     26767     26769     26768     26769     26770     26771
     26770     26772     26771     26772     26773     26774     26773     26775
     26774     26775     26776     26777     26776     26778     26777     26778
     26779     26780     26779     26781     26780     26781     26782     26783
     26782     26784     26783     26784     26785     26786     26785     26787
     26786     26787     26788     26789     26788     26790     26789     26790
     26791     26792     26791     26793     26792     26793     26794     26795
     26794     26796     26795     26796     26797     26798     26797     26799
     26798     26799     26800     26801     26800     26802     26801     26802
     26803     26804     26803     26805     26804     26805     26806     26807
     26806     26808     26807     26808     26809     26810     26809     26811
     26810     26811     26812     26813     26812     26814     26813     26814
     26815     26816     26815     26817     26816     26817     26818     26819
     26818     26820     26819     26820     26821     26822     26821     26823
     26822     26823     26824     26825     26824     26826     26825     26826
     26827     26828     26827     26829     26828     26829     26830     26831
     26830     26832     26831     26832     26833     26834     26833     26835
     26834     26835     26836     26837     26836     26838     26837     26838
     26839     26840     26839     26841     26840     26841     26842     26843
     26842     26844     26843     26844     26845     26846     26845     26847
     26846     26847     26848     26849     26848     26850     26849     26850
     26851     26852     26851     26853     26852     26853     26854     26855
     26854     26856     26855     26856     26857     26858     26857     26859
     26858     26859     26860     26861     26860     26862     26861     26862
     26863     26864     26863     26865     26864     26865     26866     26867
     26866     26868     26867     26868     26869     26870     26869     26871
     26870     26871     26872     26873     26872     26874     26873     26874
     26875     26876     26875     26877     26876     26877     26878     26879
     26878     26880     26879     26880     26881     26882     26881     26883
     26882     26883     26884     26885     26884     26886     26885     26886
     26887     26888     26887     26889     26888     26889     26890     26891
     26890     26892     26891     26892     26893     26894     26893     26895
     26894     26895     26896     26897     26896     26898     26897     26898
     26899     26900     26899     26901     26900     26901     26902     26903
     26902     26904     26903     26904     26905     26906     26905     26907
     26906     26907     26908     26909     26908     26910     26909     26910
     26911     26912     26911     26913     26912     26913     26914     26915
     26914     26916     26915     26916     26917     26918     26917     26919
     26918     26919     26920     26921     26920     26922     26921     26922
     26923     26924     26923     26925     26924     26925     26926     26927
     26926     26928     26927     26928     26929     26930     26929     26931
     26930     26931     26932     26933     26932     26934     26933     26934
     26935     26936     26935     26937     26936     26937     26938     26939
     26938     26940     26939     26940     26941     26942     26941     26943
     26942     26943     26944     26945     26944     26946     26945     26946
     26947     26948     26947     26949     26948     26949     26950     26951
     26950     26952     26951     26952     26953     26954     26953     26955
     26954     26955     26956     26957     26956     26958     26957     26958
     26959     26960     26959     26961     26960     26961     26962     26963
     26962     26964     26963     26964     26965     26966     26965     26967
     26966     26967     26968     26969     26968     26970     26969     26970
     26971     26972     26971     26973     26972     26973     26974     26975
     26974     26976     26975     26976     26977     26978     26977     26979
     26978     26979     26980     26981     26980     26982     26981     26982
     26983     26984     26983     26985     26984     26985     26986     26987
     26986     26988     26987     26988     26989     26990     26989     26991
     26990     26991     26992     26993     26992     26994     26993     26994
     26995     26996     26995     26997     26996     26997     26998     26999
     26998     27000     26999     27000     27001     27002     27001     27003
     27002     27003     27004     27005     27004     27006     27005     27006
     27007     27008     27007     27009     27008     27009     27010     27011
     27010     27012     27011     27012     27013     27014     27013     27015
     27014     27015     27016     27017     27016     27018     27017     27018
     27019     27020     27019     27021     27020     27021     27022     27023
     27022     27024     27023     27024     27025     27026     27025     27027
     27026     27027     27028     27029     27028     27030     27029     27030
     27031     27032     27031     27033     27032     27033     27034     27035
     27034     27036     27035     27036     27037     27038     27037     27039
     27038     27039     27040     27041     27040     27042     27041     27042
     27043     27044     27043     27045     27044     27045     27046     27047
     27046     27048     27047     27048     27049     27050     27049     27051
     27050     27051     27052     27053     27052     27054     27053     27054
     27055     27056     27055     27057     27056     27057     27058     27059
     27058     27060     27059     27060     27061     27062     27061     27063
     27062     27063     27064     27065     27064     27066     27065     27066
     27067     27068     27067     27069     27068     27069     27070     27071
     27070     27072     27071     27072     27073     27074     27073     27075
     27074     27075     27076     27077     27076     27078     27077     27078
     27079     27080     27079     27081     27080     27081     27082     27083
     27082     27084     27083     27084     27085     27086     27085     27087
     27086     27087     27088     27089     27088     27090     27089     27090
     27091     27092     27091     27093     27092     27093     27094     27095
     27094     27096     27095     27096     27097     27098     27097     27099
     27098     27099     27100     27101     27100     27102     27101     27102
     27103     27104     27103     27105     27104     27105     27106     27107
     27106     27108     27107     27108     27109     27110     27109     27111
     27110     27111     27112     27113     27112     27114     27113     27114
     27115     27116     27115     27117     27116     27117     27118     27119
     27118     27120     27119     27120     27121     27122     27121     27123
     27122     27123     27124     27125     27124     27126     27125     27126
     27127     27128     27127     27129     27128     27129     27130     27131
     27130     27132     27131     27132     27133     27134     27133     27135
     27134     27135     27136     27137     27136     27138     27137     27138
     27139     27140     27139     27141     27140     27141     27142     27143
     27142     27144     27143     27144     27145     27146     27145     27147
     27146     27147     27148     27149     27148     27150     27149     27150
     27151     27152     27151     27153     27152     27153     27154     27155
     27154     27156     27155     27156     27157     27158     27157     27159
     27158     27159     27160     27161     27160     27162     27161     27162
     27163     27164     27163     27165     27164     27165     27166     27167
     27166     27168     27167     27168     27169     27170     27169     27171
     27170     27171     27172     27173     27172     27174     27173     27174
     27175     27176     27175     27177     27176     27177     27178     27179
     27178     27180     27179     27180     27181     27182     27181     27183
     27182     27183     27184     27185     27184     27186     27185     27186
     27187     27188     27187     27189     27188     27189     27190     27191
     27190     27192     27191     27192     27193     27194     27193     27195
     27194     27195     27196     27197     27196     27198     27197     27198
     27199     27200     27199     27201     27200     27201     27202     27203
     27202     27204     27203     27204     27205     27206     27205     27207
     27206     27207     27208     27209     27208     27210     27209     27210
     27211     27212     27211     27213     27212     27213     27214     27215
     27214     27216     27215     27216     27217     27218     27217     27219
     27218     27219     27220     27221     27220     27222     27221     27222
     27223     27224     27223     27225     27224     27225     27226     27227
     27226     27228     27227     27228     27229     27230     27229     27231
     27230     27231     27232     27233     27232     27234     27233     27234
     27235     27236     27235     27237     27236     27237     27238     27239
     27238     27240     27239     27240     27241     27242     27241     27243
     27242     27243     27244     27245     27244     27246     27245     27246
     27247     27248     27247     27249     27248     27249     27250     27251
     27250     27252     27251     27252     27253     27254     27253     27255
     27254     27255     27256     27257     27256     27258     27257     27258
     27259     27260     27259     27261     27260     27261     27262     27263
     27262     27264     27263     27264     27265     27266     27265     27267
     27266     27267     27268     27269     27268     27270     27269     27270
     27271     27272     27271     27273     27272     27273     27274     27275
     27274     27276     27275     27276     27277     27278     27277     27279
     27278     27279     27280     27281     27280     27282     27281     27282
     27283     27284     27283     27285     27284     27285     27286     27287
     27286     27288     27287     27288     27289     27290     27289     27291
     27290     27291     27292     27293     27292     27294     27293     27294
     27295     27296     27295     27297     27296     27297     27298     27299
     27298     27300     27299     27300     27301     27302     27301     27303
     27302     27303     27304     27305     27304     27306     27305     27306
     27307     27308     27307     27309     27308     27309     27310     27311
     27310     27312     27311     27312     27313     27314     27313     27315
     27314     27315     27316     27317     27316     27318     27317     27318
     27319     27320     27319     27321     27320     27321     27322     27323
     27322     27324     27323     27324     27325     27326     27325     27327
     27326     27327     27328     27329     27328     27330     27329     27330
     27331     27332     27331     27333     27332     27333     27334     27335
     27334     27336     27335     27336     27337     27338     27337     27339
     27338     27339     27340     27341     27340     27342     27341     27342
     27343     27344     27343     27345     27344     27345     27346     27347
     27346     27348     27347     27348     27349     27350     27349     27351
     27350     27351     27352     27353     27352     27354     27353     27354
     27355     27356     27355     27357     27356     27357     27358     27359
     27358     27360     27359     27360     27361     27362     27361     27363
     27362     27363     27364     27365     27364     27366     27365     27366
     27367     27368     27367     27369     27368     27369     27370     27371
     27370     27372     27371     27372     27373     27374     27373     27375
     27374     27375     27376     27377     27376     27378     27377     27378
     27379     27380     27379     27381     27380     27381     27382     27383
     27382     27384     27383     27384     27385     27386     27385     27387
     27386     27387     27388     27389     27388     27390     27389     27390
     27391     27392     27391     27393     27392     27393     27394     27395
     27394     27396     27395     27396     27397     27398     27397     27399
     27398     27399     27400     27401     27400     27402     27401     27402
     27403     27404     27403     27405     27404     27405     27406     27407
     27406     27408     27407     27408     27409     27410     27409     27411
     27410     27411     27412     27413     27412     27414     27413     27414
     27415     27416     27415     27417     27416     27417     27418     27419
     27418     27420     27419     27420     27421     27422     27421     27423
     27422     27423     27424     27425     27424     27426     27425     27426
     27427     27428     27427     27429     27428     27429     27430     27431
     27430     27432     27431     27432     27433     27434     27433     27435
     27434     27435     27436     27437     27436     27438     27437     27438
     27439     27440     27439     27441     27440     27441     27442     27443
     27442     27444     27443     27444     27445     27446     27445     27447
     27446     27447     27448     27449     27448     27450     27449     27450
     27451     27452     27451     27453     27452     27453     27454     27455
     27454     27456     27455     27456     27457     27458     27457     27459
     27458     27459     27460     27461     27460     27462     27461     27462
     27463     27464     27463     27465     27464     27465     27466     27467
     27466     27468     27467     27468     27469     27470     27469     27471
     27470     27471     27472     27473     27472     27474     27473     27474
     27475     27476     27475     27477     27476     27477     27478     27479
     27478     27480     27479     27480     27481     27482     27481     27483
     27482     27483     27484     27485     27484     27486     27485     27486
     27487     27488     27487     27489     27488     27489     27490     27491
     27490     27492     27491     27492     27493     27494     27493     27495
     27494     27495     27496     27497     27496     27498     27497     27498
     27499     27500     27499     27501     27500     27501     27502     27503
     27502     27504     27503     27504     27505     27506     27505     27507
     27506     27507     27508     27509     27508     27510     27509     27510
     27511     27512     27511     27513     27512     27513     27514     27515
     27514     27516     27515     27516     27517     27518     27517     27519
     27518     27519     27520     27521     27520     27522     27521     27522
     27523     27524     27523     27525     27524     27525     27526     27527
     27526     27528     27527     27528     27529     27530     27529     27531
     27530     27531     27532     27533     27532     27534     27533     27534
     27535     27536     27535     27537     27536     27537     27538     27539
     27538     27540     27539     27540     27541     27542     27541     27543
     27542     27543     27544     27545     27544     27546     27545     27546
     27547     27548     27547     27549     27548     27549     27550     27551
     27550     27552     27551     27552     27553     27554     27553     27555
     27554     27555     27556     27557     27556     27558     27557     27558
     27559     27560     27559     27561     27560     27561     27562     27563
     27562     27564     27563     27564     27565     27566     27565     27567
     27566     27567     27568     27569     27568     27570     27569     27570
     27571     27572     27571     27573     27572     27573     27574     27575
     27574     27576     27575     27576     27577     27578     27577     27579
     27578     27579     27580     27581     27580     27582     27581     27582
     27583     27584     27583     27585     27584     27585     27586     27587
     27586     27588     27587     27588     27589     27590     27589     27591
     27590     27591     27592     27593     27592     27594     27593     27594
     27595     27596     27595     27597     27596     27597     27598     27599
     27598     27600     27599     27600     27601     27602     27601     27603
     27602     27603     27604     27605     27604     27606     27605     27606
     27607     27608     27607     27609     27608     27609     27610     27611
     27610     27612     27611     27612     27613     27614     27613     27615
     27614     27615     27616     27617     27616     27618     27617     27618
     27619     27620     27619     27621     27620     27621     27622     27623
     27622     27624     27623     27624     27625     27626     27625     27627
     27626     27627     27628     27629     27628     27630     27629     27630
     27631     27632     27631     27633     27632     27633     27634     27635
     27634     27636     27635     27636     27637     27638     27637     27639
     27638     27639     27640     27641     27640     27642     27641     27642
     27643     27644     27643     27645     27644     27645     27646     27647
     27646     27648     27647     27648     27649     27650     27649     27651
     27650     27651     27652     27653     27652     27654     27653     27654
     27655     27656     27655     27657     27656     27657     27658     27659
     27658     27660     27659     27660     27661     27662     27661     27663
     27662     27663     27664     27665     27664     27666     27665     27666
     27667     27668     27667     27669     27668     27669     27670     27671
     27670     27672     27671     27672     27673     27674     27673     27675
     27674     27675     27676     27677     27676     27678     27677     27678
     27679     27680     27679     27681     27680     27681     27682     27683
     27682     27684     27683     27684     27685     27686     27685     27687
     27686     27687     27688     27689     27688     27690     27689     27690
     27691     27692     27691     27693     27692     27693     27694     27695
     27694     27696     27695     27696     27697     27698     27697     27699
     27698     27699     27700     27701     27700     27702     27701     27702
     27703     27704     27703     27705     27704     27705     27706     27707
     27706     27708     27707     27708     27709     27710     27709     27711
     27710     27711     27712     27713     27712     27714     27713     27714
     27715     27716     27715     27717     27716     27717     27718     27719
     27718     27720     27719     27720     27721     27722     27721     27723
     27722     27723     27724     27725     27724     27726     27725     27726
     27727     27728     27727     27729     27728     27729     27730     27731
     27730     27732     27731     27732     27733     27734     27733     27735
     27734     27735     27736     27737     27736     27738     27737     27738
     27739     27740     27739     27741     27740     27741     27742     27743
     27742     27744     27743     27744     27745     27746     27745     27747
     27746     27747     27748     27749     27748     27750     27749     27750
     27751     27752     27751     27753     27752     27753     27754     27755
     27754     27756     27755     27756     27757     27758     27757     27759
     27758     27759     27760     27761     27760     27762     27761     27762
     27763     27764     27763     27765     27764     27765     27766     27767
     27766     27768     27767     27768     27769     27770     27769     27771
     27770     27771     27772     27773     27772     27774     27773     27774
     27775     27776     27775     27777     27776     27777     27778     27779
     27778     27780     27779     27780     27781     27782     27781     27783
     27782     27783     27784     27785     27784     27786     27785     27786
     27787     27788     27787     27789     27788     27789     27790     27791
     27790     27792     27791     27792     27793     27794     27793     27795
     27794     27795     27796     27797     27796     27798     27797     27798
     27799     27800     27799     27801     27800     27801     27802     27803
     27802     27804     27803     27804     27805     27806     27805     27807
     27806     27807     27808     27809     27808     27810     27809     27810
     27811     27812     27811     27813     27812     27813     27814     27815
     27814     27816     27815     27816     27817     27818     27817     27819
     27818     27819     27820     27821     27820     27822     27821     27822
     27823     27824     27823     27825     27824     27825     27826     27827
     27826     27828     27827     27828     27829     27830     27829     27831
     27830     27831     27832     27833     27832     27834     27833     27834
     27835     27836     27835     27837     27836     27837     27838     27839
     27838     27840     27839     27840     27841     27842     27841     27843
     27842     27843     27844     27845     27844     27846     27845     27846
     27847     27848     27847     27849     27848     27849     27850     27851
     27850     27852     27851     27852     27853     27854     27853     27855
     27854     27855     27856     27857     27856     27858     27857     27858
     27859     27860     27859     27861     27860     27861     27862     27863
     27862     27864     27863     27864     27865     27866     27865     27867
     27866     27867     27868     27869     27868     27870     27869     27870
     27871     27872     27871     27873     27872     27873     27874     27875
     27874     27876     27875     27876     27877     27878     27877     27879
     27878     27879     27880     27881     27880     27882     27881     27882
     27883     27884     27883     27885     27884     27885     27886     27887
     27886     27888     27887     27888     27889     27890     27889     27891
     27890     27891     27892     27893     27892     27894     27893     27894
     27895     27896     27895     27897     27896     27897     27898     27899
     27898     27900     27899     27900     27901     27902     27901     27903
     27902     27903     27904     27905     27904     27906     27905     27906
     27907     27908     27907     27909     27908     27909     27910     27911
     27910     27912     27911     27912     27913     27914     27913     27915
     27914     27915     27916     27917     27916     27918     27917     27918
     27919     27920     27919     27921     27920     27921     27922     27923
     27922     27924     27923     27924     27925     27926     27925     27927
     27926     27927     27928     27929     27928     27930     27929     27930
     27931     27932     27931     27933     27932     27933     27934     27935
     27934     27936     27935     27936     27937     27938     27937     27939
     27938     27939     27940     27941     27940     27942     27941     27942
     27943     27944     27943     27945     27944     27945     27946     27947
     27946     27948     27947     27948     27949     27950     27949     27951
     27950     27951     27952     27953     27952     27954     27953     27954
     27955     27956     27955     27957     27956     27957     27958     27959
     27958     27960     27959     27960     27961     27962     27961     27963
     27962     27963     27964     27965     27964     27966     27965     27966
     27967     27968     27967     27969     27968     27969     27970     27971
     27970     27972     27971     27972     27973     27974     27973     27975
     27974     27975     27976     27977     27976     27978     27977     27978
     27979     27980     27979     27981     27980     27981     27982     27983
     27982     27984     27983     27984     27985     27986     27985     27987
     27986     27987     27988     27989     27988     27990     27989     27990
     27991     27992     27991     27993     27992     27993     27994     27995
     27994     27996     27995     27996     27997     27998     27997     27999
     27998     27999     28000     28001     28000     28002     28001     28002
     28003     28004     28003     28005     28004     28005     28006     28007
     28006     28008     28007     28008     28009     28010     28009     28011
     28010     28011     28012     28013     28012     28014     28013     28014
     28015     28016     28015     28017     28016     28017     28018     28019
     28018     28020     28019     28020     28021     28022     28021     28023
     28022     28023     28024     28025     28024     28026     28025     28026
     28027     28028     28027     28029     28028     28029     28030     28031
     28030     28032     28031     28032     28033     28034     28033     28035
     28034     28035     28036     28037     28036     28038     28037     28038
     28039     28040     28039     28041     28040     28041     28042     28043
     28042     28044     28043     28044     28045     28046     28045     28047
     28046     28047     28048     28049     28048     28050     28049     28050
     28051     28052     28051     28053     28052     28053     28054     28055
     28054     28056     28055     28056     28057     28058     28057     28059
     28058     28059     28060     28061     28060     28062     28061     28062
     28063     28064     28063     28065     28064     28065     28066     28067
     28066     28068     28067     28068     28069     28070     28069     28071
     28070     28071     28072     28073     28072     28074     28073     28074
     28075     28076     28075     28077     28076     28077     28078     28079
     28078     28080     28079     28080     28081     28082     28081     28083
     28082     28083     28084     28085     28084     28086     28085     28086
     28087     28088     28087     28089     28088     28089     28090     28091
     28090     28092     28091     28092     28093     28094     28093     28095
     28094     28095     28096     28097     28096     28098     28097     28098
     28099     28100     28099     28101     28100     28101     28102     28103
     28102     28104     28103     28104     28105     28106     28105     28107
     28106     28107     28108     28109     28108     28110     28109     28110
     28111     28112     28111     28113     28112     28113     28114     28115
     28114     28116     28115     28116     28117     28118     28117     28119
     28118     28119     28120     28121     28120     28122     28121     28122
     28123     28124     28123     28125     28124     28125     28126     28127
     28126     28128     28127     28128     28129     28130     28129     28131
     28130     28131     28132     28133     28132     28134     28133     28134
     28135     28136     28135     28137     28136     28137     28138     28139
     28138     28140     28139     28140     28141     28142     28141     28143
     28142     28143     28144     28145     28144     28146     28145     28146
     28147     28148     28147     28149     28148     28149     28150     28151
     28150     28152     28151     28152     28153     28154     28153     28155
     28154     28155     28156     28157     28156     28158     28157     28158
     28159     28160     28159     28161     28160     28161     28162     28163
     28162     28164     28163     28164     28165     28166     28165     28167
     28166     28167     28168     28169     28168     28170     28169     28170
     28171     28172     28171     28173     28172     28173     28174     28175
     28174     28176     28175     28176     28177     28178     28177     28179
     28178     28179     28180     28181     28180     28182     28181     28182
     28183     28184     28183     28185     28184     28185     28186     28187
     28186     28188     28187     28188     28189     28190     28189     28191
     28190     28191     28192     28193     28192     28194     28193     28194
     28195     28196     28195     28197     28196     28197     28198     28199
     28198     28200     28199     28200     28201     28202     28201     28203
     28202     28203     28204     28205     28204     28206     28205     28206
     28207     28208     28207     28209     28208     28209     28210     28211
     28210     28212     28211     28212     28213     28214     28213     28215
     28214     28215     28216     28217     28216     28218     28217     28218
     28219     28220     28219     28221     28220     28221     28222     28223
     28222     28224     28223     28224     28225     28226     28225     28227
     28226     28227     28228     28229     28228     28230     28229     28230
     28231     28232     28231     28233     28232     28233     28234     28235
     28234     28236     28235     28236     28237     28238     28237     28239
     28238     28239     28240     28241     28240     28242     28241     28242
     28243     28244     28243     28245     28244     28245     28246     28247
     28246     28248     28247     28248     28249     28250     28249     28251
     28250     28251     28252     28253     28252     28254     28253     28254
     28255     28256     28255     28257     28256     28257     28258     28259
     28258     28260     28259     28260     28261     28262     28261     28263
     28262     28263     28264     28265     28264     28266     28265     28266
     28267     28268     28267     28269     28268     28269     28270     28271
     28270     28272     28271     28272     28273     28274     28273     28275
     28274     28275     28276     28277     28276     28278     28277     28278
     28279     28280     28279     28281     28280     28281     28282     28283
     28282     28284     28283     28284     28285     28286     28285     28287
     28286     28287     28288     28289     28288     28290     28289     28290
     28291     28292     28291     28293     28292     28293     28294     28295
     28294     28296     28295     28296     28297     28298     28297     28299
     28298     28299     28300     28301     28300     28302     28301     28302
     28303     28304     28303     28305     28304     28305     28306     28307
     28306     28308     28307     28308     28309     28310     28309     28311
     28310     28311     28312     28313     28312     28314     28313     28314
     28315     28316     28315     28317     28316     28317     28318     28319
     28318     28320     28319     28320     28321     28322     28321     28323
     28322     28323     28324     28325     28324     28326     28325     28326
     28327     28328     28327     28329     28328     28329     28330     28331
     28330     28332     28331     28332     28333     28334     28333     28335
     28334     28335     28336     28337     28336     28338     28337     28338
     28339     28340     28339     28341     28340     28341     28342     28343
     28342     28344     28343     28344     28345     28346     28345     28347
     28346     28347     28348     28349     28348     28350     28349     28350
     28351     28352     28351     28353     28352     28353     28354     28355
     28354     28356     28355     28356     28357     28358     28357     28359
     28358     28359     28360     28361     28360     28362     28361     28362
     28363     28364     28363     28365     28364     28365     28366     28367
     28366     28368     28367     28368     28369     28370     28369     28371
     28370     28371     28372     28373     28372     28374     28373     28374
     28375     28376     28375     28377     28376     28377     28378     28379
     28378     28380     28379     28380     28381     28382     28381     28383
     28382     28383     28384     28385     28384     28386     28385     28386
     28387     28388     28387     28389     28388     28389     28390     28391
     28390     28392     28391     28392     28393     28394     28393     28395
     28394     28395     28396     28397     28396     28398     28397     28398
     28399     28400     28399     28401     28400     28401     28402     28403
     28402     28404     28403     28404     28405     28406     28405     28407
     28406     28407     28408     28409     28408     28410     28409     28410
     28411     28412     28411     28413     28412     28413     28414     28415
     28414     28416     28415     28416     28417     28418     28417     28419
     28418     28419     28420     28421     28420     28422     28421     28422
     28423     28424     28423     28425     28424     28425     28426     28427
     28426     28428     28427     28428     28429     28430     28429     28431
     28430     28431     28432     28433     28432     28434     28433     28434
     28435     28436     28435     28437     28436     28437     28438     28439
     28438     28440     28439     28440     28441     28442     28441     28443
     28442     28443     28444     28445     28444     28446     28445     28446
     28447     28448     28447     28449     28448     28449     28450     28451
     28450     28452     28451     28452     28453     28454     28453     28455
     28454     28455     28456     28457     28456     28458     28457     28458
     28459     28460     28459     28461     28460     28461     28462     28463
     28462     28464     28463     28464     28465     28466     28465     28467
     28466     28467     28468     28469     28468     28470     28469     28470
     28471     28472     28471     28473     28472     28473     28474     28475
     28474     28476     28475     28476     28477     28478     28477     28479
     28478     28479     28480     28481     28480     28482     28481     28482
     28483     28484     28483     28485     28484     28485     28486     28487
     28486     28488     28487     28488     28489     28490     28489     28491
     28490     28491     28492     28493     28492     28494     28493     28494
     28495     28496     28495     28497     28496     28497     28498     28499
     28498     28500     28499     28500     28501     28502     28501     28503
     28502     28503     28504     28505     28504     28506     28505     28506
     28507     28508     28507     28509     28508     28509     28510     28511
     28510     28512     28511     28512     28513     28514     28513     28515
     28514     28515     28516     28517     28516     28518     28517     28518
     28519     28520     28519     28521     28520     28521     28522     28523
     28522     28524     28523     28524     28525     28526     28525     28527
     28526     28527     28528     28529     28528     28530     28529     28530
     28531     28532     28531     28533     28532     28533     28534     28535
     28534     28536     28535     28536     28537     28538     28537     28539
     28538     28539     28540     28541     28540     28542     28541     28542
     28543     28544     28543     28545     28544     28545     28546     28547
     28546     28548     28547     28548     28549     28550     28549     28551
     28550     28551     28552     28553     28552     28554     28553     28554
     28555     28556     28555     28557     28556     28557     28558     28559
     28558     28560     28559     28560     28561     28562     28561     28563
     28562     28563     28564     28565     28564     28566     28565     28566
     28567     28568     28567     28569     28568     28569     28570     28571
     28570     28572     28571     28572     28573     28574     28573     28575
     28574     28575     28576     28577     28576     28578     28577     28578
     28579     28580     28579     28581     28580     28581     28582     28583
     28582     28584     28583     28584     28585     28586     28585     28587
     28586     28587     28588     28589     28588     28590     28589     28590
     28591     28592     28591     28593     28592     28593     28594     28595
     28594     28596     28595     28596     28597     28598     28597     28599
     28598     28599     28600     28601     28600     28602     28601     28602
     28603     28604     28603     28605     28604     28605     28606     28607
     28606     28608     28607     28608     28609     28610     28609     28611
     28610     28611     28612     28613     28612     28614     28613     28614
     28615     28616     28615     28617     28616     28617     28618     28619
     28618     28620     28619     28620     28621     28622     28621     28623
     28622     28623     28624     28625     28624     28626     28625     28626
     28627     28628     28627     28629     28628     28629     28630     28631
     28630     28632     28631     28632     28633     28634     28633     28635
     28634     28635     28636     28637     28636     28638     28637     28638
     28639     28640     28639     28641     28640     28641     28642     28643
     28642     28644     28643     28644     28645     28646     28645     28647
     28646     28647     28648     28649     28648     28650     28649     28650
     28651     28652     28651     28653     28652     28653     28654     28655
     28654     28656     28655     28656     28657     28658     28657     28659
     28658     28659     28660     28661     28660     28662     28661     28662
     28663     28664     28663     28665     28664     28665     28666     28667
     28666     28668     28667     28668     28669     28670     28669     28671
     28670     28671     28672     28673     28672     28674     28673     28674
     28675     28676     28675     28677     28676     28677     28678     28679
     28678     28680     28679     28680     28681     28682     28681     28683
     28682     28683     28684     28685     28684     28686     28685     28686
     28687     28688     28687     28689     28688     28689     28690     28691
     28690     28692     28691     28692     28693     28694     28693     28695
     28694     28695     28696     28697     28696     28698     28697     28698
     28699     28700     28699     28701     28700     28701     28702     28703
     28702     28704     28703     28704     28705     28706     28705     28707
     28706     28707     28708     28709     28708     28710     28709     28710
     28711     28712     28711     28713     28712     28713     28714     28715
     28714     28716     28715     28716     28717     28718     28717     28719
     28718     28719     28720     28721     28720     28722     28721     28722
     28723     28724     28723     28725     28724     28725     28726     28727
     28726     28728     28727     28728     28729     28730     28729     28731
     28730     28731     28732     28733     28732     28734     28733     28734
     28735     28736     28735     28737     28736     28737     28738     28739
     28738     28740     28739     28740     28741     28742     28741     28743
     28742     28743     28744     28745     28744     28746     28745     28746
     28747     28748     28747     28749     28748     28749     28750     28751
     28750     28752     28751     28752     28753     28754     28753     28755
     28754     28755     28756     28757     28756     28758     28757     28758
     28759     28760     28759     28761     28760     28761     28762     28763
     28762     28764     28763     28764     28765     28766     28765     28767
     28766     28767     28768     28769     28768     28770     28769     28770
     28771     28772     28771     28773     28772     28773     28774     28775
     28774     28776     28775     28776     28777     28778     28777     28779
     28778     28779     28780     28781     28780     28782     28781     28782
     28783     28784     28783     28785     28784     28785     28786     28787
     28786     28788     28787     28788     28789     28790     28789     28791
     28790     28791     28792     28793     28792     28794     28793     28794
     28795     28796     28795     28797     28796     28797     28798     28799
     28798     28800     28799     28800     28801     28802     28801     28803
     28802     28803     28804     28805     28804     28806     28805     28806
     28807     28808     28807     28809     28808     28809     28810     28811
     28810     28812     28811     28812     28813     28814     28813     28815
     28814     28815     28816     28817     28816     28818     28817     28818
     28819     28820     28819     28821     28820     28821     28822     28823
     28822     28824     28823     28824     28825     28826     28825     28827
     28826     28827     28828     28829     28828     28830     28829     28830
     28831     28832     28831     28833     28832     28833     28834     28835
     28834     28836     28835     28836     28837     28838     28837     28839
     28838     28839     28840     28841     28840     28842     28841     28842
     28843     28844     28843     28845     28844     28845     28846     28847
     28846     28848     28847     28848     28849     28850     28849     28851
     28850     28851     28852     28853     28852     28854     28853     28854
     28855     28856     28855     28857     28856     28857     28858     28859
     28858     28860     28859     28860     28861     28862     28861     28863
     28862     28863     28864     28865     28864     28866     28865     28866
     28867     28868     28867     28869     28868     28869     28870     28871
     28870     28872     28871     28872     28873     28874     28873     28875
     28874     28875     28876     28877     28876     28878     28877     28878
     28879     28880     28879     28881     28880     28881     28882     28883
     28882     28884     28883     28884     28885     28886     28885     28887
     28886     28887     28888     28889     28888     28890     28889     28890
     28891     28892     28891     28893     28892     28893     28894     28895
     28894     28896     28895     28896     28897     28898     28897     28899
     28898     28899     28900     28901     28900     28902     28901     28902
     28903     28904     28903     28905     28904     28905     28906     28907
     28906     28908     28907     28908     28909     28910     28909     28911
     28910     28911     28912     28913     28912     28914     28913     28914
     28915     28916     28915     28917     28916     28917     28918     28919
     28918     28920     28919     28920     28921     28922     28921     28923
     28922     28923     28924     28925     28924     28926     28925     28926
     28927     28928     28927     28929     28928     28929     28930     28931
     28930     28932     28931     28932     28933     28934     28933     28935
     28934     28935     28936     28937     28936     28938     28937     28938
     28939     28940     28939     28941     28940     28941     28942     28943
     28942     28944     28943     28944     28945     28946     28945     28947
     28946     28947     28948     28949     28948     28950     28949     28950
     28951     28952     28951     28953     28952     28953     28954     28955
     28954     28956     28955     28956     28957     28958     28957     28959
     28958     28959     28960     28961     28960     28962     28961     28962
     28963     28964     28963     28965     28964     28965     28966     28967
     28966     28968     28967     28968     28969     28970     28969     28971
     28970     28971     28972     28973     28972     28974     28973     28974
     28975     28976     28975     28977     28976     28977     28978     28979
     28978     28980     28979     28980     28981     28982     28981     28983
     28982     28983     28984     28985     28984     28986     28985     28986
     28987     28988     28987     28989     28988     28989     28990     28991
     28990     28992     28991     28992     28993     28994     28993     28995
     28994     28995     28996     28997     28996     28998     28997     28998
     28999     29000     28999     29001     29000     29001     29002     29003
     29002     29004     29003     29004     29005     29006     29005     29007
     29006     29007     29008     29009     29008     29010     29009     29010
     29011     29012     29011     29013     29012     29013     29014     29015
     29014     29016     29015     29016     29017     29018     29017     29019
     29018     29019     29020     29021     29020     29022     29021     29022
     29023     29024     29023     29025     29024     29025     29026     29027
     29026     29028     29027     29028     29029     29030     29029     29031
     29030     29031     29032     29033     29032     29034     29033     29034
     29035     29036     29035     29037     29036     29037     29038     29039
     29038     29040     29039     29040     29041     29042     29041     29043
     29042     29043     29044     29045     29044     29046     29045     29046
     29047     29048     29047     29049     29048     29049     29050     29051
     29050     29052     29051     29052     29053     29054     29053     29055
     29054     29055     29056     29057     29056     29058     29057     29058
     29059     29060     29059     29061     29060     29061     29062     29063
     29062     29064     29063     29064     29065     29066     29065     29067
     29066     29067     29068     29069     29068     29070     29069     29070
     29071     29072     29071     29073     29072     29073     29074     29075
     29074     29076     29075     29076     29077     29078     29077     29079
     29078     29079     29080     29081     29080     29082     29081     29082
     29083     29084     29083     29085     29084     29085     29086     29087
     29086     29088     29087     29088     29089     29090     29089     29091
     29090     29091     29092     29093     29092     29094     29093     29094
     29095     29096     29095     29097     29096     29097     29098     29099
     29098     29100     29099     29100     29101     29102     29101     29103
     29102     29103     29104     29105     29104     29106     29105     29106
     29107     29108     29107     29109     29108     29109     29110     29111
     29110     29112     29111     29112     29113     29114     29113     29115
     29114     29115     29116     29117     29116     29118     29117     29118
     29119     29120     29119     29121     29120     29121     29122     29123
     29122     29124     29123     29124     29125     29126     29125     29127
     29126     29127     29128     29129     29128     29130     29129     29130
     29131     29132     29131     29133     29132     29133     29134     29135
     29134     29136     29135     29136     29137     29138     29137     29139
     29138     29139     29140     29141     29140     29142     29141     29142
     29143     29144     29143     29145     29144     29145     29146     29147
     29146     29148     29147     29148     29149     29150     29149     29151
     29150     29151     29152     29153     29152     29154     29153     29154
     29155     29156     29155     29157     29156     29157     29158     29159
     29158     29160     29159     29160     29161     29162     29161     29163
     29162     29163     29164     29165     29164     29166     29165     29166
     29167     29168     29167     29169     29168     29169     29170     29171
     29170     29172     29171     29172     29173     29174     29173     29175
     29174     29175     29176     29177     29176     29178     29177     29178
     29179     29180     29179     29181     29180     29181     29182     29183
     29182     29184     29183     29184     29185     29186     29185     29187
     29186     29187     29188     29189     29188     29190     29189     29190
     29191     29192     29191     29193     29192     29193     29194     29195
     29194     29196     29195     29196     29197     29198     29197     29199
     29198     29199     29200     29201     29200     29202     29201     29202
     29203     29204     29203     29205     29204     29205     29206     29207
     29206     29208     29207     29208     29209     29210     29209     29211
     29210     29211     29212     29213     29212     29214     29213     29214
     29215     29216     29215     29217     29216     29217     29218     29219
     29218     29220     29219     29220     29221     29222     29221     29223
     29222     29223     29224     29225     29224     29226     29225     29226
     29227     29228     29227     29229     29228     29229     29230     29231
     29230     29232     29231     29232     29233     29234     29233     29235
     29234     29235     29236     29237     29236     29238     29237     29238
     29239     29240     29239     29241     29240     29241     29242     29243
     29242     29244     29243     29244     29245     29246     29245     29247
     29246     29247     29248     29249     29248     29250     29249     29250
     29251     29252     29251     29253     29252     29253     29254     29255
     29254     29256     29255     29256     29257     29258     29257     29259
     29258     29259     29260     29261     29260     29262     29261     29262
     29263     29264     29263     29265     29264     29265     29266     29267
     29266     29268     29267     29268     29269     29270     29269     29271
     29270     29271     29272     29273     29272     29274     29273     29274
     29275     29276     29275     29277     29276     29277     29278     29279
     29278     29280     29279     29280     29281     29282     29281     29283
     29282     29283     29284     29285     29284     29286     29285     29286
     29287     29288     29287     29289     29288     29289     29290     29291
     29290     29292     29291     29292     29293     29294     29293     29295
     29294     29295     29296     29297     29296     29298     29297     29298
     29299     29300     29299     29301     29300     29301     29302     29303
     29302     29304     29303     29304     29305     29306     29305     29307
     29306     29307     29308     29309     29308     29310     29309     29310
     29311     29312     29311     29313     29312     29313     29314     29315
     29314     29316     29315     29316     29317     29318     29317     29319
     29318     29319     29320     29321     29320     29322     29321     29322
     29323     29324     29323     29325     29324     29325     29326     29327
     29326     29328     29327     29328     29329     29330     29329     29331
     29330     29331     29332     29333     29332     29334     29333     29334
     29335     29336     29335     29337     29336     29337     29338     29339
     29338     29340     29339     29340     29341     29342     29341     29343
     29342     29343     29344     29345     29344     29346     29345     29346
     29347     29348     29347     29349     29348     29349     29350     29351
     29350     29352     29351     29352     29353     29354     29353     29355
     29354     29355     29356     29357     29356     29358     29357     29358
     29359     29360     29359     29361     29360     29361     29362     29363
     29362     29364     29363     29364     29365     29366     29365     29367
     29366     29367     29368     29369     29368     29370     29369     29370
     29371     29372     29371     29373     29372     29373     29374     29375
     29374     29376     29375     29376     29377     29378     29377     29379
     29378     29379     29380     29381     29380     29382     29381     29382
     29383     29384     29383     29385     29384     29385     29386     29387
     29386     29388     29387     29388     29389     29390     29389     29391
     29390     29391     29392     29393     29392     29394     29393     29394
     29395     29396     29395     29397     29396     29397     29398     29399
     29398     29400     29399     29400     29401     29402     29401     29403
     29402     29403     29404     29405     29404     29406     29405     29406
     29407     29408     29407     29409     29408     29409     29410     29411
     29410     29412     29411     29412     29413     29414     29413     29415
     29414     29415     29416     29417     29416     29418     29417     29418
     29419     29420     29419     29421     29420     29421     29422     29423
     29422     29424     29423     29424     29425     29426     29425     29427
     29426     29427     29428     29429     29428     29430     29429     29430
     29431     29432     29431     29433     29432     29433     29434     29435
     29434     29436     29435     29436     29437     29438     29437     29439
     29438     29439     29440     29441     29440     29442     29441     29442
     29443     29444     29443     29445     29444     29445     29446     29447
     29446     29448     29447     29448     29449     29450     29449     29451
     29450     29451     29452     29453     29452     29454     29453     29454
     29455     29456     29455     29457     29456     29457     29458     29459
     29458     29460     29459     29460     29461     29462     29461     29463
     29462     29463     29464     29465     29464     29466     29465     29466
     29467     29468     29467     29469     29468     29469     29470     29471
     29470     29472     29471     29472     29473     29474     29473     29475
     29474     29475     29476     29477     29476     29478     29477     29478
     29479     29480     29479     29481     29480     29481     29482     29483
     29482     29484     29483     29484     29485     29486     29485     29487
     29486     29487     29488     29489     29488     29490     29489     29490
     29491     29492     29491     29493     29492     29493     29494     29495
     29494     29496     29495     29496     29497     29498     29497     29499
     29498     29499     29500     29501     29500     29502     29501     29502
     29503     29504     29503     29505     29504     29505     29506     29507
     29506     29508     29507     29508     29509     29510     29509     29511
     29510     29511     29512     29513     29512     29514     29513     29514
     29515     29516     29515     29517     29516     29517     29518     29519
     29518     29520     29519     29520     29521     29522     29521     29523
     29522     29523     29524     29525     29524     29526     29525     29526
     29527     29528     29527     29529     29528     29529     29530     29531
     29530     29532     29531     29532     29533     29534     29533     29535
     29534     29535     29536     29537     29536     29538     29537     29538
     29539     29540     29539     29541     29540     29541     29542     29543
     29542     29544     29543     29544     29545     29546     29545     29547
     29546     29547     29548     29549     29548     29550     29549     29550
     29551     29552     29551     29553     29552     29553     29554     29555
     29554     29556     29555     29556     29557     29558     29557     29559
     29558     29559     29560     29561     29560     29562     29561     29562
     29563     29564     29563     29565     29564     29565     29566     29567
     29566     29568     29567     29568     29569     29570     29569     29571
     29570     29571     29572     29573     29572     29574     29573     29574
     29575     29576     29575     29577     29576     29577     29578     29579
     29578     29580     29579     29580     29581     29582     29581     29583
     29582     29583     29584     29585     29584     29586     29585     29586
     29587     29588     29587     29589     29588     29589     29590     29591
     29590     29592     29591     29592     29593     29594     29593     29595
     29594     29595     29596     29597     29596     29598     29597     29598
     29599     29600     29599     29601     29600     29601     29602     29603
     29602     29604     29603     29604     29605     29606     29605     29607
     29606     29607     29608     29609     29608     29610     29609     29610
     29611     29612     29611     29613     29612     29613     29614     29615
     29614     29616     29615     29616     29617     29618     29617     29619
     29618     29619     29620     29621     29620     29622     29621     29622
     29623     29624     29623     29625     29624     29625     29626     29627
     29626     29628     29627     29628     29629     29630     29629     29631
     29630     29631     29632     29633     29632     29634     29633     29634
     29635     29636     29635     29637     29636     29637     29638     29639
     29638     29640     29639     29640     29641     29642     29641     29643
     29642     29643     29644     29645     29644     29646     29645     29646
     29647     29648     29647     29649     29648     29649     29650     29651
     29650     29652     29651     29652     29653     29654     29653     29655
     29654     29655     29656     29657     29656     29658     29657     29658
     29659     29660     29659     29661     29660     29661     29662     29663
     29662     29664     29663     29664     29665     29666     29665     29667
     29666     29667     29668     29669     29668     29670     29669     29670
     29671     29672     29671     29673     29672     29673     29674     29675
     29674     29676     29675     29676     29677     29678     29677     29679
     29678     29679     29680     29681     29680     29682     29681     29682
     29683     29684     29683     29685     29684     29685     29686     29687
     29686     29688     29687     29688     29689     29690     29689     29691
     29690     29691     29692     29693     29692     29694     29693     29694
     29695     29696     29695     29697     29696     29697     29698     29699
     29698     29700     29699     29700     29701     29702     29701     29703
     29702     29703     29704     29705     29704     29706     29705     29706
     29707     29708     29707     29709     29708     29709     29710     29711
     29710     29712     29711     29712     29713     29714     29713     29715
     29714     29715     29716     29717     29716     29718     29717     29718
     29719     29720     29719     29721     29720     29721     29722     29723
     29722     29724     29723     29724     29725     29726     29725     29727
     29726     29727     29728     29729     29728     29730     29729     29730
     29731     29732     29731     29733     29732     29733     29734     29735
     29734     29736     29735     29736     29737     29738     29737     29739
     29738     29739     29740     29741     29740     29742     29741     29742
     29743     29744     29743     29745     29744     29745     29746     29747
     29746     29748     29747     29748     29749     29750     29749     29751
     29750     29751     29752     29753     29752     29754     29753     29754
     29755     29756     29755     29757     29756     29757     29758     29759
     29758     29760     29759     29760     29761     29762     29761     29763
     29762     29763     29764     29765     29764     29766     29765     29766
     29767     29768     29767     29769     29768     29769     29770     29771
     29770     29772     29771     29772     29773     29774     29773     29775
     29774     29775     29776     29777     29776     29778     29777     29778
     29779     29780     29779     29781     29780     29781     29782     29783
     29782     29784     29783     29784     29785     29786     29785     29787
     29786     29787     29788     29789     29788     29790     29789     29790
     29791     29792     29791     29793     29792     29793     29794     29795
     29794     29796     29795     29796     29797     29798     29797     29799
     29798     29799     29800     29801     29800     29802     29801     29802
     29803     29804     29803     29805     29804     29805     29806     29807
     29806     29808     29807     29808     29809     29810     29809     29811
     29810     29811     29812     29813     29812     29814     29813     29814
     29815     29816     29815     29817     29816     29817     29818     29819
     29818     29820     29819     29820     29821     29822     29821     29823
     29822     29823     29824     29825     29824     29826     29825     29826
     29827     29828     29827     29829     29828     29829     29830     29831
     29830     29832     29831     29832     29833     29834     29833     29835
     29834     29835     29836     29837     29836     29838     29837     29838
     29839     29840     29839     29841     29840     29841     29842     29843
     29842     29844     29843     29844     29845     29846     29845     29847
     29846     29847     29848     29849     29848     29850     29849     29850
     29851     29852     29851     29853     29852     29853     29854     29855
     29854     29856     29855     29856     29857     29858     29857     29859
     29858     29859     29860     29861     29860     29862     29861     29862
     29863     29864     29863     29865     29864     29865     29866     29867
     29866     29868     29867     29868     29869     29870     29869     29871
     29870     29871     29872     29873     29872     29874     29873     29874
     29875     29876     29875     29877     29876     29877     29878     29879
     29878     29880     29879     29880     29881     29882     29881     29883
     29882     29883     29884     29885     29884     29886     29885     29886
     29887     29888     29887     29889     29888     29889     29890     29891
     29890     29892     29891     29892     29893     29894     29893     29895
     29894     29895     29896     29897     29896     29898     29897     29898
     29899     29900     29899     29901     29900     29901     29902     29903
     29902     29904     29903     29904     29905     29906     29905     29907
     29906     29907     29908     29909     29908     29910     29909     29910
     29911     29912     29911     29913     29912     29913     29914     29915
     29914     29916     29915     29916     29917     29918     29917     29919
     29918     29919     29920     29921     29920     29922     29921     29922
     29923     29924     29923     29925     29924     29925     29926     29927
     29926     29928     29927     29928     29929     29930     29929     29931
     29930     29931     29932     29933     29932     29934     29933     29934
     29935     29936     29935     29937     29936     29937     29938     29939
     29938     29940     29939     29940     29941     29942     29941     29943
     29942     29943     29944     29945     29944     29946     29945     29946
     29947     29948     29947     29949     29948     29949     29950     29951
     29950     29952     29951     29952     29953     29954     29953     29955
     29954     29955     29956     29957     29956     29958     29957     29958
     29959     29960     29959     29961     29960     29961     29962     29963
     29962     29964     29963     29964     29965     29966     29965     29967
     29966     29967     29968     29969     29968     29970     29969     29970
     29971     29972     29971     29973     29972     29973     29974     29975
     29974     29976     29975     29976     29977     29978     29977     29979
     29978     29979     29980     29981     29980     29982     29981     29982
     29983     29984     29983     29985     29984     29985     29986     29987
     29986     29988     29987     29988     29989     29990     29989     29991
     29990     29991     29992     29993     29992     29994     29993     29994
     29995     29996     29995     29997     29996     29997     29998     29999
     29998     30000     29999     30000     30001     30002     30001     30003
     30002     30003     30004     30005     30004     30006     30005     30006
     30007     30008     30007     30009     30008     30009     30010     30011
     30010     30012     30011     30012     30013     30014     30013     30015
     30014     30015     30016     30017     30016     30018     30017     30018
     30019     30020     30019     30021     30020     30021     30022     30023
     30022     30024     30023     30024     30025     30026     30025     30027
     30026     30027     30028     30029     30028     30030     30029     30030
     30031     30032     30031     30033     30032     30033     30034     30035
     30034     30036     30035     30036     30037     30038     30037     30039
     30038     30039     30040     30041     30040     30042     30041     30042
     30043     30044     30043     30045     30044     30045     30046     30047
     30046     30048     30047     30048     30049     30050     30049     30051
     30050     30051     30052     30053     30052     30054     30053     30054
     30055     30056     30055     30057     30056     30057     30058     30059
     30058     30060     30059     30060     30061     30062     30061     30063
     30062     30063     30064     30065     30064     30066     30065     30066
     30067     30068     30067     30069     30068     30069     30070     30071
     30070     30072     30071     30072     30073     30074     30073     30075
     30074     30075     30076     30077     30076     30078     30077     30078
     30079     30080     30079     30081     30080     30081     30082     30083
     30082     30084     30083     30084     30085     30086     30085     30087
     30086     30087     30088     30089     30088     30090     30089     30090
     30091     30092     30091     30093     30092     30093     30094     30095
     30094     30096     30095     30096     30097     30098     30097     30099
     30098     30099     30100     30101     30100     30102     30101     30102
     30103     30104     30103     30105     30104     30105     30106     30107
     30106     30108     30107     30108     30109     30110     30109     30111
     30110     30111     30112     30113     30112     30114     30113     30114
     30115     30116     30115     30117     30116     30117     30118     30119
     30118     30120     30119     30120     30121     30122     30121     30123
     30122     30123     30124     30125     30124     30126     30125     30126
     30127     30128     30127     30129     30128     30129     30130     30131
     30130     30132     30131     30132     30133     30134     30133     30135
     30134     30135     30136     30137     30136     30138     30137     30138
     30139     30140     30139     30141     30140     30141     30142     30143
     30142     30144     30143     30144     30145     30146     30145     30147
     30146     30147     30148     30149     30148     30150     30149     30150
     30151     30152     30151     30153     30152     30153     30154     30155
     30154     30156     30155     30156     30157     30158     30157     30159
     30158     30159     30160     30161     30160     30162     30161     30162
     30163     30164     30163     30165     30164     30165     30166     30167
     30166     30168     30167     30168     30169     30170     30169     30171
     30170     30171     30172     30173     30172     30174     30173     30174
     30175     30176     30175     30177     30176     30177     30178     30179
     30178     30180     30179     30180     30181     30182     30181     30183
     30182     30183     30184     30185     30184     30186     30185     30186
     30187     30188     30187     30189     30188     30189     30190     30191
     30190     30192     30191     30192     30193     30194     30193     30195
     30194     30195     30196     30197     30196     30198     30197     30198
     30199     30200     30199     30201     30200     30201     30202     30203
     30202     30204     30203     30204     30205     30206     30205     30207
     30206     30207     30208     30209     30208     30210     30209     30210
     30211     30212     30211     30213     30212     30213     30214     30215
     30214     30216     30215     30216     30217     30218     30217     30219
     30218     30219     30220     30221     30220     30222     30221     30222
     30223     30224     30223     30225     30224     30225     30226     30227
     30226     30228     30227     30228     30229     30230     30229     30231
     30230     30231     30232     30233     30232     30234     30233     30234
     30235     30236     30235     30237     30236     30237     30238     30239
     30238     30240     30239     30240     30241     30242     30241     30243
     30242     30243     30244     30245     30244     30246     30245     30246
     30247     30248     30247     30249     30248     30249     30250     30251
     30250     30252     30251     30252     30253     30254     30253     30255
     30254     30255     30256     30257     30256     30258     30257     30258
     30259     30260     30259     30261     30260     30261     30262     30263
     30262     30264     30263     30264     30265     30266     30265     30267
     30266     30267     30268     30269     30268     30270     30269     30270
     30271     30272     30271     30273     30272     30273     30274     30275
     30274     30276     30275     30276     30277     30278     30277     30279
     30278     30279     30280     30281     30280     30282     30281     30282
     30283     30284     30283     30285     30284     30285     30286     30287
     30286     30288     30287     30288     30289     30290     30289     30291
     30290     30291     30292     30293     30292     30294     30293     30294
     30295     30296     30295     30297     30296     30297     30298     30299
     30298     30300     30299     30300     30301     30302     30301     30303
     30302     30303     30304     30305     30304     30306     30305     30306
     30307     30308     30307     30309     30308     30309     30310     30311
     30310     30312     30311     30312     30313     30314     30313     30315
     30314     30315     30316     30317     30316     30318     30317     30318
     30319     30320     30319     30321     30320     30321     30322     30323
     30322     30324     30323     30324     30325     30326     30325     30327
     30326     30327     30328     30329     30328     30330     30329     30330
     30331     30332     30331     30333     30332     30333     30334     30335
     30334     30336     30335     30336     30337     30338     30337     30339
     30338     30339     30340     30341     30340     30342     30341     30342
     30343     30344     30343     30345     30344     30345     30346     30347
     30346     30348     30347     30348     30349     30350     30349     30351
     30350     30351     30352     30353     30352     30354     30353     30354
     30355     30356     30355     30357     30356     30357     30358     30359
     30358     30360     30359     30360     30361     30362     30361     30363
     30362     30363     30364     30365     30364     30366     30365     30366
     30367     30368     30367     30369     30368     30369     30370     30371
     30370     30372     30371     30372     30373     30374     30373     30375
     30374     30375     30376     30377     30376     30378     30377     30378
     30379     30380     30379     30381     30380     30381     30382     30383
     30382     30384     30383     30384     30385     30386     30385     30387
     30386     30387     30388     30389     30388     30390     30389     30390
     30391     30392     30391     30393     30392     30393     30394     30395
     30394     30396     30395     30396     30397     30398     30397     30399
     30398     30399     30400     30401     30400     30402     30401     30402
     30403     30404     30403     30405     30404     30405     30406     30407
     30406     30408     30407     30408     30409     30410     30409     30411
     30410     30411     30412     30413     30412     30414     30413     30414
     30415     30416     30415     30417     30416     30417     30418     30419
     30418     30420     30419     30420     30421     30422     30421     30423
     30422     30423     30424     30425     30424     30426     30425     30426
     30427     30428     30427     30429     30428     30429     30430     30431
     30430     30432     30431     30432     30433     30434     30433     30435
     30434     30435     30436     30437     30436     30438     30437     30438
     30439     30440     30439     30441     30440     30441     30442     30443
     30442     30444     30443     30444     30445     30446     30445     30447
     30446     30447     30448     30449     30448     30450     30449     30450
     30451     30452     30451     30453     30452     30453     30454     30455
     30454     30456     30455     30456     30457     30458     30457     30459
     30458     30459     30460     30461     30460     30462     30461     30462
     30463     30464     30463     30465     30464     30465     30466     30467
     30466     30468     30467     30468     30469     30470     30469     30471
     30470     30471     30472     30473     30472     30474     30473     30474
     30475     30476     30475     30477     30476     30477     30478     30479
     30478     30480     30479     30480     30481     30482     30481     30483
     30482     30483     30484     30485     30484     30486     30485     30486
     30487     30488     30487     30489     30488     30489     30490     30491
     30490     30492     30491     30492     30493     30494     30493     30495
     30494     30495     30496     30497     30496     30498     30497     30498
     30499     30500     30499     30501     30500     30501     30502     30503
     30502     30504     30503     30504     30505     30506     30505     30507
     30506     30507     30508     30509     30508     30510     30509     30510
     30511     30512     30511     30513     30512     30513     30514     30515
     30514     30516     30515     30516     30517     30518     30517     30519
     30518     30519     30520     30521     30520     30522     30521     30522
     30523     30524     30523     30525     30524     30525     30526     30527
     30526     30528     30527     30528     30529     30530     30529     30531
     30530     30531     30532     30533     30532     30534     30533     30534
     30535     30536     30535     30537     30536     30537     30538     30539
     30538     30540     30539     30540     30541     30542     30541     30543
     30542     30543     30544     30545     30544     30546     30545     30546
     30547     30548     30547     30549     30548     30549     30550     30551
     30550     30552     30551     30552     30553     30554     30553     30555
     30554     30555     30556     30557     30556     30558     30557     30558
     30559     30560     30559     30561     30560     30561     30562     30563
     30562     30564     30563     30564     30565     30566     30565     30567
     30566     30567     30568     30569     30568     30570     30569     30570
     30571     30572     30571     30573     30572     30573     30574     30575
     30574     30576     30575     30576     30577     30578     30577     30579
     30578     30579     30580     30581     30580     30582     30581     30582
     30583     30584     30583     30585     30584     30585     30586     30587
     30586     30588     30587     30588     30589     30590     30589     30591
     30590     30591     30592     30593     30592     30594     30593     30594
     30595     30596     30595     30597     30596     30597     30598     30599
     30598     30600     30599     30600     30601     30602     30601     30603
     30602     30603     30604     30605     30604     30606     30605     30606
     30607     30608     30607     30609     30608     30609     30610     30611
     30610     30612     30611     30612     30613     30614     30613     30615
     30614     30615     30616     30617     30616     30618     30617     30618
     30619     30620     30619     30621     30620     30621     30622     30623
     30622     30624     30623     30624     30625     30626     30625     30627
     30626     30627     30628     30629     30628     30630     30629     30630
     30631     30632     30631     30633     30632     30633     30634     30635
     30634     30636     30635     30636     30637     30638     30637     30639
     30638     30639     30640     30641     30640     30642     30641     30642
     30643     30644     30643     30645     30644     30645     30646     30647
     30646     30648     30647     30648     30649     30650     30649     30651
     30650     30651     30652     30653     30652     30654     30653     30654
     30655     30656     30655     30657     30656     30657     30658     30659
     30658     30660     30659     30660     30661     30662     30661     30663
     30662     30663     30664     30665     30664     30666     30665     30666
     30667     30668     30667     30669     30668     30669     30670     30671
     30670     30672     30671     30672     30673     30674     30673     30675
     30674     30675     30676     30677     30676     30678     30677     30678
     30679     30680     30679     30681     30680     30681     30682     30683
     30682     30684     30683     30684     30685     30686     30685     30687
     30686     30687     30688     30689     30688     30690     30689     30690
     30691     30692     30691     30693     30692     30693     30694     30695
     30694     30696     30695     30696     30697     30698     30697     30699
     30698     30699     30700     30701     30700     30702     30701     30702
     30703     30704     30703     30705     30704     30705     30706     30707
     30706     30708     30707     30708     30709     30710     30709     30711
     30710     30711     30712     30713     30712     30714     30713     30714
     30715     30716     30715     30717     30716     30717     30718     30719
     30718     30720     30719     30720     30721     30722     30721     30723
     30722     30723     30724     30725     30724     30726     30725     30726
     30727     30728     30727     30729     30728     30729     30730     30731
     30730     30732     30731     30732     30733     30734     30733     30735
     30734     30735     30736     30737     30736     30738     30737     30738
     30739     30740     30739     30741     30740     30741     30742     30743
     30742     30744     30743     30744     30745     30746     30745     30747
     30746     30747     30748     30749     30748     30750     30749     30750
     30751     30752     30751     30753     30752     30753     30754     30755
     30754     30756     30755     30756     30757     30758     30757     30759
     30758     30759     30760     30761     30760     30762     30761     30762
     30763     30764     30763     30765     30764     30765     30766     30767
     30766     30768     30767     30768     30769     30770     30769     30771
     30770     30771     30772     30773     30772     30774     30773     30774
     30775     30776     30775     30777     30776     30777     30778     30779
     30778     30780     30779     30780     30781     30782     30781     30783
     30782     30783     30784     30785     30784     30786     30785     30786
     30787     30788     30787     30789     30788     30789     30790     30791
     30790     30792     30791     30792     30793     30794     30793     30795
     30794     30795     30796     30797     30796     30798     30797     30798
     30799     30800     30799     30801     30800     30801     30802     30803
     30802     30804     30803     30804     30805     30806     30805     30807
     30806     30807     30808     30809     30808     30810     30809     30810
     30811     30812     30811     30813     30812     30813     30814     30815
     30814     30816     30815     30816     30817     30818     30817     30819
     30818     30819     30820     30821     30820     30822     30821     30822
     30823     30824     30823     30825     30824     30825     30826     30827
     30826     30828     30827     30828     30829     30830     30829     30831
     30830     30831     30832     30833     30832     30834     30833     30834
     30835     30836     30835     30837     30836     30837     30838     30839
     30838     30840     30839     30840     30841     30842     30841     30843
     30842     30843     30844     30845     30844     30846     30845     30846
     30847     30848     30847     30849     30848     30849     30850     30851
     30850     30852     30851     30852     30853     30854     30853     30855
     30854     30855     30856     30857     30856     30858     30857     30858
     30859     30860     30859     30861     30860     30861     30862     30863
     30862     30864     30863     30864     30865     30866     30865     30867
     30866     30867     30868     30869     30868     30870     30869     30870
     30871     30872     30871     30873     30872     30873     30874     30875
     30874     30876     30875     30876     30877     30878     30877     30879
     30878     30879     30880     30881     30880     30882     30881     30882
     30883     30884     30883     30885     30884     30885     30886     30887
     30886     30888     30887     30888     30889     30890     30889     30891
     30890     30891     30892     30893     30892     30894     30893     30894
     30895     30896     30895     30897     30896     30897     30898     30899
     30898     30900     30899     30900     30901     30902     30901     30903
     30902     30903     30904     30905     30904     30906     30905     30906
     30907     30908     30907     30909     30908     30909     30910     30911
     30910     30912     30911     30912     30913     30914     30913     30915
     30914     30915     30916     30917     30916     30918     30917     30918
     30919     30920     30919     30921     30920     30921     30922     30923
     30922     30924     30923     30924     30925     30926     30925     30927
     30926     30927     30928     30929     30928     30930     30929     30930
     30931     30932     30931     30933     30932     30933     30934     30935
     30934     30936     30935     30936     30937     30938     30937     30939
     30938     30939     30940     30941     30940     30942     30941     30942
     30943     30944     30943     30945     30944     30945     30946     30947
     30946     30948     30947     30948     30949     30950     30949     30951
     30950     30951     30952     30953     30952     30954     30953     30954
     30955     30956     30955     30957     30956     30957     30958     30959
     30958     30960     30959     30960     30961     30962     30961     30963
     30962     30963     30964     30965     30964     30966     30965     30966
     30967     30968     30967     30969     30968     30969     30970     30971
     30970     30972     30971     30972     30973     30974     30973     30975
     30974     30975     30976     30977     30976     30978     30977     30978
     30979     30980     30979     30981     30980     30981     30982     30983
     30982     30984     30983     30984     30985     30986     30985     30987
     30986     30987     30988     30989     30988     30990     30989     30990
     30991     30992     30991     30993     30992     30993     30994     30995
     30994     30996     30995     30996     30997     30998     30997     30999
     30998     30999     31000     31001     31000     31002     31001     31002
     31003     31004     31003     31005     31004     31005     31006     31007
     31006     31008     31007     31008     31009     31010     31009     31011
     31010     31011     31012     31013     31012     31014     31013     31014
     31015     31016     31015     31017     31016     31017     31018     31019
     31018     31020     31019     31020     31021     31022     31021     31023
     31022     31023     31024     31025     31024     31026     31025     31026
     31027     31028     31027     31029     31028     31029     31030     31031
     31030     31032     31031     31032     31033     31034     31033     31035
     31034     31035     31036     31037     31036     31038     31037     31038
     31039     31040     31039     31041     31040     31041     31042     31043
     31042     31044     31043     31044     31045     31046     31045     31047
     31046     31047     31048     31049     31048     31050     31049     31050
     31051     31052     31051     31053     31052     31053     31054     31055
     31054     31056     31055     31056     31057     31058     31057     31059
     31058     31059     31060     31061     31060     31062     31061     31062
     31063     31064     31063     31065     31064     31065     31066     31067
     31066     31068     31067     31068     31069     31070     31069     31071
     31070     31071     31072     31073     31072     31074     31073     31074
     31075     31076     31075     31077     31076     31077     31078     31079
     31078     31080     31079     31080     31081     31082     31081     31083
     31082     31083     31084     31085     31084     31086     31085     31086
     31087     31088     31087     31089     31088     31089     31090     31091
     31090     31092     31091     31092     31093     31094     31093     31095
     31094     31095     31096     31097     31096     31098     31097     31098
     31099     31100     31099     31101     31100     31101     31102     31103
     31102     31104     31103     31104     31105     31106     31105     31107
     31106     31107     31108     31109     31108     31110     31109     31110
     31111     31112     31111     31113     31112     31113     31114     31115
     31114     31116     31115     31116     31117     31118     31117     31119
     31118     31119     31120     31121     31120     31122     31121     31122
     31123     31124     31123     31125     31124     31125     31126     31127
     31126     31128     31127     31128     31129     31130     31129     31131
     31130     31131     31132     31133     31132     31134     31133     31134
     31135     31136     31135     31137     31136     31137     31138     31139
     31138     31140     31139     31140     31141     31142     31141     31143
     31142     31143     31144     31145     31144     31146     31145     31146
     31147     31148     31147     31149     31148     31149     31150     31151
     31150     31152     31151     31152     31153     31154     31153     31155
     31154     31155     31156     31157     31156     31158     31157     31158
     31159     31160     31159     31161     31160     31161     31162     31163
     31162     31164     31163     31164     31165     31166     31165     31167
     31166     31167     31168     31169     31168     31170     31169     31170
     31171     31172     31171     31173     31172     31173     31174     31175
     31174     31176     31175     31176     31177     31178     31177     31179
     31178     31179     31180     31181     31180     31182     31181     31182
     31183     31184     31183     31185     31184     31185     31186     31187
     31186     31188     31187     31188     31189     31190     31189     31191
     31190     31191     31192     31193     31192     31194     31193     31194
     31195     31196     31195     31197     31196     31197     31198     31199
     31198     31200     31199     31200     31201     31202     31201     31203
     31202     31203     31204     31205     31204     31206     31205     31206
     31207     31208     31207     31209     31208     31209     31210     31211
     31210     31212     31211     31212     31213     31214     31213     31215
     31214     31215     31216     31217     31216     31218     31217     31218
     31219     31220     31219     31221     31220     31221     31222     31223
     31222     31224     31223     31224     31225     31226     31225     31227
     31226     31227     31228     31229     31228     31230     31229     31230
     31231     31232     31231     31233     31232     31233     31234     31235
     31234     31236     31235     31236     31237     31238     31237     31239
     31238     31239     31240     31241     31240     31242     31241     31242
     31243     31244     31243     31245     31244     31245     31246     31247
     31246     31248     31247     31248     31249     31250     31249     31251
     31250     31251     31252     31253     31252     31254     31253     31254
     31255     31256     31255     31257     31256     31257     31258     31259
     31258     31260     31259     31260     31261     31262     31261     31263
     31262     31263     31264     31265     31264     31266     31265     31266
     31267     31268     31267     31269     31268     31269     31270     31271
     31270     31272     31271     31272     31273     31274     31273     31275
     31274     31275     31276     31277     31276     31278     31277     31278
     31279     31280     31279     31281     31280     31281     31282     31283
     31282     31284     31283     31284     31285     31286     31285     31287
     31286     31287     31288     31289     31288     31290     31289     31290
     31291     31292     31291     31293     31292     31293     31294     31295
     31294     31296     31295     31296     31297     31298     31297     31299
     31298     31299     31300     31301     31300     31302     31301     31302
     31303     31304     31303     31305     31304     31305     31306     31307
     31306     31308     31307     31308     31309     31310     31309     31311
     31310     31311     31312     31313     31312     31314     31313     31314
     31315     31316     31315     31317     31316     31317     31318     31319
     31318     31320     31319     31320     31321     31322     31321     31323
     31322     31323     31324     31325     31324     31326     31325     31326
     31327     31328     31327     31329     31328     31329     31330     31331
     31330     31332     31331     31332     31333     31334     31333     31335
     31334     31335     31336     31337     31336     31338     31337     31338
     31339     31340     31339     31341     31340     31341     31342     31343
     31342     31344     31343     31344     31345     31346     31345     31347
     31346     31347     31348     31349     31348     31350     31349     31350
     31351     31352     31351     31353     31352     31353     31354     31355
     31354     31356     31355     31356     31357     31358     31357     31359
     31358     31359     31360     31361     31360     31362     31361     31362
     31363     31364     31363     31365     31364     31365     31366     31367
     31366     31368     31367     31368     31369     31370     31369     31371
     31370     31371     31372     31373     31372     31374     31373     31374
     31375     31376     31375     31377     31376     31377     31378     31379
     31378     31380     31379     31380     31381     31382     31381     31383
     31382     31383     31384     31385     31384     31386     31385     31386
     31387     31388     31387     31389     31388     31389     31390     31391
     31390     31392     31391     31392     31393     31394     31393     31395
     31394     31395     31396     31397     31396     31398     31397     31398
     31399     31400     31399     31401     31400     31401     31402     31403
     31402     31404     31403     31404     31405     31406     31405     31407
     31406     31407     31408     31409     31408     31410     31409     31410
     31411     31412     31411     31413     31412     31413     31414     31415
     31414     31416     31415     31416     31417     31418     31417     31419
     31418     31419     31420     31421     31420     31422     31421     31422
     31423     31424     31423     31425     31424     31425     31426     31427
     31426     31428     31427     31428     31429     31430     31429     31431
     31430     31431     31432     31433     31432     31434     31433     31434
     31435     31436     31435     31437     31436     31437     31438     31439
     31438     31440     31439     31440     31441     31442     31441     31443
     31442     31443     31444     31445     31444     31446     31445     31446
     31447     31448     31447     31449     31448     31449     31450     31451
     31450     31452     31451     31452     31453     31454     31453     31455
     31454     31455     31456     31457     31456     31458     31457     31458
     31459     31460     31459     31461     31460     31461     31462     31463
     31462     31464     31463     31464     31465     31466     31465     31467
     31466     31467     31468     31469     31468     31470     31469     31470
     31471     31472     31471     31473     31472     31473     31474     31475
     31474     31476     31475     31476     31477     31478     31477     31479
     31478     31479     31480     31481     31480     31482     31481     31482
     31483     31484     31483     31485     31484     31485     31486     31487
     31486     31488     31487     31488     31489     31490     31489     31491
     31490     31491     31492     31493     31492     31494     31493     31494
     31495     31496     31495     31497     31496     31497     31498     31499
     31498     31500     31499     31500     31501     31502     31501     31503
     31502     31503     31504     31505     31504     31506     31505     31506
     31507     31508     31507     31509     31508     31509     31510     31511
     31510     31512     31511     31512     31513     31514     31513     31515
     31514     31515     31516     31517     31516     31518     31517     31518
     31519     31520     31519     31521     31520     31521     31522     31523
     31522     31524     31523     31524     31525     31526     31525     31527
     31526     31527     31528     31529     31528     31530     31529     31530
     31531     31532     31531     31533     31532     31533     31534     31535
     31534     31536     31535     31536     31537     31538     31537     31539
     31538     31539     31540     31541     31540     31542     31541     31542
     31543     31544     31543     31545     31544     31545     31546     31547
     31546     31548     31547     31548     31549     31550     31549     31551
     31550     31551     31552     31553     31552     31554     31553     31554
     31555     31556     31555     31557     31556     31557     31558     31559
     31558     31560     31559     31560     31561     31562     31561     31563
     31562     31563     31564     31565     31564     31566     31565     31566
     31567     31568     31567     31569     31568     31569     31570     31571
     31570     31572     31571     31572     31573     31574     31573     31575
     31574     31575     31576     31577     31576     31578     31577     31578
     31579     31580     31579     31581     31580     31581     31582     31583
     31582     31584     31583     31584     31585     31586     31585     31587
     31586     31587     31588     31589     31588     31590     31589     31590
     31591     31592     31591     31593     31592     31593     31594     31595
     31594     31596     31595     31596     31597     31598     31597     31599
     31598     31599     31600     31601     31600     31602     31601     31602
     31603     31604     31603     31605     31604     31605     31606     31607
     31606     31608     31607     31608     31609     31610     31609     31611
     31610     31611     31612     31613     31612     31614     31613     31614
     31615     31616     31615     31617     31616     31617     31618     31619
     31618     31620     31619     31620     31621     31622     31621     31623
     31622     31623     31624     31625     31624     31626     31625     31626
     31627     31628     31627     31629     31628     31629     31630     31631
     31630     31632     31631     31632     31633     31634     31633     31635
     31634     31635     31636     31637     31636     31638     31637     31638
     31639     31640     31639     31641     31640     31641     31642     31643
     31642     31644     31643     31644     31645     31646     31645     31647
     31646     31647     31648     31649     31648     31650     31649     31650
     31651     31652     31651     31653     31652     31653     31654     31655
     31654     31656     31655     31656     31657     31658     31657     31659
     31658     31659     31660     31661     31660     31662     31661     31662
     31663     31664     31663     31665     31664     31665     31666     31667
     31666     31668     31667     31668     31669     31670     31669     31671
     31670     31671     31672     31673     31672     31674     31673     31674
     31675     31676     31675     31677     31676     31677     31678     31679
     31678     31680     31679     31680     31681     31682     31681     31683
     31682     31683     31684     31685     31684     31686     31685     31686
     31687     31688     31687     31689     31688     31689     31690     31691
     31690     31692     31691     31692     31693     31694     31693     31695
     31694     31695     31696     31697     31696     31698     31697     31698
     31699     31700     31699     31701     31700     31701     31702     31703
     31702     31704     31703     31704     31705     31706     31705     31707
     31706     31707     31708     31709     31708     31710     31709     31710
     31711     31712     31711     31713     31712     31713     31714     31715
     31714     31716     31715     31716     31717     31718     31717     31719
     31718     31719     31720     31721     31720     31722     31721     31722
     31723     31724     31723     31725     31724     31725     31726     31727
     31726     31728     31727     31728     31729     31730     31729     31731
     31730     31731     31732     31733     31732     31734     31733     31734
     31735     31736     31735     31737     31736     31737     31738     31739
     31738     31740     31739     31740     31741     31742     31741     31743
     31742     31743     31744     31745     31744     31746     31745     31746
     31747     31748     31747     31749     31748     31749     31750     31751
     31750     31752     31751     31752     31753     31754     31753     31755
     31754     31755     31756     31757     31756     31758     31757     31758
     31759     31760     31759     31761     31760     31761     31762     31763
     31762     31764     31763     31764     31765     31766     31765     31767
     31766     31767     31768     31769     31768     31770     31769     31770
     31771     31772     31771     31773     31772     31773     31774     31775
     31774     31776     31775     31776     31777     31778     31777     31779
     31778     31779     31780     31781     31780     31782     31781     31782
     31783     31784     31783     31785     31784     31785     31786     31787
     31786     31788     31787     31788     31789     31790     31789     31791
     31790     31791     31792     31793     31792     31794     31793     31794
     31795     31796     31795     31797     31796     31797     31798     31799
     31798     31800     31799     31800     31801     31802     31801     31803
     31802     31803     31804     31805     31804     31806     31805     31806
     31807     31808     31807     31809     31808     31809     31810     31811
     31810     31812     31811     31812     31813     31814     31813     31815
     31814     31815     31816     31817     31816     31818     31817     31818
     31819     31820     31819     31821     31820     31821     31822     31823
     31822     31824     31823     31824     31825     31826     31825     31827
     31826     31827     31828     31829     31828     31830     31829     31830
     31831     31832     31831     31833     31832     31833     31834     31835
     31834     31836     31835     31836     31837     31838     31837     31839
     31838     31839     31840     31841     31840     31842     31841     31842
     31843     31844     31843     31845     31844     31845     31846     31847
     31846     31848     31847     31848     31849     31850     31849     31851
     31850     31851     31852     31853     31852     31854     31853     31854
     31855     31856     31855     31857     31856     31857     31858     31859
     31858     31860     31859     31860     31861     31862     31861     31863
     31862     31863     31864     31865     31864     31866     31865     31866
     31867     31868     31867     31869     31868     31869     31870     31871
     31870     31872     31871     31872     31873     31874     31873     31875
     31874     31875     31876     31877     31876     31878     31877     31878
     31879     31880     31879     31881     31880     31881     31882     31883
     31882     31884     31883     31884     31885     31886     31885     31887
     31886     31887     31888     31889     31888     31890     31889     31890
     31891     31892     31891     31893     31892     31893     31894     31895
     31894     31896     31895     31896     31897     31898     31897     31899
     31898     31899     31900     31901     31900     31902     31901     31902
     31903     31904     31903     31905     31904     31905     31906     31907
     31906     31908     31907     31908     31909     31910     31909     31911
     31910     31911     31912     31913     31912     31914     31913     31914
     31915     31916     31915     31917     31916     31917     31918     31919
     31918     31920     31919     31920     31921     31922     31921     31923
     31922     31923     31924     31925     31924     31926     31925     31926
     31927     31928     31927     31929     31928     31929     31930     31931
     31930     31932     31931     31932     31933     31934     31933     31935
     31934     31935     31936     31937     31936     31938     31937     31938
     31939     31940     31939     31941     31940     31941     31942     31943
     31942     31944     31943     31944     31945     31946     31945     31947
     31946     31947     31948     31949     31948     31950     31949     31950
     31951     31952     31951     31953     31952     31953     31954     31955
     31954     31956     31955     31956     31957     31958     31957     31959
     31958     31959     31960     31961     31960     31962     31961     31962
     31963     31964     31963     31965     31964     31965     31966     31967
     31966     31968     31967     31968     31969     31970     31969     31971
     31970     31971     31972     31973     31972     31974     31973     31974
     31975     31976     31975     31977     31976     31977     31978     31979
     31978     31980     31979     31980     31981     31982     31981     31983
     31982     31983     31984     31985     31984     31986     31985     31986
     31987     31988     31987     31989     31988     31989     31990     31991
     31990     31992     31991     31992     31993     31994     31993     31995
     31994     31995     31996     31997     31996     31998     31997     31998
     31999     32000     31999     32001     32000     32001     32002     32003
     32002     32004     32003     32004     32005     32006     32005     32007
     32006     32007     32008     32009     32008     32010     32009     32010
     32011     32012     32011     32013     32012     32013     32014     32015
     32014     32016     32015     32016     32017     32018     32017     32019
     32018     32019     32020     32021     32020     32022     32021     32022
     32023     32024     32023     32025     32024     32025     32026     32027
     32026     32028     32027     32028     32029     32030     32029     32031
     32030     32031     32032     32033     32032     32034     32033     32034
     32035     32036     32035     32037     32036     32037     32038     32039
     32038     32040     32039     32040     32041     32042     32041     32043
     32042     32043     32044     32045     32044     32046     32045     32046
     32047     32048     32047     32049     32048     32049     32050     32051
     32050     32052     32051     32052     32053     32054     32053     32055
     32054     32055     32056     32057     32056     32058     32057     32058
     32059     32060     32059     32061     32060     32061     32062     32063
     32062     32064     32063     32064     32065     32066     32065     32067
     32066     32067     32068     32069     32068     32070     32069     32070
     32071     32072     32071     32073     32072     32073     32074     32075
     32074     32076     32075     32076     32077     32078     32077     32079
     32078     32079     32080     32081     32080     32082     32081     32082
     32083     32084     32083     32085     32084     32085     32086     32087
     32086     32088     32087     32088     32089     32090     32089     32091
     32090     32091     32092     32093     32092     32094     32093     32094
     32095     32096     32095     32097     32096     32097     32098     32099
     32098     32100     32099     32100     32101     32102     32101     32103
     32102     32103     32104     32105     32104     32106     32105     32106
     32107     32108     32107     32109     32108     32109     32110     32111
     32110     32112     32111     32112     32113     32114     32113     32115
     32114     32115     32116     32117     32116     32118     32117     32118
     32119     32120     32119     32121     32120     32121     32122     32123
     32122     32124     32123     32124     32125     32126     32125     32127
     32126     32127     32128     32129     32128     32130     32129     32130
     32131     32132     32131     32133     32132     32133     32134     32135
     32134     32136     32135     32136     32137     32138     32137     32139
     32138     32139     32140     32141     32140     32142     32141     32142
     32143     32144     32143     32145     32144     32145     32146     32147
     32146     32148     32147     32148     32149     32150     32149     32151
     32150     32151     32152     32153     32152     32154     32153     32154
     32155     32156     32155     32157     32156     32157     32158     32159
     32158     32160     32159     32160     32161     32162     32161     32163
     32162     32163     32164     32165     32164     32166     32165     32166
     32167     32168     32167     32169     32168     32169     32170     32171
     32170     32172     32171     32172     32173     32174     32173     32175
     32174     32175     32176     32177     32176     32178     32177     32178
     32179     32180     32179     32181     32180     32181     32182     32183
     32182     32184     32183     32184     32185     32186     32185     32187
     32186     32187     32188     32189     32188     32190     32189     32190
     32191     32192     32191     32193     32192     32193     32194     32195
     32194     32196     32195     32196     32197     32198     32197     32199
     32198     32199     32200     32201     32200     32202     32201     32202
     32203     32204     32203     32205     32204     32205     32206     32207
     32206     32208     32207     32208     32209     32210     32209     32211
     32210     32211     32212     32213     32212     32214     32213     32214
     32215     32216     32215     32217     32216     32217     32218     32219
     32218     32220     32219     32220     32221     32222     32221     32223
     32222     32223     32224     32225     32224     32226     32225     32226
     32227     32228     32227     32229     32228     32229     32230     32231
     32230     32232     32231     32232     32233     32234     32233     32235
     32234     32235     32236     32237     32236     32238     32237     32238
     32239     32240     32239     32241     32240     32241     32242     32243
     32242     32244     32243     32244     32245     32246     32245     32247
     32246     32247     32248     32249     32248     32250     32249     32250
     32251     32252     32251     32253     32252     32253     32254     32255
     32254     32256     32255     32256     32257     32258     32257     32259
     32258     32259     32260     32261     32260     32262     32261     32262
     32263     32264     32263     32265     32264     32265     32266     32267
     32266     32268     32267     32268     32269     32270     32269     32271
     32270     32271     32272     32273     32272     32274     32273     32274
     32275     32276     32275     32277     32276     32277     32278     32279
     32278     32280     32279     32280     32281     32282     32281     32283
     32282     32283     32284     32285     32284     32286     32285     32286
     32287     32288     32287     32289     32288     32289     32290     32291
     32290     32292     32291     32292     32293     32294     32293     32295
     32294     32295     32296     32297     32296     32298     32297     32298
     32299     32300     32299     32301     32300     32301     32302     32303
     32302     32304     32303     32304     32305     32306     32305     32307
     32306     32307     32308     32309     32308     32310     32309     32310
     32311     32312     32311     32313     32312     32313     32314     32315
     32314     32316     32315     32316     32317     32318     32317     32319
     32318     32319     32320     32321     32320     32322     32321     32322
     32323     32324     32323     32325     32324     32325     32326     32327
     32326     32328     32327     32328     32329     32330     32329     32331
     32330     32331     32332     32333     32332     32334     32333     32334
     32335     32336     32335     32337     32336     32337     32338     32339
     32338     32340     32339     32340     32341     32342     32341     32343
     32342     32343     32344     32345     32344     32346     32345     32346
     32347     32348     32347     32349     32348     32349     32350     32351
     32350     32352     32351     32352     32353     32354     32353     32355
     32354     32355     32356     32357     32356     32358     32357     32358
     32359     32360     32359     32361     32360     32361     32362     32363
     32362     32364     32363     32364     32365     32366     32365     32367
     32366     32367     32368     32369     32368     32370     32369     32370
     32371     32372     32371     32373     32372     32373     32374     32375
     32374     32376     32375     32376     32377     32378     32377     32379
     32378     32379     32380     32381     32380     32382     32381     32382
     32383     32384     32383     32385     32384     32385     32386     32387
     32386     32388     32387     32388     32389     32390     32389     32391
     32390     32391     32392     32393     32392     32394     32393     32394
     32395     32396     32395     32397     32396     32397     32398     32399
     32398     32400     32399     32400     32401     32402     32401     32403
     32402     32403     32404     32405     32404     32406     32405     32406
     32407     32408     32407     32409     32408     32409     32410     32411
     32410     32412     32411     32412     32413     32414     32413     32415
     32414     32415     32416     32417     32416     32418     32417     32418
     32419     32420     32419     32421     32420     32421     32422     32423
     32422     32424     32423     32424     32425     32426     32425     32427
     32426     32427     32428     32429     32428     32430     32429     32430
     32431     32432     32431     32433     32432     32433     32434     32435
     32434     32436     32435     32436     32437     32438     32437     32439
     32438     32439     32440     32441     32440     32442     32441     32442
     32443     32444     32443     32445     32444     32445     32446     32447
     32446     32448     32447     32448     32449     32450     32449     32451
     32450     32451     32452     32453     32452     32454     32453     32454
     32455     32456     32455     32457     32456     32457     32458     32459
     32458     32460     32459     32460     32461     32462     32461     32463
     32462     32463     32464     32465     32464     32466     32465     32466
     32467     32468     32467     32469     32468     32469     32470     32471
     32470     32472     32471     32472     32473     32474     32473     32475
     32474     32475     32476     32477     32476     32478     32477     32478
     32479     32480     32479     32481     32480     32481     32482     32483
     32482     32484     32483     32484     32485     32486     32485     32487
     32486     32487     32488     32489     32488     32490     32489     32490
     32491     32492     32491     32493     32492     32493     32494     32495
     32494     32496     32495     32496     32497     32498     32497     32499
     32498     32499     32500     32501     32500     32502     32501     32502
     32503     32504     32503     32505     32504     32505     32506     32507
     32506     32508     32507     32508     32509     32510     32509     32511
     32510     32511     32512     32513     32512     32514     32513     32514
     32515     32516     32515     32517     32516     32517     32518     32519
     32518     32520     32519     32520     32521     32522     32521     32523
     32522     32523     32524     32525     32524     32526     32525     32526
     32527     32528     32527     32529     32528     32529     32530     32531
     32530     32532     32531     32532     32533     32534     32533     32535
     32534     32535     32536     32537     32536     32538     32537     32538
     32539     32540     32539     32541     32540     32541     32542     32543
     32542     32544     32543     32544     32545     32546     32545     32547
     32546     32547     32548     32549     32548     32550     32549     32550
     32551     32552     32551     32553     32552     32553     32554     32555
     32554     32556     32555     32556     32557     32558     32557     32559
     32558     32559     32560     32561     32560     32562     32561     32562
     32563     32564     32563     32565     32564     32565     32566     32567
     32566     32568     32567     32568     32569     32570     32569     32571
     32570     32571     32572     32573     32572     32574     32573     32574
     32575     32576     32575     32577     32576     32577     32578     32579
     32578     32580     32579     32580     32581     32582     32581     32583
     32582     32583     32584     32585     32584     32586     32585     32586
     32587     32588     32587     32589     32588     32589     32590     32591
     32590     32592     32591     32592     32593     32594     32593     32595
     32594     32595     32596     32597     32596     32598     32597     32598
     32599     32600     32599     32601     32600     32601     32602     32603
     32602     32604     32603     32604     32605     32606     32605     32607
     32606     32607     32608     32609     32608     32610     32609     32610
     32611     32612     32611     32613     32612     32613     32614     32615
     32614     32616     32615     32616     32617     32618     32617     32619
     32618     32619     32620     32621     32620     32622     32621     32622
     32623     32624     32623     32625     32624     32625     32626     32627
     32626     32628     32627     32628     32629     32630     32629     32631
     32630     32631     32632     32633     32632     32634     32633     32634
     32635     32636     32635     32637     32636     32637     32638     32639
     32638     32640     32639     32640     32641     32642     32641     32643
     32642     32643     32644     32645     32644     32646     32645     32646
     32647     32648     32647     32649     32648     32649     32650     32651
     32650     32652     32651     32652     32653     32654     32653     32655
     32654     32655     32656     32657     32656     32658     32657     32658
     32659     32660     32659     32661     32660     32661     32662     32663
     32662     32664     32663     32664     32665     32666     32665     32667
     32666     32667     32668     32669     32668     32670     32669     32670
     32671     32672     32671     32673     32672     32673     32674     32675
     32674     32676     32675     32676     32677     32678     32677     32679
     32678     32679     32680     32681     32680     32682     32681     32682
     32683     32684     32683     32685     32684     32685     32686     32687
     32686     32688     32687     32688     32689     32690     32689     32691
     32690     32691     32692     32693     32692     32694     32693     32694
     32695     32696     32695     32697     32696     32697     32698     32699
     32698     32700     32699     32700     32701     32702     32701     32703
     32702     32703     32704     32705     32704     32706     32705     32706
     32707     32708     32707     32709     32708     32709     32710     32711
     32710     32712     32711     32712     32713     32714     32713     32715
     32714     32715     32716     32717     32716     32718     32717     32718
     32719     32720     32719     32721     32720     32721     32722     32723
     32722     32724     32723     32724     32725     32726     32725     32727
     32726     32727     32728     32729     32728     32730     32729     32730
     32731     32732     32731     32733     32732     32733     32734     32735
     32734     32736     32735     32736     32737     32738     32737     32739
     32738     32739     32740     32741     32740     32742     32741     32742
     32743     32744     32743     32745     32744     32745     32746     32747
     32746     32748     32747     32748     32749     32750     32749     32751
     32750     32751     32752     32753     32752     32754     32753     32754
     32755     32756     32755     32757     32756     32757     32758     32759
     32758     32760     32759     32760     32761     32762     32761     32763
     32762     32763     32764     32765     32764     32766     32765     32766
     32767     32768     32767     32769     32768     32769     32770     32771
     32770     32772     32771     32772     32773     32774     32773     32775
     32774     32775     32776     32777     32776     32778     32777     32778
     32779     32780     32779     32781     32780     32781     32782     32783
     32782     32784     32783     32784     32785     32786     32785     32787
     32786     32787     32788     32789     32788     32790     32789     32790
     32791     32792     32791     32793     32792     32793     32794     32795
     32794     32796     32795     32796     32797     32798     32797     32799
     32798     32799     32800     32801     32800     32802     32801     32802
     32803     32804     32803     32805     32804     32805     32806     32807
     32806     32808     32807     32808     32809     32810     32809     32811
     32810     32811     32812     32813     32812     32814     32813     32814
     32815     32816     32815     32817     32816     32817     32818     32819
     32818     32820     32819     32820     32821     32822     32821     32823
     32822     32823     32824     32825     32824     32826     32825     32826
     32827     32828     32827     32829     32828     32829     32830     32831
     32830     32832     32831     32832     32833     32834     32833     32835
     32834     32835     32836     32837     32836     32838     32837     32838
     32839     32840     32839     32841     32840     32841     32842     32843
     32842     32844     32843     32844     32845     32846     32845     32847
     32846     32847     32848     32849     32848     32850     32849     32850
     32851     32852     32851     32853     32852     32853     32854     32855
     32854     32856     32855     32856     32857     32858     32857     32859
     32858     32859     32860     32861     32860     32862     32861     32862
     32863     32864     32863     32865     32864     32865     32866     32867
     32866     32868     32867     32868     32869     32870     32869     32871
     32870     32871     32872     32873     32872     32874     32873     32874
     32875     32876     32875     32877     32876     32877     32878     32879
     32878     32880     32879     32880     32881     32882     32881     32883
     32882     32883     32884     32885     32884     32886     32885     32886
     32887     32888     32887     32889     32888     32889     32890     32891
     32890     32892     32891     32892     32893     32894     32893     32895
     32894     32895     32896     32897     32896     32898     32897     32898
     32899     32900     32899     32901     32900     32901     32902     32903
     32902     32904     32903     32904     32905     32906     32905     32907
     32906     32907     32908     32909     32908     32910     32909     32910
     32911     32912     32911     32913     32912     32913     32914     32915
     32914     32916     32915     32916     32917     32918     32917     32919
     32918     32919     32920     32921     32920     32922     32921     32922
     32923     32924     32923     32925     32924     32925     32926     32927
     32926     32928     32927     32928     32929     32930     32929     32931
     32930     32931     32932     32933     32932     32934     32933     32934
     32935     32936     32935     32937     32936     32937     32938     32939
     32938     32940     32939     32940     32941     32942     32941     32943
     32942     32943     32944     32945     32944     32946     32945     32946
     32947     32948     32947     32949     32948     32949     32950     32951
     32950     32952     32951     32952     32953     32954     32953     32955
     32954     32955     32956     32957     32956     32958     32957     32958
     32959     32960     32959     32961     32960     32961     32962     32963
     32962     32964     32963     32964     32965     32966     32965     32967
     32966     32967     32968     32969     32968     32970     32969     32970
     32971     32972     32971     32973     32972     32973     32974     32975
     32974     32976     32975     32976     32977     32978     32977     32979
     32978     32979     32980     32981     32980     32982     32981     32982
     32983     32984     32983     32985     32984     32985     32986     32987
     32986     32988     32987     32988     32989     32990     32989     32991
     32990     32991     32992     32993     32992     32994     32993     32994
     32995     32996     32995     32997     32996     32997     32998     32999
     32998     33000     32999     33000     33001     33002     33001     33003
     33002     33003     33004     33005     33004     33006     33005     33006
     33007     33008     33007     33009     33008     33009     33010     33011
     33010     33012     33011     33012     33013     33014     33013     33015
     33014     33015     33016     33017     33016     33018     33017     33018
     33019     33020     33019     33021     33020     33021     33022     33023
     33022     33024     33023     33024     33025     33026     33025     33027
     33026     33027     33028     33029     33028     33030     33029     33030
     33031     33032     33031     33033     33032     33033     33034     33035
     33034     33036     33035     33036     33037     33038     33037     33039
     33038     33039     33040     33041     33040     33042     33041     33042
     33043     33044     33043     33045     33044     33045     33046     33047
     33046     33048     33047     33048     33049     33050     33049     33051
     33050     33051     33052     33053     33052     33054     33053     33054
     33055     33056     33055     33057     33056     33057     33058     33059
     33058     33060     33059     33060     33061     33062     33061     33063
     33062     33063     33064     33065     33064     33066     33065     33066
     33067     33068     33067     33069     33068     33069     33070     33071
     33070     33072     33071     33072     33073     33074     33073     33075
     33074     33075     33076     33077     33076     33078     33077     33078
     33079     33080     33079     33081     33080     33081     33082     33083
     33082     33084     33083     33084     33085     33086     33085     33087
     33086     33087     33088     33089     33088     33090     33089     33090
     33091     33092     33091     33093     33092     33093     33094     33095
     33094     33096     33095     33096     33097     33098     33097     33099
     33098     33099     33100     33101     33100     33102     33101     33102
     33103     33104     33103     33105     33104     33105     33106     33107
     33106     33108     33107     33108     33109     33110     33109     33111
     33110     33111     33112     33113     33112     33114     33113     33114
     33115     33116     33115     33117     33116     33117     33118     33119
     33118     33120     33119     33120     33121     33122     33121     33123
     33122     33123     33124     33125     33124     33126     33125     33126
     33127     33128     33127     33129     33128     33129     33130     33131
     33130     33132     33131     33132     33133     33134     33133     33135
     33134     33135     33136     33137     33136     33138     33137     33138
     33139     33140     33139     33141     33140     33141     33142     33143
     33142     33144     33143     33144     33145     33146     33145     33147
     33146     33147     33148     33149     33148     33150     33149     33150
     33151     33152     33151     33153     33152     33153     33154     33155
     33154     33156     33155     33156     33157     33158     33157     33159
     33158     33159     33160     33161     33160     33162     33161     33162
     33163     33164     33163     33165     33164     33165     33166     33167
     33166     33168     33167     33168     33169     33170     33169     33171
     33170     33171     33172     33173     33172     33174     33173     33174
     33175     33176     33175     33177     33176     33177     33178     33179
     33178     33180     33179     33180     33181     33182     33181     33183
     33182     33183     33184     33185     33184     33186     33185     33186
     33187     33188     33187     33189     33188     33189     33190     33191
     33190     33192     33191     33192     33193     33194     33193     33195
     33194     33195     33196     33197     33196     33198     33197     33198
     33199     33200     33199     33201     33200     33201     33202     33203
     33202     33204     33203     33204     33205     33206     33205     33207
     33206     33207     33208     33209     33208     33210     33209     33210
     33211     33212     33211     33213     33212     33213     33214     33215
     33214     33216     33215     33216     33217     33218     33217     33219
     33218     33219     33220     33221     33220     33222     33221     33222
     33223     33224     33223     33225     33224     33225     33226     33227
     33226     33228     33227     33228     33229     33230     33229     33231
     33230     33231     33232     33233     33232     33234     33233     33234
     33235     33236     33235     33237     33236     33237     33238     33239
     33238     33240     33239     33240     33241     33242     33241     33243
     33242     33243     33244     33245     33244     33246     33245     33246
     33247     33248     33247     33249     33248     33249     33250     33251
     33250     33252     33251     33252     33253     33254     33253     33255
     33254     33255     33256     33257     33256     33258     33257     33258
     33259     33260     33259     33261     33260     33261     33262     33263
     33262     33264     33263     33264     33265     33266     33265     33267
     33266     33267     33268     33269     33268     33270     33269     33270
     33271     33272     33271     33273     33272     33273     33274     33275
     33274     33276     33275     33276     33277     33278     33277     33279
     33278     33279     33280     33281     33280     33282     33281     33282
     33283     33284     33283     33285     33284     33285     33286     33287
     33286     33288     33287     33288     33289     33290     33289     33291
     33290     33291     33292     33293     33292     33294     33293     33294
     33295     33296     33295     33297     33296     33297     33298     33299
     33298     33300     33299     33300     33301     33302     33301     33303
     33302     33303     33304     33305     33304     33306     33305     33306
     33307     33308     33307     33309     33308     33309     33310     33311
     33310     33312     33311     33312     33313     33314     33313     33315
     33314     33315     33316     33317     33316     33318     33317     33318
     33319     33320     33319     33321     33320     33321     33322     33323
     33322     33324     33323     33324     33325     33326     33325     33327
     33326     33327     33328     33329     33328     33330     33329     33330
     33331     33332     33331     33333     33332     33333     33334     33335
     33334     33336     33335     33336     33337     33338     33337     33339
     33338     33339     33340     33341     33340     33342     33341     33342
     33343     33344     33343     33345     33344     33345     33346     33347
     33346     33348     33347     33348     33349     33350     33349     33351
     33350     33351     33352     33353     33352     33354     33353     33354
     33355     33356     33355     33357     33356     33357     33358     33359
     33358     33360     33359     33360     33361     33362     33361     33363
     33362     33363     33364     33365     33364     33366     33365     33366
     33367     33368     33367     33369     33368     33369     33370     33371
     33370     33372     33371     33372     33373     33374     33373     33375
     33374     33375     33376     33377     33376     33378     33377     33378
     33379     33380     33379     33381     33380     33381     33382     33383
     33382     33384     33383     33384     33385     33386     33385     33387
     33386     33387     33388     33389     33388     33390     33389     33390
     33391     33392     33391     33393     33392     33393     33394     33395
     33394     33396     33395     33396     33397     33398     33397     33399
     33398     33399     33400     33401     33400     33402     33401     33402
     33403     33404     33403     33405     33404     33405     33406     33407
     33406     33408     33407     33408     33409     33410     33409     33411
     33410     33411     33412     33413     33412     33414     33413     33414
     33415     33416     33415     33417     33416     33417     33418     33419
     33418     33420     33419     33420     33421     33422     33421     33423
     33422     33423     33424     33425     33424     33426     33425     33426
     33427     33428     33427     33429     33428     33429     33430     33431
     33430     33432     33431     33432     33433     33434     33433     33435
     33434     33435     33436     33437     33436     33438     33437     33438
     33439     33440     33439     33441     33440     33441     33442     33443
     33442     33444     33443     33444     33445     33446     33445     33447
     33446     33447     33448     33449     33448     33450     33449     33450
     33451     33452     33451     33453     33452     33453     33454     33455
     33454     33456     33455     33456     33457     33458     33457     33459
     33458     33459     33460     33461     33460     33462     33461     33462
     33463     33464     33463     33465     33464     33465     33466     33467
     33466     33468     33467     33468     33469     33470     33469     33471
     33470     33471     33472     33473     33472     33474     33473     33474
     33475     33476     33475     33477     33476     33477     33478     33479
     33478     33480     33479     33480     33481     33482     33481     33483
     33482     33483     33484     33485     33484     33486     33485     33486
     33487     33488     33487     33489     33488     33489     33490     33491
     33490     33492     33491     33492     33493     33494     33493     33495
     33494     33495     33496     33497     33496     33498     33497     33498
     33499     33500     33499     33501     33500     33501     33502     33503
     33502     33504     33503     33504     33505     33506     33505     33507
     33506     33507     33508     33509     33508     33510     33509     33510
     33511     33512     33511     33513     33512     33513     33514     33515
     33514     33516     33515     33516     33517     33518     33517     33519
     33518     33519     33520     33521     33520     33522     33521     33522
     33523     33524     33523     33525     33524     33525     33526     33527
     33526     33528     33527     33528     33529     33530     33529     33531
     33530     33531     33532     33533     33532     33534     33533     33534
     33535     33536     33535     33537     33536     33537     33538     33539
     33538     33540     33539     33540     33541     33542     33541     33543
     33542     33543     33544     33545     33544     33546     33545     33546
     33547     33548     33547     33549     33548     33549     33550     33551
     33550     33552     33551     33552     33553     33554     33553     33555
     33554     33555     33556     33557     33556     33558     33557     33558
     33559     33560     33559     33561     33560     33561     33562     33563
     33562     33564     33563     33564     33565     33566     33565     33567
     33566     33567     33568     33569     33568     33570     33569     33570
     33571     33572     33571     33573     33572     33573     33574     33575
     33574     33576     33575     33576     33577     33578     33577     33579
     33578     33579     33580     33581     33580     33582     33581     33582
     33583     33584     33583     33585     33584     33585     33586     33587
     33586     33588     33587     33588     33589     33590     33589     33591
     33590     33591     33592     33593     33592     33594     33593     33594
     33595     33596     33595     33597     33596     33597     33598     33599
     33598     33600     33599     33600     33601     33602     33601     33603
     33602     33603     33604     33605     33604     33606     33605     33606
     33607     33608     33607     33609     33608     33609     33610     33611
     33610     33612     33611     33612     33613     33614     33613     33615
     33614     33615     33616     33617     33616     33618     33617     33618
     33619     33620     33619     33621     33620     33621     33622     33623
     33622     33624     33623     33624     33625     33626     33625     33627
     33626     33627     33628     33629     33628     33630     33629     33630
     33631     33632     33631     33633     33632     33633     33634     33635
     33634     33636     33635     33636     33637     33638     33637     33639
     33638     33639     33640     33641     33640     33642     33641     33642
     33643     33644     33643     33645     33644     33645     33646     33647
     33646     33648     33647     33648     33649     33650     33649     33651
     33650     33651     33652     33653     33652     33654     33653     33654
     33655     33656     33655     33657     33656     33657     33658     33659
     33658     33660     33659     33660     33661     33662     33661     33663
     33662     33663     33664     33665     33664     33666     33665     33666
     33667     33668     33667     33669     33668     33669     33670     33671
     33670     33672     33671     33672     33673     33674     33673     33675
     33674     33675     33676     33677     33676     33678     33677     33678
     33679     33680     33679     33681     33680     33681     33682     33683
     33682     33684     33683     33684     33685     33686     33685     33687
     33686     33687     33688     33689     33688     33690     33689     33690
     33691     33692     33691     33693     33692     33693     33694     33695
     33694     33696     33695     33696     33697     33698     33697     33699
     33698     33699     33700     33701     33700     33702     33701     33702
     33703     33704     33703     33705     33704     33705     33706     33707
     33706     33708     33707     33708     33709     33710     33709     33711
     33710     33711     33712     33713     33712     33714     33713     33714
     33715     33716     33715     33717     33716     33717     33718     33719
     33718     33720     33719     33720     33721     33722     33721     33723
     33722     33723     33724     33725     33724     33726     33725     33726
     33727     33728     33727     33729     33728     33729     33730     33731
     33730     33732     33731     33732     33733     33734     33733     33735
     33734     33735     33736     33737     33736     33738     33737     33738
     33739     33740     33739     33741     33740     33741     33742     33743
     33742     33744     33743     33744     33745     33746     33745     33747
     33746     33747     33748     33749     33748     33750     33749     33750
     33751     33752     33751     33753     33752     33753     33754     33755
     33754     33756     33755     33756     33757     33758     33757     33759
     33758     33759     33760     33761     33760     33762     33761     33762
     33763     33764     33763     33765     33764     33765     33766     33767
     33766     33768     33767     33768     33769     33770     33769     33771
     33770     33771     33772     33773     33772     33774     33773     33774
     33775     33776     33775     33777     33776     33777     33778     33779
     33778     33780     33779     33780     33781     33782     33781     33783
     33782     33783     33784     33785     33784     33786     33785     33786
     33787     33788     33787     33789     33788     33789     33790     33791
     33790     33792     33791     33792     33793     33794     33793     33795
     33794     33795     33796     33797     33796     33798     33797     33798
     33799     33800     33799     33801     33800     33801     33802     33803
     33802     33804     33803     33804     33805     33806     33805     33807
     33806     33807     33808     33809     33808     33810     33809     33810
     33811     33812     33811     33813     33812     33813     33814     33815
     33814     33816     33815     33816     33817     33818     33817     33819
     33818     33819     33820     33821     33820     33822     33821     33822
     33823     33824     33823     33825     33824     33825     33826     33827
     33826     33828     33827     33828     33829     33830     33829     33831
     33830     33831     33832     33833     33832     33834     33833     33834
     33835     33836     33835     33837     33836     33837     33838     33839
     33838     33840     33839     33840     33841     33842     33841     33843
     33842     33843     33844     33845     33844     33846     33845     33846
     33847     33848     33847     33849     33848     33849     33850     33851
     33850     33852     33851     33852     33853     33854     33853     33855
     33854     33855     33856     33857     33856     33858     33857     33858
     33859     33860     33859     33861     33860     33861     33862     33863
     33862     33864     33863     33864     33865     33866     33865     33867
     33866     33867     33868     33869     33868     33870     33869     33870
     33871     33872     33871     33873     33872     33873     33874     33875
     33874     33876     33875     33876     33877     33878     33877     33879
     33878     33879     33880     33881     33880     33882     33881     33882
     33883     33884     33883     33885     33884     33885     33886     33887
     33886     33888     33887     33888     33889     33890     33889     33891
     33890     33891     33892     33893     33892     33894     33893     33894
     33895     33896     33895     33897     33896     33897     33898     33899
     33898     33900     33899     33900     33901     33902     33901     33903
     33902     33903     33904     33905     33904     33906     33905     33906
     33907     33908     33907     33909     33908     33909     33910     33911
     33910     33912     33911     33912     33913     33914     33913     33915
     33914     33915     33916     33917     33916     33918     33917     33918
     33919     33920     33919     33921     33920     33921     33922     33923
     33922     33924     33923     33924     33925     33926     33925     33927
     33926     33927     33928     33929     33928     33930     33929     33930
     33931     33932     33931     33933     33932     33933     33934     33935
     33934     33936     33935     33936     33937     33938     33937     33939
     33938     33939     33940     33941     33940     33942     33941     33942
     33943     33944     33943     33945     33944     33945     33946     33947
     33946     33948     33947     33948     33949     33950     33949     33951
     33950     33951     33952     33953     33952     33954     33953     33954
     33955     33956     33955     33957     33956     33957     33958     33959
     33958     33960     33959     33960     33961     33962     33961     33963
     33962     33963     33964     33965     33964     33966     33965     33966
     33967     33968     33967     33969     33968     33969     33970     33971
     33970     33972     33971     33972     33973     33974     33973     33975
     33974     33975     33976     33977     33976     33978     33977     33978
     33979     33980     33979     33981     33980     33981     33982     33983
     33982     33984     33983     33984     33985     33986     33985     33987
     33986     33987     33988     33989     33988     33990     33989     33990
     33991     33992     33991     33993     33992     33993     33994     33995
     33994     33996     33995     33996     33997     33998     33997     33999
     33998     33999     34000     34001     34000     34002     34001     34002
     34003     34004     34003     34005     34004     34005     34006     34007
     34006     34008     34007     34008     34009     34010     34009     34011
     34010     34011     34012     34013     34012     34014     34013     34014
     34015     34016     34015     34017     34016     34017     34018     34019
     34018     34020     34019     34020     34021     34022     34021     34023
     34022     34023     34024     34025     34024     34026     34025     34026
     34027     34028     34027     34029     34028     34029     34030     34031
     34030     34032     34031     34032     34033     34034     34033     34035
     34034     34035     34036     34037     34036     34038     34037     34038
     34039     34040     34039     34041     34040     34041     34042     34043
     34042     34044     34043     34044     34045     34046     34045     34047
     34046     34047     34048     34049     34048     34050     34049     34050
     34051     34052     34051     34053     34052     34053     34054     34055
     34054     34056     34055     34056     34057     34058     34057     34059
     34058     34059     34060     34061     34060     34062     34061     34062
     34063     34064     34063     34065     34064     34065     34066     34067
     34066     34068     34067     34068     34069     34070     34069     34071
     34070     34071     34072     34073     34072     34074     34073     34074
     34075     34076     34075     34077     34076     34077     34078     34079
     34078     34080     34079     34080     34081     34082     34081     34083
     34082     34083     34084     34085     34084     34086     34085     34086
     34087     34088     34087     34089     34088     34089     34090     34091
     34090     34092     34091     34092     34093     34094     34093     34095
     34094     34095     34096     34097     34096     34098     34097     34098
     34099     34100     34099     34101     34100     34101     34102     34103
     34102     34104     34103     34104     34105     34106     34105     34107
     34106     34107     34108     34109     34108     34110     34109     34110
     34111     34112     34111     34113     34112     34113     34114     34115
     34114     34116     34115     34116     34117     34118     34117     34119
     34118     34119     34120     34121     34120     34122     34121     34122
     34123     34124     34123     34125     34124     34125     34126     34127
     34126     34128     34127     34128     34129     34130     34129     34131
     34130     34131     34132     34133     34132     34134     34133     34134
     34135     34136     34135     34137     34136     34137     34138     34139
     34138     34140     34139     34140     34141     34142     34141     34143
     34142     34143     34144     34145     34144     34146     34145     34146
     34147     34148     34147     34149     34148     34149     34150     34151
     34150     34152     34151     34152     34153     34154     34153     34155
     34154     34155     34156     34157     34156     34158     34157     34158
     34159     34160     34159     34161     34160     34161     34162     34163
     34162     34164     34163     34164     34165     34166     34165     34167
     34166     34167     34168     34169     34168     34170     34169     34170
     34171     34172     34171     34173     34172     34173     34174     34175
     34174     34176     34175     34176     34177     34178     34177     34179
     34178     34179     34180     34181     34180     34182     34181     34182
     34183     34184     34183     34185     34184     34185     34186     34187
     34186     34188     34187     34188     34189     34190     34189     34191
     34190     34191     34192     34193     34192     34194     34193     34194
     34195     34196     34195     34197     34196     34197     34198     34199
     34198     34200     34199     34200     34201     34202     34201     34203
     34202     34203     34204     34205     34204     34206     34205     34206
     34207     34208     34207     34209     34208     34209     34210     34211
     34210     34212     34211     34212     34213     34214     34213     34215
     34214     34215     34216     34217     34216     34218     34217     34218
     34219     34220     34219     34221     34220     34221     34222     34223
     34222     34224     34223     34224     34225     34226     34225     34227
     34226     34227     34228     34229     34228     34230     34229     34230
     34231     34232     34231     34233     34232     34233     34234     34235
     34234     34236     34235     34236     34237     34238     34237     34239
     34238     34239     34240     34241     34240     34242     34241     34242
     34243     34244     34243     34245     34244     34245     34246     34247
     34246     34248     34247     34248     34249     34250     34249     34251
     34250     34251     34252     34253     34252     34254     34253     34254
     34255     34256     34255     34257     34256     34257     34258     34259
     34258     34260     34259     34260     34261     34262     34261     34263
     34262     34263     34264     34265     34264     34266     34265     34266
     34267     34268     34267     34269     34268     34269     34270     34271
     34270     34272     34271     34272     34273     34274     34273     34275
     34274     34275     34276     34277     34276     34278     34277     34278
     34279     34280     34279     34281     34280     34281     34282     34283
     34282     34284     34283     34284     34285     34286     34285     34287
     34286     34287     34288     34289     34288     34290     34289     34290
     34291     34292     34291     34293     34292     34293     34294     34295
     34294     34296     34295     34296     34297     34298     34297     34299
     34298     34299     34300     34301     34300     34302     34301     34302
     34303     34304     34303     34305     34304     34305     34306     34307
     34306     34308     34307     34308     34309     34310     34309     34311
     34310     34311     34312     34313     34312     34314     34313     34314
     34315     34316     34315     34317     34316     34317     34318     34319
     34318     34320     34319     34320     34321     34322     34321     34323
     34322     34323     34324     34325     34324     34326     34325     34326
     34327     34328     34327     34329     34328     34329     34330     34331
     34330     34332     34331     34332     34333     34334     34333     34335
     34334     34335     34336     34337     34336     34338     34337     34338
     34339     34340     34339     34341     34340     34341     34342     34343
     34342     34344     34343     34344     34345     34346     34345     34347
     34346     34347     34348     34349     34348     34350     34349     34350
     34351     34352     34351     34353     34352     34353     34354     34355
     34354     34356     34355     34356     34357     34358     34357     34359
     34358     34359     34360     34361     34360     34362     34361     34362
     34363     34364     34363     34365     34364     34365     34366     34367
     34366     34368     34367     34368     34369     34370     34369     34371
     34370     34371     34372     34373     34372     34374     34373     34374
     34375     34376     34375     34377     34376     34377     34378     34379
     34378     34380     34379     34380     34381     34382     34381     34383
     34382     34383     34384     34385     34384     34386     34385     34386
     34387     34388     34387     34389     34388     34389     34390     34391
     34390     34392     34391     34392     34393     34394     34393     34395
     34394     34395     34396     34397     34396     34398     34397     34398
     34399     34400     34399     34401     34400     34401     34402     34403
     34402     34404     34403     34404     34405     34406     34405     34407
     34406     34407     34408     34409     34408     34410     34409     34410
     34411     34412     34411     34413     34412     34413     34414     34415
     34414     34416     34415     34416     34417     34418     34417     34419
     34418     34419     34420     34421     34420     34422     34421     34422
     34423     34424     34423     34425     34424     34425     34426     34427
     34426     34428     34427     34428     34429     34430     34429     34431
     34430     34431     34432     34433     34432     34434     34433     34434
     34435     34436     34435     34437     34436     34437     34438     34439
     34438     34440     34439     34440     34441     34442     34441     34443
     34442     34443     34444     34445     34444     34446     34445     34446
     34447     34448     34447     34449     34448     34449     34450     34451
     34450     34452     34451     34452     34453     34454     34453     34455
     34454     34455     34456     34457     34456     34458     34457     34458
     34459     34460     34459     34461     34460     34461     34462     34463
     34462     34464     34463     34464     34465     34466     34465     34467
     34466     34467     34468     34469     34468     34470     34469     34470
     34471     34472     34471     34473     34472     34473     34474     34475
     34474     34476     34475     34476     34477     34478     34477     34479
     34478     34479     34480     34481     34480     34482     34481     34482
     34483     34484     34483     34485     34484     34485     34486     34487
     34486     34488     34487     34488     34489     34490     34489     34491
     34490     34491     34492     34493     34492     34494     34493     34494
     34495     34496     34495     34497     34496     34497     34498     34499
     34498     34500     34499     34500     34501     34502     34501     34503
     34502     34503     34504     34505     34504     34506     34505     34506
     34507     34508     34507     34509     34508     34509     34510     34511
     34510     34512     34511     34512     34513     34514     34513     34515
     34514     34515     34516     34517     34516     34518     34517     34518
     34519     34520     34519     34521     34520     34521     34522     34523
     34522     34524     34523     34524     34525     34526     34525     34527
     34526     34527     34528     34529     34528     34530     34529     34530
     34531     34532     34531     34533     34532     34533     34534     34535
     34534     34536     34535     34536     34537     34538     34537     34539
     34538     34539     34540     34541     34540     34542     34541     34542
     34543     34544     34543     34545     34544     34545     34546     34547
     34546     34548     34547     34548     34549     34550     34549     34551
     34550     34551     34552     34553     34552     34554     34553     34554
     34555     34556     34555     34557     34556     34557     34558     34559
     34558     34560     34559     34560     34561     34562     34561     34563
     34562     34563     34564     34565     34564     34566     34565     34566
     34567     34568     34567     34569     34568     34569     34570     34571
     34570     34572     34571     34572     34573     34574     34573     34575
     34574     34575     34576     34577     34576     34578     34577     34578
     34579     34580     34579     34581     34580     34581     34582     34583
     34582     34584     34583     34584     34585     34586     34585     34587
     34586     34587     34588     34589     34588     34590     34589     34590
     34591     34592     34591     34593     34592     34593     34594     34595
     34594     34596     34595     34596     34597     34598     34597     34599
     34598     34599     34600     34601     34600     34602     34601     34602
     34603     34604     34603     34605     34604     34605     34606     34607
     34606     34608     34607     34608     34609     34610     34609     34611
     34610     34611     34612     34613     34612     34614     34613     34614
     34615     34616     34615     34617     34616     34617     34618     34619
     34618     34620     34619     34620     34621     34622     34621     34623
     34622     34623     34624     34625     34624     34626     34625     34626
     34627     34628     34627     34629     34628     34629     34630     34631
     34630     34632     34631     34632     34633     34634     34633     34635
     34634     34635     34636     34637     34636     34638     34637     34638
     34639     34640     34639     34641     34640     34641     34642     34643
     34642     34644     34643     34644     34645     34646     34645     34647
     34646     34647     34648     34649     34648     34650     34649     34650
     34651     34652     34651     34653     34652     34653     34654     34655
     34654     34656     34655     34656     34657     34658     34657     34659
     34658     34659     34660     34661     34660     34662     34661     34662
     34663     34664     34663     34665     34664     34665     34666     34667
     34666     34668     34667     34668     34669     34670     34669     34671
     34670     34671     34672     34673     34672     34674     34673     34674
     34675     34676     34675     34677     34676     34677     34678     34679
     34678     34680     34679     34680     34681     34682     34681     34683
     34682     34683     34684     34685     34684     34686     34685     34686
     34687     34688     34687     34689     34688     34689     34690     34691
     34690     34692     34691     34692     34693     34694     34693     34695
     34694     34695     34696     34697     34696     34698     34697     34698
     34699     34700     34699     34701     34700     34701     34702     34703
     34702     34704     34703     34704     34705     34706     34705     34707
     34706     34707     34708     34709     34708     34710     34709     34710
     34711     34712     34711     34713     34712     34713     34714     34715
     34714     34716     34715     34716     34717     34718     34717     34719
     34718     34719     34720     34721     34720     34722     34721     34722
     34723     34724     34723     34725     34724     34725     34726     34727
     34726     34728     34727     34728     34729     34730     34729     34731
     34730     34731     34732     34733     34732     34734     34733     34734
     34735     34736     34735     34737     34736     34737     34738     34739
     34738     34740     34739     34740     34741     34742     34741     34743
     34742     34743     34744     34745     34744     34746     34745     34746
     34747     34748     34747     34749     34748     34749     34750     34751
     34750     34752     34751     34752     34753     34754     34753     34755
     34754     34755     34756     34757     34756     34758     34757     34758
     34759     34760     34759     34761     34760     34761     34762     34763
     34762     34764     34763     34764     34765     34766     34765     34767
     34766     34767     34768     34769     34768     34770     34769     34770
     34771     34772     34771     34773     34772     34773     34774     34775
     34774     34776     34775     34776     34777     34778     34777     34779
     34778     34779     34780     34781     34780     34782     34781     34782
     34783     34784     34783     34785     34784     34785     34786     34787
     34786     34788     34787     34788     34789     34790     34789     34791
     34790     34791     34792     34793     34792     34794     34793     34794
     34795     34796     34795     34797     34796     34797     34798     34799
     34798     34800     34799     34800     34801     34802     34801     34803
     34802     34803     34804     34805     34804     34806     34805     34806
     34807     34808     34807     34809     34808     34809     34810     34811
     34810     34812     34811     34812     34813     34814     34813     34815
     34814     34815     34816     34817     34816     34818     34817     34818
     34819     34820     34819     34821     34820     34821     34822     34823
     34822     34824     34823     34824     34825     34826     34825     34827
     34826     34827     34828     34829     34828     34830     34829     34830
     34831     34832     34831     34833     34832     34833     34834     34835
     34834     34836     34835     34836     34837     34838     34837     34839
     34838     34839     34840     34841     34840     34842     34841     34842
     34843     34844     34843     34845     34844     34845     34846     34847
     34846     34848     34847     34848     34849     34850     34849     34851
     34850     34851     34852     34853     34852     34854     34853     34854
     34855     34856     34855     34857     34856     34857     34858     34859
     34858     34860     34859     34860     34861     34862     34861     34863
     34862     34863     34864     34865     34864     34866     34865     34866
     34867     34868     34867     34869     34868     34869     34870     34871
     34870     34872     34871     34872     34873     34874     34873     34875
     34874     34875     34876     34877     34876     34878     34877     34878
     34879     34880     34879     34881     34880     34881     34882     34883
     34882     34884     34883     34884     34885     34886     34885     34887
     34886     34887     34888     34889     34888     34890     34889     34890
     34891     34892     34891     34893     34892     34893     34894     34895
     34894     34896     34895     34896     34897     34898     34897     34899
     34898     34899     34900     34901     34900     34902     34901     34902
     34903     34904     34903     34905     34904     34905     34906     34907
     34906     34908     34907     34908     34909     34910     34909     34911
     34910     34911     34912     34913     34912     34914     34913     34914
     34915     34916     34915     34917     34916     34917     34918     34919
     34918     34920     34919     34920     34921     34922     34921     34923
     34922     34923     34924     34925     34924     34926     34925     34926
     34927     34928     34927     34929     34928     34929     34930     34931
     34930     34932     34931     34932     34933     34934     34933     34935
     34934     34935     34936     34937     34936     34938     34937     34938
     34939     34940     34939     34941     34940     34941     34942     34943
     34942     34944     34943     34944     34945     34946     34945     34947
     34946     34947     34948     34949     34948     34950     34949     34950
     34951     34952     34951     34953     34952     34953     34954     34955
     34954     34956     34955     34956     34957     34958     34957     34959
     34958     34959     34960     34961     34960     34962     34961     34962
     34963     34964     34963     34965     34964     34965     34966     34967
     34966     34968     34967     34968     34969     34970     34969     34971
     34970     34971     34972     34973     34972     34974     34973     34974
     34975     34976     34975     34977     34976     34977     34978     34979
     34978     34980     34979     34980     34981     34982     34981     34983
     34982     34983     34984     34985     34984     34986     34985     34986
     34987     34988     34987     34989     34988     34989     34990     34991
     34990     34992     34991     34992     34993     34994     34993     34995
     34994     34995     34996     34997     34996     34998     34997     34998
     34999     35000     34999     35001     35000     35001     35002     35003
     35002     35004     35003     35004     35005     35006     35005     35007
     35006     35007     35008     35009     35008     35010     35009     35010
     35011     35012     35011     35013     35012     35013     35014     35015
     35014     35016     35015     35016     35017     35018     35017     35019
     35018     35019     35020     35021     35020     35022     35021     35022
     35023     35024     35023     35025     35024     35025     35026     35027
     35026     35028     35027     35028     35029     35030     35029     35031
     35030     35031     35032     35033     35032     35034     35033     35034
     35035     35036     35035     35037     35036     35037     35038     35039
     35038     35040     35039     35040     35041     35042     35041     35043
     35042     35043     35044     35045     35044     35046     35045     35046
     35047     35048     35047     35049     35048     35049     35050     35051
     35050     35052     35051     35052     35053     35054     35053     35055
     35054     35055     35056     35057     35056     35058     35057     35058
     35059     35060     35059     35061     35060     35061     35062     35063
     35062     35064     35063     35064     35065     35066     35065     35067
     35066     35067     35068     35069     35068     35070     35069     35070
     35071     35072     35071     35073     35072     35073     35074     35075
     35074     35076     35075     35076     35077     35078     35077     35079
     35078     35079     35080     35081     35080     35082     35081     35082
     35083     35084     35083     35085     35084     35085     35086     35087
     35086     35088     35087     35088     35089     35090     35089     35091
     35090     35091     35092     35093     35092     35094     35093     35094
     35095     35096     35095     35097     35096     35097     35098     35099
     35098     35100     35099     35100     35101     35102     35101     35103
     35102     35103     35104     35105     35104     35106     35105     35106
     35107     35108     35107     35109     35108     35109     35110     35111
     35110     35112     35111     35112     35113     35114     35113     35115
     35114     35115     35116     35117     35116     35118     35117     35118
     35119     35120     35119     35121     35120     35121     35122     35123
     35122     35124     35123     35124     35125     35126     35125     35127
     35126     35127     35128     35129     35128     35130     35129     35130
     35131     35132     35131     35133     35132     35133     35134     35135
     35134     35136     35135     35136     35137     35138     35137     35139
     35138     35139     35140     35141     35140     35142     35141     35142
     35143     35144     35143     35145     35144     35145     35146     35147
     35146     35148     35147     35148     35149     35150     35149     35151
     35150     35151     35152     35153     35152     35154     35153     35154
     35155     35156     35155     35157     35156     35157     35158     35159
     35158     35160     35159     35160     35161     35162     35161     35163
     35162     35163     35164     35165     35164     35166     35165     35166
     35167     35168     35167     35169     35168     35169     35170     35171
     35170     35172     35171     35172     35173     35174     35173     35175
     35174     35175     35176     35177     35176     35178     35177     35178
     35179     35180     35179     35181     35180     35181     35182     35183
     35182     35184     35183     35184     35185     35186     35185     35187
     35186     35187     35188     35189     35188     35190     35189     35190
     35191     35192     35191     35193     35192     35193     35194     35195
     35194     35196     35195     35196     35197     35198     35197     35199
     35198     35199     35200     35201     35200     35202     35201     35202
     35203     35204     35203     35205     35204     35205     35206     35207
     35206     35208     35207     35208     35209     35210     35209     35211
     35210     35211     35212     35213     35212     35214     35213     35214
     35215     35216     35215     35217     35216     35217     35218     35219
     35218     35220     35219     35220     35221     35222     35221     35223
     35222     35223     35224     35225     35224     35226     35225     35226
     35227     35228     35227     35229     35228     35229     35230     35231
     35230     35232     35231     35232     35233     35234     35233     35235
     35234     35235     35236     35237     35236     35238     35237     35238
     35239     35240     35239     35241     35240     35241     35242     35243
     35242     35244     35243     35244     35245     35246     35245     35247
     35246     35247     35248     35249     35248     35250     35249     35250
     35251     35252     35251     35253     35252     35253     35254     35255
     35254     35256     35255     35256     35257     35258     35257     35259
     35258     35259     35260     35261     35260     35262     35261     35262
     35263     35264     35263     35265     35264     35265     35266     35267
     35266     35268     35267     35268     35269     35270     35269     35271
     35270     35271     35272     35273     35272     35274     35273     35274
     35275     35276     35275     35277     35276     35277     35278     35279
     35278     35280     35279     35280     35281     35282     35281     35283
     35282     35283     35284     35285     35284     35286     35285     35286
     35287     35288     35287     35289     35288     35289     35290     35291
     35290     35292     35291     35292     35293     35294     35293     35295
     35294     35295     35296     35297     35296     35298     35297     35298
     35299     35300     35299     35301     35300     35301     35302     35303
     35302     35304     35303     35304     35305     35306     35305     35307
     35306     35307     35308     35309     35308     35310     35309     35310
     35311     35312     35311     35313     35312     35313     35314     35315
     35314     35316     35315     35316     35317     35318     35317     35319
     35318     35319     35320     35321     35320     35322     35321     35322
     35323     35324     35323     35325     35324     35325     35326     35327
     35326     35328     35327     35328     35329     35330     35329     35331
     35330     35331     35332     35333     35332     35334     35333     35334
     35335     35336     35335     35337     35336     35337     35338     35339
     35338     35340     35339     35340     35341     35342     35341     35343
     35342     35343     35344     35345     35344     35346     35345     35346
     35347     35348     35347     35349     35348     35349     35350     35351
     35350     35352     35351     35352     35353     35354     35353     35355
     35354     35355     35356     35357     35356     35358     35357     35358
     35359     35360     35359     35361     35360     35361     35362     35363
     35362     35364     35363     35364     35365     35366     35365     35367
     35366     35367     35368     35369     35368     35370     35369     35370
     35371     35372     35371     35373     35372     35373     35374     35375
     35374     35376     35375     35376     35377     35378     35377     35379
     35378     35379     35380     35381     35380     35382     35381     35382
     35383     35384     35383     35385     35384     35385     35386     35387
     35386     35388     35387     35388     35389     35390     35389     35391
     35390     35391     35392     35393     35392     35394     35393     35394
     35395     35396     35395     35397     35396     35397     35398     35399
     35398     35400     35399     35400     35401     35402     35401     35403
     35402     35403     35404     35405     35404     35406     35405     35406
     35407     35408     35407     35409     35408     35409     35410     35411
     35410     35412     35411     35412     35413     35414     35413     35415
     35414     35415     35416     35417     35416     35418     35417     35418
     35419     35420     35419     35421     35420     35421     35422     35423
     35422     35424     35423     35424     35425     35426     35425     35427
     35426     35427     35428     35429     35428     35430     35429     35430
     35431     35432     35431     35433     35432     35433     35434     35435
     35434     35436     35435     35436     35437     35438     35437     35439
     35438     35439     35440     35441     35440     35442     35441     35442
     35443     35444     35443     35445     35444     35445     35446     35447
     35446     35448     35447     35448     35449     35450     35449     35451
     35450     35451     35452     35453     35452     35454     35453     35454
     35455     35456     35455     35457     35456     35457     35458     35459
     35458     35460     35459     35460     35461     35462     35461     35463
     35462     35463     35464     35465     35464     35466     35465     35466
     35467     35468     35467     35469     35468     35469     35470     35471
     35470     35472     35471     35472     35473     35474     35473     35475
     35474     35475     35476     35477     35476     35478     35477     35478
     35479     35480     35479     35481     35480     35481     35482     35483
     35482     35484     35483     35484     35485     35486     35485     35487
     35486     35487     35488     35489     35488     35490     35489     35490
     35491     35492     35491     35493     35492     35493     35494     35495
     35494     35496     35495     35496     35497     35498     35497     35499
     35498     35499     35500     35501     35500     35502     35501     35502
     35503     35504     35503     35505     35504     35505     35506     35507
     35506     35508     35507     35508     35509     35510     35509     35511
     35510     35511     35512     35513     35512     35514     35513     35514
     35515     35516     35515     35517     35516     35517     35518     35519
     35518     35520     35519     35520     35521     35522     35521     35523
     35522     35523     35524     35525     35524     35526     35525     35526
     35527     35528     35527     35529     35528     35529     35530     35531
     35530     35532     35531     35532     35533     35534     35533     35535
     35534     35535     35536     35537     35536     35538     35537     35538
     35539     35540     35539     35541     35540     35541     35542     35543
     35542     35544     35543     35544     35545     35546     35545     35547
     35546     35547     35548     35549     35548     35550     35549     35550
     35551     35552     35551     35553     35552     35553     35554     35555
     35554     35556     35555     35556     35557     35558     35557     35559
     35558     35559     35560     35561     35560     35562     35561     35562
     35563     35564     35563     35565     35564     35565     35566     35567
     35566     35568     35567     35568     35569     35570     35569     35571
     35570     35571     35572     35573     35572     35574     35573     35574
     35575     35576     35575     35577     35576     35577     35578     35579
     35578     35580     35579     35580     35581     35582     35581     35583
     35582     35583     35584     35585     35584     35586     35585     35586
     35587     35588     35587     35589     35588     35589     35590     35591
     35590     35592     35591     35592     35593     35594     35593     35595
     35594     35595     35596     35597     35596     35598     35597     35598
     35599     35600     35599     35601     35600     35601     35602     35603
     35602     35604     35603     35604     35605     35606     35605     35607
     35606     35607     35608     35609     35608     35610     35609     35610
     35611     35612     35611     35613     35612     35613     35614     35615
     35614     35616     35615     35616     35617     35618     35617     35619
     35618     35619     35620     35621     35620     35622     35621     35622
     35623     35624     35623     35625     35624     35625     35626     35627
     35626     35628     35627     35628     35629     35630     35629     35631
     35630     35631     35632     35633     35632     35634     35633     35634
     35635     35636     35635     35637     35636     35637     35638     35639
     35638     35640     35639     35640     35641     35642     35641     35643
     35642     35643     35644     35645     35644     35646     35645     35646
     35647     35648     35647     35649     35648     35649     35650     35651
     35650     35652     35651     35652     35653     35654     35653     35655
     35654     35655     35656     35657     35656     35658     35657     35658
     35659     35660     35659     35661     35660     35661     35662     35663
     35662     35664     35663     35664     35665     35666     35665     35667
     35666     35667     35668     35669     35668     35670     35669     35670
     35671     35672     35671     35673     35672     35673     35674     35675
     35674     35676     35675     35676     35677     35678     35677     35679
     35678     35679     35680     35681     35680     35682     35681     35682
     35683     35684     35683     35685     35684     35685     35686     35687
     35686     35688     35687     35688     35689     35690     35689     35691
     35690     35691     35692     35693     35692     35694     35693     35694
     35695     35696     35695     35697     35696     35697     35698     35699
     35698     35700     35699     35700     35701     35702     35701     35703
     35702     35703     35704     35705     35704     35706     35705     35706
     35707     35708     35707     35709     35708     35709     35710     35711
     35710     35712     35711     35712     35713     35714     35713     35715
     35714     35715     35716     35717     35716     35718     35717     35718
     35719     35720     35719     35721     35720     35721     35722     35723
     35722     35724     35723     35724     35725     35726     35725     35727
     35726     35727     35728     35729     35728     35730     35729     35730
     35731     35732     35731     35733     35732     35733     35734     35735
     35734     35736     35735     35736     35737     35738     35737     35739
     35738     35739     35740     35741     35740     35742     35741     35742
     35743     35744     35743     35745     35744     35745     35746     35747
     35746     35748     35747     35748     35749     35750     35749     35751
     35750     35751     35752     35753     35752     35754     35753     35754
     35755     35756     35755     35757     35756     35757     35758     35759
     35758     35760     35759     35760     35761     35762     35761     35763
     35762     35763     35764     35765     35764     35766     35765     35766
     35767     35768     35767     35769     35768     35769     35770     35771
     35770     35772     35771     35772     35773     35774     35773     35775
     35774     35775     35776     35777     35776     35778     35777     35778
     35779     35780     35779     35781     35780     35781     35782     35783
     35782     35784     35783     35784     35785     35786     35785     35787
     35786     35787     35788     35789     35788     35790     35789     35790
     35791     35792     35791     35793     35792     35793     35794     35795
     35794     35796     35795     35796     35797     35798     35797     35799
     35798     35799     35800     35801     35800     35802     35801     35802
     35803     35804     35803     35805     35804     35805     35806     35807
     35806     35808     35807     35808     35809     35810     35809     35811
     35810     35811     35812     35813     35812     35814     35813     35814
     35815     35816     35815     35817     35816     35817     35818     35819
     35818     35820     35819     35820     35821     35822     35821     35823
     35822     35823     35824     35825     35824     35826     35825     35826
     35827     35828     35827     35829     35828     35829     35830     35831
     35830     35832     35831     35832     35833     35834     35833     35835
     35834     35835     35836     35837     35836     35838     35837     35838
     35839     35840     35839     35841     35840     35841     35842     35843
     35842     35844     35843     35844     35845     35846     35845     35847
     35846     35847     35848     35849     35848     35850     35849     35850
     35851     35852     35851     35853     35852     35853     35854     35855
     35854     35856     35855     35856     35857     35858     35857     35859
     35858     35859     35860     35861     35860     35862     35861     35862
     35863     35864     35863     35865     35864     35865     35866     35867
     35866     35868     35867     35868     35869     35870     35869     35871
     35870     35871     35872     35873     35872     35874     35873     35874
     35875     35876     35875     35877     35876     35877     35878     35879
     35878     35880     35879     35880     35881     35882     35881     35883
     35882     35883     35884     35885     35884     35886     35885     35886
     35887     35888     35887     35889     35888     35889     35890     35891
     35890     35892     35891     35892     35893     35894     35893     35895
     35894     35895     35896     35897     35896     35898     35897     35898
     35899     35900     35899     35901     35900     35901     35902     35903
     35902     35904     35903     35904     35905     35906     35905     35907
     35906     35907     35908     35909     35908     35910     35909     35910
     35911     35912     35911     35913     35912     35913     35914     35915
     35914     35916     35915     35916     35917     35918     35917     35919
     35918     35919     35920     35921     35920     35922     35921     35922
     35923     35924     35923     35925     35924     35925     35926     35927
     35926     35928     35927     35928     35929     35930     35929     35931
     35930     35931     35932     35933     35932     35934     35933     35934
     35935     35936     35935     35937     35936     35937     35938     35939
     35938     35940     35939     35940     35941     35942     35941     35943
     35942     35943     35944     35945     35944     35946     35945     35946
     35947     35948     35947     35949     35948     35949     35950     35951
     35950     35952     35951     35952     35953     35954     35953     35955
     35954     35955     35956     35957     35956     35958     35957     35958
     35959     35960     35959     35961     35960     35961     35962     35963
     35962     35964     35963     35964     35965     35966     35965     35967
     35966     35967     35968     35969     35968     35970     35969     35970
     35971     35972     35971     35973     35972     35973     35974     35975
     35974     35976     35975     35976     35977     35978     35977     35979
     35978     35979     35980     35981     35980     35982     35981     35982
     35983     35984     35983     35985     35984     35985     35986     35987
     35986     35988     35987     35988     35989     35990     35989     35991
     35990     35991     35992     35993     35992     35994     35993     35994
     35995     35996     35995     35997     35996     35997     35998     35999
     35998     36000     35999     36000     36001     36002     36001     36003
     36002     36003     36004     36005     36004     36006     36005     36006
     36007     36008     36007     36009     36008     36009     36010     36011
     36010     36012     36011     36012     36013     36014     36013     36015
     36014     36015     36016     36017     36016     36018     36017     36018
     36019     36020     36019     36021     36020     36021     36022     36023
     36022     36024     36023     36024     36025     36026     36025     36027
     36026     36027     36028     36029     36028     36030     36029     36030
     36031     36032     36031     36033     36032     36033     36034     36035
     36034     36036     36035     36036     36037     36038     36037     36039
     36038     36039     36040     36041     36040     36042     36041     36042
     36043     36044     36043     36045     36044     36045     36046     36047
     36046     36048     36047     36048     36049     36050     36049     36051
     36050     36051     36052     36053     36052     36054     36053     36054
     36055     36056     36055     36057     36056     36057     36058     36059
     36058     36060     36059     36060     36061     36062     36061     36063
     36062     36063     36064     36065     36064     36066     36065     36066
     36067     36068     36067     36069     36068     36069     36070     36071
     36070     36072     36071     36072     36073     36074     36073     36075
     36074     36075     36076     36077     36076     36078     36077     36078
     36079     36080     36079     36081     36080     36081     36082     36083
     36082     36084     36083     36084     36085     36086     36085     36087
     36086     36087     36088     36089     36088     36090     36089     36090
     36091     36092     36091     36093     36092     36093     36094     36095
     36094     36096     36095     36096     36097     36098     36097     36099
     36098     36099     36100     36101     36100     36102     36101     36102
     36103     36104     36103     36105     36104     36105     36106     36107
     36106     36108     36107     36108     36109     36110     36109     36111
     36110     36111     36112     36113     36112     36114     36113     36114
     36115     36116     36115     36117     36116     36117     36118     36119
     36118     36120     36119     36120     36121     36122     36121     36123
     36122     36123     36124     36125     36124     36126     36125     36126
     36127     36128     36127     36129     36128     36129     36130     36131
     36130     36132     36131     36132     36133     36134     36133     36135
     36134     36135     36136     36137     36136     36138     36137     36138
     36139     36140     36139     36141     36140     36141     36142     36143
     36142     36144     36143     36144     36145     36146     36145     36147
     36146     36147     36148     36149     36148     36150     36149     36150
     36151     36152     36151     36153     36152     36153     36154     36155
     36154     36156     36155     36156     36157     36158     36157     36159
     36158     36159     36160     36161     36160     36162     36161     36162
     36163     36164     36163     36165     36164     36165     36166     36167
     36166     36168     36167     36168     36169     36170     36169     36171
     36170     36171     36172     36173     36172     36174     36173     36174
     36175     36176     36175     36177     36176     36177     36178     36179
     36178     36180     36179     36180     36181     36182     36181     36183
     36182     36183     36184     36185     36184     36186     36185     36186
     36187     36188     36187     36189     36188     36189     36190     36191
     36190     36192     36191     36192     36193     36194     36193     36195
     36194     36195     36196     36197     36196     36198     36197     36198
     36199     36200     36199     36201     36200     36201     36202     36203
     36202     36204     36203     36204     36205     36206     36205     36207
     36206     36207     36208     36209     36208     36210     36209     36210
     36211     36212     36211     36213     36212     36213     36214     36215
     36214     36216     36215     36216     36217     36218     36217     36219
     36218     36219     36220     36221     36220     36222     36221     36222
     36223     36224     36223     36225     36224     36225     36226     36227
     36226     36228     36227     36228     36229     36230     36229     36231
     36230     36231     36232     36233     36232     36234     36233     36234
     36235     36236     36235     36237     36236     36237     36238     36239
     36238     36240     36239     36240     36241     36242     36241     36243
     36242     36243     36244     36245     36244     36246     36245     36246
     36247     36248     36247     36249     36248     36249     36250     36251
     36250     36252     36251     36252     36253     36254     36253     36255
     36254     36255     36256     36257     36256     36258     36257     36258
     36259     36260     36259     36261     36260     36261     36262     36263
     36262     36264     36263     36264     36265     36266     36265     36267
     36266     36267     36268     36269     36268     36270     36269     36270
     36271     36272     36271     36273     36272     36273     36274     36275
     36274     36276     36275     36276     36277     36278     36277     36279
     36278     36279     36280     36281     36280     36282     36281     36282
     36283     36284     36283     36285     36284     36285     36286     36287
     36286     36288     36287     36288     36289     36290     36289     36291
     36290     36291     36292     36293     36292     36294     36293     36294
     36295     36296     36295     36297     36296     36297     36298     36299
     36298     36300     36299     36300     36301     36302     36301     36303
     36302     36303     36304     36305     36304     36306     36305     36306
     36307     36308     36307     36309     36308     36309     36310     36311
     36310     36312     36311     36312     36313     36314     36313     36315
     36314     36315     36316     36317     36316     36318     36317     36318
     36319     36320     36319     36321     36320     36321     36322     36323
     36322     36324     36323     36324     36325     36326     36325     36327
     36326     36327     36328     36329     36328     36330     36329     36330
     36331     36332     36331     36333     36332     36333     36334     36335
     36334     36336     36335     36336     36337     36338     36337     36339
     36338     36339     36340     36341     36340     36342     36341     36342
     36343     36344     36343     36345     36344     36345     36346     36347
     36346     36348     36347     36348     36349     36350     36349     36351
     36350     36351     36352     36353     36352     36354     36353     36354
     36355     36356     36355     36357     36356     36357     36358     36359
     36358     36360     36359     36360     36361     36362     36361     36363
     36362     36363     36364     36365     36364     36366     36365     36366
     36367     36368     36367     36369     36368     36369     36370     36371
     36370     36372     36371     36372     36373     36374     36373     36375
     36374     36375     36376     36377     36376     36378     36377     36378
     36379     36380     36379     36381     36380     36381     36382     36383
     36382     36384     36383     36384     36385     36386     36385     36387
     36386     36387     36388     36389     36388     36390     36389     36390
     36391     36392     36391     36393     36392     36393     36394     36395
     36394     36396     36395     36396     36397     36398     36397     36399
     36398     36399     36400     36401     36400     36402     36401     36402
     36403     36404     36403     36405     36404     36405     36406     36407
     36406     36408     36407     36408     36409     36410     36409     36411
     36410     36411     36412     36413     36412     36414     36413     36414
     36415     36416     36415     36417     36416     36417     36418     36419
     36418     36420     36419     36420     36421     36422     36421     36423
     36422     36423     36424     36425     36424     36426     36425     36426
     36427     36428     36427     36429     36428     36429     36430     36431
     36430     36432     36431     36432     36433     36434     36433     36435
     36434     36435     36436     36437     36436     36438     36437     36438
     36439     36440     36439     36441     36440     36441     36442     36443
     36442     36444     36443     36444     36445     36446     36445     36447
     36446     36447     36448     36449     36448     36450     36449     36450
     36451     36452     36451     36453     36452     36453     36454     36455
     36454     36456     36455     36456     36457     36458     36457     36459
     36458     36459     36460     36461     36460     36462     36461     36462
     36463     36464     36463     36465     36464     36465     36466     36467
     36466     36468     36467     36468     36469     36470     36469     36471
     36470     36471     36472     36473     36472     36474     36473     36474
     36475     36476     36475     36477     36476     36477     36478     36479
     36478     36480     36479     36480     36481     36482     36481     36483
     36482     36483     36484     36485     36484     36486     36485     36486
     36487     36488     36487     36489     36488     36489     36490     36491
     36490     36492     36491     36492     36493     36494     36493     36495
     36494     36495     36496     36497     36496     36498     36497     36498
     36499     36500     36499     36501     36500     36501     36502     36503
     36502     36504     36503     36504     36505     36506     36505     36507
     36506     36507     36508     36509     36508     36510     36509     36510
     36511     36512     36511     36513     36512     36513     36514     36515
     36514     36516     36515     36516     36517     36518     36517     36519
     36518     36519     36520     36521     36520     36522     36521     36522
     36523     36524     36523     36525     36524     36525     36526     36527
     36526     36528     36527     36528     36529     36530     36529     36531
     36530     36531     36532     36533     36532     36534     36533     36534
     36535     36536     36535     36537     36536     36537     36538     36539
     36538     36540     36539     36540     36541     36542     36541     36543
     36542     36543     36544     36545     36544     36546     36545     36546
     36547     36548     36547     36549     36548     36549     36550     36551
     36550     36552     36551     36552     36553     36554     36553     36555
     36554     36555     36556     36557     36556     36558     36557     36558
     36559     36560     36559     36561     36560     36561     36562     36563
     36562     36564     36563     36564     36565     36566     36565     36567
     36566     36567     36568     36569     36568     36570     36569     36570
     36571     36572     36571     36573     36572     36573     36574     36575
     36574     36576     36575     36576     36577     36578     36577     36579
     36578     36579     36580     36581     36580     36582     36581     36582
     36583     36584     36583     36585     36584     36585     36586     36587
     36586     36588     36587     36588     36589     36590     36589     36591
     36590     36591     36592     36593     36592     36594     36593     36594
     36595     36596     36595     36597     36596     36597     36598     36599
     36598     36600     36599     36600     36601     36602     36601     36603
     36602     36603     36604     36605     36604     36606     36605     36606
     36607     36608     36607     36609     36608     36609     36610     36611
     36610     36612     36611     36612     36613     36614     36613     36615
     36614     36615     36616     36617     36616     36618     36617     36618
     36619     36620     36619     36621     36620     36621     36622     36623
     36622     36624     36623     36624     36625     36626     36625     36627
     36626     36627     36628     36629     36628     36630     36629     36630
     36631     36632     36631     36633     36632     36633     36634     36635
     36634     36636     36635     36636     36637     36638     36637     36639
     36638     36639     36640     36641     36640     36642     36641     36642
     36643     36644     36643     36645     36644     36645     36646     36647
     36646     36648     36647     36648     36649     36650     36649     36651
     36650     36651     36652     36653     36652     36654     36653     36654
     36655     36656     36655     36657     36656     36657     36658     36659
     36658     36660     36659     36660     36661     36662     36661     36663
     36662     36663     36664     36665     36664     36666     36665     36666
     36667     36668     36667     36669     36668     36669     36670     36671
     36670     36672     36671     36672     36673     36674     36673     36675
     36674     36675     36676     36677     36676     36678     36677     36678
     36679     36680     36679     36681     36680     36681     36682     36683
     36682     36684     36683     36684     36685     36686     36685     36687
     36686     36687     36688     36689     36688     36690     36689     36690
     36691     36692     36691     36693     36692     36693     36694     36695
     36694     36696     36695     36696     36697     36698     36697     36699
     36698     36699     36700     36701     36700     36702     36701     36702
     36703     36704     36703     36705     36704     36705     36706     36707
     36706     36708     36707     36708     36709     36710     36709     36711
     36710     36711     36712     36713     36712     36714     36713     36714
     36715     36716     36715     36717     36716     36717     36718     36719
     36718     36720     36719     36720     36721     36722     36721     36723
     36722     36723     36724     36725     36724     36726     36725     36726
     36727     36728     36727     36729     36728     36729     36730     36731
     36730     36732     36731     36732     36733     36734     36733     36735
     36734     36735     36736     36737     36736     36738     36737     36738
     36739     36740     36739     36741     36740     36741     36742     36743
     36742     36744     36743     36744     36745     36746     36745     36747
     36746     36747     36748     36749     36748     36750     36749     36750
     36751     36752     36751     36753     36752     36753     36754     36755
     36754     36756     36755     36756     36757     36758     36757     36759
     36758     36759     36760     36761     36760     36762     36761     36762
     36763     36764     36763     36765     36764     36765     36766     36767
     36766     36768     36767     36768     36769     36770     36769     36771
     36770     36771     36772     36773     36772     36774     36773     36774
     36775     36776     36775     36777     36776     36777     36778     36779
     36778     36780     36779     36780     36781     36782     36781     36783
     36782     36783     36784     36785     36784     36786     36785     36786
     36787     36788     36787     36789     36788     36789     36790     36791
     36790     36792     36791     36792     36793     36794     36793     36795
     36794     36795     36796     36797     36796     36798     36797     36798
     36799     36800     36799     36801     36800     36801     36802     36803
     36802     36804     36803     36804     36805     36806     36805     36807
     36806     36807     36808     36809     36808     36810     36809     36810
     36811     36812     36811     36813     36812     36813     36814     36815
     36814     36816     36815     36816     36817     36818     36817     36819
     36818     36819     36820     36821     36820     36822     36821     36822
     36823     36824     36823     36825     36824     36825     36826     36827
     36826     36828     36827     36828     36829     36830     36829     36831
     36830     36831     36832     36833     36832     36834     36833     36834
     36835     36836     36835     36837     36836     36837     36838     36839
     36838     36840     36839     36840     36841     36842     36841     36843
     36842     36843     36844     36845     36844     36846     36845     36846
     36847     36848     36847     36849     36848     36849     36850     36851
     36850     36852     36851     36852     36853     36854     36853     36855
     36854     36855     36856     36857     36856     36858     36857     36858
     36859     36860     36859     36861     36860     36861     36862     36863
     36862     36864     36863     36864     36865     36866     36865     36867
     36866     36867     36868     36869     36868     36870     36869     36870
     36871     36872     36871     36873     36872     36873     36874     36875
     36874     36876     36875     36876     36877     36878     36877     36879
     36878     36879     36880     36881     36880     36882     36881     36882
     36883     36884     36883     36885     36884     36885     36886     36887
     36886     36888     36887     36888     36889     36890     36889     36891
     36890     36891     36892     36893     36892     36894     36893     36894
     36895     36896     36895     36897     36896     36897     36898     36899
     36898     36900     36899     36900     36901     36902     36901     36903
     36902     36903     36904     36905     36904     36906     36905     36906
     36907     36908     36907     36909     36908     36909     36910     36911
     36910     36912     36911     36912     36913     36914     36913     36915
     36914     36915     36916     36917     36916     36918     36917     36918
     36919     36920     36919     36921     36920     36921     36922     36923
     36922     36924     36923     36924     36925     36926     36925     36927
     36926     36927     36928     36929     36928     36930     36929     36930
     36931     36932     36931     36933     36932     36933     36934     36935
     36934     36936     36935     36936     36937     36938     36937     36939
     36938     36939     36940     36941     36940     36942     36941     36942
     36943     36944     36943     36945     36944     36945     36946     36947
     36946     36948     36947     36948     36949     36950     36949     36951
     36950     36951     36952     36953     36952     36954     36953     36954
     36955     36956     36955     36957     36956     36957     36958     36959
     36958     36960     36959     36960     36961     36962     36961     36963
     36962     36963     36964     36965     36964     36966     36965     36966
     36967     36968     36967     36969     36968     36969     36970     36971
     36970     36972     36971     36972     36973     36974     36973     36975
     36974     36975     36976     36977     36976     36978     36977     36978
     36979     36980     36979     36981     36980     36981     36982     36983
     36982     36984     36983     36984     36985     36986     36985     36987
     36986     36987     36988     36989     36988     36990     36989     36990
     36991     36992     36991     36993     36992     36993     36994     36995
     36994     36996     36995     36996     36997     36998     36997     36999
     36998     36999     37000     37001     37000     37002     37001     37002
     37003     37004     37003     37005     37004     37005     37006     37007
     37006     37008     37007     37008     37009     37010     37009     37011
     37010     37011     37012     37013     37012     37014     37013     37014
     37015     37016     37015     37017     37016     37017     37018     37019
     37018     37020     37019     37020     37021     37022     37021     37023
     37022     37023     37024     37025     37024     37026     37025     37026
     37027     37028     37027     37029     37028     37029     37030     37031
     37030     37032     37031     37032     37033     37034     37033     37035
     37034     37035     37036     37037     37036     37038     37037     37038
     37039     37040     37039     37041     37040     37041     37042     37043
     37042     37044     37043     37044     37045     37046     37045     37047
     37046     37047     37048     37049     37048     37050     37049     37050
     37051     37052     37051     37053     37052     37053     37054     37055
     37054     37056     37055     37056     37057     37058     37057     37059
     37058     37059     37060     37061     37060     37062     37061     37062
     37063     37064     37063     37065     37064     37065     37066     37067
     37066     37068     37067     37068     37069     37070     37069     37071
     37070     37071     37072     37073     37072     37074     37073     37074
     37075     37076     37075     37077     37076     37077     37078     37079
     37078     37080     37079     37080     37081     37082     37081     37083
     37082     37083     37084     37085     37084     37086     37085     37086
     37087     37088     37087     37089     37088     37089     37090     37091
     37090     37092     37091     37092     37093     37094     37093     37095
     37094     37095     37096     37097     37096     37098     37097     37098
     37099     37100     37099     37101     37100     37101     37102     37103
     37102     37104     37103     37104     37105     37106     37105     37107
     37106     37107     37108     37109     37108     37110     37109     37110
     37111     37112     37111     37113     37112     37113     37114     37115
     37114     37116     37115     37116     37117     37118     37117     37119
     37118     37119     37120     37121     37120     37122     37121     37122
     37123     37124     37123     37125     37124     37125     37126     37127
     37126     37128     37127     37128     37129     37130     37129     37131
     37130     37131     37132     37133     37132     37134     37133     37134
     37135     37136     37135     37137     37136     37137     37138     37139
     37138     37140     37139     37140     37141     37142     37141     37143
     37142     37143     37144     37145     37144     37146     37145     37146
     37147     37148     37147     37149     37148     37149     37150     37151
     37150     37152     37151     37152     37153     37154     37153     37155
     37154     37155     37156     37157     37156     37158     37157     37158
     37159     37160     37159     37161     37160     37161     37162     37163
     37162     37164     37163     37164     37165     37166     37165     37167
     37166     37167     37168     37169     37168     37170     37169     37170
     37171     37172     37171     37173     37172     37173     37174     37175
     37174     37176     37175     37176     37177     37178     37177     37179
     37178     37179     37180     37181     37180     37182     37181     37182
     37183     37184     37183     37185     37184     37185     37186     37187
     37186     37188     37187     37188     37189     37190     37189     37191
     37190     37191     37192     37193     37192     37194     37193     37194
     37195     37196     37195     37197     37196     37197     37198     37199
     37198     37200     37199     37200     37201     37202     37201     37203
     37202     37203     37204     37205     37204     37206     37205     37206
     37207     37208     37207     37209     37208     37209     37210     37211
     37210     37212     37211     37212     37213     37214     37213     37215
     37214     37215     37216     37217     37216     37218     37217     37218
     37219     37220     37219     37221     37220     37221     37222     37223
     37222     37224     37223     37224     37225     37226     37225     37227
     37226     37227     37228     37229     37228     37230     37229     37230
     37231     37232     37231     37233     37232     37233     37234     37235
     37234     37236     37235     37236     37237     37238     37237     37239
     37238     37239     37240     37241     37240     37242     37241     37242
     37243     37244     37243     37245     37244     37245     37246     37247
     37246     37248     37247     37248     37249     37250     37249     37251
     37250     37251     37252     37253     37252     37254     37253     37254
     37255     37256     37255     37257     37256     37257     37258     37259
     37258     37260     37259     37260     37261     37262     37261     37263
     37262     37263     37264     37265     37264     37266     37265     37266
     37267     37268     37267     37269     37268     37269     37270     37271
     37270     37272     37271     37272     37273     37274     37273     37275
     37274     37275     37276     37277     37276     37278     37277     37278
     37279     37280     37279     37281     37280     37281     37282     37283
     37282     37284     37283     37284     37285     37286     37285     37287
     37286     37287     37288     37289     37288     37290     37289     37290
     37291     37292     37291     37293     37292     37293     37294     37295
     37294     37296     37295     37296     37297     37298     37297     37299
     37298     37299     37300     37301     37300     37302     37301     37302
     37303     37304     37303     37305     37304     37305     37306     37307
     37306     37308     37307     37308     37309     37310     37309     37311
     37310     37311     37312     37313     37312     37314     37313     37314
     37315     37316     37315     37317     37316     37317     37318     37319
     37318     37320     37319     37320     37321     37322     37321     37323
     37322     37323     37324     37325     37324     37326     37325     37326
     37327     37328     37327     37329     37328     37329     37330     37331
     37330     37332     37331     37332     37333     37334     37333     37335
     37334     37335     37336     37337     37336     37338     37337     37338
     37339     37340     37339     37341     37340     37341     37342     37343
     37342     37344     37343     37344     37345     37346     37345     37347
     37346     37347     37348     37349     37348     37350     37349     37350
     37351     37352     37351     37353     37352     37353     37354     37355
     37354     37356     37355     37356     37357     37358     37357     37359
     37358     37359     37360     37361     37360     37362     37361     37362
     37363     37364     37363     37365     37364     37365     37366     37367
     37366     37368     37367     37368     37369     37370     37369     37371
     37370     37371     37372     37373     37372     37374     37373     37374
     37375     37376     37375     37377     37376     37377     37378     37379
     37378     37380     37379     37380     37381     37382     37381     37383
     37382     37383     37384     37385     37384     37386     37385     37386
     37387     37388     37387     37389     37388     37389     37390     37391
     37390     37392     37391     37392     37393     37394     37393     37395
     37394     37395     37396     37397     37396     37398     37397     37398
     37399     37400     37399     37401     37400     37401     37402     37403
     37402     37404     37403     37404     37405     37406     37405     37407
     37406     37407     37408     37409     37408     37410     37409     37410
     37411     37412     37411     37413     37412     37413     37414     37415
     37414     37416     37415     37416     37417     37418     37417     37419
     37418     37419     37420     37421     37420     37422     37421     37422
     37423     37424     37423     37425     37424     37425     37426     37427
     37426     37428     37427     37428     37429     37430     37429     37431
     37430     37431     37432     37433     37432     37434     37433     37434
     37435     37436     37435     37437     37436     37437     37438     37439
     37438     37440     37439     37440     37441     37442     37441     37443
     37442     37443     37444     37445     37444     37446     37445     37446
     37447     37448     37447     37449     37448     37449     37450     37451
     37450     37452     37451     37452     37453     37454     37453     37455
     37454     37455     37456     37457     37456     37458     37457     37458
     37459     37460     37459     37461     37460     37461     37462     37463
     37462     37464     37463     37464     37465     37466     37465     37467
     37466     37467     37468     37469     37468     37470     37469     37470
     37471     37472     37471     37473     37472     37473     37474     37475
     37474     37476     37475     37476     37477     37478     37477     37479
     37478     37479     37480     37481     37480     37482     37481     37482
     37483     37484     37483     37485     37484     37485     37486     37487
     37486     37488     37487     37488     37489     37490     37489     37491
     37490     37491     37492     37493     37492     37494     37493     37494
     37495     37496     37495     37497     37496     37497     37498     37499
     37498     37500     37499     37500     37501     37502     37501     37503
     37502     37503     37504     37505     37504     37506     37505     37506
     37507     37508     37507     37509     37508     37509     37510     37511
     37510     37512     37511     37512     37513     37514     37513     37515
     37514     37515     37516     37517     37516     37518     37517     37518
     37519     37520     37519     37521     37520     37521     37522     37523
     37522     37524     37523     37524     37525     37526     37525     37527
     37526     37527     37528     37529     37528     37530     37529     37530
     37531     37532     37531     37533     37532     37533     37534     37535
     37534     37536     37535     37536     37537     37538     37537     37539
     37538     37539     37540     37541     37540     37542     37541     37542
     37543     37544     37543     37545     37544     37545     37546     37547
     37546     37548     37547     37548     37549     37550     37549     37551
     37550     37551     37552     37553     37552     37554     37553     37554
     37555     37556     37555     37557     37556     37557     37558     37559
     37558     37560     37559     37560     37561     37562     37561     37563
     37562     37563     37564     37565     37564     37566     37565     37566
     37567     37568     37567     37569     37568     37569     37570     37571
     37570     37572     37571     37572     37573     37574     37573     37575
     37574     37575     37576     37577     37576     37578     37577     37578
     37579     37580     37579     37581     37580     37581     37582     37583
     37582     37584     37583     37584     37585     37586     37585     37587
     37586     37587     37588     37589     37588     37590     37589     37590
     37591     37592     37591     37593     37592     37593     37594     37595
     37594     37596     37595     37596     37597     37598     37597     37599
     37598     37599     37600     37601     37600     37602     37601     37602
     37603     37604     37603     37605     37604     37605     37606     37607
     37606     37608     37607     37608     37609     37610     37609     37611
     37610     37611     37612     37613     37612     37614     37613     37614
     37615     37616     37615     37617     37616     37617     37618     37619
     37618     37620     37619     37620     37621     37622     37621     37623
     37622     37623     37624     37625     37624     37626     37625     37626
     37627     37628     37627     37629     37628     37629     37630     37631
     37630     37632     37631     37632     37633     37634     37633     37635
     37634     37635     37636     37637     37636     37638     37637     37638
     37639     37640     37639     37641     37640     37641     37642     37643
     37642     37644     37643     37644     37645     37646     37645     37647
     37646     37647     37648     37649     37648     37650     37649     37650
     37651     37652     37651     37653     37652     37653     37654     37655
     37654     37656     37655     37656     37657     37658     37657     37659
     37658     37659     37660     37661     37660     37662     37661     37662
     37663     37664     37663     37665     37664     37665     37666     37667
     37666     37668     37667     37668     37669     37670     37669     37671
     37670     37671     37672     37673     37672     37674     37673     37674
     37675     37676     37675     37677     37676     37677     37678     37679
     37678     37680     37679     37680     37681     37682     37681     37683
     37682     37683     37684     37685     37684     37686     37685     37686
     37687     37688     37687     37689     37688     37689     37690     37691
     37690     37692     37691     37692     37693     37694     37693     37695
     37694     37695     37696     37697     37696     37698     37697     37698
     37699     37700     37699     37701     37700     37701     37702     37703
     37702     37704     37703     37704     37705     37706     37705     37707
     37706     37707     37708     37709     37708     37710     37709     37710
     37711     37712     37711     37713     37712     37713     37714     37715
     37714     37716     37715     37716     37717     37718     37717     37719
     37718     37719     37720     37721     37720     37722     37721     37722
     37723     37724     37723     37725     37724     37725     37726     37727
     37726     37728     37727     37728     37729     37730     37729     37731
     37730     37731     37732     37733     37732     37734     37733     37734
     37735     37736     37735     37737     37736     37737     37738     37739
     37738     37740     37739     37740     37741     37742     37741     37743
     37742     37743     37744     37745     37744     37746     37745     37746
     37747     37748     37747     37749     37748     37749     37750     37751
     37750     37752     37751     37752     37753     37754     37753     37755
     37754     37755     37756     37757     37756     37758     37757     37758
     37759     37760     37759     37761     37760     37761     37762     37763
     37762     37764     37763     37764     37765     37766     37765     37767
     37766     37767     37768     37769     37768     37770     37769     37770
     37771     37772     37771     37773     37772     37773     37774     37775
     37774     37776     37775     37776     37777     37778     37777     37779
     37778     37779     37780     37781     37780     37782     37781     37782
     37783     37784     37783     37785     37784     37785     37786     37787
     37786     37788     37787     37788     37789     37790     37789     37791
     37790     37791     37792     37793     37792     37794     37793     37794
     37795     37796     37795     37797     37796     37797     37798     37799
     37798     37800     37799     37800     37801     37802     37801     37803
     37802     37803     37804     37805     37804     37806     37805     37806
     37807     37808     37807     37809     37808     37809     37810     37811
     37810     37812     37811     37812     37813     37814     37813     37815
     37814     37815     37816     37817     37816     37818     37817     37818
     37819     37820     37819     37821     37820     37821     37822     37823
     37822     37824     37823     37824     37825     37826     37825     37827
     37826     37827     37828     37829     37828     37830     37829     37830
     37831     37832     37831     37833     37832     37833     37834     37835
     37834     37836     37835     37836     37837     37838     37837     37839
     37838     37839     37840     37841     37840     37842     37841     37842
     37843     37844     37843     37845     37844     37845     37846     37847
     37846     37848     37847     37848     37849     37850     37849     37851
     37850     37851     37852     37853     37852     37854     37853     37854
     37855     37856     37855     37857     37856     37857     37858     37859
     37858     37860     37859     37860     37861     37862     37861     37863
     37862     37863     37864     37865     37864     37866     37865     37866
     37867     37868     37867     37869     37868     37869     37870     37871
     37870     37872     37871     37872     37873     37874     37873     37875
     37874     37875     37876     37877     37876     37878     37877     37878
     37879     37880     37879     37881     37880     37881     37882     37883
     37882     37884     37883     37884     37885     37886     37885     37887
     37886     37887     37888     37889     37888     37890     37889     37890
     37891     37892     37891     37893     37892     37893     37894     37895
     37894     37896     37895     37896     37897     37898     37897     37899
     37898     37899     37900     37901     37900     37902     37901     37902
     37903     37904     37903     37905     37904     37905     37906     37907
     37906     37908     37907     37908     37909     37910     37909     37911
     37910     37911     37912     37913     37912     37914     37913     37914
     37915     37916     37915     37917     37916     37917     37918     37919
     37918     37920     37919     37920     37921     37922     37921     37923
     37922     37923     37924     37925     37924     37926     37925     37926
     37927     37928     37927     37929     37928     37929     37930     37931
     37930     37932     37931     37932     37933     37934     37933     37935
     37934     37935     37936     37937     37936     37938     37937     37938
     37939     37940     37939     37941     37940     37941     37942     37943
     37942     37944     37943     37944     37945     37946     37945     37947
     37946     37947     37948     37949     37948     37950     37949     37950
     37951     37952     37951     37953     37952     37953     37954     37955
     37954     37956     37955     37956     37957     37958     37957     37959
     37958     37959     37960     37961     37960     37962     37961     37962
     37963     37964     37963     37965     37964     37965     37966     37967
     37966     37968     37967     37968     37969     37970     37969     37971
     37970     37971     37972     37973     37972     37974     37973     37974
     37975     37976     37975     37977     37976     37977     37978     37979
     37978     37980     37979     37980     37981     37982     37981     37983
     37982     37983     37984     37985     37984     37986     37985     37986
     37987     37988     37987     37989     37988     37989     37990     37991
     37990     37992     37991     37992     37993     37994     37993     37995
     37994     37995     37996     37997     37996     37998     37997     37998
     37999     38000     37999     38001     38000     38001     38002     38003
     38002     38004     38003     38004     38005     38006     38005     38007
     38006     38007     38008     38009     38008     38010     38009     38010
     38011     38012     38011     38013     38012     38013     38014     38015
     38014     38016     38015     38016     38017     38018     38017     38019
     38018     38019     38020     38021     38020     38022     38021     38022
     38023     38024     38023     38025     38024     38025     38026     38027
     38026     38028     38027     38028     38029     38030     38029     38031
     38030     38031     38032     38033     38032     38034     38033     38034
     38035     38036     38035     38037     38036     38037     38038     38039
     38038     38040     38039     38040     38041     38042     38041     38043
     38042     38043     38044     38045     38044     38046     38045     38046
     38047     38048     38047     38049     38048     38049     38050     38051
     38050     38052     38051     38052     38053     38054     38053     38055
     38054     38055     38056     38057     38056     38058     38057     38058
     38059     38060     38059     38061     38060     38061     38062     38063
     38062     38064     38063     38064     38065     38066     38065     38067
     38066     38067     38068     38069     38068     38070     38069     38070
     38071     38072     38071     38073     38072     38073     38074     38075
     38074     38076     38075     38076     38077     38078     38077     38079
     38078     38079     38080     38081     38080     38082     38081     38082
     38083     38084     38083     38085     38084     38085     38086     38087
     38086     38088     38087     38088     38089     38090     38089     38091
     38090     38091     38092     38093     38092     38094     38093     38094
     38095     38096     38095     38097     38096     38097     38098     38099
     38098     38100     38099     38100     38101     38102     38101     38103
     38102     38103     38104     38105     38104     38106     38105     38106
     38107     38108     38107     38109     38108     38109     38110     38111
     38110     38112     38111     38112     38113     38114     38113     38115
     38114     38115     38116     38117     38116     38118     38117     38118
     38119     38120     38119     38121     38120     38121     38122     38123
     38122     38124     38123     38124     38125     38126     38125     38127
     38126     38127     38128     38129     38128     38130     38129     38130
     38131     38132     38131     38133     38132     38133     38134     38135
     38134     38136     38135     38136     38137     38138     38137     38139
     38138     38139     38140     38141     38140     38142     38141     38142
     38143     38144     38143     38145     38144     38145     38146     38147
     38146     38148     38147     38148     38149     38150     38149     38151
     38150     38151     38152     38153     38152     38154     38153     38154
     38155     38156     38155     38157     38156     38157     38158     38159
     38158     38160     38159     38160     38161     38162     38161     38163
     38162     38163     38164     38165     38164     38166     38165     38166
     38167     38168     38167     38169     38168     38169     38170     38171
     38170     38172     38171     38172     38173     38174     38173     38175
     38174     38175     38176     38177     38176     38178     38177     38178
     38179     38180     38179     38181     38180     38181     38182     38183
     38182     38184     38183     38184     38185     38186     38185     38187
     38186     38187     38188     38189     38188     38190     38189     38190
     38191     38192     38191     38193     38192     38193     38194     38195
     38194     38196     38195     38196     38197     38198     38197     38199
     38198     38199     38200     38201     38200     38202     38201     38202
     38203     38204     38203     38205     38204     38205     38206     38207
     38206     38208     38207     38208     38209     38210     38209     38211
     38210     38211     38212     38213     38212     38214     38213     38214
     38215     38216     38215     38217     38216     38217     38218     38219
     38218     38220     38219     38220     38221     38222     38221     38223
     38222     38223     38224     38225     38224     38226     38225     38226
     38227     38228     38227     38229     38228     38229     38230     38231
     38230     38232     38231     38232     38233     38234     38233     38235
     38234     38235     38236     38237     38236     38238     38237     38238
     38239     38240     38239     38241     38240     38241     38242     38243
     38242     38244     38243     38244     38245     38246     38245     38247
     38246     38247     38248     38249     38248     38250     38249     38250
     38251     38252     38251     38253     38252     38253     38254     38255
     38254     38256     38255     38256     38257     38258     38257     38259
     38258     38259     38260     38261     38260     38262     38261     38262
     38263     38264     38263     38265     38264     38265     38266     38267
     38266     38268     38267     38268     38269     38270     38269     38271
     38270     38271     38272     38273     38272     38274     38273     38274
     38275     38276     38275     38277     38276     38277     38278     38279
     38278     38280     38279     38280     38281     38282     38281     38283
     38282     38283     38284     38285     38284     38286     38285     38286
     38287     38288     38287     38289     38288     38289     38290     38291
     38290     38292     38291     38292     38293     38294     38293     38295
     38294     38295     38296     38297     38296     38298     38297     38298
     38299     38300     38299     38301     38300     38301     38302     38303
     38302     38304     38303     38304     38305     38306     38305     38307
     38306     38307     38308     38309     38308     38310     38309     38310
     38311     38312     38311     38313     38312     38313     38314     38315
     38314     38316     38315     38316     38317     38318     38317     38319
     38318     38319     38320     38321     38320     38322     38321     38322
     38323     38324     38323     38325     38324     38325     38326     38327
     38326     38328     38327     38328     38329     38330     38329     38331
     38330     38331     38332     38333     38332     38334     38333     38334
     38335     38336     38335     38337     38336     38337     38338     38339
     38338     38340     38339     38340     38341     38342     38341     38343
     38342     38343     38344     38345     38344     38346     38345     38346
     38347     38348     38347     38349     38348     38349     38350     38351
     38350     38352     38351     38352     38353     38354     38353     38355
     38354     38355     38356     38357     38356     38358     38357     38358
     38359     38360     38359     38361     38360     38361     38362     38363
     38362     38364     38363     38364     38365     38366     38365     38367
     38366     38367     38368     38369     38368     38370     38369     38370
     38371     38372     38371     38373     38372     38373     38374     38375
     38374     38376     38375     38376     38377     38378     38377     38379
     38378     38379     38380     38381     38380     38382     38381     38382
     38383     38384     38383     38385     38384     38385     38386     38387
     38386     38388     38387     38388     38389     38390     38389     38391
     38390     38391     38392     38393     38392     38394     38393     38394
     38395     38396     38395     38397     38396     38397     38398     38399
     38398     38400     38399     38400     38401     38402     38401     38403
     38402     38403     38404     38405     38404     38406     38405     38406
     38407     38408     38407     38409     38408     38409     38410     38411
     38410     38412     38411     38412     38413     38414     38413     38415
     38414     38415     38416     38417     38416     38418     38417     38418
     38419     38420     38419     38421     38420     38421     38422     38423
     38422     38424     38423     38424     38425     38426     38425     38427
     38426     38427     38428     38429     38428     38430     38429     38430
     38431     38432     38431     38433     38432     38433     38434     38435
     38434     38436     38435     38436     38437     38438     38437     38439
     38438     38439     38440     38441     38440     38442     38441     38442
     38443     38444     38443     38445     38444     38445     38446     38447
     38446     38448     38447     38448     38449     38450     38449     38451
     38450     38451     38452     38453     38452     38454     38453     38454
     38455     38456     38455     38457     38456     38457     38458     38459
     38458     38460     38459     38460     38461     38462     38461     38463
     38462     38463     38464     38465     38464     38466     38465     38466
     38467     38468     38467     38469     38468     38469     38470     38471
     38470     38472     38471     38472     38473     38474     38473     38475
     38474     38475     38476     38477     38476     38478     38477     38478
     38479     38480     38479     38481     38480     38481     38482     38483
     38482     38484     38483     38484     38485     38486     38485     38487
     38486     38487     38488     38489     38488     38490     38489     38490
     38491     38492     38491     38493     38492     38493     38494     38495
     38494     38496     38495     38496     38497     38498     38497     38499
     38498     38499     38500     38501     38500     38502     38501     38502
     38503     38504     38503     38505     38504     38505     38506     38507
     38506     38508     38507     38508     38509     38510     38509     38511
     38510     38511     38512     38513     38512     38514     38513     38514
     38515     38516     38515     38517     38516     38517     38518     38519
     38518     38520     38519     38520     38521     38522     38521     38523
     38522     38523     38524     38525     38524     38526     38525     38526
     38527     38528     38527     38529     38528     38529     38530     38531
     38530     38532     38531     38532     38533     38534     38533     38535
     38534     38535     38536     38537     38536     38538     38537     38538
     38539     38540     38539     38541     38540     38541     38542     38543
     38542     38544     38543     38544     38545     38546     38545     38547
     38546     38547     38548     38549     38548     38550     38549     38550
     38551     38552     38551     38553     38552     38553     38554     38555
     38554     38556     38555     38556     38557     38558     38557     38559
     38558     38559     38560     38561     38560     38562     38561     38562
     38563     38564     38563     38565     38564     38565     38566     38567
     38566     38568     38567     38568     38569     38570     38569     38571
     38570     38571     38572     38573     38572     38574     38573     38574
     38575     38576     38575     38577     38576     38577     38578     38579
     38578     38580     38579     38580     38581     38582     38581     38583
     38582     38583     38584     38585     38584     38586     38585     38586
     38587     38588     38587     38589     38588     38589     38590     38591
     38590     38592     38591     38592     38593     38594     38593     38595
     38594     38595     38596     38597     38596     38598     38597     38598
     38599     38600     38599     38601     38600     38601     38602     38603
     38602     38604     38603     38604     38605     38606     38605     38607
     38606     38607     38608     38609     38608     38610     38609     38610
     38611     38612     38611     38613     38612     38613     38614     38615
     38614     38616     38615     38616     38617     38618     38617     38619
     38618     38619     38620     38621     38620     38622     38621     38622
     38623     38624     38623     38625     38624     38625     38626     38627
     38626     38628     38627     38628     38629     38630     38629     38631
     38630     38631     38632     38633     38632     38634     38633     38634
     38635     38636     38635     38637     38636     38637     38638     38639
     38638     38640     38639     38640     38641     38642     38641     38643
     38642     38643     38644     38645     38644     38646     38645     38646
     38647     38648     38647     38649     38648     38649     38650     38651
     38650     38652     38651     38652     38653     38654     38653     38655
     38654     38655     38656     38657     38656     38658     38657     38658
     38659     38660     38659     38661     38660     38661     38662     38663
     38662     38664     38663     38664     38665     38666     38665     38667
     38666     38667     38668     38669     38668     38670     38669     38670
     38671     38672     38671     38673     38672     38673     38674     38675
     38674     38676     38675     38676     38677     38678     38677     38679
     38678     38679     38680     38681     38680     38682     38681     38682
     38683     38684     38683     38685     38684     38685     38686     38687
     38686     38688     38687     38688     38689     38690     38689     38691
     38690     38691     38692     38693     38692     38694     38693     38694
     38695     38696     38695     38697     38696     38697     38698     38699
     38698     38700     38699     38700     38701     38702     38701     38703
     38702     38703     38704     38705     38704     38706     38705     38706
     38707     38708     38707     38709     38708     38709     38710     38711
     38710     38712     38711     38712     38713     38714     38713     38715
     38714     38715     38716     38717     38716     38718     38717     38718
     38719     38720     38719     38721     38720     38721     38722     38723
     38722     38724     38723     38724     38725     38726     38725     38727
     38726     38727     38728     38729     38728     38730     38729     38730
     38731     38732     38731     38733     38732     38733     38734     38735
     38734     38736     38735     38736     38737     38738     38737     38739
     38738     38739     38740     38741     38740     38742     38741     38742
     38743     38744     38743     38745     38744     38745     38746     38747
     38746     38748     38747     38748     38749     38750     38749     38751
     38750     38751     38752     38753     38752     38754     38753     38754
     38755     38756     38755     38757     38756     38757     38758     38759
     38758     38760     38759     38760     38761     38762     38761     38763
     38762     38763     38764     38765     38764     38766     38765     38766
     38767     38768     38767     38769     38768     38769     38770     38771
     38770     38772     38771     38772     38773     38774     38773     38775
     38774     38775     38776     38777     38776     38778     38777     38778
     38779     38780     38779     38781     38780     38781     38782     38783
     38782     38784     38783     38784     38785     38786     38785     38787
     38786     38787     38788     38789     38788     38790     38789     38790
     38791     38792     38791     38793     38792     38793     38794     38795
     38794     38796     38795     38796     38797     38798     38797     38799
     38798     38799     38800     38801     38800     38802     38801     38802
     38803     38804     38803     38805     38804     38805     38806     38807
     38806     38808     38807     38808     38809     38810     38809     38811
     38810     38811     38812     38813     38812     38814     38813     38814
     38815     38816     38815     38817     38816     38817     38818     38819
     38818     38820     38819     38820     38821     38822     38821     38823
     38822     38823     38824     38825     38824     38826     38825     38826
     38827     38828     38827     38829     38828     38829     38830     38831
     38830     38832     38831     38832     38833     38834     38833     38835
     38834     38835     38836     38837     38836     38838     38837     38838
     38839     38840     38839     38841     38840     38841     38842     38843
     38842     38844     38843     38844     38845     38846     38845     38847
     38846     38847     38848     38849     38848     38850     38849     38850
     38851     38852     38851     38853     38852     38853     38854     38855
     38854     38856     38855     38856     38857     38858     38857     38859
     38858     38859     38860     38861     38860     38862     38861     38862
     38863     38864     38863     38865     38864     38865     38866     38867
     38866     38868     38867     38868     38869     38870     38869     38871
     38870     38871     38872     38873     38872     38874     38873     38874
     38875     38876     38875     38877     38876     38877     38878     38879
     38878     38880     38879     38880     38881     38882     38881     38883
     38882     38883     38884     38885     38884     38886     38885     38886
     38887     38888     38887     38889     38888     38889     38890     38891
     38890     38892     38891     38892     38893     38894     38893     38895
     38894     38895     38896     38897     38896     38898     38897     38898
     38899     38900     38899     38901     38900     38901     38902     38903
     38902     38904     38903     38904     38905     38906     38905     38907
     38906     38907     38908     38909     38908     38910     38909     38910
     38911     38912     38911     38913     38912     38913     38914     38915
     38914     38916     38915     38916     38917     38918     38917     38919
     38918     38919     38920     38921     38920     38922     38921     38922
     38923     38924     38923     38925     38924     38925     38926     38927
     38926     38928     38927     38928     38929     38930     38929     38931
     38930     38931     38932     38933     38932     38934     38933     38934
     38935     38936     38935     38937     38936     38937     38938     38939
     38938     38940     38939     38940     38941     38942     38941     38943
     38942     38943     38944     38945     38944     38946     38945     38946
     38947     38948     38947     38949     38948     38949     38950     38951
     38950     38952     38951     38952     38953     38954     38953     38955
     38954     38955     38956     38957     38956     38958     38957     38958
     38959     38960     38959     38961     38960     38961     38962     38963
     38962     38964     38963     38964     38965     38966     38965     38967
     38966     38967     38968     38969     38968     38970     38969     38970
     38971     38972     38971     38973     38972     38973     38974     38975
     38974     38976     38975     38976     38977     38978     38977     38979
     38978     38979     38980     38981     38980     38982     38981     38982
     38983     38984     38983     38985     38984     38985     38986     38987
     38986     38988     38987     38988     38989     38990     38989     38991
     38990     38991     38992     38993     38992     38994     38993     38994
     38995     38996     38995     38997     38996     38997     38998     38999
     38998     39000     38999     39000     39001     39002     39001     39003
     39002     39003     39004     39005     39004     39006     39005     39006
     39007     39008     39007     39009     39008     39009     39010     39011
     39010     39012     39011     39012     39013     39014     39013     39015
     39014     39015     39016     39017     39016     39018     39017     39018
     39019     39020     39019     39021     39020     39021     39022     39023
     39022     39024     39023     39024     39025     39026     39025     39027
     39026     39027     39028     39029     39028     39030     39029     39030
     39031     39032     39031     39033     39032     39033     39034     39035
     39034     39036     39035     39036     39037     39038     39037     39039
     39038     39039     39040     39041     39040     39042     39041     39042
     39043     39044     39043     39045     39044     39045     39046     39047
     39046     39048     39047     39048     39049     39050     39049     39051
     39050     39051     39052     39053     39052     39054     39053     39054
     39055     39056     39055     39057     39056     39057     39058     39059
     39058     39060     39059     39060     39061     39062     39061     39063
     39062     39063     39064     39065     39064     39066     39065     39066
     39067     39068     39067     39069     39068     39069     39070     39071
     39070     39072     39071     39072     39073     39074     39073     39075
     39074     39075     39076     39077     39076     39078     39077     39078
     39079     39080     39079     39081     39080     39081     39082     39083
     39082     39084     39083     39084     39085     39086     39085     39087
     39086     39087     39088     39089     39088     39090     39089     39090
     39091     39092     39091     39093     39092     39093     39094     39095
     39094     39096     39095     39096     39097     39098     39097     39099
     39098     39099     39100     39101     39100     39102     39101     39102
     39103     39104     39103     39105     39104     39105     39106     39107
     39106     39108     39107     39108     39109     39110     39109     39111
     39110     39111     39112     39113     39112     39114     39113     39114
     39115     39116     39115     39117     39116     39117     39118     39119
     39118     39120     39119     39120     39121     39122     39121     39123
     39122     39123     39124     39125     39124     39126     39125     39126
     39127     39128     39127     39129     39128     39129     39130     39131
     39130     39132     39131     39132     39133     39134     39133     39135
     39134     39135     39136     39137     39136     39138     39137     39138
     39139     39140     39139     39141     39140     39141     39142     39143
     39142     39144     39143     39144     39145     39146     39145     39147
     39146     39147     39148     39149     39148     39150     39149     39150
     39151     39152     39151     39153     39152     39153     39154     39155
     39154     39156     39155     39156     39157     39158     39157     39159
     39158     39159     39160     39161     39160     39162     39161     39162
     39163     39164     39163     39165     39164     39165     39166     39167
     39166     39168     39167     39168     39169     39170     39169     39171
     39170     39171     39172     39173     39172     39174     39173     39174
     39175     39176     39175     39177     39176     39177     39178     39179
     39178     39180     39179     39180     39181     39182     39181     39183
     39182     39183     39184     39185     39184     39186     39185     39186
     39187     39188     39187     39189     39188     39189     39190     39191
     39190     39192     39191     39192     39193     39194     39193     39195
     39194     39195     39196     39197     39196     39198     39197     39198
     39199     39200     39199     39201     39200     39201     39202     39203
     39202     39204     39203     39204     39205     39206     39205     39207
     39206     39207     39208     39209     39208     39210     39209     39210
     39211     39212     39211     39213     39212     39213     39214     39215
     39214     39216     39215     39216     39217     39218     39217     39219
     39218     39219     39220     39221     39220     39222     39221     39222
     39223     39224     39223     39225     39224     39225     39226     39227
     39226     39228     39227     39228     39229     39230     39229     39231
     39230     39231     39232     39233     39232     39234     39233     39234
     39235     39236     39235     39237     39236     39237     39238     39239
     39238     39240     39239     39240     39241     39242     39241     39243
     39242     39243     39244     39245     39244     39246     39245     39246
     39247     39248     39247     39249     39248     39249     39250     39251
     39250     39252     39251     39252     39253     39254     39253     39255
     39254     39255     39256     39257     39256     39258     39257     39258
     39259     39260     39259     39261     39260     39261     39262     39263
     39262     39264     39263     39264     39265     39266     39265     39267
     39266     39267     39268     39269     39268     39270     39269     39270
     39271     39272     39271     39273     39272     39273     39274     39275
     39274     39276     39275     39276     39277     39278     39277     39279
     39278     39279     39280     39281     39280     39282     39281     39282
     39283     39284     39283     39285     39284     39285     39286     39287
     39286     39288     39287     39288     39289     39290     39289     39291
     39290     39291     39292     39293     39292     39294     39293     39294
     39295     39296     39295     39297     39296     39297     39298     39299
     39298     39300     39299     39300     39301     39302     39301     39303
     39302     39303     39304     39305     39304     39306     39305     39306
     39307     39308     39307     39309     39308     39309     39310     39311
     39310     39312     39311     39312     39313     39314     39313     39315
     39314     39315     39316     39317     39316     39318     39317     39318
     39319     39320     39319     39321     39320     39321     39322     39323
     39322     39324     39323     39324     39325     39326     39325     39327
     39326     39327     39328     39329     39328     39330     39329     39330
     39331     39332     39331     39333     39332     39333     39334     39335
     39334     39336     39335     39336     39337     39338     39337     39339
     39338     39339     39340     39341     39340     39342     39341     39342
     39343     39344     39343     39345     39344     39345     39346     39347
     39346     39348     39347     39348     39349     39350     39349     39351
     39350     39351     39352     39353     39352     39354     39353     39354
     39355     39356     39355     39357     39356     39357     39358     39359
     39358     39360     39359     39360     39361     39362     39361     39363
     39362     39363     39364     39365     39364     39366     39365     39366
     39367     39368     39367     39369     39368     39369     39370     39371
     39370     39372     39371     39372     39373     39374     39373     39375
     39374     39375     39376     39377     39376     39378     39377     39378
     39379     39380     39379     39381     39380     39381     39382     39383
     39382     39384     39383     39384     39385     39386     39385     39387
     39386     39387     39388     39389     39388     39390     39389     39390
     39391     39392     39391     39393     39392     39393     39394     39395
     39394     39396     39395     39396     39397     39398     39397     39399
     39398     39399     39400     39401     39400     39402     39401     39402
     39403     39404     39403     39405     39404     39405     39406     39407
     39406     39408     39407     39408     39409     39410     39409     39411
     39410     39411     39412     39413     39412     39414     39413     39414
     39415     39416     39415     39417     39416     39417     39418     39419
     39418     39420     39419     39420     39421     39422     39421     39423
     39422     39423     39424     39425     39424     39426     39425     39426
     39427     39428     39427     39429     39428     39429     39430     39431
     39430     39432     39431     39432     39433     39434     39433     39435
     39434     39435     39436     39437     39436     39438     39437     39438
     39439     39440     39439     39441     39440     39441     39442     39443
     39442     39444     39443     39444     39445     39446     39445     39447
     39446     39447     39448     39449     39448     39450     39449     39450
     39451     39452     39451     39453     39452     39453     39454     39455
     39454     39456     39455     39456     39457     39458     39457     39459
     39458     39459     39460     39461     39460     39462     39461     39462
     39463     39464     39463     39465     39464     39465     39466     39467
     39466     39468     39467     39468     39469     39470     39469     39471
     39470     39471     39472     39473     39472     39474     39473     39474
     39475     39476     39475     39477     39476     39477     39478     39479
     39478     39480     39479     39480     39481     39482     39481     39483
     39482     39483     39484     39485     39484     39486     39485     39486
     39487     39488     39487     39489     39488     39489     39490     39491
     39490     39492     39491     39492     39493     39494     39493     39495
     39494     39495     39496     39497     39496     39498     39497     39498
     39499     39500     39499     39501     39500     39501     39502     39503
     39502     39504     39503     39504     39505     39506     39505     39507
     39506     39507     39508     39509     39508     39510     39509     39510
     39511     39512     39511     39513     39512     39513     39514     39515
     39514     39516     39515     39516     39517     39518     39517     39519
     39518     39519     39520     39521     39520     39522     39521     39522
     39523     39524     39523     39525     39524     39525     39526     39527
     39526     39528     39527     39528     39529     39530     39529     39531
     39530     39531     39532     39533     39532     39534     39533     39534
     39535     39536     39535     39537     39536     39537     39538     39539
     39538     39540     39539     39540     39541     39542     39541     39543
     39542     39543     39544     39545     39544     39546     39545     39546
     39547     39548     39547     39549     39548     39549     39550     39551
     39550     39552     39551     39552     39553     39554     39553     39555
     39554     39555     39556     39557     39556     39558     39557     39558
     39559     39560     39559     39561     39560     39561     39562     39563
     39562     39564     39563     39564     39565     39566     39565     39567
     39566     39567     39568     39569     39568     39570     39569     39570
     39571     39572     39571     39573     39572     39573     39574     39575
     39574     39576     39575     39576     39577     39578     39577     39579
     39578     39579     39580     39581     39580     39582     39581     39582
     39583     39584     39583     39585     39584     39585     39586     39587
     39586     39588     39587     39588     39589     39590     39589     39591
     39590     39591     39592     39593     39592     39594     39593     39594
     39595     39596     39595     39597     39596     39597     39598     39599
     39598     39600     39599     39600     39601     39602     39601     39603
     39602     39603     39604     39605     39604     39606     39605     39606
     39607     39608     39607     39609     39608     39609     39610     39611
     39610     39612     39611     39612     39613     39614     39613     39615
     39614     39615     39616     39617     39616     39618     39617     39618
     39619     39620     39619     39621     39620     39621     39622     39623
     39622     39624     39623     39624     39625     39626     39625     39627
     39626     39627     39628     39629     39628     39630     39629     39630
     39631     39632     39631     39633     39632     39633     39634     39635
     39634     39636     39635     39636     39637     39638     39637     39639
     39638     39639     39640     39641     39640     39642     39641     39642
     39643     39644     39643     39645     39644     39645     39646     39647
     39646     39648     39647     39648     39649     39650     39649     39651
     39650     39651     39652     39653     39652     39654     39653     39654
     39655     39656     39655     39657     39656     39657     39658     39659
     39658     39660     39659     39660     39661     39662     39661     39663
     39662     39663     39664     39665     39664     39666     39665     39666
     39667     39668     39667     39669     39668     39669     39670     39671
     39670     39672     39671     39672     39673     39674     39673     39675
     39674     39675     39676     39677     39676     39678     39677     39678
     39679     39680     39679     39681     39680     39681     39682     39683
     39682     39684     39683     39684     39685     39686     39685     39687
     39686     39687     39688     39689     39688     39690     39689     39690
     39691     39692     39691     39693     39692     39693     39694     39695
     39694     39696     39695     39696     39697     39698     39697     39699
     39698     39699     39700     39701     39700     39702     39701     39702
     39703     39704     39703     39705     39704     39705     39706     39707
     39706     39708     39707     39708     39709     39710     39709     39711
     39710     39711     39712     39713     39712     39714     39713     39714
     39715     39716     39715     39717     39716     39717     39718     39719
     39718     39720     39719     39720     39721     39722     39721     39723
     39722     39723     39724     39725     39724     39726     39725     39726
     39727     39728     39727     39729     39728     39729     39730     39731
     39730     39732     39731     39732     39733     39734     39733     39735
     39734     39735     39736     39737     39736     39738     39737     39738
     39739     39740     39739     39741     39740     39741     39742     39743
     39742     39744     39743     39744     39745     39746     39745     39747
     39746     39747     39748     39749     39748     39750     39749     39750
     39751     39752     39751     39753     39752     39753     39754     39755
     39754     39756     39755     39756     39757     39758     39757     39759
     39758     39759     39760     39761     39760     39762     39761     39762
     39763     39764     39763     39765     39764     39765     39766     39767
     39766     39768     39767     39768     39769     39770     39769     39771
     39770     39771     39772     39773     39772     39774     39773     39774
     39775     39776     39775     39777     39776     39777     39778     39779
     39778     39780     39779     39780     39781     39782     39781     39783
     39782     39783     39784     39785     39784     39786     39785     39786
     39787     39788     39787     39789     39788     39789     39790     39791
     39790     39792     39791     39792     39793     39794     39793     39795
     39794     39795     39796     39797     39796     39798     39797     39798
     39799     39800     39799     39801     39800     39801     39802     39803
     39802     39804     39803     39804     39805     39806     39805     39807
     39806     39807     39808     39809     39808     39810     39809     39810
     39811     39812     39811     39813     39812     39813     39814     39815
     39814     39816     39815     39816     39817     39818     39817     39819
     39818     39819     39820     39821     39820     39822     39821     39822
     39823     39824     39823     39825     39824     39825     39826     39827
     39826     39828     39827     39828     39829     39830     39829     39831
     39830     39831     39832     39833     39832     39834     39833     39834
     39835     39836     39835     39837     39836     39837     39838     39839
     39838     39840     39839     39840     39841     39842     39841     39843
     39842     39843     39844     39845     39844     39846     39845     39846
     39847     39848     39847     39849     39848     39849     39850     39851
     39850     39852     39851     39852     39853     39854     39853     39855
     39854     39855     39856     39857     39856     39858     39857     39858
     39859     39860     39859     39861     39860     39861     39862     39863
     39862     39864     39863     39864     39865     39866     39865     39867
     39866     39867     39868     39869     39868     39870     39869     39870
     39871     39872     39871     39873     39872     39873     39874     39875
     39874     39876     39875     39876     39877     39878     39877     39879
     39878     39879     39880     39881     39880     39882     39881     39882
     39883     39884     39883     39885     39884     39885     39886     39887
     39886     39888     39887     39888     39889     39890     39889     39891
     39890     39891     39892     39893     39892     39894     39893     39894
     39895     39896     39895     39897     39896     39897     39898     39899
     39898     39900     39899     39900     39901     39902     39901     39903
     39902     39903     39904     39905     39904     39906     39905     39906
     39907     39908     39907     39909     39908     39909     39910     39911
     39910     39912     39911     39912     39913     39914     39913     39915
     39914     39915     39916     39917     39916     39918     39917     39918
     39919     39920     39919     39921     39920     39921     39922     39923
     39922     39924     39923     39924     39925     39926     39925     39927
     39926     39927     39928     39929     39928     39930     39929     39930
     39931     39932     39931     39933     39932     39933     39934     39935
     39934     39936     39935     39936     39937     39938     39937     39939
     39938     39939     39940     39941     39940     39942     39941     39942
     39943     39944     39943     39945     39944     39945     39946     39947
     39946     39948     39947     39948     39949     39950     39949     39951
     39950     39951     39952     39953     39952     39954     39953     39954
     39955     39956     39955     39957     39956     39957     39958     39959
     39958     39960     39959     39960     39961     39962     39961     39963
     39962     39963     39964     39965     39964     39966     39965     39966
     39967     39968     39967     39969     39968     39969     39970     39971
     39970     39972     39971     39972     39973     39974     39973     39975
     39974     39975     39976     39977     39976     39978     39977     39978
     39979     39980     39979     39981     39980     39981     39982     39983
     39982     39984     39983     39984     39985     39986     39985     39987
     39986     39987     39988     39989     39988     39990     39989     39990
     39991     39992     39991     39993     39992     39993     39994     39995
     39994     39996     39995     39996     39997     39998     39997     39999
     39998     39999     40000     40001     40000     40002     40001     40002
     40003     40004     40003     40005     40004     40005     40006     40007
     40006     40008     40007     40008     40009     40010     40009     40011
     40010     40011     40012     40013     40012     40014     40013     40014
     40015     40016     40015     40017     40016     40017     40018     40019
     40018     40020     40019     40020     40021     40022     40021     40023
     40022     40023     40024     40025     40024     40026     40025     40026
     40027     40028     40027     40029     40028     40029     40030     40031
     40030     40032     40031     40032     40033     40034     40033     40035
     40034     40035     40036     40037     40036     40038     40037     40038
     40039     40040     40039     40041     40040     40041     40042     40043
     40042     40044     40043     40044     40045     40046     40045     40047
     40046     40047     40048     40049     40048     40050     40049     40050
     40051     40052     40051     40053     40052     40053     40054     40055
     40054     40056     40055     40056     40057     40058     40057     40059
     40058     40059     40060     40061     40060     40062     40061     40062
     40063     40064     40063     40065     40064     40065     40066     40067
     40066     40068     40067     40068     40069     40070     40069     40071
     40070     40071     40072     40073     40072     40074     40073     40074
     40075     40076     40075     40077     40076     40077     40078     40079
     40078     40080     40079     40080     40081     40082     40081     40083
     40082     40083     40084     40085     40084     40086     40085     40086
     40087     40088     40087     40089     40088     40089     40090     40091
     40090     40092     40091     40092     40093     40094     40093     40095
     40094     40095     40096     40097     40096     40098     40097     40098
     40099     40100     40099     40101     40100     40101     40102     40103
     40102     40104     40103     40104     40105     40106     40105     40107
     40106     40107     40108     40109     40108     40110     40109     40110
     40111     40112     40111     40113     40112     40113     40114     40115
     40114     40116     40115     40116     40117     40118     40117     40119
     40118     40119     40120     40121     40120     40122     40121     40122
     40123     40124     40123     40125     40124     40125     40126     40127
     40126     40128     40127     40128     40129     40130     40129     40131
     40130     40131     40132     40133     40132     40134     40133     40134
     40135     40136     40135     40137     40136     40137     40138     40139
     40138     40140     40139     40140     40141     40142     40141     40143
     40142     40143     40144     40145     40144     40146     40145     40146
     40147     40148     40147     40149     40148     40149     40150     40151
     40150     40152     40151     40152     40153     40154     40153     40155
     40154     40155     40156     40157     40156     40158     40157     40158
     40159     40160     40159     40161     40160     40161     40162     40163
     40162     40164     40163     40164     40165     40166     40165     40167
     40166     40167     40168     40169     40168     40170     40169     40170
     40171     40172     40171     40173     40172     40173     40174     40175
     40174     40176     40175     40176     40177     40178     40177     40179
     40178     40179     40180     40181     40180     40182     40181     40182
     40183     40184     40183     40185     40184     40185     40186     40187
     40186     40188     40187     40188     40189     40190     40189     40191
     40190     40191     40192     40193     40192     40194     40193     40194
     40195     40196     40195     40197     40196     40197     40198     40199
     40198     40200     40199     40200     40201     40202     40201     40203
     40202     40203     40204     40205     40204     40206     40205     40206
     40207     40208     40207     40209     40208     40209     40210     40211
     40210     40212     40211     40212     40213     40214     40213     40215
     40214     40215     40216     40217     40216     40218     40217     40218
     40219     40220     40219     40221     40220     40221     40222     40223
     40222     40224     40223     40224     40225     40226     40225     40227
     40226     40227     40228     40229     40228     40230     40229     40230
     40231     40232     40231     40233     40232     40233     40234     40235
     40234     40236     40235     40236     40237     40238     40237     40239
     40238     40239     40240     40241     40240     40242     40241     40242
     40243     40244     40243     40245     40244     40245     40246     40247
     40246     40248     40247     40248     40249     40250     40249     40251
     40250     40251     40252     40253     40252     40254     40253     40254
     40255     40256     40255     40257     40256     40257     40258     40259
     40258     40260     40259     40260     40261     40262     40261     40263
     40262     40263     40264     40265     40264     40266     40265     40266
     40267     40268     40267     40269     40268     40269     40270     40271
     40270     40272     40271     40272     40273     40274     40273     40275
     40274     40275     40276     40277     40276     40278     40277     40278
     40279     40280     40279     40281     40280     40281     40282     40283
     40282     40284     40283     40284     40285     40286     40285     40287
     40286     40287     40288     40289     40288     40290     40289     40290
     40291     40292     40291     40293     40292     40293     40294     40295
     40294     40296     40295     40296     40297     40298     40297     40299
     40298     40299     40300     40301     40300     40302     40301     40302
     40303     40304     40303     40305     40304     40305     40306     40307
     40306     40308     40307     40308     40309     40310     40309     40311
     40310     40311     40312     40313     40312     40314     40313     40314
     40315     40316     40315     40317     40316     40317     40318     40319
     40318     40320     40319     40320     40321     40322     40321     40323
     40322     40323     40324     40325     40324     40326     40325     40326
     40327     40328     40327     40329     40328     40329     40330     40331
     40330     40332     40331     40332     40333     40334     40333     40335
     40334     40335     40336     40337     40336     40338     40337     40338
     40339     40340     40339     40341     40340     40341     40342     40343
     40342     40344     40343     40344     40345     40346     40345     40347
     40346     40347     40348     40349     40348     40350     40349     40350
     40351     40352     40351     40353     40352     40353     40354     40355
     40354     40356     40355     40356     40357     40358     40357     40359
     40358     40359     40360     40361     40360     40362     40361     40362
     40363     40364     40363     40365     40364     40365     40366     40367
     40366     40368     40367     40368     40369     40370     40369     40371
     40370     40371     40372     40373     40372     40374     40373     40374
     40375     40376     40375     40377     40376     40377     40378     40379
     40378     40380     40379     40380     40381     40382     40381     40383
     40382     40383     40384     40385     40384     40386     40385     40386
     40387     40388     40387     40389     40388     40389     40390     40391
     40390     40392     40391     40392     40393     40394     40393     40395
     40394     40395     40396     40397     40396     40398     40397     40398
     40399     40400     40399     40401     40400     40401     40402     40403
     40402     40404     40403     40404     40405     40406     40405     40407
     40406     40407     40408     40409     40408     40410     40409     40410
     40411     40412     40411     40413     40412     40413     40414     40415
     40414     40416     40415     40416     40417     40418     40417     40419
     40418     40419     40420     40421     40420     40422     40421     40422
     40423     40424     40423     40425     40424     40425     40426     40427
     40426     40428     40427     40428     40429     40430     40429     40431
     40430     40431     40432     40433     40432     40434     40433     40434
     40435     40436     40435     40437     40436     40437     40438     40439
     40438     40440     40439     40440     40441     40442     40441     40443
     40442     40443     40444     40445     40444     40446     40445     40446
     40447     40448     40447     40449     40448     40449     40450     40451
     40450     40452     40451     40452     40453     40454     40453     40455
     40454     40455     40456     40457     40456     40458     40457     40458
     40459     40460     40459     40461     40460     40461     40462     40463
     40462     40464     40463     40464     40465     40466     40465     40467
     40466     40467     40468     40469     40468     40470     40469     40470
     40471     40472     40471     40473     40472     40473     40474     40475
     40474     40476     40475     40476     40477     40478     40477     40479
     40478     40479     40480     40481     40480     40482     40481     40482
     40483     40484     40483     40485     40484     40485     40486     40487
     40486     40488     40487     40488     40489     40490     40489     40491
     40490     40491     40492     40493     40492     40494     40493     40494
     40495     40496     40495     40497     40496     40497     40498     40499
     40498     40500     40499     40500     40501     40502     40501     40503
     40502     40503     40504     40505     40504     40506     40505     40506
     40507     40508     40507     40509     40508     40509     40510     40511
     40510     40512     40511     40512     40513     40514     40513     40515
     40514     40515     40516     40517     40516     40518     40517     40518
     40519     40520     40519     40521     40520     40521     40522     40523
     40522     40524     40523     40524     40525     40526     40525     40527
     40526     40527     40528     40529     40528     40530     40529     40530
     40531     40532     40531     40533     40532     40533     40534     40535
     40534     40536     40535     40536     40537     40538     40537     40539
     40538     40539     40540     40541     40540     40542     40541     40542
     40543     40544     40543     40545     40544     40545     40546     40547
     40546     40548     40547     40548     40549     40550     40549     40551
     40550     40551     40552     40553     40552     40554     40553     40554
     40555     40556     40555     40557     40556     40557     40558     40559
     40558     40560     40559     40560     40561     40562     40561     40563
     40562     40563     40564     40565     40564     40566     40565     40566
     40567     40568     40567     40569     40568     40569     40570     40571
     40570     40572     40571     40572     40573     40574     40573     40575
     40574     40575     40576     40577     40576     40578     40577     40578
     40579     40580     40579     40581     40580     40581     40582     40583
     40582     40584     40583     40584     40585     40586     40585     40587
     40586     40587     40588     40589     40588     40590     40589     40590
     40591     40592     40591     40593     40592     40593     40594     40595
     40594     40596     40595     40596     40597     40598     40597     40599
     40598     40599     40600     40601     40600     40602     40601     40602
     40603     40604     40603     40605     40604     40605     40606     40607
     40606     40608     40607     40608     40609     40610     40609     40611
     40610     40611     40612     40613     40612     40614     40613     40614
     40615     40616     40615     40617     40616     40617     40618     40619
     40618     40620     40619     40620     40621     40622     40621     40623
     40622     40623     40624     40625     40624     40626     40625     40626
     40627     40628     40627     40629     40628     40629     40630     40631
     40630     40632     40631     40632     40633     40634     40633     40635
     40634     40635     40636     40637     40636     40638     40637     40638
     40639     40640     40639     40641     40640     40641     40642     40643
     40642     40644     40643     40644     40645     40646     40645     40647
     40646     40647     40648     40649     40648     40650     40649     40650
     40651     40652     40651     40653     40652     40653     40654     40655
     40654     40656     40655     40656     40657     40658     40657     40659
     40658     40659     40660     40661     40660     40662     40661     40662
     40663     40664     40663     40665     40664     40665     40666     40667
     40666     40668     40667     40668     40669     40670     40669     40671
     40670     40671     40672     40673     40672     40674     40673     40674
     40675     40676     40675     40677     40676     40677     40678     40679
     40678     40680     40679     40680     40681     40682     40681     40683
     40682     40683     40684     40685     40684     40686     40685     40686
     40687     40688     40687     40689     40688     40689     40690     40691
     40690     40692     40691     40692     40693     40694     40693     40695
     40694     40695     40696     40697     40696     40698     40697     40698
     40699     40700     40699     40701     40700     40701     40702     40703
     40702     40704     40703     40704     40705     40706     40705     40707
     40706     40707     40708     40709     40708     40710     40709     40710
     40711     40712     40711     40713     40712     40713     40714     40715
     40714     40716     40715     40716     40717     40718     40717     40719
     40718     40719     40720     40721     40720     40722     40721     40722
     40723     40724     40723     40725     40724     40725     40726     40727
     40726     40728     40727     40728     40729     40730     40729     40731
     40730     40731     40732     40733     40732     40734     40733     40734
     40735     40736     40735     40737     40736     40737     40738     40739
     40738     40740     40739     40740     40741     40742     40741     40743
     40742     40743     40744     40745     40744     40746     40745     40746
     40747     40748     40747     40749     40748     40749     40750     40751
     40750     40752     40751     40752     40753     40754     40753     40755
     40754     40755     40756     40757     40756     40758     40757     40758
     40759     40760     40759     40761     40760     40761     40762     40763
     40762     40764     40763     40764     40765     40766     40765     40767
     40766     40767     40768     40769     40768     40770     40769     40770
     40771     40772     40771     40773     40772     40773     40774     40775
     40774     40776     40775     40776     40777     40778     40777     40779
     40778     40779     40780     40781     40780     40782     40781     40782
     40783     40784     40783     40785     40784     40785     40786     40787
     40786     40788     40787     40788     40789     40790     40789     40791
     40790     40791     40792     40793     40792     40794     40793     40794
     40795     40796     40795     40797     40796     40797     40798     40799
     40798     40800     40799     40800     40801     40802     40801     40803
     40802     40803     40804     40805     40804     40806     40805     40806
     40807     40808     40807     40809     40808     40809     40810     40811
     40810     40812     40811     40812     40813     40814     40813     40815
     40814     40815     40816     40817     40816     40818     40817     40818
     40819     40820     40819     40821     40820     40821     40822     40823
     40822     40824     40823     40824     40825     40826     40825     40827
     40826     40827     40828     40829     40828     40830     40829     40830
     40831     40832     40831     40833     40832     40833     40834     40835
     40834     40836     40835     40836     40837     40838     40837     40839
     40838     40839     40840     40841     40840     40842     40841     40842
     40843     40844     40843     40845     40844     40845     40846     40847
     40846     40848     40847     40848     40849     40850     40849     40851
     40850     40851     40852     40853     40852     40854     40853     40854
     40855     40856     40855     40857     40856     40857     40858     40859
     40858     40860     40859     40860     40861     40862     40861     40863
     40862     40863     40864     40865     40864     40866     40865     40866
     40867     40868     40867     40869     40868     40869     40870     40871
     40870     40872     40871     40872     40873     40874     40873     40875
     40874     40875     40876     40877     40876     40878     40877     40878
     40879     40880     40879     40881     40880     40881     40882     40883
     40882     40884     40883     40884     40885     40886     40885     40887
     40886     40887     40888     40889     40888     40890     40889     40890
     40891     40892     40891     40893     40892     40893     40894     40895
     40894     40896     40895     40896     40897     40898     40897     40899
     40898     40899     40900     40901     40900     40902     40901     40902
     40903     40904     40903     40905     40904     40905     40906     40907
     40906     40908     40907     40908     40909     40910     40909     40911
     40910     40911     40912     40913     40912     40914     40913     40914
     40915     40916     40915     40917     40916     40917     40918     40919
     40918     40920     40919     40920     40921     40922     40921     40923
     40922     40923     40924     40925     40924     40926     40925     40926
     40927     40928     40927     40929     40928     40929     40930     40931
     40930     40932     40931     40932     40933     40934     40933     40935
     40934     40935     40936     40937     40936     40938     40937     40938
     40939     40940     40939     40941     40940     40941     40942     40943
     40942     40944     40943     40944     40945     40946     40945     40947
     40946     40947     40948     40949     40948     40950     40949     40950
     40951     40952     40951     40953     40952     40953     40954     40955
     40954     40956     40955     40956     40957     40958     40957     40959
     40958     40959     40960     40961     40960     40962     40961     40962
     40963     40964     40963     40965     40964     40965     40966     40967
     40966     40968     40967     40968     40969     40970     40969     40971
     40970     40971     40972     40973     40972     40974     40973     40974
     40975     40976     40975     40977     40976     40977     40978     40979
     40978     40980     40979     40980     40981     40982     40981     40983
     40982     40983     40984     40985     40984     40986     40985     40986
     40987     40988     40987     40989     40988     40989     40990     40991
     40990     40992     40991     40992     40993     40994     40993     40995
     40994     40995     40996     40997     40996     40998     40997     40998
     40999     41000     40999     41001     41000     41001     41002     41003
     41002     41004     41003     41004     41005     41006     41005     41007
     41006     41007     41008     41009     41008     41010     41009     41010
     41011     41012     41011     41013     41012     41013     41014     41015
     41014     41016     41015     41016     41017     41018     41017     41019
     41018     41019     41020     41021     41020     41022     41021     41022
     41023     41024     41023     41025     41024     41025     41026     41027
     41026     41028     41027     41028     41029     41030     41029     41031
     41030     41031     41032     41033     41032     41034     41033     41034
     41035     41036     41035     41037     41036     41037     41038     41039
     41038     41040     41039     41040     41041     41042     41041     41043
     41042     41043     41044     41045     41044     41046     41045     41046
     41047     41048     41047     41049     41048     41049     41050     41051
     41050     41052     41051     41052     41053     41054     41053     41055
     41054     41055     41056     41057     41056     41058     41057     41058
     41059     41060     41059     41061     41060     41061     41062     41063
     41062     41064     41063     41064     41065     41066     41065     41067
     41066     41067     41068     41069     41068     41070     41069     41070
     41071     41072     41071     41073     41072     41073     41074     41075
     41074     41076     41075     41076     41077     41078     41077     41079
     41078     41079     41080     41081     41080     41082     41081     41082
     41083     41084     41083     41085     41084     41085     41086     41087
     41086     41088     41087     41088     41089     41090     41089     41091
     41090     41091     41092     41093     41092     41094     41093     41094
     41095     41096     41095     41097     41096     41097     41098     41099
     41098     41100     41099     41100     41101     41102     41101     41103
     41102     41103     41104     41105     41104     41106     41105     41106
     41107     41108     41107     41109     41108     41109     41110     41111
     41110     41112     41111     41112     41113     41114     41113     41115
     41114     41115     41116     41117     41116     41118     41117     41118
     41119     41120     41119     41121     41120     41121     41122     41123
     41122     41124     41123     41124     41125     41126     41125     41127
     41126     41127     41128     41129     41128     41130     41129     41130
     41131     41132     41131     41133     41132     41133     41134     41135
     41134     41136     41135     41136     41137     41138     41137     41139
     41138     41139     41140     41141     41140     41142     41141     41142
     41143     41144     41143     41145     41144     41145     41146     41147
     41146     41148     41147     41148     41149     41150     41149     41151
     41150     41151     41152     41153     41152     41154     41153     41154
     41155     41156     41155     41157     41156     41157     41158     41159
     41158     41160     41159     41160     41161     41162     41161     41163
     41162     41163     41164     41165     41164     41166     41165     41166
     41167     41168     41167     41169     41168     41169     41170     41171
     41170     41172     41171     41172     41173     41174     41173     41175
     41174     41175     41176     41177     41176     41178     41177     41178
     41179     41180     41179     41181     41180     41181     41182     41183
     41182     41184     41183     41184     41185     41186     41185     41187
     41186     41187     41188     41189     41188     41190     41189     41190
     41191     41192     41191     41193     41192     41193     41194     41195
     41194     41196     41195     41196     41197     41198     41197     41199
     41198     41199     41200     41201     41200     41202     41201     41202
     41203     41204     41203     41205     41204     41205     41206     41207
     41206     41208     41207     41208     41209     41210     41209     41211
     41210     41211     41212     41213     41212     41214     41213     41214
     41215     41216     41215     41217     41216     41217     41218     41219
     41218     41220     41219     41220     41221     41222     41221     41223
     41222     41223     41224     41225     41224     41226     41225     41226
     41227     41228     41227     41229     41228     41229     41230     41231
     41230     41232     41231     41232     41233     41234     41233     41235
     41234     41235     41236     41237     41236     41238     41237     41238
     41239     41240     41239     41241     41240     41241     41242     41243
     41242     41244     41243     41244     41245     41246     41245     41247
     41246     41247     41248     41249     41248     41250     41249     41250
     41251     41252     41251     41253     41252     41253     41254     41255
     41254     41256     41255     41256     41257     41258     41257     41259
     41258     41259     41260     41261     41260     41262     41261     41262
     41263     41264     41263     41265     41264     41265     41266     41267
     41266     41268     41267     41268     41269     41270     41269     41271
     41270     41271     41272     41273     41272     41274     41273     41274
     41275     41276     41275     41277     41276     41277     41278     41279
     41278     41280     41279     41280     41281     41282     41281     41283
     41282     41283     41284     41285     41284     41286     41285     41286
     41287     41288     41287     41289     41288     41289     41290     41291
     41290     41292     41291     41292     41293     41294     41293     41295
     41294     41295     41296     41297     41296     41298     41297     41298
     41299     41300     41299     41301     41300     41301     41302     41303
     41302     41304     41303     41304     41305     41306     41305     41307
     41306     41307     41308     41309     41308     41310     41309     41310
     41311     41312     41311     41313     41312     41313     41314     41315
     41314     41316     41315     41316     41317     41318     41317     41319
     41318     41319     41320     41321     41320     41322     41321     41322
     41323     41324     41323     41325     41324     41325     41326     41327
     41326     41328     41327     41328     41329     41330     41329     41331
     41330     41331     41332     41333     41332     41334     41333     41334
     41335     41336     41335     41337     41336     41337     41338     41339
     41338     41340     41339     41340     41341     41342     41341     41343
     41342     41343     41344     41345     41344     41346     41345     41346
     41347     41348     41347     41349     41348     41349     41350     41351
     41350     41352     41351     41352     41353     41354     41353     41355
     41354     41355     41356     41357     41356     41358     41357     41358
     41359     41360     41359     41361     41360     41361     41362     41363
     41362     41364     41363     41364     41365     41366     41365     41367
     41366     41367     41368     41369     41368     41370     41369     41370
     41371     41372     41371     41373     41372     41373     41374     41375
     41374     41376     41375     41376     41377     41378     41377     41379
     41378     41379     41380     41381     41380     41382     41381     41382
     41383     41384     41383     41385     41384     41385     41386     41387
     41386     41388     41387     41388     41389     41390     41389     41391
     41390     41391     41392     41393     41392     41394     41393     41394
     41395     41396     41395     41397     41396     41397     41398     41399
     41398     41400     41399     41400     41401     41402     41401     41403
     41402     41403     41404     41405     41404     41406     41405     41406
     41407     41408     41407     41409     41408     41409     41410     41411
     41410     41412     41411     41412     41413     41414     41413     41415
     41414     41415     41416     41417     41416     41418     41417     41418
     41419     41420     41419     41421     41420     41421     41422     41423
     41422     41424     41423     41424     41425     41426     41425     41427
     41426     41427     41428     41429     41428     41430     41429     41430
     41431     41432     41431     41433     41432     41433     41434     41435
     41434     41436     41435     41436     41437     41438     41437     41439
     41438     41439     41440     41441     41440     41442     41441     41442
     41443     41444     41443     41445     41444     41445     41446     41447
     41446     41448     41447     41448     41449     41450     41449     41451
     41450     41451     41452     41453     41452     41454     41453     41454
     41455     41456     41455     41457     41456     41457     41458     41459
     41458     41460     41459     41460     41461     41462     41461     41463
     41462     41463     41464     41465     41464     41466     41465     41466
     41467     41468     41467     41469     41468     41469     41470     41471
     41470     41472     41471     41472     41473     41474     41473     41475
     41474     41475     41476     41477     41476     41478     41477     41478
     41479     41480     41479     41481     41480     41481     41482     41483
     41482     41484     41483     41484     41485     41486     41485     41487
     41486     41487     41488     41489     41488     41490     41489     41490
     41491     41492     41491     41493     41492     41493     41494     41495
     41494     41496     41495     41496     41497     41498     41497     41499
     41498     41499     41500     41501     41500     41502     41501     41502
     41503     41504     41503     41505     41504     41505     41506     41507
     41506     41508     41507     41508     41509     41510     41509     41511
     41510     41511     41512     41513     41512     41514     41513     41514
     41515     41516     41515     41517     41516     41517     41518     41519
     41518     41520     41519     41520     41521     41522     41521     41523
     41522     41523     41524     41525     41524     41526     41525     41526
     41527     41528     41527     41529     41528     41529     41530     41531
     41530     41532     41531     41532     41533     41534     41533     41535
     41534     41535     41536     41537     41536     41538     41537     41538
     41539     41540     41539     41541     41540     41541     41542     41543
     41542     41544     41543     41544     41545     41546     41545     41547
     41546     41547     41548     41549     41548     41550     41549     41550
     41551     41552     41551     41553     41552     41553     41554     41555
     41554     41556     41555     41556     41557     41558     41557     41559
     41558     41559     41560     41561     41560     41562     41561     41562
     41563     41564     41563     41565     41564     41565     41566     41567
     41566     41568     41567     41568     41569     41570     41569     41571
     41570     41571     41572     41573     41572     41574     41573     41574
     41575     41576     41575     41577     41576     41577     41578     41579
     41578     41580     41579     41580     41581     41582     41581     41583
     41582     41583     41584     41585     41584     41586     41585     41586
     41587     41588     41587     41589     41588     41589     41590     41591
     41590     41592     41591     41592     41593     41594     41593     41595
     41594     41595     41596     41597     41596     41598     41597     41598
     41599     41600     41599     41601     41600     41601     41602     41603
     41602     41604     41603     41604     41605     41606     41605     41607
     41606     41607     41608     41609     41608     41610     41609     41610
     41611     41612     41611     41613     41612     41613     41614     41615
     41614     41616     41615     41616     41617     41618     41617     41619
     41618     41619     41620     41621     41620     41622     41621     41622
     41623     41624     41623     41625     41624     41625     41626     41627
     41626     41628     41627     41628     41629     41630     41629     41631
     41630     41631     41632     41633     41632     41634     41633     41634
     41635     41636     41635     41637     41636     41637     41638     41639
     41638     41640     41639     41640     41641     41642     41641     41643
     41642     41643     41644     41645     41644     41646     41645     41646
     41647     41648     41647     41649     41648     41649     41650     41651
     41650     41652     41651     41652     41653     41654     41653     41655
     41654     41655     41656     41657     41656     41658     41657     41658
     41659     41660     41659     41661     41660     41661     41662     41663
     41662     41664     41663     41664     41665     41666     41665     41667
     41666     41667     41668     41669     41668     41670     41669     41670
     41671     41672     41671     41673     41672     41673     41674     41675
     41674     41676     41675     41676     41677     41678     41677     41679
     41678     41679     41680     41681     41680     41682     41681     41682
     41683     41684     41683     41685     41684     41685     41686     41687
     41686     41688     41687     41688     41689     41690     41689     41691
     41690     41691     41692     41693     41692     41694     41693     41694
     41695     41696     41695     41697     41696     41697     41698     41699
     41698     41700     41699     41700     41701     41702     41701     41703
     41702     41703     41704     41705     41704     41706     41705     41706
     41707     41708     41707     41709     41708     41709     41710     41711
     41710     41712     41711     41712     41713     41714     41713     41715
     41714     41715     41716     41717     41716     41718     41717     41718
     41719     41720     41719     41721     41720     41721     41722     41723
     41722     41724     41723     41724     41725     41726     41725     41727
     41726     41727     41728     41729     41728     41730     41729     41730
     41731     41732     41731     41733     41732     41733     41734     41735
     41734     41736     41735     41736     41737     41738     41737     41739
     41738     41739     41740     41741     41740     41742     41741     41742
     41743     41744     41743     41745     41744     41745     41746     41747
     41746     41748     41747     41748     41749     41750     41749     41751
     41750     41751     41752     41753     41752     41754     41753     41754
     41755     41756     41755     41757     41756     41757     41758     41759
     41758     41760     41759     41760     41761     41762     41761     41763
     41762     41763     41764     41765     41764     41766     41765     41766
     41767     41768     41767     41769     41768     41769     41770     41771
     41770     41772     41771     41772     41773     41774     41773     41775
     41774     41775     41776     41777     41776     41778     41777     41778
     41779     41780     41779     41781     41780     41781     41782     41783
     41782     41784     41783     41784     41785     41786     41785     41787
     41786     41787     41788     41789     41788     41790     41789     41790
     41791     41792     41791     41793     41792     41793     41794     41795
     41794     41796     41795     41796     41797     41798     41797     41799
     41798     41799     41800     41801     41800     41802     41801     41802
     41803     41804     41803     41805     41804     41805     41806     41807
     41806     41808     41807     41808     41809     41810     41809     41811
     41810     41811     41812     41813     41812     41814     41813     41814
     41815     41816     41815     41817     41816     41817     41818     41819
     41818     41820     41819     41820     41821     41822     41821     41823
     41822     41823     41824     41825     41824     41826     41825     41826
     41827     41828     41827     41829     41828     41829     41830     41831
     41830     41832     41831     41832     41833     41834     41833     41835
     41834     41835     41836     41837     41836     41838     41837     41838
     41839     41840     41839     41841     41840     41841     41842     41843
     41842     41844     41843     41844     41845     41846     41845     41847
     41846     41847     41848     41849     41848     41850     41849     41850
     41851     41852     41851     41853     41852     41853     41854     41855
     41854     41856     41855     41856     41857     41858     41857     41859
     41858     41859     41860     41861     41860     41862     41861     41862
     41863     41864     41863     41865     41864     41865     41866     41867
     41866     41868     41867     41868     41869     41870     41869     41871
     41870     41871     41872     41873     41872     41874     41873     41874
     41875     41876     41875     41877     41876     41877     41878     41879
     41878     41880     41879     41880     41881     41882     41881     41883
     41882     41883     41884     41885     41884     41886     41885     41886
     41887     41888     41887     41889     41888     41889     41890     41891
     41890     41892     41891     41892     41893     41894     41893     41895
     41894     41895     41896     41897     41896     41898     41897     41898
     41899     41900     41899     41901     41900     41901     41902     41903
     41902     41904     41903     41904     41905     41906     41905     41907
     41906     41907     41908     41909     41908     41910     41909     41910
     41911     41912     41911     41913     41912     41913     41914     41915
     41914     41916     41915     41916     41917     41918     41917     41919
     41918     41919     41920     41921     41920     41922     41921     41922
     41923     41924     41923     41925     41924     41925     41926     41927
     41926     41928     41927     41928     41929     41930     41929     41931
     41930     41931     41932     41933     41932     41934     41933     41934
     41935     41936     41935     41937     41936     41937     41938     41939
     41938     41940     41939     41940     41941     41942     41941     41943
     41942     41943     41944     41945     41944     41946     41945     41946
     41947     41948     41947     41949     41948     41949     41950     41951
     41950     41952     41951     41952     41953     41954     41953     41955
     41954     41955     41956     41957     41956     41958     41957     41958
     41959     41960     41959     41961     41960     41961     41962     41963
     41962     41964     41963     41964     41965     41966     41965     41967
     41966     41967     41968     41969     41968     41970     41969     41970
     41971     41972     41971     41973     41972     41973     41974     41975
     41974     41976     41975     41976     41977     41978     41977     41979
     41978     41979     41980     41981     41980     41982     41981     41982
     41983     41984     41983     41985     41984     41985     41986     41987
     41986     41988     41987     41988     41989     41990     41989     41991
     41990     41991     41992     41993     41992     41994     41993     41994
     41995     41996     41995     41997     41996     41997     41998     41999
     41998     42000     41999     42000     42001     42002     42001     42003
     42002     42003     42004     42005     42004     42006     42005     42006
     42007     42008     42007     42009     42008     42009     42010     42011
     42010     42012     42011     42012     42013     42014     42013     42015
     42014     42015     42016     42017     42016     42018     42017     42018
     42019     42020     42019     42021     42020     42021     42022     42023
     42022     42024     42023     42024     42025     42026     42025     42027
     42026     42027     42028     42029     42028     42030     42029     42030
     42031     42032     42031     42033     42032     42033     42034     42035
     42034     42036     42035     42036     42037     42038     42037     42039
     42038     42039     42040     42041     42040     42042     42041     42042
     42043     42044     42043     42045     42044     42045     42046     42047
     42046     42048     42047     42048     42049     42050     42049     42051
     42050     42051     42052     42053     42052     42054     42053     42054
     42055     42056     42055     42057     42056     42057     42058     42059
     42058     42060     42059     42060     42061     42062     42061     42063
     42062     42063     42064     42065     42064     42066     42065     42066
     42067     42068     42067     42069     42068     42069     42070     42071
     42070     42072     42071     42072     42073     42074     42073     42075
     42074     42075     42076     42077     42076     42078     42077     42078
     42079     42080     42079     42081     42080     42081     42082     42083
     42082     42084     42083     42084     42085     42086     42085     42087
     42086     42087     42088     42089     42088     42090     42089     42090
     42091     42092     42091     42093     42092     42093     42094     42095
     42094     42096     42095     42096     42097     42098     42097     42099
     42098     42099     42100     42101     42100     42102     42101     42102
     42103     42104     42103     42105     42104     42105     42106     42107
     42106     42108     42107     42108     42109     42110     42109     42111
     42110     42111     42112     42113     42112     42114     42113     42114
     42115     42116     42115     42117     42116     42117     42118     42119
     42118     42120     42119     42120     42121     42122     42121     42123
     42122     42123     42124     42125     42124     42126     42125     42126
     42127     42128     42127     42129     42128     42129     42130     42131
     42130     42132     42131     42132     42133     42134     42133     42135
     42134     42135     42136     42137     42136     42138     42137     42138
     42139     42140     42139     42141     42140     42141     42142     42143
     42142     42144     42143     42144     42145     42146     42145     42147
     42146     42147     42148     42149     42148     42150     42149     42150
     42151     42152     42151     42153     42152     42153     42154     42155
     42154     42156     42155     42156     42157     42158     42157     42159
     42158     42159     42160     42161     42160     42162     42161     42162
     42163     42164     42163     42165     42164     42165     42166     42167
     42166     42168     42167     42168     42169     42170     42169     42171
     42170     42171     42172     42173     42172     42174     42173     42174
     42175     42176     42175     42177     42176     42177     42178     42179
     42178     42180     42179     42180     42181     42182     42181     42183
     42182     42183     42184     42185     42184     42186     42185     42186
     42187     42188     42187     42189     42188     42189     42190     42191
     42190     42192     42191     42192     42193     42194     42193     42195
     42194     42195     42196     42197     42196     42198     42197     42198
     42199     42200     42199     42201     42200     42201     42202     42203
     42202     42204     42203     42204     42205     42206     42205     42207
     42206     42207     42208     42209     42208     42210     42209     42210
     42211     42212     42211     42213     42212     42213     42214     42215
     42214     42216     42215     42216     42217     42218     42217     42219
     42218     42219     42220     42221     42220     42222     42221     42222
     42223     42224     42223     42225     42224     42225     42226     42227
     42226     42228     42227     42228     42229     42230     42229     42231
     42230     42231     42232     42233     42232     42234     42233     42234
     42235     42236     42235     42237     42236     42237     42238     42239
     42238     42240     42239     42240     42241     42242     42241     42243
     42242     42243     42244     42245     42244     42246     42245     42246
     42247     42248     42247     42249     42248     42249     42250     42251
     42250     42252     42251     42252     42253     42254     42253     42255
     42254     42255     42256     42257     42256     42258     42257     42258
     42259     42260     42259     42261     42260     42261     42262     42263
     42262     42264     42263     42264     42265     42266     42265     42267
     42266     42267     42268     42269     42268     42270     42269     42270
     42271     42272     42271     42273     42272     42273     42274     42275
     42274     42276     42275     42276     42277     42278     42277     42279
     42278     42279     42280     42281     42280     42282     42281     42282
     42283     42284     42283     42285     42284     42285     42286     42287
     42286     42288     42287     42288     42289     42290     42289     42291
     42290     42291     42292     42293     42292     42294     42293     42294
     42295     42296     42295     42297     42296     42297     42298     42299
     42298     42300     42299     42300     42301     42302     42301     42303
     42302     42303     42304     42305     42304     42306     42305     42306
     42307     42308     42307     42309     42308     42309     42310     42311
     42310     42312     42311     42312     42313     42314     42313     42315
     42314     42315     42316     42317     42316     42318     42317     42318
     42319     42320     42319     42321     42320     42321     42322     42323
     42322     42324     42323     42324     42325     42326     42325     42327
     42326     42327     42328     42329     42328     42330     42329     42330
     42331     42332     42331     42333     42332     42333     42334     42335
     42334     42336     42335     42336     42337     42338     42337     42339
     42338     42339     42340     42341     42340     42342     42341     42342
     42343     42344     42343     42345     42344     42345     42346     42347
     42346     42348     42347     42348     42349     42350     42349     42351
     42350     42351     42352     42353     42352     42354     42353     42354
     42355     42356     42355     42357     42356     42357     42358     42359
     42358     42360     42359     42360     42361     42362     42361     42363
     42362     42363     42364     42365     42364     42366     42365     42366
     42367     42368     42367     42369     42368     42369     42370     42371
     42370     42372     42371     42372     42373     42374     42373     42375
     42374     42375     42376     42377     42376     42378     42377     42378
     42379     42380     42379     42381     42380     42381     42382     42383
     42382     42384     42383     42384     42385     42386     42385     42387
     42386     42387     42388     42389     42388     42390     42389     42390
     42391     42392     42391     42393     42392     42393     42394     42395
     42394     42396     42395     42396     42397     42398     42397     42399
     42398     42399     42400     42401     42400     42402     42401     42402
     42403     42404     42403     42405     42404     42405     42406     42407
     42406     42408     42407     42408     42409     42410     42409     42411
     42410     42411     42412     42413     42412     42414     42413     42414
     42415     42416     42415     42417     42416     42417     42418     42419
     42418     42420     42419     42420     42421     42422     42421     42423
     42422     42423     42424     42425     42424     42426     42425     42426
     42427     42428     42427     42429     42428     42429     42430     42431
     42430     42432     42431     42432     42433     42434     42433     42435
     42434     42435     42436     42437     42436     42438     42437     42438
     42439     42440     42439     42441     42440     42441     42442     42443
     42442     42444     42443     42444     42445     42446     42445     42447
     42446     42447     42448     42449     42448     42450     42449     42450
     42451     42452     42451     42453     42452     42453     42454     42455
     42454     42456     42455     42456     42457     42458     42457     42459
     42458     42459     42460     42461     42460     42462     42461     42462
     42463     42464     42463     42465     42464     42465     42466     42467
     42466     42468     42467     42468     42469     42470     42469     42471
     42470     42471     42472     42473     42472     42474     42473     42474
     42475     42476     42475     42477     42476     42477     42478     42479
     42478     42480     42479     42480     42481     42482     42481     42483
     42482     42483     42484     42485     42484     42486     42485     42486
     42487     42488     42487     42489     42488     42489     42490     42491
     42490     42492     42491     42492     42493     42494     42493     42495
     42494     42495     42496     42497     42496     42498     42497     42498
     42499     42500     42499     42501     42500     42501     42502     42503
     42502     42504     42503     42504     42505     42506     42505     42507
     42506     42507     42508     42509     42508     42510     42509     42510
     42511     42512     42511     42513     42512     42513     42514     42515
     42514     42516     42515     42516     42517     42518     42517     42519
     42518     42519     42520     42521     42520     42522     42521     42522
     42523     42524     42523     42525     42524     42525     42526     42527
     42526     42528     42527     42528     42529     42530     42529     42531
     42530     42531     42532     42533     42532     42534     42533     42534
     42535     42536     42535     42537     42536     42537     42538     42539
     42538     42540     42539     42540     42541     42542     42541     42543
     42542     42543     42544     42545     42544     42546     42545     42546
     42547     42548     42547     42549     42548     42549     42550     42551
     42550     42552     42551     42552     42553     42554     42553     42555
     42554     42555     42556     42557     42556     42558     42557     42558
     42559     42560     42559     42561     42560     42561     42562     42563
     42562     42564     42563     42564     42565     42566     42565     42567
     42566     42567     42568     42569     42568     42570     42569     42570
     42571     42572     42571     42573     42572     42573     42574     42575
     42574     42576     42575     42576     42577     42578     42577     42579
     42578     42579     42580     42581     42580     42582     42581     42582
     42583     42584     42583     42585     42584     42585     42586     42587
     42586     42588     42587     42588     42589     42590     42589     42591
     42590     42591     42592     42593     42592     42594     42593     42594
     42595     42596     42595     42597     42596     42597     42598     42599
     42598     42600     42599     42600     42601     42602     42601     42603
     42602     42603     42604     42605     42604     42606     42605     42606
     42607     42608     42607     42609     42608     42609     42610     42611
     42610     42612     42611     42612     42613     42614     42613     42615
     42614     42615     42616     42617     42616     42618     42617     42618
     42619     42620     42619     42621     42620     42621     42622     42623
     42622     42624     42623     42624     42625     42626     42625     42627
     42626     42627     42628     42629     42628     42630     42629     42630
     42631     42632     42631     42633     42632     42633     42634     42635
     42634     42636     42635     42636     42637     42638     42637     42639
     42638     42639     42640     42641     42640     42642     42641     42642
     42643     42644     42643     42645     42644     42645     42646     42647
     42646     42648     42647     42648     42649     42650     42649     42651
     42650     42651     42652     42653     42652     42654     42653     42654
     42655     42656     42655     42657     42656     42657     42658     42659
     42658     42660     42659     42660     42661     42662     42661     42663
     42662     42663     42664     42665     42664     42666     42665     42666
     42667     42668     42667     42669     42668     42669     42670     42671
     42670     42672     42671     42672     42673     42674     42673     42675
     42674     42675     42676     42677     42676     42678     42677     42678
     42679     42680     42679     42681     42680     42681     42682     42683
     42682     42684     42683     42684     42685     42686     42685     42687
     42686     42687     42688     42689     42688     42690     42689     42690
     42691     42692     42691     42693     42692     42693     42694     42695
     42694     42696     42695     42696     42697     42698     42697     42699
     42698     42699     42700     42701     42700     42702     42701     42702
     42703     42704     42703     42705     42704     42705     42706     42707
     42706     42708     42707     42708     42709     42710     42709     42711
     42710     42711     42712     42713     42712     42714     42713     42714
     42715     42716     42715     42717     42716     42717     42718     42719
     42718     42720     42719     42720     42721     42722     42721     42723
     42722     42723     42724     42725     42724     42726     42725     42726
     42727     42728     42727     42729     42728     42729     42730     42731
     42730     42732     42731     42732     42733     42734     42733     42735
     42734     42735     42736     42737     42736     42738     42737     42738
     42739     42740     42739     42741     42740     42741     42742     42743
     42742     42744     42743     42744     42745     42746     42745     42747
     42746     42747     42748     42749     42748     42750     42749     42750
     42751     42752     42751     42753     42752     42753     42754     42755
     42754     42756     42755     42756     42757     42758     42757     42759
     42758     42759     42760     42761     42760     42762     42761     42762
     42763     42764     42763     42765     42764     42765     42766     42767
     42766     42768     42767     42768     42769     42770     42769     42771
     42770     42771     42772     42773     42772     42774     42773     42774
     42775     42776     42775     42777     42776     42777     42778     42779
     42778     42780     42779     42780     42781     42782     42781     42783
     42782     42783     42784     42785     42784     42786     42785     42786
     42787     42788     42787     42789     42788     42789     42790     42791
     42790     42792     42791     42792     42793     42794     42793     42795
     42794     42795     42796     42797     42796     42798     42797     42798
     42799     42800     42799     42801     42800     42801     42802     42803
     42802     42804     42803     42804     42805     42806     42805     42807
     42806     42807     42808     42809     42808     42810     42809     42810
     42811     42812     42811     42813     42812     42813     42814     42815
     42814     42816     42815     42816     42817     42818     42817     42819
     42818     42819     42820     42821     42820     42822     42821     42822
     42823     42824     42823     42825     42824     42825     42826     42827
     42826     42828     42827     42828     42829     42830     42829     42831
     42830     42831     42832     42833     42832     42834     42833     42834
     42835     42836     42835     42837     42836     42837     42838     42839
     42838     42840     42839     42840     42841     42842     42841     42843
     42842     42843     42844     42845     42844     42846     42845     42846
     42847     42848     42847     42849     42848     42849     42850     42851
     42850     42852     42851     42852     42853     42854     42853     42855
     42854     42855     42856     42857     42856     42858     42857     42858
     42859     42860     42859     42861     42860     42861     42862     42863
     42862     42864     42863     42864     42865     42866     42865     42867
     42866     42867     42868     42869     42868     42870     42869     42870
     42871     42872     42871     42873     42872     42873     42874     42875
     42874     42876     42875     42876     42877     42878     42877     42879
     42878     42879     42880     42881     42880     42882     42881     42882
     42883     42884     42883     42885     42884     42885     42886     42887
     42886     42888     42887     42888     42889     42890     42889     42891
     42890     42891     42892     42893     42892     42894     42893     42894
     42895     42896     42895     42897     42896     42897     42898     42899
     42898     42900     42899     42900     42901     42902     42901     42903
     42902     42903     42904     42905     42904     42906     42905     42906
     42907     42908     42907     42909     42908     42909     42910     42911
     42910     42912     42911     42912     42913     42914     42913     42915
     42914     42915     42916     42917     42916     42918     42917     42918
     42919     42920     42919     42921     42920     42921     42922     42923
     42922     42924     42923     42924     42925     42926     42925     42927
     42926     42927     42928     42929     42928     42930     42929     42930
     42931     42932     42931     42933     42932     42933     42934     42935
     42934     42936     42935     42936     42937     42938     42937     42939
     42938     42939     42940     42941     42940     42942     42941     42942
     42943     42944     42943     42945     42944     42945     42946     42947
     42946     42948     42947     42948     42949     42950     42949     42951
     42950     42951     42952     42953     42952     42954     42953     42954
     42955     42956     42955     42957     42956     42957     42958     42959
     42958     42960     42959     42960     42961     42962     42961     42963
     42962     42963     42964     42965     42964     42966     42965     42966
     42967     42968     42967     42969     42968     42969     42970     42971
     42970     42972     42971     42972     42973     42974     42973     42975
     42974     42975     42976     42977     42976     42978     42977     42978
     42979     42980     42979     42981     42980     42981     42982     42983
     42982     42984     42983     42984     42985     42986     42985     42987
     42986     42987     42988     42989     42988     42990     42989     42990
     42991     42992     42991     42993     42992     42993     42994     42995
     42994     42996     42995     42996     42997     42998     42997     42999
     42998     42999     43000     43001     43000     43002     43001     43002
     43003     43004     43003     43005     43004     43005     43006     43007
     43006     43008     43007     43008     43009     43010     43009     43011
     43010     43011     43012     43013     43012     43014     43013     43014
     43015     43016     43015     43017     43016     43017     43018     43019
     43018     43020     43019     43020     43021     43022     43021     43023
     43022     43023     43024     43025     43024     43026     43025     43026
     43027     43028     43027     43029     43028     43029     43030     43031
     43030     43032     43031     43032     43033     43034     43033     43035
     43034     43035     43036     43037     43036     43038     43037     43038
     43039     43040     43039     43041     43040     43041     43042     43043
     43042     43044     43043     43044     43045     43046     43045     43047
     43046     43047     43048     43049     43048     43050     43049     43050
     43051     43052     43051     43053     43052     43053     43054     43055
     43054     43056     43055     43056     43057     43058     43057     43059
     43058     43059     43060     43061     43060     43062     43061     43062
     43063     43064     43063     43065     43064     43065     43066     43067
     43066     43068     43067     43068     43069     43070     43069     43071
     43070     43071     43072     43073     43072     43074     43073     43074
     43075     43076     43075     43077     43076     43077     43078     43079
     43078     43080     43079     43080     43081     43082     43081     43083
     43082     43083     43084     43085     43084     43086     43085     43086
     43087     43088     43087     43089     43088     43089     43090     43091
     43090     43092     43091     43092     43093     43094     43093     43095
     43094     43095     43096     43097     43096     43098     43097     43098
     43099     43100     43099     43101     43100     43101     43102     43103
     43102     43104     43103     43104     43105     43106     43105     43107
     43106     43107     43108     43109     43108     43110     43109     43110
     43111     43112     43111     43113     43112     43113     43114     43115
     43114     43116     43115     43116     43117     43118     43117     43119
     43118     43119     43120     43121     43120     43122     43121     43122
     43123     43124     43123     43125     43124     43125     43126     43127
     43126     43128     43127     43128     43129     43130     43129     43131
     43130     43131     43132     43133     43132     43134     43133     43134
     43135     43136     43135     43137     43136     43137     43138     43139
     43138     43140     43139     43140     43141     43142     43141     43143
     43142     43143     43144     43145     43144     43146     43145     43146
     43147     43148     43147     43149     43148     43149     43150     43151
     43150     43152     43151     43152     43153     43154     43153     43155
     43154     43155     43156     43157     43156     43158     43157     43158
     43159     43160     43159     43161     43160     43161     43162     43163
     43162     43164     43163     43164     43165     43166     43165     43167
     43166     43167     43168     43169     43168     43170     43169     43170
     43171     43172     43171     43173     43172     43173     43174     43175
     43174     43176     43175     43176     43177     43178     43177     43179
     43178     43179     43180     43181     43180     43182     43181     43182
     43183     43184     43183     43185     43184     43185     43186     43187
     43186     43188     43187     43188     43189     43190     43189     43191
     43190     43191     43192     43193     43192     43194     43193     43194
     43195     43196     43195     43197     43196     43197     43198     43199
     43198     43200     43199     43200     43201     43202     43201     43203
     43202     43203     43204     43205     43204     43206     43205     43206
     43207     43208     43207     43209     43208     43209     43210     43211
     43210     43212     43211     43212     43213     43214     43213     43215
     43214     43215     43216     43217     43216     43218     43217     43218
     43219     43220     43219     43221     43220     43221     43222     43223
     43222     43224     43223     43224     43225     43226     43225     43227
     43226     43227     43228     43229     43228     43230     43229     43230
     43231     43232     43231     43233     43232     43233     43234     43235
     43234     43236     43235     43236     43237     43238     43237     43239
     43238     43239     43240     43241     43240     43242     43241     43242
     43243     43244     43243     43245     43244     43245     43246     43247
     43246     43248     43247     43248     43249     43250     43249     43251
     43250     43251     43252     43253     43252     43254     43253     43254
     43255     43256     43255     43257     43256     43257     43258     43259
     43258     43260     43259     43260     43261     43262     43261     43263
     43262     43263     43264     43265     43264     43266     43265     43266
     43267     43268     43267     43269     43268     43269     43270     43271
     43270     43272     43271     43272     43273     43274     43273     43275
     43274     43275     43276     43277     43276     43278     43277     43278
     43279     43280     43279     43281     43280     43281     43282     43283
     43282     43284     43283     43284     43285     43286     43285     43287
     43286     43287     43288     43289     43288     43290     43289     43290
     43291     43292     43291     43293     43292     43293     43294     43295
     43294     43296     43295     43296     43297     43298     43297     43299
     43298     43299     43300     43301     43300     43302     43301     43302
     43303     43304     43303     43305     43304     43305     43306     43307
     43306     43308     43307     43308     43309     43310     43309     43311
     43310     43311     43312     43313     43312     43314     43313     43314
     43315     43316     43315     43317     43316     43317     43318     43319
     43318     43320     43319     43320     43321     43322     43321     43323
     43322     43323     43324     43325     43324     43326     43325     43326
     43327     43328     43327     43329     43328     43329     43330     43331
     43330     43332     43331     43332     43333     43334     43333     43335
     43334     43335     43336     43337     43336     43338     43337     43338
     43339     43340     43339     43341     43340     43341     43342     43343
     43342     43344     43343     43344     43345     43346     43345     43347
     43346     43347     43348     43349     43348     43350     43349     43350
     43351     43352     43351     43353     43352     43353     43354     43355
     43354     43356     43355     43356     43357     43358     43357     43359
     43358     43359     43360     43361     43360     43362     43361     43362
     43363     43364     43363     43365     43364     43365     43366     43367
     43366     43368     43367     43368     43369     43370     43369     43371
     43370     43371     43372     43373     43372     43374     43373     43374
     43375     43376     43375     43377     43376     43377     43378     43379
     43378     43380     43379     43380     43381     43382     43381     43383
     43382     43383     43384     43385     43384     43386     43385     43386
     43387     43388     43387     43389     43388     43389     43390     43391
     43390     43392     43391     43392     43393     43394     43393     43395
     43394     43395     43396     43397     43396     43398     43397     43398
     43399     43400     43399     43401     43400     43401     43402     43403
     43402     43404     43403     43404     43405     43406     43405     43407
     43406     43407     43408     43409     43408     43410     43409     43410
     43411     43412     43411     43413     43412     43413     43414     43415
     43414     43416     43415     43416     43417     43418     43417     43419
     43418     43419     43420     43421     43420     43422     43421     43422
     43423     43424     43423     43425     43424     43425     43426     43427
     43426     43428     43427     43428     43429     43430     43429     43431
     43430     43431     43432     43433     43432     43434     43433     43434
     43435     43436     43435     43437     43436     43437     43438     43439
     43438     43440     43439     43440     43441     43442     43441     43443
     43442     43443     43444     43445     43444     43446     43445     43446
     43447     43448     43447     43449     43448     43449     43450     43451
     43450     43452     43451     43452     43453     43454     43453     43455
     43454     43455     43456     43457     43456     43458     43457     43458
     43459     43460     43459     43461     43460     43461     43462     43463
     43462     43464     43463     43464     43465     43466     43465     43467
     43466     43467     43468     43469     43468     43470     43469     43470
     43471     43472     43471     43473     43472     43473     43474     43475
     43474     43476     43475     43476     43477     43478     43477     43479
     43478     43479     43480     43481     43480     43482     43481     43482
     43483     43484     43483     43485     43484     43485     43486     43487
     43486     43488     43487     43488     43489     43490     43489     43491
     43490     43491     43492     43493     43492     43494     43493     43494
     43495     43496     43495     43497     43496     43497     43498     43499
     43498     43500     43499     43500     43501     43502     43501     43503
     43502     43503     43504     43505     43504     43506     43505     43506
     43507     43508     43507     43509     43508     43509     43510     43511
     43510     43512     43511     43512     43513     43514     43513     43515
     43514     43515     43516     43517     43516     43518     43517     43518
     43519     43520     43519     43521     43520     43521     43522     43523
     43522     43524     43523     43524     43525     43526     43525     43527
     43526     43527     43528     43529     43528     43530     43529     43530
     43531     43532     43531     43533     43532     43533     43534     43535
     43534     43536     43535     43536     43537     43538     43537     43539
     43538     43539     43540     43541     43540     43542     43541     43542
     43543     43544     43543     43545     43544     43545     43546     43547
     43546     43548     43547     43548     43549     43550     43549     43551
     43550     43551     43552     43553     43552     43554     43553     43554
     43555     43556     43555     43557     43556     43557     43558     43559
     43558     43560     43559     43560     43561     43562     43561     43563
     43562     43563     43564     43565     43564     43566     43565     43566
     43567     43568     43567     43569     43568     43569     43570     43571
     43570     43572     43571     43572     43573     43574     43573     43575
     43574     43575     43576     43577     43576     43578     43577     43578
     43579     43580     43579     43581     43580     43581     43582     43583
     43582     43584     43583     43584     43585     43586     43585     43587
     43586     43587     43588     43589     43588     43590     43589     43590
     43591     43592     43591     43593     43592     43593     43594     43595
     43594     43596     43595     43596     43597     43598     43597     43599
     43598     43599     43600     43601     43600     43602     43601     43602
     43603     43604     43603     43605     43604     43605     43606     43607
     43606     43608     43607     43608     43609     43610     43609     43611
     43610     43611     43612     43613     43612     43614     43613     43614
     43615     43616     43615     43617     43616     43617     43618     43619
     43618     43620     43619     43620     43621     43622     43621     43623
     43622     43623     43624     43625     43624     43626     43625     43626
     43627     43628     43627     43629     43628     43629     43630     43631
     43630     43632     43631     43632     43633     43634     43633     43635
     43634     43635     43636     43637     43636     43638     43637     43638
     43639     43640     43639     43641     43640     43641     43642     43643
     43642     43644     43643     43644     43645     43646     43645     43647
     43646     43647     43648     43649     43648     43650     43649     43650
     43651     43652     43651     43653     43652     43653     43654     43655
     43654     43656     43655     43656     43657     43658     43657     43659
     43658     43659     43660     43661     43660     43662     43661     43662
     43663     43664     43663     43665     43664     43665     43666     43667
     43666     43668     43667     43668     43669     43670     43669     43671
     43670     43671     43672     43673     43672     43674     43673     43674
     43675     43676     43675     43677     43676     43677     43678     43679
     43678     43680     43679     43680     43681     43682     43681     43683
     43682     43683     43684     43685     43684     43686     43685     43686
     43687     43688     43687     43689     43688     43689     43690     43691
     43690     43692     43691     43692     43693     43694     43693     43695
     43694     43695     43696     43697     43696     43698     43697     43698
     43699     43700     43699     43701     43700     43701     43702     43703
     43702     43704     43703     43704     43705     43706     43705     43707
     43706     43707     43708     43709     43708     43710     43709     43710
     43711     43712     43711     43713     43712     43713     43714     43715
     43714     43716     43715     43716     43717     43718     43717     43719
     43718     43719     43720     43721     43720     43722     43721     43722
     43723     43724     43723     43725     43724     43725     43726     43727
     43726     43728     43727     43728     43729     43730     43729     43731
     43730     43731     43732     43733     43732     43734     43733     43734
     43735     43736     43735     43737     43736     43737     43738     43739
     43738     43740     43739     43740     43741     43742     43741     43743
     43742     43743     43744     43745     43744     43746     43745     43746
     43747     43748     43747     43749     43748     43749     43750     43751
     43750     43752     43751     43752     43753     43754     43753     43755
     43754     43755     43756     43757     43756     43758     43757     43758
     43759     43760     43759     43761     43760     43761     43762     43763
     43762     43764     43763     43764     43765     43766     43765     43767
     43766     43767     43768     43769     43768     43770     43769     43770
     43771     43772     43771     43773     43772     43773     43774     43775
     43774     43776     43775     43776     43777     43778     43777     43779
     43778     43779     43780     43781     43780     43782     43781     43782
     43783     43784     43783     43785     43784     43785     43786     43787
     43786     43788     43787     43788     43789     43790     43789     43791
     43790     43791     43792     43793     43792     43794     43793     43794
     43795     43796     43795     43797     43796     43797     43798     43799
     43798     43800     43799     43800     43801     43802     43801     43803
     43802     43803     43804     43805     43804     43806     43805     43806
     43807     43808     43807     43809     43808     43809     43810     43811
     43810     43812     43811     43812     43813     43814     43813     43815
     43814     43815     43816     43817     43816     43818     43817     43818
     43819     43820     43819     43821     43820     43821     43822     43823
     43822     43824     43823     43824     43825     43826     43825     43827
     43826     43827     43828     43829     43828     43830     43829     43830
     43831     43832     43831     43833     43832     43833     43834     43835
     43834     43836     43835     43836     43837     43838     43837     43839
     43838     43839     43840     43841     43840     43842     43841     43842
     43843     43844     43843     43845     43844     43845     43846     43847
     43846     43848     43847     43848     43849     43850     43849     43851
     43850     43851     43852     43853     43852     43854     43853     43854
     43855     43856     43855     43857     43856     43857     43858     43859
     43858     43860     43859     43860     43861     43862     43861     43863
     43862     43863     43864     43865     43864     43866     43865     43866
     43867     43868     43867     43869     43868     43869     43870     43871
     43870     43872     43871     43872     43873     43874     43873     43875
     43874     43875     43876     43877     43876     43878     43877     43878
     43879     43880     43879     43881     43880     43881     43882     43883
     43882     43884     43883     43884     43885     43886     43885     43887
     43886     43887     43888     43889     43888     43890     43889     43890
     43891     43892     43891     43893     43892     43893     43894     43895
     43894     43896     43895     43896     43897     43898     43897     43899
     43898     43899     43900     43901     43900     43902     43901     43902
     43903     43904     43903     43905     43904     43905     43906     43907
     43906     43908     43907     43908     43909     43910     43909     43911
     43910     43911     43912     43913     43912     43914     43913     43914
     43915     43916     43915     43917     43916     43917     43918     43919
     43918     43920     43919     43920     43921     43922     43921     43923
     43922     43923     43924     43925     43924     43926     43925     43926
     43927     43928     43927     43929     43928     43929     43930     43931
     43930     43932     43931     43932     43933     43934     43933     43935
     43934     43935     43936     43937     43936     43938     43937     43938
     43939     43940     43939     43941     43940     43941     43942     43943
     43942     43944     43943     43944     43945     43946     43945     43947
     43946     43947     43948     43949     43948     43950     43949     43950
     43951     43952     43951     43953     43952     43953     43954     43955
     43954     43956     43955     43956     43957     43958     43957     43959
     43958     43959     43960     43961     43960     43962     43961     43962
     43963     43964     43963     43965     43964     43965     43966     43967
     43966     43968     43967     43968     43969     43970     43969     43971
     43970     43971     43972     43973     43972     43974     43973     43974
     43975     43976     43975     43977     43976     43977     43978     43979
     43978     43980     43979     43980     43981     43982     43981     43983
     43982     43983     43984     43985     43984     43986     43985     43986
     43987     43988     43987     43989     43988     43989     43990     43991
     43990     43992     43991     43992     43993     43994     43993     43995
     43994     43995     43996     43997     43996     43998     43997     43998
     43999     44000     43999     44001     44000     44001     44002     44003
     44002     44004     44003     44004     44005     44006     44005     44007
     44006     44007     44008     44009     44008     44010     44009     44010
     44011     44012     44011     44013     44012     44013     44014     44015
     44014     44016     44015     44016     44017     44018     44017     44019
     44018     44019     44020     44021     44020     44022     44021     44022
     44023     44024     44023     44025     44024     44025     44026     44027
     44026     44028     44027     44028     44029     44030     44029     44031
     44030     44031     44032     44033     44032     44034     44033     44034
     44035     44036     44035     44037     44036     44037     44038     44039
     44038     44040     44039     44040     44041     44042     44041     44043
     44042     44043     44044     44045     44044     44046     44045     44046
     44047     44048     44047     44049     44048     44049     44050     44051
     44050     44052     44051     44052     44053     44054     44053     44055
     44054     44055     44056     44057     44056     44058     44057     44058
     44059     44060     44059     44061     44060     44061     44062     44063
     44062     44064     44063     44064     44065     44066     44065     44067
     44066     44067     44068     44069     44068     44070     44069     44070
     44071     44072     44071     44073     44072     44073     44074     44075
     44074     44076     44075     44076     44077     44078     44077     44079
     44078     44079     44080     44081     44080     44082     44081     44082
     44083     44084     44083     44085     44084     44085     44086     44087
     44086     44088     44087     44088     44089     44090     44089     44091
     44090     44091     44092     44093     44092     44094     44093     44094
     44095     44096     44095     44097     44096     44097     44098     44099
     44098     44100     44099     44100     44101     44102     44101     44103
     44102     44103     44104     44105     44104     44106     44105     44106
     44107     44108     44107     44109     44108     44109     44110     44111
     44110     44112     44111     44112     44113     44114     44113     44115
     44114     44115     44116     44117     44116     44118     44117     44118
     44119     44120     44119     44121     44120     44121     44122     44123
     44122     44124     44123     44124     44125     44126     44125     44127
     44126     44127     44128     44129     44128     44130     44129     44130
     44131     44132     44131     44133     44132     44133     44134     44135
     44134     44136     44135     44136     44137     44138     44137     44139
     44138     44139     44140     44141     44140     44142     44141     44142
     44143     44144     44143     44145     44144     44145     44146     44147
     44146     44148     44147     44148     44149     44150     44149     44151
     44150     44151     44152     44153     44152     44154     44153     44154
     44155     44156     44155     44157     44156     44157     44158     44159
     44158     44160     44159     44160     44161     44162     44161     44163
     44162     44163     44164     44165     44164     44166     44165     44166
     44167     44168     44167     44169     44168     44169     44170     44171
     44170     44172     44171     44172     44173     44174     44173     44175
     44174     44175     44176     44177     44176     44178     44177     44178
     44179     44180     44179     44181     44180     44181     44182     44183
     44182     44184     44183     44184     44185     44186     44185     44187
     44186     44187     44188     44189     44188     44190     44189     44190
     44191     44192     44191     44193     44192     44193     44194     44195
     44194     44196     44195     44196     44197     44198     44197     44199
     44198     44199     44200     44201     44200     44202     44201     44202
     44203     44204     44203     44205     44204     44205     44206     44207
     44206     44208     44207     44208     44209     44210     44209     44211
     44210     44211     44212     44213     44212     44214     44213     44214
     44215     44216     44215     44217     44216     44217     44218     44219
     44218     44220     44219     44220     44221     44222     44221     44223
     44222     44223     44224     44225     44224     44226     44225     44226
     44227     44228     44227     44229     44228     44229     44230     44231
     44230     44232     44231     44232     44233     44234     44233     44235
     44234     44235     44236     44237     44236     44238     44237     44238
     44239     44240     44239     44241     44240     44241     44242     44243
     44242     44244     44243     44244     44245     44246     44245     44247
     44246     44247     44248     44249     44248     44250     44249     44250
     44251     44252     44251     44253     44252     44253     44254     44255
     44254     44256     44255     44256     44257     44258     44257     44259
     44258     44259     44260     44261     44260     44262     44261     44262
     44263     44264     44263     44265     44264     44265     44266     44267
     44266     44268     44267     44268     44269     44270     44269     44271
     44270     44271     44272     44273     44272     44274     44273     44274
     44275     44276     44275     44277     44276     44277     44278     44279
     44278     44280     44279     44280     44281     44282     44281     44283
     44282     44283     44284     44285     44284     44286     44285     44286
     44287     44288     44287     44289     44288     44289     44290     44291
     44290     44292     44291     44292     44293     44294     44293     44295
     44294     44295     44296     44297     44296     44298     44297     44298
     44299     44300     44299     44301     44300     44301     44302     44303
     44302     44304     44303     44304     44305     44306     44305     44307
     44306     44307     44308     44309     44308     44310     44309     44310
     44311     44312     44311     44313     44312     44313     44314     44315
     44314     44316     44315     44316     44317     44318     44317     44319
     44318     44319     44320     44321     44320     44322     44321     44322
     44323     44324     44323     44325     44324     44325     44326     44327
     44326     44328     44327     44328     44329     44330     44329     44331
     44330     44331     44332     44333     44332     44334     44333     44334
     44335     44336     44335     44337     44336     44337     44338     44339
     44338     44340     44339     44340     44341     44342     44341     44343
     44342     44343     44344     44345     44344     44346     44345     44346
     44347     44348     44347     44349     44348     44349     44350     44351
     44350     44352     44351     44352     44353     44354     44353     44355
     44354     44355     44356     44357     44356     44358     44357     44358
     44359     44360     44359     44361     44360     44361     44362     44363
     44362     44364     44363     44364     44365     44366     44365     44367
     44366     44367     44368     44369     44368     44370     44369     44370
     44371     44372     44371     44373     44372     44373     44374     44375
     44374     44376     44375     44376     44377     44378     44377     44379
     44378     44379     44380     44381     44380     44382     44381     44382
     44383     44384     44383     44385     44384     44385     44386     44387
     44386     44388     44387     44388     44389     44390     44389     44391
     44390     44391     44392     44393     44392     44394     44393     44394
     44395     44396     44395     44397     44396     44397     44398     44399
     44398     44400     44399     44400     44401     44402     44401     44403
     44402     44403     44404     44405     44404     44406     44405     44406
     44407     44408     44407     44409     44408     44409     44410     44411
     44410     44412     44411     44412     44413     44414     44413     44415
     44414     44415     44416     44417     44416     44418     44417     44418
     44419     44420     44419     44421     44420     44421     44422     44423
     44422     44424     44423     44424     44425     44426     44425     44427
     44426     44427     44428     44429     44428     44430     44429     44430
     44431     44432     44431     44433     44432     44433     44434     44435
     44434     44436     44435     44436     44437     44438     44437     44439
     44438     44439     44440     44441     44440     44442     44441     44442
     44443     44444     44443     44445     44444     44445     44446     44447
     44446     44448     44447     44448     44449     44450     44449     44451
     44450     44451     44452     44453     44452     44454     44453     44454
     44455     44456     44455     44457     44456     44457     44458     44459
     44458     44460     44459     44460     44461     44462     44461     44463
     44462     44463     44464     44465     44464     44466     44465     44466
     44467     44468     44467     44469     44468     44469     44470     44471
     44470     44472     44471     44472     44473     44474     44473     44475
     44474     44475     44476     44477     44476     44478     44477     44478
     44479     44480     44479     44481     44480     44481     44482     44483
     44482     44484     44483     44484     44485     44486     44485     44487
     44486     44487     44488     44489     44488     44490     44489     44490
     44491     44492     44491     44493     44492     44493     44494     44495
     44494     44496     44495     44496     44497     44498     44497     44499
     44498     44499     44500     44501     44500     44502     44501     44502
     44503     44504     44503     44505     44504     44505     44506     44507
     44506     44508     44507     44508     44509     44510     44509     44511
     44510     44511     44512     44513     44512     44514     44513     44514
     44515     44516     44515     44517     44516     44517     44518     44519
     44518     44520     44519     44520     44521     44522     44521     44523
     44522     44523     44524     44525     44524     44526     44525     44526
     44527     44528     44527     44529     44528     44529     44530     44531
     44530     44532     44531     44532     44533     44534     44533     44535
     44534     44535     44536     44537     44536     44538     44537     44538
     44539     44540     44539     44541     44540     44541     44542     44543
     44542     44544     44543     44544     44545     44546     44545     44547
     44546     44547     44548     44549     44548     44550     44549     44550
     44551     44552     44551     44553     44552     44553     44554     44555
     44554     44556     44555     44556     44557     44558     44557     44559
     44558     44559     44560     44561     44560     44562     44561     44562
     44563     44564     44563     44565     44564     44565     44566     44567
     44566     44568     44567     44568     44569     44570     44569     44571
     44570     44571     44572     44573     44572     44574     44573     44574
     44575     44576     44575     44577     44576     44577     44578     44579
     44578     44580     44579     44580     44581     44582     44581     44583
     44582     44583     44584     44585     44584     44586     44585     44586
     44587     44588     44587     44589     44588     44589     44590     44591
     44590     44592     44591     44592     44593     44594     44593     44595
     44594     44595     44596     44597     44596     44598     44597     44598
     44599     44600     44599     44601     44600     44601     44602     44603
     44602     44604     44603     44604     44605     44606     44605     44607
     44606     44607     44608     44609     44608     44610     44609     44610
     44611     44612     44611     44613     44612     44613     44614     44615
     44614     44616     44615     44616     44617     44618     44617     44619
     44618     44619     44620     44621     44620     44622     44621     44622
     44623     44624     44623     44625     44624     44625     44626     44627
     44626     44628     44627     44628     44629     44630     44629     44631
     44630     44631     44632     44633     44632     44634     44633     44634
     44635     44636     44635     44637     44636     44637     44638     44639
     44638     44640     44639     44640     44641     44642     44641     44643
     44642     44643     44644     44645     44644     44646     44645     44646
     44647     44648     44647     44649     44648     44649     44650     44651
     44650     44652     44651     44652     44653     44654     44653     44655
     44654     44655     44656     44657     44656     44658     44657     44658
     44659     44660     44659     44661     44660     44661     44662     44663
     44662     44664     44663     44664     44665     44666     44665     44667
     44666     44667     44668     44669     44668     44670     44669     44670
     44671     44672     44671     44673     44672     44673     44674     44675
     44674     44676     44675     44676     44677     44678     44677     44679
     44678     44679     44680     44681     44680     44682     44681     44682
     44683     44684     44683     44685     44684     44685     44686     44687
     44686     44688     44687     44688     44689     44690     44689     44691
     44690     44691     44692     44693     44692     44694     44693     44694
     44695     44696     44695     44697     44696     44697     44698     44699
     44698     44700     44699     44700     44701     44702     44701     44703
     44702     44703     44704     44705     44704     44706     44705     44706
     44707     44708     44707     44709     44708     44709     44710     44711
     44710     44712     44711     44712     44713     44714     44713     44715
     44714     44715     44716     44717     44716     44718     44717     44718
     44719     44720     44719     44721     44720     44721     44722     44723
     44722     44724     44723     44724     44725     44726     44725     44727
     44726     44727     44728     44729     44728     44730     44729     44730
     44731     44732     44731     44733     44732     44733     44734     44735
     44734     44736     44735     44736     44737     44738     44737     44739
     44738     44739     44740     44741     44740     44742     44741     44742
     44743     44744     44743     44745     44744     44745     44746     44747
     44746     44748     44747     44748     44749     44750     44749     44751
     44750     44751     44752     44753     44752     44754     44753     44754
     44755     44756     44755     44757     44756     44757     44758     44759
     44758     44760     44759     44760     44761     44762     44761     44763
     44762     44763     44764     44765     44764     44766     44765     44766
     44767     44768     44767     44769     44768     44769     44770     44771
     44770     44772     44771     44772     44773     44774     44773     44775
     44774     44775     44776     44777     44776     44778     44777     44778
     44779     44780     44779     44781     44780     44781     44782     44783
     44782     44784     44783     44784     44785     44786     44785     44787
     44786     44787     44788     44789     44788     44790     44789     44790
     44791     44792     44791     44793     44792     44793     44794     44795
     44794     44796     44795     44796     44797     44798     44797     44799
     44798     44799     44800     44801     44800     44802     44801     44802
     44803     44804     44803     44805     44804     44805     44806     44807
     44806     44808     44807     44808     44809     44810     44809     44811
     44810     44811     44812     44813     44812     44814     44813     44814
     44815     44816     44815     44817     44816     44817     44818     44819
     44818     44820     44819     44820     44821     44822     44821     44823
     44822     44823     44824     44825     44824     44826     44825     44826
     44827     44828     44827     44829     44828     44829     44830     44831
     44830     44832     44831     44832     44833     44834     44833     44835
     44834     44835     44836     44837     44836     44838     44837     44838
     44839     44840     44839     44841     44840     44841     44842     44843
     44842     44844     44843     44844     44845     44846     44845     44847
     44846     44847     44848     44849     44848     44850     44849     44850
     44851     44852     44851     44853     44852     44853     44854     44855
     44854     44856     44855     44856     44857     44858     44857     44859
     44858     44859     44860     44861     44860     44862     44861     44862
     44863     44864     44863     44865     44864     44865     44866     44867
     44866     44868     44867     44868     44869     44870     44869     44871
     44870     44871     44872     44873     44872     44874     44873     44874
     44875     44876     44875     44877     44876     44877     44878     44879
     44878     44880     44879     44880     44881     44882     44881     44883
     44882     44883     44884     44885     44884     44886     44885     44886
     44887     44888     44887     44889     44888     44889     44890     44891
     44890     44892     44891     44892     44893     44894     44893     44895
     44894     44895     44896     44897     44896     44898     44897     44898
     44899     44900     44899     44901     44900     44901     44902     44903
     44902     44904     44903     44904     44905     44906     44905     44907
     44906     44907     44908     44909     44908     44910     44909     44910
     44911     44912     44911     44913     44912     44913     44914     44915
     44914     44916     44915     44916     44917     44918     44917     44919
     44918     44919     44920     44921     44920     44922     44921     44922
     44923     44924     44923     44925     44924     44925     44926     44927
     44926     44928     44927     44928     44929     44930     44929     44931
     44930     44931     44932     44933     44932     44934     44933     44934
     44935     44936     44935     44937     44936     44937     44938     44939
     44938     44940     44939     44940     44941     44942     44941     44943
     44942     44943     44944     44945     44944     44946     44945     44946
     44947     44948     44947     44949     44948     44949     44950     44951
     44950     44952     44951     44952     44953     44954     44953     44955
     44954     44955     44956     44957     44956     44958     44957     44958
     44959     44960     44959     44961     44960     44961     44962     44963
     44962     44964     44963     44964     44965     44966     44965     44967
     44966     44967     44968     44969     44968     44970     44969     44970
     44971     44972     44971     44973     44972     44973     44974     44975
     44974     44976     44975     44976     44977     44978     44977     44979
     44978     44979     44980     44981     44980     44982     44981     44982
     44983     44984     44983     44985     44984     44985     44986     44987
     44986     44988     44987     44988     44989     44990     44989     44991
     44990     44991     44992     44993     44992     44994     44993     44994
     44995     44996     44995     44997     44996     44997     44998     44999
     44998     45000     44999     45000     45001     45002     45001     45003
     45002     45003     45004     45005     45004     45006     45005     45006
     45007     45008     45007     45009     45008     45009     45010     45011
     45010     45012     45011     45012     45013     45014     45013     45015
     45014     45015     45016     45017     45016     45018     45017     45018
     45019     45020     45019     45021     45020     45021     45022     45023
     45022     45024     45023     45024     45025     45026     45025     45027
     45026     45027     45028     45029     45028     45030     45029     45030
     45031     45032     45031     45033     45032     45033     45034     45035
     45034     45036     45035     45036     45037     45038     45037     45039
     45038     45039     45040     45041     45040     45042     45041     45042
     45043     45044     45043     45045     45044     45045     45046     45047
     45046     45048     45047     45048     45049     45050     45049     45051
     45050     45051     45052     45053     45052     45054     45053     45054
     45055     45056     45055     45057     45056     45057     45058     45059
     45058     45060     45059     45060     45061     45062     45061     45063
     45062     45063     45064     45065     45064     45066     45065     45066
     45067     45068     45067     45069     45068     45069     45070     45071
     45070     45072     45071     45072     45073     45074     45073     45075
     45074     45075     45076     45077     45076     45078     45077     45078
     45079     45080     45079     45081     45080     45081     45082     45083
     45082     45084     45083     45084     45085     45086     45085     45087
     45086     45087     45088     45089     45088     45090     45089     45090
     45091     45092     45091     45093     45092     45093     45094     45095
     45094     45096     45095     45096     45097     45098     45097     45099
     45098     45099     45100     45101     45100     45102     45101     45102
     45103     45104     45103     45105     45104     45105     45106     45107
     45106     45108     45107     45108     45109     45110     45109     45111
     45110     45111     45112     45113     45112     45114     45113     45114
     45115     45116     45115     45117     45116     45117     45118     45119
     45118     45120     45119     45120     45121     45122     45121     45123
     45122     45123     45124     45125     45124     45126     45125     45126
     45127     45128     45127     45129     45128     45129     45130     45131
     45130     45132     45131     45132     45133     45134     45133     45135
     45134     45135     45136     45137     45136     45138     45137     45138
     45139     45140     45139     45141     45140     45141     45142     45143
     45142     45144     45143     45144     45145     45146     45145     45147
     45146     45147     45148     45149     45148     45150     45149     45150
     45151     45152     45151     45153     45152     45153     45154     45155
     45154     45156     45155     45156     45157     45158     45157     45159
     45158     45159     45160     45161     45160     45162     45161     45162
     45163     45164     45163     45165     45164     45165     45166     45167
     45166     45168     45167     45168     45169     45170     45169     45171
     45170     45171     45172     45173     45172     45174     45173     45174
     45175     45176     45175     45177     45176     45177     45178     45179
     45178     45180     45179     45180     45181     45182     45181     45183
     45182     45183     45184     45185     45184     45186     45185     45186
     45187     45188     45187     45189     45188     45189     45190     45191
     45190     45192     45191     45192     45193     45194     45193     45195
     45194     45195     45196     45197     45196     45198     45197     45198
     45199     45200     45199     45201     45200     45201     45202     45203
     45202     45204     45203     45204     45205     45206     45205     45207
     45206     45207     45208     45209     45208     45210     45209     45210
     45211     45212     45211     45213     45212     45213     45214     45215
     45214     45216     45215     45216     45217     45218     45217     45219
     45218     45219     45220     45221     45220     45222     45221     45222
     45223     45224     45223     45225     45224     45225     45226     45227
     45226     45228     45227     45228     45229     45230     45229     45231
     45230     45231     45232     45233     45232     45234     45233     45234
     45235     45236     45235     45237     45236     45237     45238     45239
     45238     45240     45239     45240     45241     45242     45241     45243
     45242     45243     45244     45245     45244     45246     45245     45246
     45247     45248     45247     45249     45248     45249     45250     45251
     45250     45252     45251     45252     45253     45254     45253     45255
     45254     45255     45256     45257     45256     45258     45257     45258
     45259     45260     45259     45261     45260     45261     45262     45263
     45262     45264     45263     45264     45265     45266     45265     45267
     45266     45267     45268     45269     45268     45270     45269     45270
     45271     45272     45271     45273     45272     45273     45274     45275
     45274     45276     45275     45276     45277     45278     45277     45279
     45278     45279     45280     45281     45280     45282     45281     45282
     45283     45284     45283     45285     45284     45285     45286     45287
     45286     45288     45287     45288     45289     45290     45289     45291
     45290     45291     45292     45293     45292     45294     45293     45294
     45295     45296     45295     45297     45296     45297     45298     45299
     45298     45300     45299     45300     45301     45302     45301     45303
     45302     45303     45304     45305     45304     45306     45305     45306
     45307     45308     45307     45309     45308     45309     45310     45311
     45310     45312     45311     45312     45313     45314     45313     45315
     45314     45315     45316     45317     45316     45318     45317     45318
     45319     45320     45319     45321     45320     45321     45322     45323
     45322     45324     45323     45324     45325     45326     45325     45327
     45326     45327     45328     45329     45328     45330     45329     45330
     45331     45332     45331     45333     45332     45333     45334     45335
     45334     45336     45335     45336     45337     45338     45337     45339
     45338     45339     45340     45341     45340     45342     45341     45342
     45343     45344     45343     45345     45344     45345     45346     45347
     45346     45348     45347     45348     45349     45350     45349     45351
     45350     45351     45352     45353     45352     45354     45353     45354
     45355     45356     45355     45357     45356     45357     45358     45359
     45358     45360     45359     45360     45361     45362     45361     45363
     45362     45363     45364     45365     45364     45366     45365     45366
     45367     45368     45367     45369     45368     45369     45370     45371
     45370     45372     45371     45372     45373     45374     45373     45375
     45374     45375     45376     45377     45376     45378     45377     45378
     45379     45380     45379     45381     45380     45381     45382     45383
     45382     45384     45383     45384     45385     45386     45385     45387
     45386     45387     45388     45389     45388     45390     45389     45390
     45391     45392     45391     45393     45392     45393     45394     45395
     45394     45396     45395     45396     45397     45398     45397     45399
     45398     45399     45400     45401     45400     45402     45401     45402
     45403     45404     45403     45405     45404     45405     45406     45407
     45406     45408     45407     45408     45409     45410     45409     45411
     45410     45411     45412     45413     45412     45414     45413     45414
     45415     45416     45415     45417     45416     45417     45418     45419
     45418     45420     45419     45420     45421     45422     45421     45423
     45422     45423     45424     45425     45424     45426     45425     45426
     45427     45428     45427     45429     45428     45429     45430     45431
     45430     45432     45431     45432     45433     45434     45433     45435
     45434     45435     45436     45437     45436     45438     45437     45438
     45439     45440     45439     45441     45440     45441     45442     45443
     45442     45444     45443     45444     45445     45446     45445     45447
     45446     45447     45448     45449     45448     45450     45449     45450
     45451     45452     45451     45453     45452     45453     45454     45455
     45454     45456     45455     45456     45457     45458     45457     45459
     45458     45459     45460     45461     45460     45462     45461     45462
     45463     45464     45463     45465     45464     45465     45466     45467
     45466     45468     45467     45468     45469     45470     45469     45471
     45470     45471     45472     45473     45472     45474     45473     45474
     45475     45476     45475     45477     45476     45477     45478     45479
     45478     45480     45479     45480     45481     45482     45481     45483
     45482     45483     45484     45485     45484     45486     45485     45486
     45487     45488     45487     45489     45488     45489     45490     45491
     45490     45492     45491     45492     45493     45494     45493     45495
     45494     45495     45496     45497     45496     45498     45497     45498
     45499     45500     45499     45501     45500     45501     45502     45503
     45502     45504     45503     45504     45505     45506     45505     45507
     45506     45507     45508     45509     45508     45510     45509     45510
     45511     45512     45511     45513     45512     45513     45514     45515
     45514     45516     45515     45516     45517     45518     45517     45519
     45518     45519     45520     45521     45520     45522     45521     45522
     45523     45524     45523     45525     45524     45525     45526     45527
     45526     45528     45527     45528     45529     45530     45529     45531
     45530     45531     45532     45533     45532     45534     45533     45534
     45535     45536     45535     45537     45536     45537     45538     45539
     45538     45540     45539     45540     45541     45542     45541     45543
     45542     45543     45544     45545     45544     45546     45545     45546
     45547     45548     45547     45549     45548     45549     45550     45551
     45550     45552     45551     45552     45553     45554     45553     45555
     45554     45555     45556     45557     45556     45558     45557     45558
     45559     45560     45559     45561     45560     45561     45562     45563
     45562     45564     45563     45564     45565     45566     45565     45567
     45566     45567     45568     45569     45568     45570     45569     45570
     45571     45572     45571     45573     45572     45573     45574     45575
     45574     45576     45575     45576     45577     45578     45577     45579
     45578     45579     45580     45581     45580     45582     45581     45582
     45583     45584     45583     45585     45584     45585     45586     45587
     45586     45588     45587     45588     45589     45590     45589     45591
     45590     45591     45592     45593     45592     45594     45593     45594
     45595     45596     45595     45597     45596     45597     45598     45599
     45598     45600     45599     45600     45601     45602     45601     45603
     45602     45603     45604     45605     45604     45606     45605     45606
     45607     45608     45607     45609     45608     45609     45610     45611
     45610     45612     45611     45612     45613     45614     45613     45615
     45614     45615     45616     45617     45616     45618     45617     45618
     45619     45620     45619     45621     45620     45621     45622     45623
     45622     45624     45623     45624     45625     45626     45625     45627
     45626     45627     45628     45629     45628     45630     45629     45630
     45631     45632     45631     45633     45632     45633     45634     45635
     45634     45636     45635     45636     45637     45638     45637     45639
     45638     45639     45640     45641     45640     45642     45641     45642
     45643     45644     45643     45645     45644     45645     45646     45647
     45646     45648     45647     45648     45649     45650     45649     45651
     45650     45651     45652     45653     45652     45654     45653     45654
     45655     45656     45655     45657     45656     45657     45658     45659
     45658     45660     45659     45660     45661     45662     45661     45663
     45662     45663     45664     45665     45664     45666     45665     45666
     45667     45668     45667     45669     45668     45669     45670     45671
     45670     45672     45671     45672     45673     45674     45673     45675
     45674     45675     45676     45677     45676     45678     45677     45678
     45679     45680     45679     45681     45680     45681     45682     45683
     45682     45684     45683     45684     45685     45686     45685     45687
     45686     45687     45688     45689     45688     45690     45689     45690
     45691     45692     45691     45693     45692     45693     45694     45695
     45694     45696     45695     45696     45697     45698     45697     45699
     45698     45699     45700     45701     45700     45702     45701     45702
     45703     45704     45703     45705     45704     45705     45706     45707
     45706     45708     45707     45708     45709     45710     45709     45711
     45710     45711     45712     45713     45712     45714     45713     45714
     45715     45716     45715     45717     45716     45717     45718     45719
     45718     45720     45719     45720     45721     45722     45721     45723
     45722     45723     45724     45725     45724     45726     45725     45726
     45727     45728     45727     45729     45728     45729     45730     45731
     45730     45732     45731     45732     45733     45734     45733     45735
     45734     45735     45736     45737     45736     45738     45737     45738
     45739     45740     45739     45741     45740     45741     45742     45743
     45742     45744     45743     45744     45745     45746     45745     45747
     45746     45747     45748     45749     45748     45750     45749     45750
     45751     45752     45751     45753     45752     45753     45754     45755
     45754     45756     45755     45756     45757     45758     45757     45759
     45758     45759     45760     45761     45760     45762     45761     45762
     45763     45764     45763     45765     45764     45765     45766     45767
     45766     45768     45767     45768     45769     45770     45769     45771
     45770     45771     45772     45773     45772     45774     45773     45774
     45775     45776     45775     45777     45776     45777     45778     45779
     45778     45780     45779     45780     45781     45782     45781     45783
     45782     45783     45784     45785     45784     45786     45785     45786
     45787     45788     45787     45789     45788     45789     45790     45791
     45790     45792     45791     45792     45793     45794     45793     45795
     45794     45795     45796     45797     45796     45798     45797     45798
     45799     45800     45799     45801     45800     45801     45802     45803
     45802     45804     45803     45804     45805     45806     45805     45807
     45806     45807     45808     45809     45808     45810     45809     45810
     45811     45812     45811     45813     45812     45813     45814     45815
     45814     45816     45815     45816     45817     45818     45817     45819
     45818     45819     45820     45821     45820     45822     45821     45822
     45823     45824     45823     45825     45824     45825     45826     45827
     45826     45828     45827     45828     45829     45830     45829     45831
     45830     45831     45832     45833     45832     45834     45833     45834
     45835     45836     45835     45837     45836     45837     45838     45839
     45838     45840     45839     45840     45841     45842     45841     45843
     45842     45843     45844     45845     45844     45846     45845     45846
     45847     45848     45847     45849     45848     45849     45850     45851
     45850     45852     45851     45852     45853     45854     45853     45855
     45854     45855     45856     45857     45856     45858     45857     45858
     45859     45860     45859     45861     45860     45861     45862     45863
     45862     45864     45863     45864     45865     45866     45865     45867
     45866     45867     45868     45869     45868     45870     45869     45870
     45871     45872     45871     45873     45872     45873     45874     45875
     45874     45876     45875     45876     45877     45878     45877     45879
     45878     45879     45880     45881     45880     45882     45881     45882
     45883     45884     45883     45885     45884     45885     45886     45887
     45886     45888     45887     45888     45889     45890     45889     45891
     45890     45891     45892     45893     45892     45894     45893     45894
     45895     45896     45895     45897     45896     45897     45898     45899
     45898     45900     45899     45900     45901     45902     45901     45903
     45902     45903     45904     45905     45904     45906     45905     45906
     45907     45908     45907     45909     45908     45909     45910     45911
     45910     45912     45911     45912     45913     45914     45913     45915
     45914     45915     45916     45917     45916     45918     45917     45918
     45919     45920     45919     45921     45920     45921     45922     45923
     45922     45924     45923     45924     45925     45926     45925     45927
     45926     45927     45928     45929     45928     45930     45929     45930
     45931     45932     45931     45933     45932     45933     45934     45935
     45934     45936     45935     45936     45937     45938     45937     45939
     45938     45939     45940     45941     45940     45942     45941     45942
     45943     45944     45943     45945     45944     45945     45946     45947
     45946     45948     45947     45948     45949     45950     45949     45951
     45950     45951     45952     45953     45952     45954     45953     45954
     45955     45956     45955     45957     45956     45957     45958     45959
     45958     45960     45959     45960     45961     45962     45961     45963
     45962     45963     45964     45965     45964     45966     45965     45966
     45967     45968     45967     45969     45968     45969     45970     45971
     45970     45972     45971     45972     45973     45974     45973     45975
     45974     45975     45976     45977     45976     45978     45977     45978
     45979     45980     45979     45981     45980     45981     45982     45983
     45982     45984     45983     45984     45985     45986     45985     45987
     45986     45987     45988     45989     45988     45990     45989     45990
     45991     45992     45991     45993     45992     45993     45994     45995
     45994     45996     45995     45996     45997     45998     45997     45999
     45998     45999     46000     46001     46000     46002     46001     46002
     46003     46004     46003     46005     46004     46005     46006     46007
     46006     46008     46007     46008     46009     46010     46009     46011
     46010     46011     46012     46013     46012     46014     46013     46014
     46015     46016     46015     46017     46016     46017     46018     46019
     46018     46020     46019     46020     46021     46022     46021     46023
     46022     46023     46024     46025     46024     46026     46025     46026
     46027     46028     46027     46029     46028     46029     46030     46031
     46030     46032     46031     46032     46033     46034     46033     46035
     46034     46035     46036     46037     46036     46038     46037     46038
     46039     46040     46039     46041     46040     46041     46042     46043
     46042     46044     46043     46044     46045     46046     46045     46047
     46046     46047     46048     46049     46048     46050     46049     46050
     46051     46052     46051     46053     46052     46053     46054     46055
     46054     46056     46055     46056     46057     46058     46057     46059
     46058     46059     46060     46061     46060     46062     46061     46062
     46063     46064     46063     46065     46064     46065     46066     46067
     46066     46068     46067     46068     46069     46070     46069     46071
     46070     46071     46072     46073     46072     46074     46073     46074
     46075     46076     46075     46077     46076     46077     46078     46079
     46078     46080     46079     46080     46081     46082     46081     46083
     46082     46083     46084     46085     46084     46086     46085     46086
     46087     46088     46087     46089     46088     46089     46090     46091
     46090     46092     46091     46092     46093     46094     46093     46095
     46094     46095     46096     46097     46096     46098     46097     46098
     46099     46100     46099     46101     46100     46101     46102     46103
     46102     46104     46103     46104     46105     46106     46105     46107
     46106     46107     46108     46109     46108     46110     46109     46110
     46111     46112     46111     46113     46112     46113     46114     46115
     46114     46116     46115     46116     46117     46118     46117     46119
     46118     46119     46120     46121     46120     46122     46121     46122
     46123     46124     46123     46125     46124     46125     46126     46127
     46126     46128     46127     46128     46129     46130     46129     46131
     46130     46131     46132     46133     46132     46134     46133     46134
     46135     46136     46135     46137     46136     46137     46138     46139
     46138     46140     46139     46140     46141     46142     46141     46143
     46142     46143     46144     46145     46144     46146     46145     46146
     46147     46148     46147     46149     46148     46149     46150     46151
     46150     46152     46151     46152     46153     46154     46153     46155
     46154     46155     46156     46157     46156     46158     46157     46158
     46159     46160     46159     46161     46160     46161     46162     46163
     46162     46164     46163     46164     46165     46166     46165     46167
     46166     46167     46168     46169     46168     46170     46169     46170
     46171     46172     46171     46173     46172     46173     46174     46175
     46174     46176     46175     46176     46177     46178     46177     46179
     46178     46179     46180     46181     46180     46182     46181     46182
     46183     46184     46183     46185     46184     46185     46186     46187
     46186     46188     46187     46188     46189     46190     46189     46191
     46190     46191     46192     46193     46192     46194     46193     46194
     46195     46196     46195     46197     46196     46197     46198     46199
     46198     46200     46199     46200     46201     46202     46201     46203
     46202     46203     46204     46205     46204     46206     46205     46206
     46207     46208     46207     46209     46208     46209     46210     46211
     46210     46212     46211     46212     46213     46214     46213     46215
     46214     46215     46216     46217     46216     46218     46217     46218
     46219     46220     46219     46221     46220     46221     46222     46223
     46222     46224     46223     46224     46225     46226     46225     46227
     46226     46227     46228     46229     46228     46230     46229     46230
     46231     46232     46231     46233     46232     46233     46234     46235
     46234     46236     46235     46236     46237     46238     46237     46239
     46238     46239     46240     46241     46240     46242     46241     46242
     46243     46244     46243     46245     46244     46245     46246     46247
     46246     46248     46247     46248     46249     46250     46249     46251
     46250     46251     46252     46253     46252     46254     46253     46254
     46255     46256     46255     46257     46256     46257     46258     46259
     46258     46260     46259     46260     46261     46262     46261     46263
     46262     46263     46264     46265     46264     46266     46265     46266
     46267     46268     46267     46269     46268     46269     46270     46271
     46270     46272     46271     46272     46273     46274     46273     46275
     46274     46275     46276     46277     46276     46278     46277     46278
     46279     46280     46279     46281     46280     46281     46282     46283
     46282     46284     46283     46284     46285     46286     46285     46287
     46286     46287     46288     46289     46288     46290     46289     46290
     46291     46292     46291     46293     46292     46293     46294     46295
     46294     46296     46295     46296     46297     46298     46297     46299
     46298     46299     46300     46301     46300     46302     46301     46302
     46303     46304     46303     46305     46304     46305     46306     46307
     46306     46308     46307     46308     46309     46310     46309     46311
     46310     46311     46312     46313     46312     46314     46313     46314
     46315     46316     46315     46317     46316     46317     46318     46319
     46318     46320     46319     46320     46321     46322     46321     46323
     46322     46323     46324     46325     46324     46326     46325     46326
     46327     46328     46327     46329     46328     46329     46330     46331
     46330     46332     46331     46332     46333     46334     46333     46335
     46334     46335     46336     46337     46336     46338     46337     46338
     46339     46340     46339     46341     46340     46341     46342     46343
     46342     46344     46343     46344     46345     46346     46345     46347
     46346     46347     46348     46349     46348     46350     46349     46350
     46351     46352     46351     46353     46352     46353     46354     46355
     46354     46356     46355     46356     46357     46358     46357     46359
     46358     46359     46360     46361     46360     46362     46361     46362
     46363     46364     46363     46365     46364     46365     46366     46367
     46366     46368     46367     46368     46369     46370     46369     46371
     46370     46371     46372     46373     46372     46374     46373     46374
     46375     46376     46375     46377     46376     46377     46378     46379
     46378     46380     46379     46380     46381     46382     46381     46383
     46382     46383     46384     46385     46384     46386     46385     46386
     46387     46388     46387     46389     46388     46389     46390     46391
     46390     46392     46391     46392     46393     46394     46393     46395
     46394     46395     46396     46397     46396     46398     46397     46398
     46399     46400     46399     46401     46400     46401     46402     46403
     46402     46404     46403     46404     46405     46406     46405     46407
     46406     46407     46408     46409     46408     46410     46409     46410
     46411     46412     46411     46413     46412     46413     46414     46415
     46414     46416     46415     46416     46417     46418     46417     46419
     46418     46419     46420     46421     46420     46422     46421     46422
     46423     46424     46423     46425     46424     46425     46426     46427
     46426     46428     46427     46428     46429     46430     46429     46431
     46430     46431     46432     46433     46432     46434     46433     46434
     46435     46436     46435     46437     46436     46437     46438     46439
     46438     46440     46439     46440     46441     46442     46441     46443
     46442     46443     46444     46445     46444     46446     46445     46446
     46447     46448     46447     46449     46448     46449     46450     46451
     46450     46452     46451     46452     46453     46454     46453     46455
     46454     46455     46456     46457     46456     46458     46457     46458
     46459     46460     46459     46461     46460     46461     46462     46463
     46462     46464     46463     46464     46465     46466     46465     46467
     46466     46467     46468     46469     46468     46470     46469     46470
     46471     46472     46471     46473     46472     46473     46474     46475
     46474     46476     46475     46476     46477     46478     46477     46479
     46478     46479     46480     46481     46480     46482     46481     46482
     46483     46484     46483     46485     46484     46485     46486     46487
     46486     46488     46487     46488     46489     46490     46489     46491
     46490     46491     46492     46493     46492     46494     46493     46494
     46495     46496     46495     46497     46496     46497     46498     46499
     46498     46500     46499     46500     46501     46502     46501     46503
     46502     46503     46504     46505     46504     46506     46505     46506
     46507     46508     46507     46509     46508     46509     46510     46511
     46510     46512     46511     46512     46513     46514     46513     46515
     46514     46515     46516     46517     46516     46518     46517     46518
     46519     46520     46519     46521     46520     46521     46522     46523
     46522     46524     46523     46524     46525     46526     46525     46527
     46526     46527     46528     46529     46528     46530     46529     46530
     46531     46532     46531     46533     46532     46533     46534     46535
     46534     46536     46535     46536     46537     46538     46537     46539
     46538     46539     46540     46541     46540     46542     46541     46542
     46543     46544     46543     46545     46544     46545     46546     46547
     46546     46548     46547     46548     46549     46550     46549     46551
     46550     46551     46552     46553     46552     46554     46553     46554
     46555     46556     46555     46557     46556     46557     46558     46559
     46558     46560     46559     46560     46561     46562     46561     46563
     46562     46563     46564     46565     46564     46566     46565     46566
     46567     46568     46567     46569     46568     46569     46570     46571
     46570     46572     46571     46572     46573     46574     46573     46575
     46574     46575     46576     46577     46576     46578     46577     46578
     46579     46580     46579     46581     46580     46581     46582     46583
     46582     46584     46583     46584     46585     46586     46585     46587
     46586     46587     46588     46589     46588     46590     46589     46590
     46591     46592     46591     46593     46592     46593     46594     46595
     46594     46596     46595     46596     46597     46598     46597     46599
     46598     46599     46600     46601     46600     46602     46601     46602
     46603     46604     46603     46605     46604     46605     46606     46607
     46606     46608     46607     46608     46609     46610     46609     46611
     46610     46611     46612     46613     46612     46614     46613     46614
     46615     46616     46615     46617     46616     46617     46618     46619
     46618     46620     46619     46620     46621     46622     46621     46623
     46622     46623     46624     46625     46624     46626     46625     46626
     46627     46628     46627     46629     46628     46629     46630     46631
     46630     46632     46631     46632     46633     46634     46633     46635
     46634     46635     46636     46637     46636     46638     46637     46638
     46639     46640     46639     46641     46640     46641     46642     46643
     46642     46644     46643     46644     46645     46646     46645     46647
     46646     46647     46648     46649     46648     46650     46649     46650
     46651     46652     46651     46653     46652     46653     46654     46655
     46654     46656     46655     46656     46657     46658     46657     46659
     46658     46659     46660     46661     46660     46662     46661     46662
     46663     46664     46663     46665     46664     46665     46666     46667
     46666     46668     46667     46668     46669     46670     46669     46671
     46670     46671     46672     46673     46672     46674     46673     46674
     46675     46676     46675     46677     46676     46677     46678     46679
     46678     46680     46679     46680     46681     46682     46681     46683
     46682     46683     46684     46685     46684     46686     46685     46686
     46687     46688     46687     46689     46688     46689     46690     46691
     46690     46692     46691     46692     46693     46694     46693     46695
     46694     46695     46696     46697     46696     46698     46697     46698
     46699     46700     46699     46701     46700     46701     46702     46703
     46702     46704     46703     46704     46705     46706     46705     46707
     46706     46707     46708     46709     46708     46710     46709     46710
     46711     46712     46711     46713     46712     46713     46714     46715
     46714     46716     46715     46716     46717     46718     46717     46719
     46718     46719     46720     46721     46720     46722     46721     46722
     46723     46724     46723     46725     46724     46725     46726     46727
     46726     46728     46727     46728     46729     46730     46729     46731
     46730     46731     46732     46733     46732     46734     46733     46734
     46735     46736     46735     46737     46736     46737     46738     46739
     46738     46740     46739     46740     46741     46742     46741     46743
     46742     46743     46744     46745     46744     46746     46745     46746
     46747     46748     46747     46749     46748     46749     46750     46751
     46750     46752     46751     46752     46753     46754     46753     46755
     46754     46755     46756     46757     46756     46758     46757     46758
     46759     46760     46759     46761     46760     46761     46762     46763
     46762     46764     46763     46764     46765     46766     46765     46767
     46766     46767     46768     46769     46768     46770     46769     46770
     46771     46772     46771     46773     46772     46773     46774     46775
     46774     46776     46775     46776     46777     46778     46777     46779
     46778     46779     46780     46781     46780     46782     46781     46782
     46783     46784     46783     46785     46784     46785     46786     46787
     46786     46788     46787     46788     46789     46790     46789     46791
     46790     46791     46792     46793     46792     46794     46793     46794
     46795     46796     46795     46797     46796     46797     46798     46799
     46798     46800     46799     46800     46801     46802     46801     46803
     46802     46803     46804     46805     46804     46806     46805     46806
     46807     46808     46807     46809     46808     46809     46810     46811
     46810     46812     46811     46812     46813     46814     46813     46815
     46814     46815     46816     46817     46816     46818     46817     46818
     46819     46820     46819     46821     46820     46821     46822     46823
     46822     46824     46823     46824     46825     46826     46825     46827
     46826     46827     46828     46829     46828     46830     46829     46830
     46831     46832     46831     46833     46832     46833     46834     46835
     46834     46836     46835     46836     46837     46838     46837     46839
     46838     46839     46840     46841     46840     46842     46841     46842
     46843     46844     46843     46845     46844     46845     46846     46847
     46846     46848     46847     46848     46849     46850     46849     46851
     46850     46851     46852     46853     46852     46854     46853     46854
     46855     46856     46855     46857     46856     46857     46858     46859
     46858     46860     46859     46860     46861     46862     46861     46863
     46862     46863     46864     46865     46864     46866     46865     46866
     46867     46868     46867     46869     46868     46869     46870     46871
     46870     46872     46871     46872     46873     46874     46873     46875
     46874     46875     46876     46877     46876     46878     46877     46878
     46879     46880     46879     46881     46880     46881     46882     46883
     46882     46884     46883     46884     46885     46886     46885     46887
     46886     46887     46888     46889     46888     46890     46889     46890
     46891     46892     46891     46893     46892     46893     46894     46895
     46894     46896     46895     46896     46897     46898     46897     46899
     46898     46899     46900     46901     46900     46902     46901     46902
     46903     46904     46903     46905     46904     46905     46906     46907
     46906     46908     46907     46908     46909     46910     46909     46911
     46910     46911     46912     46913     46912     46914     46913     46914
     46915     46916     46915     46917     46916     46917     46918     46919
     46918     46920     46919     46920     46921     46922     46921     46923
     46922     46923     46924     46925     46924     46926     46925     46926
     46927     46928     46927     46929     46928     46929     46930     46931
     46930     46932     46931     46932     46933     46934     46933     46935
     46934     46935     46936     46937     46936     46938     46937     46938
     46939     46940     46939     46941     46940     46941     46942     46943
     46942     46944     46943     46944     46945     46946     46945     46947
     46946     46947     46948     46949     46948     46950     46949     46950
     46951     46952     46951     46953     46952     46953     46954     46955
     46954     46956     46955     46956     46957     46958     46957     46959
     46958     46959     46960     46961     46960     46962     46961     46962
     46963     46964     46963     46965     46964     46965     46966     46967
     46966     46968     46967     46968     46969     46970     46969     46971
     46970     46971     46972     46973     46972     46974     46973     46974
     46975     46976     46975     46977     46976     46977     46978     46979
     46978     46980     46979     46980     46981     46982     46981     46983
     46982     46983     46984     46985     46984     46986     46985     46986
     46987     46988     46987     46989     46988     46989     46990     46991
     46990     46992     46991     46992     46993     46994     46993     46995
     46994     46995     46996     46997     46996     46998     46997     46998
     46999     47000     46999     47001     47000     47001     47002     47003
     47002     47004     47003     47004     47005     47006     47005     47007
     47006     47007     47008     47009     47008     47010     47009     47010
     47011     47012     47011     47013     47012     47013     47014     47015
     47014     47016     47015     47016     47017     47018     47017     47019
     47018     47019     47020     47021     47020     47022     47021     47022
     47023     47024     47023     47025     47024     47025     47026     47027
     47026     47028     47027     47028     47029     47030     47029     47031
     47030     47031     47032     47033     47032     47034     47033     47034
     47035     47036     47035     47037     47036     47037     47038     47039
     47038     47040     47039     47040     47041     47042     47041     47043
     47042     47043     47044     47045     47044     47046     47045     47046
     47047     47048     47047     47049     47048     47049     47050     47051
     47050     47052     47051     47052     47053     47054     47053     47055
     47054     47055     47056     47057     47056     47058     47057     47058
     47059     47060     47059     47061     47060     47061     47062     47063
     47062     47064     47063     47064     47065     47066     47065     47067
     47066     47067     47068     47069     47068     47070     47069     47070
     47071     47072     47071     47073     47072     47073     47074     47075
     47074     47076     47075     47076     47077     47078     47077     47079
     47078     47079     47080     47081     47080     47082     47081     47082
     47083     47084     47083     47085     47084     47085     47086     47087
     47086     47088     47087     47088     47089     47090     47089     47091
     47090     47091     47092     47093     47092     47094     47093     47094
     47095     47096     47095     47097     47096     47097     47098     47099
     47098     47100     47099     47100     47101     47102     47101     47103
     47102     47103     47104     47105     47104     47106     47105     47106
     47107     47108     47107     47109     47108     47109     47110     47111
     47110     47112     47111     47112     47113     47114     47113     47115
     47114     47115     47116     47117     47116     47118     47117     47118
     47119     47120     47119     47121     47120     47121     47122     47123
     47122     47124     47123     47124     47125     47126     47125     47127
     47126     47127     47128     47129     47128     47130     47129     47130
     47131     47132     47131     47133     47132     47133     47134     47135
     47134     47136     47135     47136     47137     47138     47137     47139
     47138     47139     47140     47141     47140     47142     47141     47142
     47143     47144     47143     47145     47144     47145     47146     47147
     47146     47148     47147     47148     47149     47150     47149     47151
     47150     47151     47152     47153     47152     47154     47153     47154
     47155     47156     47155     47157     47156     47157     47158     47159
     47158     47160     47159     47160     47161     47162     47161     47163
     47162     47163     47164     47165     47164     47166     47165     47166
     47167     47168     47167     47169     47168     47169     47170     47171
     47170     47172     47171     47172     47173     47174     47173     47175
     47174     47175     47176     47177     47176     47178     47177     47178
     47179     47180     47179     47181     47180     47181     47182     47183
     47182     47184     47183     47184     47185     47186     47185     47187
     47186     47187     47188     47189     47188     47190     47189     47190
     47191     47192     47191     47193     47192     47193     47194     47195
     47194     47196     47195     47196     47197     47198     47197     47199
     47198     47199     47200     47201     47200     47202     47201     47202
     47203     47204     47203     47205     47204     47205     47206     47207
     47206     47208     47207     47208     47209     47210     47209     47211
     47210     47211     47212     47213     47212     47214     47213     47214
     47215     47216     47215     47217     47216     47217     47218     47219
     47218     47220     47219     47220     47221     47222     47221     47223
     47222     47223     47224     47225     47224     47226     47225     47226
     47227     47228     47227     47229     47228     47229     47230     47231
     47230     47232     47231     47232     47233     47234     47233     47235
     47234     47235     47236     47237     47236     47238     47237     47238
     47239     47240     47239     47241     47240     47241     47242     47243
     47242     47244     47243     47244     47245     47246     47245     47247
     47246     47247     47248     47249     47248     47250     47249     47250
     47251     47252     47251     47253     47252     47253     47254     47255
     47254     47256     47255     47256     47257     47258     47257     47259
     47258     47259     47260     47261     47260     47262     47261     47262
     47263     47264     47263     47265     47264     47265     47266     47267
     47266     47268     47267     47268     47269     47270     47269     47271
     47270     47271     47272     47273     47272     47274     47273     47274
     47275     47276     47275     47277     47276     47277     47278     47279
     47278     47280     47279     47280     47281     47282     47281     47283
     47282     47283     47284     47285     47284     47286     47285     47286
     47287     47288     47287     47289     47288     47289     47290     47291
     47290     47292     47291     47292     47293     47294     47293     47295
     47294     47295     47296     47297     47296     47298     47297     47298
     47299     47300     47299     47301     47300     47301     47302     47303
     47302     47304     47303     47304     47305     47306     47305     47307
     47306     47307     47308     47309     47308     47310     47309     47310
     47311     47312     47311     47313     47312     47313     47314     47315
     47314     47316     47315     47316     47317     47318     47317     47319
     47318     47319     47320     47321     47320     47322     47321     47322
     47323     47324     47323     47325     47324     47325     47326     47327
     47326     47328     47327     47328     47329     47330     47329     47331
     47330     47331     47332     47333     47332     47334     47333     47334
     47335     47336     47335     47337     47336     47337     47338     47339
     47338     47340     47339     47340     47341     47342     47341     47343
     47342     47343     47344     47345     47344     47346     47345     47346
     47347     47348     47347     47349     47348     47349     47350     47351
     47350     47352     47351     47352     47353     47354     47353     47355
     47354     47355     47356     47357     47356     47358     47357     47358
     47359     47360     47359     47361     47360     47361     47362     47363
     47362     47364     47363     47364     47365     47366     47365     47367
     47366     47367     47368     47369     47368     47370     47369     47370
     47371     47372     47371     47373     47372     47373     47374     47375
     47374     47376     47375     47376     47377     47378     47377     47379
     47378     47379     47380     47381     47380     47382     47381     47382
     47383     47384     47383     47385     47384     47385     47386     47387
     47386     47388     47387     47388     47389     47390     47389     47391
     47390     47391     47392     47393     47392     47394     47393     47394
     47395     47396     47395     47397     47396     47397     47398     47399
     47398     47400     47399     47400     47401     47402     47401     47403
     47402     47403     47404     47405     47404     47406     47405     47406
     47407     47408     47407     47409     47408     47409     47410     47411
     47410     47412     47411     47412     47413     47414     47413     47415
     47414     47415     47416     47417     47416     47418     47417     47418
     47419     47420     47419     47421     47420     47421     47422     47423
     47422     47424     47423     47424     47425     47426     47425     47427
     47426     47427     47428     47429     47428     47430     47429     47430
     47431     47432     47431     47433     47432     47433     47434     47435
     47434     47436     47435     47436     47437     47438     47437     47439
     47438     47439     47440     47441     47440     47442     47441     47442
     47443     47444     47443     47445     47444     47445     47446     47447
     47446     47448     47447     47448     47449     47450     47449     47451
     47450     47451     47452     47453     47452     47454     47453     47454
     47455     47456     47455     47457     47456     47457     47458     47459
     47458     47460     47459     47460     47461     47462     47461     47463
     47462     47463     47464     47465     47464     47466     47465     47466
     47467     47468     47467     47469     47468     47469     47470     47471
     47470     47472     47471     47472     47473     47474     47473     47475
     47474     47475     47476     47477     47476     47478     47477     47478
     47479     47480     47479     47481     47480     47481     47482     47483
     47482     47484     47483     47484     47485     47486     47485     47487
     47486     47487     47488     47489     47488     47490     47489     47490
     47491     47492     47491     47493     47492     47493     47494     47495
     47494     47496     47495     47496     47497     47498     47497     47499
     47498     47499     47500     47501     47500     47502     47501     47502
     47503     47504     47503     47505     47504     47505     47506     47507
     47506     47508     47507     47508     47509     47510     47509     47511
     47510     47511     47512     47513     47512     47514     47513     47514
     47515     47516     47515     47517     47516     47517     47518     47519
     47518     47520     47519     47520     47521     47522     47521     47523
     47522     47523     47524     47525     47524     47526     47525     47526
     47527     47528     47527     47529     47528     47529     47530     47531
     47530     47532     47531     47532     47533     47534     47533     47535
     47534     47535     47536     47537     47536     47538     47537     47538
     47539     47540     47539     47541     47540     47541     47542     47543
     47542     47544     47543     47544     47545     47546     47545     47547
     47546     47547     47548     47549     47548     47550     47549     47550
     47551     47552     47551     47553     47552     47553     47554     47555
     47554     47556     47555     47556     47557     47558     47557     47559
     47558     47559     47560     47561     47560     47562     47561     47562
     47563     47564     47563     47565     47564     47565     47566     47567
     47566     47568     47567     47568     47569     47570     47569     47571
     47570     47571     47572     47573     47572     47574     47573     47574
     47575     47576     47575     47577     47576     47577     47578     47579
     47578     47580     47579     47580     47581     47582     47581     47583
     47582     47583     47584     47585     47584     47586     47585     47586
     47587     47588     47587     47589     47588     47589     47590     47591
     47590     47592     47591     47592     47593     47594     47593     47595
     47594     47595     47596     47597     47596     47598     47597     47598
     47599     47600     47599     47601     47600     47601     47602     47603
     47602     47604     47603     47604     47605     47606     47605     47607
     47606     47607     47608     47609     47608     47610     47609     47610
     47611     47612     47611     47613     47612     47613     47614     47615
     47614     47616     47615     47616     47617     47618     47617     47619
     47618     47619     47620     47621     47620     47622     47621     47622
     47623     47624     47623     47625     47624     47625     47626     47627
     47626     47628     47627     47628     47629     47630     47629     47631
     47630     47631     47632     47633     47632     47634     47633     47634
     47635     47636     47635     47637     47636     47637     47638     47639
     47638     47640     47639     47640     47641     47642     47641     47643
     47642     47643     47644     47645     47644     47646     47645     47646
     47647     47648     47647     47649     47648     47649     47650     47651
     47650     47652     47651     47652     47653     47654     47653     47655
     47654     47655     47656     47657     47656     47658     47657     47658
     47659     47660     47659     47661     47660     47661     47662     47663
     47662     47664     47663     47664     47665     47666     47665     47667
     47666     47667     47668     47669     47668     47670     47669     47670
     47671     47672     47671     47673     47672     47673     47674     47675
     47674     47676     47675     47676     47677     47678     47677     47679
     47678     47679     47680     47681     47680     47682     47681     47682
     47683     47684     47683     47685     47684     47685     47686     47687
     47686     47688     47687     47688     47689     47690     47689     47691
     47690     47691     47692     47693     47692     47694     47693     47694
     47695     47696     47695     47697     47696     47697     47698     47699
     47698     47700     47699     47700     47701     47702     47701     47703
     47702     47703     47704     47705     47704     47706     47705     47706
     47707     47708     47707     47709     47708     47709     47710     47711
     47710     47712     47711     47712     47713     47714     47713     47715
     47714     47715     47716     47717     47716     47718     47717     47718
     47719     47720     47719     47721     47720     47721     47722     47723
     47722     47724     47723     47724     47725     47726     47725     47727
     47726     47727     47728     47729     47728     47730     47729     47730
     47731     47732     47731     47733     47732     47733     47734     47735
     47734     47736     47735     47736     47737     47738     47737     47739
     47738     47739     47740     47741     47740     47742     47741     47742
     47743     47744     47743     47745     47744     47745     47746     47747
     47746     47748     47747     47748     47749     47750     47749     47751
     47750     47751     47752     47753     47752     47754     47753     47754
     47755     47756     47755     47757     47756     47757     47758     47759
     47758     47760     47759     47760     47761     47762     47761     47763
     47762     47763     47764     47765     47764     47766     47765     47766
     47767     47768     47767     47769     47768     47769     47770     47771
     47770     47772     47771     47772     47773     47774     47773     47775
     47774     47775     47776     47777     47776     47778     47777     47778
     47779     47780     47779     47781     47780     47781     47782     47783
     47782     47784     47783     47784     47785     47786     47785     47787
     47786     47787     47788     47789     47788     47790     47789     47790
     47791     47792     47791     47793     47792     47793     47794     47795
     47794     47796     47795     47796     47797     47798     47797     47799
     47798     47799     47800     47801     47800     47802     47801     47802
     47803     47804     47803     47805     47804     47805     47806     47807
     47806     47808     47807     47808     47809     47810     47809     47811
     47810     47811     47812     47813     47812     47814     47813     47814
     47815     47816     47815     47817     47816     47817     47818     47819
     47818     47820     47819     47820     47821     47822     47821     47823
     47822     47823     47824     47825     47824     47826     47825     47826
     47827     47828     47827     47829     47828     47829     47830     47831
     47830     47832     47831     47832     47833     47834     47833     47835
     47834     47835     47836     47837     47836     47838     47837     47838
     47839     47840     47839     47841     47840     47841     47842     47843
     47842     47844     47843     47844     47845     47846     47845     47847
     47846     47847     47848     47849     47848     47850     47849     47850
     47851     47852     47851     47853     47852     47853     47854     47855
     47854     47856     47855     47856     47857     47858     47857     47859
     47858     47859     47860     47861     47860     47862     47861     47862
     47863     47864     47863     47865     47864     47865     47866     47867
     47866     47868     47867     47868     47869     47870     47869     47871
     47870     47871     47872     47873     47872     47874     47873     47874
     47875     47876     47875     47877     47876     47877     47878     47879
     47878     47880     47879     47880     47881     47882     47881     47883
     47882     47883     47884     47885     47884     47886     47885     47886
     47887     47888     47887     47889     47888     47889     47890     47891
     47890     47892     47891     47892     47893     47894     47893     47895
     47894     47895     47896     47897     47896     47898     47897     47898
     47899     47900     47899     47901     47900     47901     47902     47903
     47902     47904     47903     47904     47905     47906     47905     47907
     47906     47907     47908     47909     47908     47910     47909     47910
     47911     47912     47911     47913     47912     47913     47914     47915
     47914     47916     47915     47916     47917     47918     47917     47919
     47918     47919     47920     47921     47920     47922     47921     47922
     47923     47924     47923     47925     47924     47925     47926     47927
     47926     47928     47927     47928     47929     47930     47929     47931
     47930     47931     47932     47933     47932     47934     47933     47934
     47935     47936     47935     47937     47936     47937     47938     47939
     47938     47940     47939     47940     47941     47942     47941     47943
     47942     47943     47944     47945     47944     47946     47945     47946
     47947     47948     47947     47949     47948     47949     47950     47951
     47950     47952     47951     47952     47953     47954     47953     47955
     47954     47955     47956     47957     47956     47958     47957     47958
     47959     47960     47959     47961     47960     47961     47962     47963
     47962     47964     47963     47964     47965     47966     47965     47967
     47966     47967     47968     47969     47968     47970     47969     47970
     47971     47972     47971     47973     47972     47973     47974     47975
     47974     47976     47975     47976     47977     47978     47977     47979
     47978     47979     47980     47981     47980     47982     47981     47982
     47983     47984     47983     47985     47984     47985     47986     47987
     47986     47988     47987     47988     47989     47990     47989     47991
     47990     47991     47992     47993     47992     47994     47993     47994
     47995     47996     47995     47997     47996     47997     47998     47999
     47998     48000     47999     48000     48001     48002     48001     48003
     48002     48003     48004     48005     48004     48006     48005     48006
     48007     48008     48007     48009     48008     48009     48010     48011
     48010     48012     48011     48012     48013     48014     48013     48015
     48014     48015     48016     48017     48016     48018     48017     48018
     48019     48020     48019     48021     48020     48021     48022     48023
     48022     48024     48023     48024     48025     48026     48025     48027
     48026     48027     48028     48029     48028     48030     48029     48030
     48031     48032     48031     48033     48032     48033     48034     48035
     48034     48036     48035     48036     48037     48038     48037     48039
     48038     48039     48040     48041     48040     48042     48041     48042
     48043     48044     48043     48045     48044     48045     48046     48047
     48046     48048     48047     48048     48049     48050     48049     48051
     48050     48051     48052     48053     48052     48054     48053     48054
     48055     48056     48055     48057     48056     48057     48058     48059
     48058     48060     48059     48060     48061     48062     48061     48063
     48062     48063     48064     48065     48064     48066     48065     48066
     48067     48068     48067     48069     48068     48069     48070     48071
     48070     48072     48071     48072     48073     48074     48073     48075
     48074     48075     48076     48077     48076     48078     48077     48078
     48079     48080     48079     48081     48080     48081     48082     48083
     48082     48084     48083     48084     48085     48086     48085     48087
     48086     48087     48088     48089     48088     48090     48089     48090
     48091     48092     48091     48093     48092     48093     48094     48095
     48094     48096     48095     48096     48097     48098     48097     48099
     48098     48099     48100     48101     48100     48102     48101     48102
     48103     48104     48103     48105     48104     48105     48106     48107
     48106     48108     48107     48108     48109     48110     48109     48111
     48110     48111     48112     48113     48112     48114     48113     48114
     48115     48116     48115     48117     48116     48117     48118     48119
     48118     48120     48119     48120     48121     48122     48121     48123
     48122     48123     48124     48125     48124     48126     48125     48126
     48127     48128     48127     48129     48128     48129     48130     48131
     48130     48132     48131     48132     48133     48134     48133     48135
     48134     48135     48136     48137     48136     48138     48137     48138
     48139     48140     48139     48141     48140     48141     48142     48143
     48142     48144     48143     48144     48145     48146     48145     48147
     48146     48147     48148     48149     48148     48150     48149     48150
     48151     48152     48151     48153     48152     48153     48154     48155
     48154     48156     48155     48156     48157     48158     48157     48159
     48158     48159     48160     48161     48160     48162     48161     48162
     48163     48164     48163     48165     48164     48165     48166     48167
     48166     48168     48167     48168     48169     48170     48169     48171
     48170     48171     48172     48173     48172     48174     48173     48174
     48175     48176     48175     48177     48176     48177     48178     48179
     48178     48180     48179     48180     48181     48182     48181     48183
     48182     48183     48184     48185     48184     48186     48185     48186
     48187     48188     48187     48189     48188     48189     48190     48191
     48190     48192     48191     48192     48193     48194     48193     48195
     48194     48195     48196     48197     48196     48198     48197     48198
     48199     48200     48199     48201     48200     48201     48202     48203
     48202     48204     48203     48204     48205     48206     48205     48207
     48206     48207     48208     48209     48208     48210     48209     48210
     48211     48212     48211     48213     48212     48213     48214     48215
     48214     48216     48215     48216     48217     48218     48217     48219
     48218     48219     48220     48221     48220     48222     48221     48222
     48223     48224     48223     48225     48224     48225     48226     48227
     48226     48228     48227     48228     48229     48230     48229     48231
     48230     48231     48232     48233     48232     48234     48233     48234
     48235     48236     48235     48237     48236     48237     48238     48239
     48238     48240     48239     48240     48241     48242     48241     48243
     48242     48243     48244     48245     48244     48246     48245     48246
     48247     48248     48247     48249     48248     48249     48250     48251
     48250     48252     48251     48252     48253     48254     48253     48255
     48254     48255     48256     48257     48256     48258     48257     48258
     48259     48260     48259     48261     48260     48261     48262     48263
     48262     48264     48263     48264     48265     48266     48265     48267
     48266     48267     48268     48269     48268     48270     48269     48270
     48271     48272     48271     48273     48272     48273     48274     48275
     48274     48276     48275     48276     48277     48278     48277     48279
     48278     48279     48280     48281     48280     48282     48281     48282
     48283     48284     48283     48285     48284     48285     48286     48287
     48286     48288     48287     48288     48289     48290     48289     48291
     48290     48291     48292     48293     48292     48294     48293     48294
     48295     48296     48295     48297     48296     48297     48298     48299
     48298     48300     48299     48300     48301     48302     48301     48303
     48302     48303     48304     48305     48304     48306     48305     48306
     48307     48308     48307     48309     48308     48309     48310     48311
     48310     48312     48311     48312     48313     48314     48313     48315
     48314     48315     48316     48317     48316     48318     48317     48318
     48319     48320     48319     48321     48320     48321     48322     48323
     48322     48324     48323     48324     48325     48326     48325     48327
     48326     48327     48328     48329     48328     48330     48329     48330
     48331     48332     48331     48333     48332     48333     48334     48335
     48334     48336     48335     48336     48337     48338     48337     48339
     48338     48339     48340     48341     48340     48342     48341     48342
     48343     48344     48343     48345     48344     48345     48346     48347
     48346     48348     48347     48348     48349     48350     48349     48351
     48350     48351     48352     48353     48352     48354     48353     48354
     48355     48356     48355     48357     48356     48357     48358     48359
     48358     48360     48359     48360     48361     48362     48361     48363
     48362     48363     48364     48365     48364     48366     48365     48366
     48367     48368     48367     48369     48368     48369     48370     48371
     48370     48372     48371     48372     48373     48374     48373     48375
     48374     48375     48376     48377     48376     48378     48377     48378
     48379     48380     48379     48381     48380     48381     48382     48383
     48382     48384     48383     48384     48385     48386     48385     48387
     48386     48387     48388     48389     48388     48390     48389     48390
     48391     48392     48391     48393     48392     48393     48394     48395
     48394     48396     48395     48396     48397     48398     48397     48399
     48398     48399     48400     48401     48400     48402     48401     48402
     48403     48404     48403     48405     48404     48405     48406     48407
     48406     48408     48407     48408     48409     48410     48409     48411
     48410     48411     48412     48413     48412     48414     48413     48414
     48415     48416     48415     48417     48416     48417     48418     48419
     48418     48420     48419     48420     48421     48422     48421     48423
     48422     48423     48424     48425     48424     48426     48425     48426
     48427     48428     48427     48429     48428     48429     48430     48431
     48430     48432     48431     48432     48433     48434     48433     48435
     48434     48435     48436     48437     48436     48438     48437     48438
     48439     48440     48439     48441     48440     48441     48442     48443
     48442     48444     48443     48444     48445     48446     48445     48447
     48446     48447     48448     48449     48448     48450     48449     48450
     48451     48452     48451     48453     48452     48453     48454     48455
     48454     48456     48455     48456     48457     48458     48457     48459
     48458     48459     48460     48461     48460     48462     48461     48462
     48463     48464     48463     48465     48464     48465     48466     48467
     48466     48468     48467     48468     48469     48470     48469     48471
     48470     48471     48472     48473     48472     48474     48473     48474
     48475     48476     48475     48477     48476     48477     48478     48479
     48478     48480     48479     48480     48481     48482     48481     48483
     48482     48483     48484     48485     48484     48486     48485     48486
     48487     48488     48487     48489     48488     48489     48490     48491
     48490     48492     48491     48492     48493     48494     48493     48495
     48494     48495     48496     48497     48496     48498     48497     48498
     48499     48500     48499     48501     48500     48501     48502     48503
     48502     48504     48503     48504     48505     48506     48505     48507
     48506     48507     48508     48509     48508     48510     48509     48510
     48511     48512     48511     48513     48512     48513     48514     48515
     48514     48516     48515     48516     48517     48518     48517     48519
     48518     48519     48520     48521     48520     48522     48521     48522
     48523     48524     48523     48525     48524     48525     48526     48527
     48526     48528     48527     48528     48529     48530     48529     48531
     48530     48531     48532     48533     48532     48534     48533     48534
     48535     48536     48535     48537     48536     48537     48538     48539
     48538     48540     48539     48540     48541     48542     48541     48543
     48542     48543     48544     48545     48544     48546     48545     48546
     48547     48548     48547     48549     48548     48549     48550     48551
     48550     48552     48551     48552     48553     48554     48553     48555
     48554     48555     48556     48557     48556     48558     48557     48558
     48559     48560     48559     48561     48560     48561     48562     48563
     48562     48564     48563     48564     48565     48566     48565     48567
     48566     48567     48568     48569     48568     48570     48569     48570
     48571     48572     48571     48573     48572     48573     48574     48575
     48574     48576     48575     48576     48577     48578     48577     48579
     48578     48579     48580     48581     48580     48582     48581     48582
     48583     48584     48583     48585     48584     48585     48586     48587
     48586     48588     48587     48588     48589     48590     48589     48591
     48590     48591     48592     48593     48592     48594     48593     48594
     48595     48596     48595     48597     48596     48597     48598     48599
     48598     48600     48599     48600     48601     48602     48601     48603
     48602     48603     48604     48605     48604     48606     48605     48606
     48607     48608     48607     48609     48608     48609     48610     48611
     48610     48612     48611     48612     48613     48614     48613     48615
     48614     48615     48616     48617     48616     48618     48617     48618
     48619     48620     48619     48621     48620     48621     48622     48623
     48622     48624     48623     48624     48625     48626     48625     48627
     48626     48627     48628     48629     48628     48630     48629     48630
     48631     48632     48631     48633     48632     48633     48634     48635
     48634     48636     48635     48636     48637     48638     48637     48639
     48638     48639     48640     48641     48640     48642     48641     48642
     48643     48644     48643     48645     48644     48645     48646     48647
     48646     48648     48647     48648     48649     48650     48649     48651
     48650     48651     48652     48653     48652     48654     48653     48654
     48655     48656     48655     48657     48656     48657     48658     48659
     48658     48660     48659     48660     48661     48662     48661     48663
     48662     48663     48664     48665     48664     48666     48665     48666
     48667     48668     48667     48669     48668     48669     48670     48671
     48670     48672     48671     48672     48673     48674     48673     48675
     48674     48675     48676     48677     48676     48678     48677     48678
     48679     48680     48679     48681     48680     48681     48682     48683
     48682     48684     48683     48684     48685     48686     48685     48687
     48686     48687     48688     48689     48688     48690     48689     48690
     48691     48692     48691     48693     48692     48693     48694     48695
     48694     48696     48695     48696     48697     48698     48697     48699
     48698     48699     48700     48701     48700     48702     48701     48702
     48703     48704     48703     48705     48704     48705     48706     48707
     48706     48708     48707     48708     48709     48710     48709     48711
     48710     48711     48712     48713     48712     48714     48713     48714
     48715     48716     48715     48717     48716     48717     48718     48719
     48718     48720     48719     48720     48721     48722     48721     48723
     48722     48723     48724     48725     48724     48726     48725     48726
     48727     48728     48727     48729     48728     48729     48730     48731
     48730     48732     48731     48732     48733     48734     48733     48735
     48734     48735     48736     48737     48736     48738     48737     48738
     48739     48740     48739     48741     48740     48741     48742     48743
     48742     48744     48743     48744     48745     48746     48745     48747
     48746     48747     48748     48749     48748     48750     48749     48750
     48751     48752     48751     48753     48752     48753     48754     48755
     48754     48756     48755     48756     48757     48758     48757     48759
     48758     48759     48760     48761     48760     48762     48761     48762
     48763     48764     48763     48765     48764     48765     48766     48767
     48766     48768     48767     48768     48769     48770     48769     48771
     48770     48771     48772     48773     48772     48774     48773     48774
     48775     48776     48775     48777     48776     48777     48778     48779
     48778     48780     48779     48780     48781     48782     48781     48783
     48782     48783     48784     48785     48784     48786     48785     48786
     48787     48788     48787     48789     48788     48789     48790     48791
     48790     48792     48791     48792     48793     48794     48793     48795
     48794     48795     48796     48797     48796     48798     48797     48798
     48799     48800     48799     48801     48800     48801     48802     48803
     48802     48804     48803     48804     48805     48806     48805     48807
     48806     48807     48808     48809     48808     48810     48809     48810
     48811     48812     48811     48813     48812     48813     48814     48815
     48814     48816     48815     48816     48817     48818     48817     48819
     48818     48819     48820     48821     48820     48822     48821     48822
     48823     48824     48823     48825     48824     48825     48826     48827
     48826     48828     48827     48828     48829     48830     48829     48831
     48830     48831     48832     48833     48832     48834     48833     48834
     48835     48836     48835     48837     48836     48837     48838     48839
     48838     48840     48839     48840     48841     48842     48841     48843
     48842     48843     48844     48845     48844     48846     48845     48846
     48847     48848     48847     48849     48848     48849     48850     48851
     48850     48852     48851     48852     48853     48854     48853     48855
     48854     48855     48856     48857     48856     48858     48857     48858
     48859     48860     48859     48861     48860     48861     48862     48863
     48862     48864     48863     48864     48865     48866     48865     48867
     48866     48867     48868     48869     48868     48870     48869     48870
     48871     48872     48871     48873     48872     48873     48874     48875
     48874     48876     48875     48876     48877     48878     48877     48879
     48878     48879     48880     48881     48880     48882     48881     48882
     48883     48884     48883     48885     48884     48885     48886     48887
     48886     48888     48887     48888     48889     48890     48889     48891
     48890     48891     48892     48893     48892     48894     48893     48894
     48895     48896     48895     48897     48896     48897     48898     48899
     48898     48900     48899     48900     48901     48902     48901     48903
     48902     48903     48904     48905     48904     48906     48905     48906
     48907     48908     48907     48909     48908     48909     48910     48911
     48910     48912     48911     48912     48913     48914     48913     48915
     48914     48915     48916     48917     48916     48918     48917     48918
     48919     48920     48919     48921     48920     48921     48922     48923
     48922     48924     48923     48924     48925     48926     48925     48927
     48926     48927     48928     48929     48928     48930     48929     48930
     48931     48932     48931     48933     48932     48933     48934     48935
     48934     48936     48935     48936     48937     48938     48937     48939
     48938     48939     48940     48941     48940     48942     48941     48942
     48943     48944     48943     48945     48944     48945     48946     48947
     48946     48948     48947     48948     48949     48950     48949     48951
     48950     48951     48952     48953     48952     48954     48953     48954
     48955     48956     48955     48957     48956     48957     48958     48959
     48958     48960     48959     48960     48961     48962     48961     48963
     48962     48963     48964     48965     48964     48966     48965     48966
     48967     48968     48967     48969     48968     48969     48970     48971
     48970     48972     48971     48972     48973     48974     48973     48975
     48974     48975     48976     48977     48976     48978     48977     48978
     48979     48980     48979     48981     48980     48981     48982     48983
     48982     48984     48983     48984     48985     48986     48985     48987
     48986     48987     48988     48989     48988     48990     48989     48990
     48991     48992     48991     48993     48992     48993     48994     48995
     48994     48996     48995     48996     48997     48998     48997     48999
     48998     48999     49000     49001     49000     49002     49001     49002
     49003     49004     49003     49005     49004     49005     49006     49007
     49006     49008     49007     49008     49009     49010     49009     49011
     49010     49011     49012     49013     49012     49014     49013     49014
     49015     49016     49015     49017     49016     49017     49018     49019
     49018     49020     49019     49020     49021     49022     49021     49023
     49022     49023     49024     49025     49024     49026     49025     49026
     49027     49028     49027     49029     49028     49029     49030     49031
     49030     49032     49031     49032     49033     49034     49033     49035
     49034     49035     49036     49037     49036     49038     49037     49038
     49039     49040     49039     49041     49040     49041     49042     49043
     49042     49044     49043     49044     49045     49046     49045     49047
     49046     49047     49048     49049     49048     49050     49049     49050
     49051     49052     49051     49053     49052     49053     49054     49055
     49054     49056     49055     49056     49057     49058     49057     49059
     49058     49059     49060     49061     49060     49062     49061     49062
     49063     49064     49063     49065     49064     49065     49066     49067
     49066     49068     49067     49068     49069     49070     49069     49071
     49070     49071     49072     49073     49072     49074     49073     49074
     49075     49076     49075     49077     49076     49077     49078     49079
     49078     49080     49079     49080     49081     49082     49081     49083
     49082     49083     49084     49085     49084     49086     49085     49086
     49087     49088     49087     49089     49088     49089     49090     49091
     49090     49092     49091     49092     49093     49094     49093     49095
     49094     49095     49096     49097     49096     49098     49097     49098
     49099     49100     49099     49101     49100     49101     49102     49103
     49102     49104     49103     49104     49105     49106     49105     49107
     49106     49107     49108     49109     49108     49110     49109     49110
     49111     49112     49111     49113     49112     49113     49114     49115
     49114     49116     49115     49116     49117     49118     49117     49119
     49118     49119     49120     49121     49120     49122     49121     49122
     49123     49124     49123     49125     49124     49125     49126     49127
     49126     49128     49127     49128     49129     49130     49129     49131
     49130     49131     49132     49133     49132     49134     49133     49134
     49135     49136     49135     49137     49136     49137     49138     49139
     49138     49140     49139     49140     49141     49142     49141     49143
     49142     49143     49144     49145     49144     49146     49145     49146
     49147     49148     49147     49149     49148     49149     49150     49151
     49150     49152     49151     49152     49153     49154     49153     49155
     49154     49155     49156     49157     49156     49158     49157     49158
     49159     49160     49159     49161     49160     49161     49162     49163
     49162     49164     49163     49164     49165     49166     49165     49167
     49166     49167     49168     49169     49168     49170     49169     49170
     49171     49172     49171     49173     49172     49173     49174     49175
     49174     49176     49175     49176     49177     49178     49177     49179
     49178     49179     49180     49181     49180     49182     49181     49182
     49183     49184     49183     49185     49184     49185     49186     49187
     49186     49188     49187     49188     49189     49190     49189     49191
     49190     49191     49192     49193     49192     49194     49193     49194
     49195     49196     49195     49197     49196     49197     49198     49199
     49198     49200     49199     49200     49201     49202     49201     49203
     49202     49203     49204     49205     49204     49206     49205     49206
     49207     49208     49207     49209     49208     49209     49210     49211
     49210     49212     49211     49212     49213     49214     49213     49215
     49214     49215     49216     49217     49216     49218     49217     49218
     49219     49220     49219     49221     49220     49221     49222     49223
     49222     49224     49223     49224     49225     49226     49225     49227
     49226     49227     49228     49229     49228     49230     49229     49230
     49231     49232     49231     49233     49232     49233     49234     49235
     49234     49236     49235     49236     49237     49238     49237     49239
     49238     49239     49240     49241     49240     49242     49241     49242
     49243     49244     49243     49245     49244     49245     49246     49247
     49246     49248     49247     49248     49249     49250     49249     49251
     49250     49251     49252     49253     49252     49254     49253     49254
     49255     49256     49255     49257     49256     49257     49258     49259
     49258     49260     49259     49260     49261     49262     49261     49263
     49262     49263     49264     49265     49264     49266     49265     49266
     49267     49268     49267     49269     49268     49269     49270     49271
     49270     49272     49271     49272     49273     49274     49273     49275
     49274     49275     49276     49277     49276     49278     49277     49278
     49279     49280     49279     49281     49280     49281     49282     49283
     49282     49284     49283     49284     49285     49286     49285     49287
     49286     49287     49288     49289     49288     49290     49289     49290
     49291     49292     49291     49293     49292     49293     49294     49295
     49294     49296     49295     49296     49297     49298     49297     49299
     49298     49299     49300     49301     49300     49302     49301     49302
     49303     49304     49303     49305     49304     49305     49306     49307
     49306     49308     49307     49308     49309     49310     49309     49311
     49310     49311     49312     49313     49312     49314     49313     49314
     49315     49316     49315     49317     49316     49317     49318     49319
     49318     49320     49319     49320     49321     49322     49321     49323
     49322     49323     49324     49325     49324     49326     49325     49326
     49327     49328     49327     49329     49328     49329     49330     49331
     49330     49332     49331     49332     49333     49334     49333     49335
     49334     49335     49336     49337     49336     49338     49337     49338
     49339     49340     49339     49341     49340     49341     49342     49343
     49342     49344     49343     49344     49345     49346     49345     49347
     49346     49347     49348     49349     49348     49350     49349     49350
     49351     49352     49351     49353     49352     49353     49354     49355
     49354     49356     49355     49356     49357     49358     49357     49359
     49358     49359     49360     49361     49360     49362     49361     49362
     49363     49364     49363     49365     49364     49365     49366     49367
     49366     49368     49367     49368     49369     49370     49369     49371
     49370     49371     49372     49373     49372     49374     49373     49374
     49375     49376     49375     49377     49376     49377     49378     49379
     49378     49380     49379     49380     49381     49382     49381     49383
     49382     49383     49384     49385     49384     49386     49385     49386
     49387     49388     49387     49389     49388     49389     49390     49391
     49390     49392     49391     49392     49393     49394     49393     49395
     49394     49395     49396     49397     49396     49398     49397     49398
     49399     49400     49399     49401     49400     49401     49402     49403
     49402     49404     49403     49404     49405     49406     49405     49407
     49406     49407     49408     49409     49408     49410     49409     49410
     49411     49412     49411     49413     49412     49413     49414     49415
     49414     49416     49415     49416     49417     49418     49417     49419
     49418     49419     49420     49421     49420     49422     49421     49422
     49423     49424     49423     49425     49424     49425     49426     49427
     49426     49428     49427     49428     49429     49430     49429     49431
     49430     49431     49432     49433     49432     49434     49433     49434
     49435     49436     49435     49437     49436     49437     49438     49439
     49438     49440     49439     49440     49441     49442     49441     49443
     49442     49443     49444     49445     49444     49446     49445     49446
     49447     49448     49447     49449     49448     49449     49450     49451
     49450     49452     49451     49452     49453     49454     49453     49455
     49454     49455     49456     49457     49456     49458     49457     49458
     49459     49460     49459     49461     49460     49461     49462     49463
     49462     49464     49463     49464     49465     49466     49465     49467
     49466     49467     49468     49469     49468     49470     49469     49470
     49471     49472     49471     49473     49472     49473     49474     49475
     49474     49476     49475     49476     49477     49478     49477     49479
     49478     49479     49480     49481     49480     49482     49481     49482
     49483     49484     49483     49485     49484     49485     49486     49487
     49486     49488     49487     49488     49489     49490     49489     49491
     49490     49491     49492     49493     49492     49494     49493     49494
     49495     49496     49495     49497     49496     49497     49498     49499
     49498     49500     49499     49500     49501     49502     49501     49503
     49502     49503     49504     49505     49504     49506     49505     49506
     49507     49508     49507     49509     49508     49509     49510     49511
     49510     49512     49511     49512     49513     49514     49513     49515
     49514     49515     49516     49517     49516     49518     49517     49518
     49519     49520     49519     49521     49520     49521     49522     49523
     49522     49524     49523     49524     49525     49526     49525     49527
     49526     49527     49528     49529     49528     49530     49529     49530
     49531     49532     49531     49533     49532     49533     49534     49535
     49534     49536     49535     49536     49537     49538     49537     49539
     49538     49539     49540     49541     49540     49542     49541     49542
     49543     49544     49543     49545     49544     49545     49546     49547
     49546     49548     49547     49548     49549     49550     49549     49551
     49550     49551     49552     49553     49552     49554     49553     49554
     49555     49556     49555     49557     49556     49557     49558     49559
     49558     49560     49559     49560     49561     49562     49561     49563
     49562     49563     49564     49565     49564     49566     49565     49566
     49567     49568     49567     49569     49568     49569     49570     49571
     49570     49572     49571     49572     49573     49574     49573     49575
     49574     49575     49576     49577     49576     49578     49577     49578
     49579     49580     49579     49581     49580     49581     49582     49583
     49582     49584     49583     49584     49585     49586     49585     49587
     49586     49587     49588     49589     49588     49590     49589     49590
     49591     49592     49591     49593     49592     49593     49594     49595
     49594     49596     49595     49596     49597     49598     49597     49599
     49598     49599     49600     49601     49600     49602     49601     49602
     49603     49604     49603     49605     49604     49605     49606     49607
     49606     49608     49607     49608     49609     49610     49609     49611
     49610     49611     49612     49613     49612     49614     49613     49614
     49615     49616     49615     49617     49616     49617     49618     49619
     49618     49620     49619     49620     49621     49622     49621     49623
     49622     49623     49624     49625     49624     49626     49625     49626
     49627     49628     49627     49629     49628     49629     49630     49631
     49630     49632     49631     49632     49633     49634     49633     49635
     49634     49635     49636     49637     49636     49638     49637     49638
     49639     49640     49639     49641     49640     49641     49642     49643
     49642     49644     49643     49644     49645     49646     49645     49647
     49646     49647     49648     49649     49648     49650     49649     49650
     49651     49652     49651     49653     49652     49653     49654     49655
     49654     49656     49655     49656     49657     49658     49657     49659
     49658     49659     49660     49661     49660     49662     49661     49662
     49663     49664     49663     49665     49664     49665     49666     49667
     49666     49668     49667     49668     49669     49670     49669     49671
     49670     49671     49672     49673     49672     49674     49673     49674
     49675     49676     49675     49677     49676     49677     49678     49679
     49678     49680     49679     49680     49681     49682     49681     49683
     49682     49683     49684     49685     49684     49686     49685     49686
     49687     49688     49687     49689     49688     49689     49690     49691
     49690     49692     49691     49692     49693     49694     49693     49695
     49694     49695     49696     49697     49696     49698     49697     49698
     49699     49700     49699     49701     49700     49701     49702     49703
     49702     49704     49703     49704     49705     49706     49705     49707
     49706     49707     49708     49709     49708     49710     49709     49710
     49711     49712     49711     49713     49712     49713     49714     49715
     49714     49716     49715     49716     49717     49718     49717     49719
     49718     49719     49720     49721     49720     49722     49721     49722
     49723     49724     49723     49725     49724     49725     49726     49727
     49726     49728     49727     49728     49729     49730     49729     49731
     49730     49731     49732     49733     49732     49734     49733     49734
     49735     49736     49735     49737     49736     49737     49738     49739
     49738     49740     49739     49740     49741     49742     49741     49743
     49742     49743     49744     49745     49744     49746     49745     49746
     49747     49748     49747     49749     49748     49749     49750     49751
     49750     49752     49751     49752     49753     49754     49753     49755
     49754     49755     49756     49757     49756     49758     49757     49758
     49759     49760     49759     49761     49760     49761     49762     49763
     49762     49764     49763     49764     49765     49766     49765     49767
     49766     49767     49768     49769     49768     49770     49769     49770
     49771     49772     49771     49773     49772     49773     49774     49775
     49774     49776     49775     49776     49777     49778     49777     49779
     49778     49779     49780     49781     49780     49782     49781     49782
     49783     49784     49783     49785     49784     49785     49786     49787
     49786     49788     49787     49788     49789     49790     49789     49791
     49790     49791     49792     49793     49792     49794     49793     49794
     49795     49796     49795     49797     49796     49797     49798     49799
     49798     49800     49799     49800     49801     49802     49801     49803
     49802     49803     49804     49805     49804     49806     49805     49806
     49807     49808     49807     49809     49808     49809     49810     49811
     49810     49812     49811     49812     49813     49814     49813     49815
     49814     49815     49816     49817     49816     49818     49817     49818
     49819     49820     49819     49821     49820     49821     49822     49823
     49822     49824     49823     49824     49825     49826     49825     49827
     49826     49827     49828     49829     49828     49830     49829     49830
     49831     49832     49831     49833     49832     49833     49834     49835
     49834     49836     49835     49836     49837     49838     49837     49839
     49838     49839     49840     49841     49840     49842     49841     49842
     49843     49844     49843     49845     49844     49845     49846     49847
     49846     49848     49847     49848     49849     49850     49849     49851
     49850     49851     49852     49853     49852     49854     49853     49854
     49855     49856     49855     49857     49856     49857     49858     49859
     49858     49860     49859     49860     49861     49862     49861     49863
     49862     49863     49864     49865     49864     49866     49865     49866
     49867     49868     49867     49869     49868     49869     49870     49871
     49870     49872     49871     49872     49873     49874     49873     49875
     49874     49875     49876     49877     49876     49878     49877     49878
     49879     49880     49879     49881     49880     49881     49882     49883
     49882     49884     49883     49884     49885     49886     49885     49887
     49886     49887     49888     49889     49888     49890     49889     49890
     49891     49892     49891     49893     49892     49893     49894     49895
     49894     49896     49895     49896     49897     49898     49897     49899
     49898     49899     49900     49901     49900     49902     49901     49902
     49903     49904     49903     49905     49904     49905     49906     49907
     49906     49908     49907     49908     49909     49910     49909     49911
     49910     49911     49912     49913     49912     49914     49913     49914
     49915     49916     49915     49917     49916     49917     49918     49919
     49918     49920     49919     49920     49921     49922     49921     49923
     49922     49923     49924     49925     49924     49926     49925     49926
     49927     49928     49927     49929     49928     49929     49930     49931
     49930     49932     49931     49932     49933     49934     49933     49935
     49934     49935     49936     49937     49936     49938     49937     49938
     49939     49940     49939     49941     49940     49941     49942     49943
     49942     49944     49943     49944     49945     49946     49945     49947
     49946     49947     49948     49949     49948     49950     49949     49950
     49951     49952     49951     49953     49952     49953     49954     49955
     49954     49956     49955     49956     49957     49958     49957     49959
     49958     49959     49960     49961     49960     49962     49961     49962
     49963     49964     49963     49965     49964     49965     49966     49967
     49966     49968     49967     49968     49969     49970     49969     49971
     49970     49971     49972     49973     49972     49974     49973     49974
     49975     49976     49975     49977     49976     49977     49978     49979
     49978     49980     49979     49980     49981     49982     49981     49983
     49982     49983     49984     49985     49984     49986     49985     49986
     49987     49988     49987     49989     49988     49989     49990     49991
     49990     49992     49991     49992     49993     49994     49993     49995
     49994     49995     49996     49997     49996     49998     49997     49998
     49999     50000     49999     50001     50000     50001     50002     50003
     50002     50004     50003     50004     50005     50006     50005     50007
     50006     50007     50008     50009     50008     50010     50009     50010
     50011     50012     50011     50013     50012     50013     50014     50015
     50014     50016     50015     50016     50017     50018     50017     50019
     50018     50019     50020     50021     50020     50022     50021     50022
     50023     50024     50023     50025     50024     50025     50026     50027
     50026     50028     50027     50028     50029     50030     50029     50031
     50030     50031     50032     50033     50032     50034     50033     50034
     50035     50036     50035     50037     50036     50037     50038     50039
     50038     50040     50039     50040     50041     50042     50041     50043
     50042     50043     50044     50045     50044     50046     50045     50046
     50047     50048     50047     50049     50048     50049     50050     50051
     50050     50052     50051     50052     50053     50054     50053     50055
     50054     50055     50056     50057     50056     50058     50057     50058
     50059     50060     50059     50061     50060     50061     50062     50063
     50062     50064     50063     50064     50065     50066     50065     50067
     50066     50067     50068     50069     50068     50070     50069     50070
     50071     50072     50071     50073     50072     50073     50074     50075
     50074     50076     50075     50076     50077     50078     50077     50079
     50078     50079     50080     50081     50080     50082     50081     50082
     50083     50084     50083     50085     50084     50085     50086     50087
     50086     50088     50087     50088     50089     50090     50089     50091
     50090     50091     50092     50093     50092     50094     50093     50094
     50095     50096     50095     50097     50096     50097     50098     50099
     50098     50100     50099     50100     50101     50102     50101     50103
     50102     50103     50104     50105     50104     50106     50105     50106
     50107     50108     50107     50109     50108     50109     50110     50111
     50110     50112     50111     50112     50113     50114     50113     50115
     50114     50115     50116     50117     50116     50118     50117     50118
     50119     50120     50119     50121     50120     50121     50122     50123
     50122     50124     50123     50124     50125     50126     50125     50127
     50126     50127     50128     50129     50128     50130     50129     50130
     50131     50132     50131     50133     50132     50133     50134     50135
     50134     50136     50135     50136     50137     50138     50137     50139
     50138     50139     50140     50141     50140     50142     50141     50142
     50143     50144     50143     50145     50144     50145     50146     50147
     50146     50148     50147     50148     50149     50150     50149     50151
     50150     50151     50152     50153     50152     50154     50153     50154
     50155     50156     50155     50157     50156     50157     50158     50159
     50158     50160     50159     50160     50161     50162     50161     50163
     50162     50163     50164     50165     50164     50166     50165     50166
     50167     50168     50167     50169     50168     50169     50170     50171
     50170     50172     50171     50172     50173     50174     50173     50175
     50174     50175     50176     50177     50176     50178     50177     50178
     50179     50180     50179     50181     50180     50181     50182     50183
     50182     50184     50183     50184     50185     50186     50185     50187
     50186     50187     50188     50189     50188     50190     50189     50190
     50191     50192     50191     50193     50192     50193     50194     50195
     50194     50196     50195     50196     50197     50198     50197     50199
     50198     50199     50200     50201     50200     50202     50201     50202
     50203     50204     50203     50205     50204     50205     50206     50207
     50206     50208     50207     50208     50209     50210     50209     50211
     50210     50211     50212     50213     50212     50214     50213     50214
     50215     50216     50215     50217     50216     50217     50218     50219
     50218     50220     50219     50220     50221     50222     50221     50223
     50222     50223     50224     50225     50224     50226     50225     50226
     50227     50228     50227     50229     50228     50229     50230     50231
     50230     50232     50231     50232     50233     50234     50233     50235
     50234     50235     50236     50237     50236     50238     50237     50238
     50239     50240     50239     50241     50240     50241     50242     50243
     50242     50244     50243     50244     50245     50246     50245     50247
     50246     50247     50248     50249     50248     50250     50249     50250
     50251     50252     50251     50253     50252     50253     50254     50255
     50254     50256     50255     50256     50257     50258     50257     50259
     50258     50259     50260     50261     50260     50262     50261     50262
     50263     50264     50263     50265     50264     50265     50266     50267
     50266     50268     50267     50268     50269     50270     50269     50271
     50270     50271     50272     50273     50272     50274     50273     50274
     50275     50276     50275     50277     50276     50277     50278     50279
     50278     50280     50279     50280     50281     50282     50281     50283
     50282     50283     50284     50285     50284     50286     50285     50286
     50287     50288     50287     50289     50288     50289     50290     50291
     50290     50292     50291     50292     50293     50294     50293     50295
     50294     50295     50296     50297     50296     50298     50297     50298
     50299     50300     50299     50301     50300     50301     50302     50303
     50302     50304     50303     50304     50305     50306     50305     50307
     50306     50307     50308     50309     50308     50310     50309     50310
     50311     50312     50311     50313     50312     50313     50314     50315
     50314     50316     50315     50316     50317     50318     50317     50319
     50318     50319     50320     50321     50320     50322     50321     50322
     50323     50324     50323     50325     50324     50325     50326     50327
     50326     50328     50327     50328     50329     50330     50329     50331
     50330     50331     50332     50333     50332     50334     50333     50334
     50335     50336     50335     50337     50336     50337     50338     50339
     50338     50340     50339     50340     50341     50342     50341     50343
     50342     50343     50344     50345     50344     50346     50345     50346
     50347     50348     50347     50349     50348     50349     50350     50351
     50350     50352     50351     50352     50353     50354     50353     50355
     50354     50355     50356     50357     50356     50358     50357     50358
     50359     50360     50359     50361     50360     50361     50362     50363
     50362     50364     50363     50364     50365     50366     50365     50367
     50366     50367     50368     50369     50368     50370     50369     50370
     50371     50372     50371     50373     50372     50373     50374     50375
     50374     50376     50375     50376     50377     50378     50377     50379
     50378     50379     50380     50381     50380     50382     50381     50382
     50383     50384     50383     50385     50384     50385     50386     50387
     50386     50388     50387     50388     50389     50390     50389     50391
     50390     50391     50392     50393     50392     50394     50393     50394
     50395     50396     50395     50397     50396     50397     50398     50399
     50398     50400     50399     50400     50401     50402     50401     50403
     50402     50403     50404     50405     50404     50406     50405     50406
     50407     50408     50407     50409     50408     50409     50410     50411
     50410     50412     50411     50412     50413     50414     50413     50415
     50414     50415     50416     50417     50416     50418     50417     50418
     50419     50420     50419     50421     50420     50421     50422     50423
     50422     50424     50423     50424     50425     50426     50425     50427
     50426     50427     50428     50429     50428     50430     50429     50430
     50431     50432     50431     50433     50432     50433     50434     50435
     50434     50436     50435     50436     50437     50438     50437     50439
     50438     50439     50440     50441     50440     50442     50441     50442
     50443     50444     50443     50445     50444     50445     50446     50447
     50446     50448     50447     50448     50449     50450     50449     50451
     50450     50451     50452     50453     50452     50454     50453     50454
     50455     50456     50455     50457     50456     50457     50458     50459
     50458     50460     50459     50460     50461     50462     50461     50463
     50462     50463     50464     50465     50464     50466     50465     50466
     50467     50468     50467     50469     50468     50469     50470     50471
     50470     50472     50471     50472     50473     50474     50473     50475
     50474     50475     50476     50477     50476     50478     50477     50478
     50479     50480     50479     50481     50480     50481     50482     50483
     50482     50484     50483     50484     50485     50486     50485     50487
     50486     50487     50488     50489     50488     50490     50489     50490
     50491     50492     50491     50493     50492     50493     50494     50495
     50494     50496     50495     50496     50497     50498     50497     50499
     50498     50499     50500     50501     50500     50502     50501     50502
     50503     50504     50503     50505     50504     50505     50506     50507
     50506     50508     50507     50508     50509     50510     50509     50511
     50510     50511     50512     50513     50512     50514     50513     50514
     50515     50516     50515     50517     50516     50517     50518     50519
     50518     50520     50519     50520     50521     50522     50521     50523
     50522     50523     50524     50525     50524     50526     50525     50526
     50527     50528     50527     50529     50528     50529     50530     50531
     50530     50532     50531     50532     50533     50534     50533     50535
     50534     50535     50536     50537     50536     50538     50537     50538
     50539     50540     50539     50541     50540     50541     50542     50543
     50542     50544     50543     50544     50545     50546     50545     50547
     50546     50547     50548     50549     50548     50550     50549     50550
     50551     50552     50551     50553     50552     50553     50554     50555
     50554     50556     50555     50556     50557     50558     50557     50559
     50558     50559     50560     50561     50560     50562     50561     50562
     50563     50564     50563     50565     50564     50565     50566     50567
     50566     50568     50567     50568     50569     50570     50569     50571
     50570     50571     50572     50573     50572     50574     50573     50574
     50575     50576     50575     50577     50576     50577     50578     50579
     50578     50580     50579     50580     50581     50582     50581     50583
     50582     50583     50584     50585     50584     50586     50585     50586
     50587     50588     50587     50589     50588     50589     50590     50591
     50590     50592     50591     50592     50593     50594     50593     50595
     50594     50595     50596     50597     50596     50598     50597     50598
     50599     50600     50599     50601     50600     50601     50602     50603
     50602     50604     50603     50604     50605     50606     50605     50607
     50606     50607     50608     50609     50608     50610     50609     50610
     50611     50612     50611     50613     50612     50613     50614     50615
     50614     50616     50615     50616     50617     50618     50617     50619
     50618     50619     50620     50621     50620     50622     50621     50622
     50623     50624     50623     50625     50624     50625     50626     50627
     50626     50628     50627     50628     50629     50630     50629     50631
     50630     50631     50632     50633     50632     50634     50633     50634
     50635     50636     50635     50637     50636     50637     50638     50639
     50638     50640     50639     50640     50641     50642     50641     50643
     50642     50643     50644     50645     50644     50646     50645     50646
     50647     50648     50647     50649     50648     50649     50650     50651
     50650     50652     50651     50652     50653     50654     50653     50655
     50654     50655     50656     50657     50656     50658     50657     50658
     50659     50660     50659     50661     50660     50661     50662     50663
     50662     50664     50663     50664     50665     50666     50665     50667
     50666     50667     50668     50669     50668     50670     50669     50670
     50671     50672     50671     50673     50672     50673     50674     50675
     50674     50676     50675     50676     50677     50678     50677     50679
     50678     50679     50680     50681     50680     50682     50681     50682
     50683     50684     50683     50685     50684     50685     50686     50687
     50686     50688     50687     50688     50689     50690     50689     50691
     50690     50691     50692     50693     50692     50694     50693     50694
     50695     50696     50695     50697     50696     50697     50698     50699
     50698     50700     50699     50700     50701     50702     50701     50703
     50702     50703     50704     50705     50704     50706     50705     50706
     50707     50708     50707     50709     50708     50709     50710     50711
     50710     50712     50711     50712     50713     50714     50713     50715
     50714     50715     50716     50717     50716     50718     50717     50718
     50719     50720     50719     50721     50720     50721     50722     50723
     50722     50724     50723     50724     50725     50726     50725     50727
     50726     50727     50728     50729     50728     50730     50729     50730
     50731     50732     50731     50733     50732     50733     50734     50735
     50734     50736     50735     50736     50737     50738     50737     50739
     50738     50739     50740     50741     50740     50742     50741     50742
     50743     50744     50743     50745     50744     50745     50746     50747
     50746     50748     50747     50748     50749     50750     50749     50751
     50750     50751     50752     50753     50752     50754     50753     50754
     50755     50756     50755     50757     50756     50757     50758     50759
     50758     50760     50759     50760     50761     50762     50761     50763
     50762     50763     50764     50765     50764     50766     50765     50766
     50767     50768     50767     50769     50768     50769     50770     50771
     50770     50772     50771     50772     50773     50774     50773     50775
     50774     50775     50776     50777     50776     50778     50777     50778
     50779     50780     50779     50781     50780     50781     50782     50783
     50782     50784     50783     50784     50785     50786     50785     50787
     50786     50787     50788     50789     50788     50790     50789     50790
     50791     50792     50791     50793     50792     50793     50794     50795
     50794     50796     50795     50796     50797     50798     50797     50799
     50798     50799     50800     50801     50800     50802     50801     50802
     50803     50804     50803     50805     50804     50805     50806     50807
     50806     50808     50807     50808     50809     50810     50809     50811
     50810     50811     50812     50813     50812     50814     50813     50814
     50815     50816     50815     50817     50816     50817     50818     50819
     50818     50820     50819     50820     50821     50822     50821     50823
     50822     50823     50824     50825     50824     50826     50825     50826
     50827     50828     50827     50829     50828     50829     50830     50831
     50830     50832     50831     50832     50833     50834     50833     50835
     50834     50835     50836     50837     50836     50838     50837     50838
     50839     50840     50839     50841     50840     50841     50842     50843
     50842     50844     50843     50844     50845     50846     50845     50847
     50846     50847     50848     50849     50848     50850     50849     50850
     50851     50852     50851     50853     50852     50853     50854     50855
     50854     50856     50855     50856     50857     50858     50857     50859
     50858     50859     50860     50861     50860     50862     50861     50862
     50863     50864     50863     50865     50864     50865     50866     50867
     50866     50868     50867     50868     50869     50870     50869     50871
     50870     50871     50872     50873     50872     50874     50873     50874
     50875     50876     50875     50877     50876     50877     50878     50879
     50878     50880     50879     50880     50881     50882     50881     50883
     50882     50883     50884     50885     50884     50886     50885     50886
     50887     50888     50887     50889     50888     50889     50890     50891
     50890     50892     50891     50892     50893     50894     50893     50895
     50894     50895     50896     50897     50896     50898     50897     50898
     50899     50900     50899     50901     50900     50901     50902     50903
     50902     50904     50903     50904     50905     50906     50905     50907
     50906     50907     50908     50909     50908     50910     50909     50910
     50911     50912     50911     50913     50912     50913     50914     50915
     50914     50916     50915     50916     50917     50918     50917     50919
     50918     50919     50920     50921     50920     50922     50921     50922
     50923     50924     50923     50925     50924     50925     50926     50927
     50926     50928     50927     50928     50929     50930     50929     50931
     50930     50931     50932     50933     50932     50934     50933     50934
     50935     50936     50935     50937     50936     50937     50938     50939
     50938     50940     50939     50940     50941     50942     50941     50943
     50942     50943     50944     50945     50944     50946     50945     50946
     50947     50948     50947     50949     50948     50949     50950     50951
     50950     50952     50951     50952     50953     50954     50953     50955
     50954     50955     50956     50957     50956     50958     50957     50958
     50959     50960     50959     50961     50960     50961     50962     50963
     50962     50964     50963     50964     50965     50966     50965     50967
     50966     50967     50968     50969     50968     50970     50969     50970
     50971     50972     50971     50973     50972     50973     50974     50975
     50974     50976     50975     50976     50977     50978     50977     50979
     50978     50979     50980     50981     50980     50982     50981     50982
     50983     50984     50983     50985     50984     50985     50986     50987
     50986     50988     50987     50988     50989     50990     50989     50991
     50990     50991     50992     50993     50992     50994     50993     50994
     50995     50996     50995     50997     50996     50997     50998     50999
     50998     51000     50999     51000     51001     51002     51001     51003
     51002     51003     51004     51005     51004     51006     51005     51006
     51007     51008     51007     51009     51008     51009     51010     51011
     51010     51012     51011     51012     51013     51014     51013     51015
     51014     51015     51016     51017     51016     51018     51017     51018
     51019     51020     51019     51021     51020     51021     51022     51023
     51022     51024     51023     51024     51025     51026     51025     51027
     51026     51027     51028     51029     51028     51030     51029     51030
     51031     51032     51031     51033     51032     51033     51034     51035
     51034     51036     51035     51036     51037     51038     51037     51039
     51038     51039     51040     51041     51040     51042     51041     51042
     51043     51044     51043     51045     51044     51045     51046     51047
     51046     51048     51047     51048     51049     51050     51049     51051
     51050     51051     51052     51053     51052     51054     51053     51054
     51055     51056     51055     51057     51056     51057     51058     51059
     51058     51060     51059     51060     51061     51062     51061     51063
     51062     51063     51064     51065     51064     51066     51065     51066
     51067     51068     51067     51069     51068     51069     51070     51071
     51070     51072     51071     51072     51073     51074     51073     51075
     51074     51075     51076     51077     51076     51078     51077     51078
     51079     51080     51079     51081     51080     51081     51082     51083
     51082     51084     51083     51084     51085     51086     51085     51087
     51086     51087     51088     51089     51088     51090     51089     51090
     51091     51092     51091     51093     51092     51093     51094     51095
     51094     51096     51095     51096     51097     51098     51097     51099
     51098     51099     51100     51101     51100     51102     51101     51102
     51103     51104     51103     51105     51104     51105     51106     51107
     51106     51108     51107     51108     51109     51110     51109     51111
     51110     51111     51112     51113     51112     51114     51113     51114
     51115     51116     51115     51117     51116     51117     51118     51119
     51118     51120     51119     51120     51121     51122     51121     51123
     51122     51123     51124     51125     51124     51126     51125     51126
     51127     51128     51127     51129     51128     51129     51130     51131
     51130     51132     51131     51132     51133     51134     51133     51135
     51134     51135     51136     51137     51136     51138     51137     51138
     51139     51140     51139     51141     51140     51141     51142     51143
     51142     51144     51143     51144     51145     51146     51145     51147
     51146     51147     51148     51149     51148     51150     51149     51150
     51151     51152     51151     51153     51152     51153     51154     51155
     51154     51156     51155     51156     51157     51158     51157     51159
     51158     51159     51160     51161     51160     51162     51161     51162
     51163     51164     51163     51165     51164     51165     51166     51167
     51166     51168     51167     51168     51169     51170     51169     51171
     51170     51171     51172     51173     51172     51174     51173     51174
     51175     51176     51175     51177     51176     51177     51178     51179
     51178     51180     51179     51180     51181     51182     51181     51183
     51182     51183     51184     51185     51184     51186     51185     51186
     51187     51188     51187     51189     51188     51189     51190     51191
     51190     51192     51191     51192     51193     51194     51193     51195
     51194     51195     51196     51197     51196     51198     51197     51198
     51199     51200     51199     51201     51200     51201     51202     51203
     51202     51204     51203     51204     51205     51206     51205     51207
     51206     51207     51208     51209     51208     51210     51209     51210
     51211     51212     51211     51213     51212     51213     51214     51215
     51214     51216     51215     51216     51217     51218     51217     51219
     51218     51219     51220     51221     51220     51222     51221     51222
     51223     51224     51223     51225     51224     51225     51226     51227
     51226     51228     51227     51228     51229     51230     51229     51231
     51230     51231     51232     51233     51232     51234     51233     51234
     51235     51236     51235     51237     51236     51237     51238     51239
     51238     51240     51239     51240     51241     51242     51241     51243
     51242     51243     51244     51245     51244     51246     51245     51246
     51247     51248     51247     51249     51248     51249     51250     51251
     51250     51252     51251     51252     51253     51254     51253     51255
     51254     51255     51256     51257     51256     51258     51257     51258
     51259     51260     51259     51261     51260     51261     51262     51263
     51262     51264     51263     51264     51265     51266     51265     51267
     51266     51267     51268     51269     51268     51270     51269     51270
     51271     51272     51271     51273     51272     51273     51274     51275
     51274     51276     51275     51276     51277     51278     51277     51279
     51278     51279     51280     51281     51280     51282     51281     51282
     51283     51284     51283     51285     51284     51285     51286     51287
     51286     51288     51287     51288     51289     51290     51289     51291
     51290     51291     51292     51293     51292     51294     51293     51294
     51295     51296     51295     51297     51296     51297     51298     51299
     51298     51300     51299     51300     51301     51302     51301     51303
     51302     51303     51304     51305     51304     51306     51305     51306
     51307     51308     51307     51309     51308     51309     51310     51311
     51310     51312     51311     51312     51313     51314     51313     51315
     51314     51315     51316     51317     51316     51318     51317     51318
     51319     51320     51319     51321     51320     51321     51322     51323
     51322     51324     51323     51324     51325     51326     51325     51327
     51326     51327     51328     51329     51328     51330     51329     51330
     51331     51332     51331     51333     51332     51333     51334     51335
     51334     51336     51335     51336     51337     51338     51337     51339
     51338     51339     51340     51341     51340     51342     51341     51342
     51343     51344     51343     51345     51344     51345     51346     51347
     51346     51348     51347     51348     51349     51350     51349     51351
     51350     51351     51352     51353     51352     51354     51353     51354
     51355     51356     51355     51357     51356     51357     51358     51359
     51358     51360     51359     51360     51361     51362     51361     51363
     51362     51363     51364     51365     51364     51366     51365     51366
     51367     51368     51367     51369     51368     51369     51370     51371
     51370     51372     51371     51372     51373     51374     51373     51375
     51374     51375     51376     51377     51376     51378     51377     51378
     51379     51380     51379     51381     51380     51381     51382     51383
     51382     51384     51383     51384     51385     51386     51385     51387
     51386     51387     51388     51389     51388     51390     51389     51390
     51391     51392     51391     51393     51392     51393     51394     51395
     51394     51396     51395     51396     51397     51398     51397     51399
     51398     51399     51400     51401     51400     51402     51401     51402
     51403     51404     51403     51405     51404     51405     51406     51407
     51406     51408     51407     51408     51409     51410     51409     51411
     51410     51411     51412     51413     51412     51414     51413     51414
     51415     51416     51415     51417     51416     51417     51418     51419
     51418     51420     51419     51420     51421     51422     51421     51423
     51422     51423     51424     51425     51424     51426     51425     51426
     51427     51428     51427     51429     51428     51429     51430     51431
     51430     51432     51431     51432     51433     51434     51433     51435
     51434     51435     51436     51437     51436     51438     51437     51438
     51439     51440     51439     51441     51440     51441     51442     51443
     51442     51444     51443     51444     51445     51446     51445     51447
     51446     51447     51448     51449     51448     51450     51449     51450
     51451     51452     51451     51453     51452     51453     51454     51455
     51454     51456     51455     51456     51457     51458     51457     51459
     51458     51459     51460     51461     51460     51462     51461     51462
     51463     51464     51463     51465     51464     51465     51466     51467
     51466     51468     51467     51468     51469     51470     51469     51471
     51470     51471     51472     51473     51472     51474     51473     51474
     51475     51476     51475     51477     51476     51477     51478     51479
     51478     51480     51479     51480     51481     51482     51481     51483
     51482     51483     51484     51485     51484     51486     51485     51486
     51487     51488     51487     51489     51488     51489     51490     51491
     51490     51492     51491     51492     51493     51494     51493     51495
     51494     51495     51496     51497     51496     51498     51497     51498
     51499     51500     51499     51501     51500     51501     51502     51503
     51502     51504     51503     51504     51505     51506     51505     51507
     51506     51507     51508     51509     51508     51510     51509     51510
     51511     51512     51511     51513     51512     51513     51514     51515
     51514     51516     51515     51516     51517     51518     51517     51519
     51518     51519     51520     51521     51520     51522     51521     51522
     51523     51524     51523     51525     51524     51525     51526     51527
     51526     51528     51527     51528     51529     51530     51529     51531
     51530     51531     51532     51533     51532     51534     51533     51534
     51535     51536     51535     51537     51536     51537     51538     51539
     51538     51540     51539     51540     51541     51542     51541     51543
     51542     51543     51544     51545     51544     51546     51545     51546
     51547     51548     51547     51549     51548     51549     51550     51551
     51550     51552     51551     51552     51553     51554     51553     51555
     51554     51555     51556     51557     51556     51558     51557     51558
     51559     51560     51559     51561     51560     51561     51562     51563
     51562     51564     51563     51564     51565     51566     51565     51567
     51566     51567     51568     51569     51568     51570     51569     51570
     51571     51572     51571     51573     51572     51573     51574     51575
     51574     51576     51575     51576     51577     51578     51577     51579
     51578     51579     51580     51581     51580     51582     51581     51582
     51583     51584     51583     51585     51584     51585     51586     51587
     51586     51588     51587     51588     51589     51590     51589     51591
     51590     51591     51592     51593     51592     51594     51593     51594
     51595     51596     51595     51597     51596     51597     51598     51599
     51598     51600     51599     51600     51601     51602     51601     51603
     51602     51603     51604     51605     51604     51606     51605     51606
     51607     51608     51607     51609     51608     51609     51610     51611
     51610     51612     51611     51612     51613     51614     51613     51615
     51614     51615     51616     51617     51616     51618     51617     51618
     51619     51620     51619     51621     51620     51621     51622     51623
     51622     51624     51623     51624     51625     51626     51625     51627
     51626     51627     51628     51629     51628     51630     51629     51630
     51631     51632     51631     51633     51632     51633     51634     51635
     51634     51636     51635     51636     51637     51638     51637     51639
     51638     51639     51640     51641     51640     51642     51641     51642
     51643     51644     51643     51645     51644     51645     51646     51647
     51646     51648     51647     51648     51649     51650     51649     51651
     51650     51651     51652     51653     51652     51654     51653     51654
     51655     51656     51655     51657     51656     51657     51658     51659
     51658     51660     51659     51660     51661     51662     51661     51663
     51662     51663     51664     51665     51664     51666     51665     51666
     51667     51668     51667     51669     51668     51669     51670     51671
     51670     51672     51671     51672     51673     51674     51673     51675
     51674     51675     51676     51677     51676     51678     51677     51678
     51679     51680     51679     51681     51680     51681     51682     51683
     51682     51684     51683     51684     51685     51686     51685     51687
     51686     51687     51688     51689     51688     51690     51689     51690
     51691     51692     51691     51693     51692     51693     51694     51695
     51694     51696     51695     51696     51697     51698     51697     51699
     51698     51699     51700     51701     51700     51702     51701     51702
     51703     51704     51703     51705     51704     51705     51706     51707
     51706     51708     51707     51708     51709     51710     51709     51711
     51710     51711     51712     51713     51712     51714     51713     51714
     51715     51716     51715     51717     51716     51717     51718     51719
     51718     51720     51719     51720     51721     51722     51721     51723
     51722     51723     51724     51725     51724     51726     51725     51726
     51727     51728     51727     51729     51728     51729     51730     51731
     51730     51732     51731     51732     51733     51734     51733     51735
     51734     51735     51736     51737     51736     51738     51737     51738
     51739     51740     51739     51741     51740     51741     51742     51743
     51742     51744     51743     51744     51745     51746     51745     51747
     51746     51747     51748     51749     51748     51750     51749     51750
     51751     51752     51751     51753     51752     51753     51754     51755
     51754     51756     51755     51756     51757     51758     51757     51759
     51758     51759     51760     51761     51760     51762     51761     51762
     51763     51764     51763     51765     51764     51765     51766     51767
     51766     51768     51767     51768     51769     51770     51769     51771
     51770     51771     51772     51773     51772     51774     51773     51774
     51775     51776     51775     51777     51776     51777     51778     51779
     51778     51780     51779     51780     51781     51782     51781     51783
     51782     51783     51784     51785     51784     51786     51785     51786
     51787     51788     51787     51789     51788     51789     51790     51791
     51790     51792     51791     51792     51793     51794     51793     51795
     51794     51795     51796     51797     51796     51798     51797     51798
     51799     51800     51799     51801     51800     51801     51802     51803
     51802     51804     51803     51804     51805     51806     51805     51807
     51806     51807     51808     51809     51808     51810     51809     51810
     51811     51812     51811     51813     51812     51813     51814     51815
     51814     51816     51815     51816     51817     51818     51817     51819
     51818     51819     51820     51821     51820     51822     51821     51822
     51823     51824     51823     51825     51824     51825     51826     51827
     51826     51828     51827     51828     51829     51830     51829     51831
     51830     51831     51832     51833     51832     51834     51833     51834
     51835     51836     51835     51837     51836     51837     51838     51839
     51838     51840     51839     51840     51841     51842     51841     51843
     51842     51843     51844     51845     51844     51846     51845     51846
     51847     51848     51847     51849     51848     51849     51850     51851
     51850     51852     51851     51852     51853     51854     51853     51855
     51854     51855     51856     51857     51856     51858     51857     51858
     51859     51860     51859     51861     51860     51861     51862     51863
     51862     51864     51863     51864     51865     51866     51865     51867
     51866     51867     51868     51869     51868     51870     51869     51870
     51871     51872     51871     51873     51872     51873     51874     51875
     51874     51876     51875     51876     51877     51878     51877     51879
     51878     51879     51880     51881     51880     51882     51881     51882
     51883     51884     51883     51885     51884     51885     51886     51887
     51886     51888     51887     51888     51889     51890     51889     51891
     51890     51891     51892     51893     51892     51894     51893     51894
     51895     51896     51895     51897     51896     51897     51898     51899
     51898     51900     51899     51900     51901     51902     51901     51903
     51902     51903     51904     51905     51904     51906     51905     51906
     51907     51908     51907     51909     51908     51909     51910     51911
     51910     51912     51911     51912     51913     51914     51913     51915
     51914     51915     51916     51917     51916     51918     51917     51918
     51919     51920     51919     51921     51920     51921     51922     51923
     51922     51924     51923     51924     51925     51926     51925     51927
     51926     51927     51928     51929     51928     51930     51929     51930
     51931     51932     51931     51933     51932     51933     51934     51935
     51934     51936     51935     51936     51937     51938     51937     51939
     51938     51939     51940     51941     51940     51942     51941     51942
     51943     51944     51943     51945     51944     51945     51946     51947
     51946     51948     51947     51948     51949     51950     51949     51951
     51950     51951     51952     51953     51952     51954     51953     51954
     51955     51956     51955     51957     51956     51957     51958     51959
     51958     51960     51959     51960     51961     51962     51961     51963
     51962     51963     51964     51965     51964     51966     51965     51966
     51967     51968     51967     51969     51968     51969     51970     51971
     51970     51972     51971     51972     51973     51974     51973     51975
     51974     51975     51976     51977     51976     51978     51977     51978
     51979     51980     51979     51981     51980     51981     51982     51983
     51982     51984     51983     51984     51985     51986     51985     51987
     51986     51987     51988     51989     51988     51990     51989     51990
     51991     51992     51991     51993     51992     51993     51994     51995
     51994     51996     51995     51996     51997     51998     51997     51999
     51998     51999     52000     52001     52000     52002     52001     52002
     52003     52004     52003     52005     52004     52005     52006     52007
     52006     52008     52007     52008     52009     52010     52009     52011
     52010     52011     52012     52013     52012     52014     52013     52014
     52015     52016     52015     52017     52016     52017     52018     52019
     52018     52020     52019     52020     52021     52022     52021     52023
     52022     52023     52024     52025     52024     52026     52025     52026
     52027     52028     52027     52029     52028     52029     52030     52031
     52030     52032     52031     52032     52033     52034     52033     52035
     52034     52035     52036     52037     52036     52038     52037     52038
     52039     52040     52039     52041     52040     52041     52042     52043
     52042     52044     52043     52044     52045     52046     52045     52047
     52046     52047     52048     52049     52048     52050     52049     52050
     52051     52052     52051     52053     52052     52053     52054     52055
     52054     52056     52055     52056     52057     52058     52057     52059
     52058     52059     52060     52061     52060     52062     52061     52062
     52063     52064     52063     52065     52064     52065     52066     52067
     52066     52068     52067     52068     52069     52070     52069     52071
     52070     52071     52072     52073     52072     52074     52073     52074
     52075     52076     52075     52077     52076     52077     52078     52079
     52078     52080     52079     52080     52081     52082     52081     52083
     52082     52083     52084     52085     52084     52086     52085     52086
     52087     52088     52087     52089     52088     52089     52090     52091
     52090     52092     52091     52092     52093     52094     52093     52095
     52094     52095     52096     52097     52096     52098     52097     52098
     52099     52100     52099     52101     52100     52101     52102     52103
     52102     52104     52103     52104     52105     52106     52105     52107
     52106     52107     52108     52109     52108     52110     52109     52110
     52111     52112     52111     52113     52112     52113     52114     52115
     52114     52116     52115     52116     52117     52118     52117     52119
     52118     52119     52120     52121     52120     52122     52121     52122
     52123     52124     52123     52125     52124     52125     52126     52127
     52126     52128     52127     52128     52129     52130     52129     52131
     52130     52131     52132     52133     52132     52134     52133     52134
     52135     52136     52135     52137     52136     52137     52138     52139
     52138     52140     52139     52140     52141     52142     52141     52143
     52142     52143     52144     52145     52144     52146     52145     52146
     52147     52148     52147     52149     52148     52149     52150     52151
     52150     52152     52151     52152     52153     52154     52153     52155
     52154     52155     52156     52157     52156     52158     52157     52158
     52159     52160     52159     52161     52160     52161     52162     52163
     52162     52164     52163     52164     52165     52166     52165     52167
     52166     52167     52168     52169     52168     52170     52169     52170
     52171     52172     52171     52173     52172     52173     52174     52175
     52174     52176     52175     52176     52177     52178     52177     52179
     52178     52179     52180     52181     52180     52182     52181     52182
     52183     52184     52183     52185     52184     52185     52186     52187
     52186     52188     52187     52188     52189     52190     52189     52191
     52190     52191     52192     52193     52192     52194     52193     52194
     52195     52196     52195     52197     52196     52197     52198     52199
     52198     52200     52199     52200     52201     52202     52201     52203
     52202     52203     52204     52205     52204     52206     52205     52206
     52207     52208     52207     52209     52208     52209     52210     52211
     52210     52212     52211     52212     52213     52214     52213     52215
     52214     52215     52216     52217     52216     52218     52217     52218
     52219     52220     52219     52221     52220     52221     52222     52223
     52222     52224     52223     52224     52225     52226     52225     52227
     52226     52227     52228     52229     52228     52230     52229     52230
     52231     52232     52231     52233     52232     52233     52234     52235
     52234     52236     52235     52236     52237     52238     52237     52239
     52238     52239     52240     52241     52240     52242     52241     52242
     52243     52244     52243     52245     52244     52245     52246     52247
     52246     52248     52247     52248     52249     52250     52249     52251
     52250     52251     52252     52253     52252     52254     52253     52254
     52255     52256     52255     52257     52256     52257     52258     52259
     52258     52260     52259     52260     52261     52262     52261     52263
     52262     52263     52264     52265     52264     52266     52265     52266
     52267     52268     52267     52269     52268     52269     52270     52271
     52270     52272     52271     52272     52273     52274     52273     52275
     52274     52275     52276     52277     52276     52278     52277     52278
     52279     52280     52279     52281     52280     52281     52282     52283
     52282     52284     52283     52284     52285     52286     52285     52287
     52286     52287     52288     52289     52288     52290     52289     52290
     52291     52292     52291     52293     52292     52293     52294     52295
     52294     52296     52295     52296     52297     52298     52297     52299
     52298     52299     52300     52301     52300     52302     52301     52302
     52303     52304     52303     52305     52304     52305     52306     52307
     52306     52308     52307     52308     52309     52310     52309     52311
     52310     52311     52312     52313     52312     52314     52313     52314
     52315     52316     52315     52317     52316     52317     52318     52319
     52318     52320     52319     52320     52321     52322     52321     52323
     52322     52323     52324     52325     52324     52326     52325     52326
     52327     52328     52327     52329     52328     52329     52330     52331
     52330     52332     52331     52332     52333     52334     52333     52335
     52334     52335     52336     52337     52336     52338     52337     52338
     52339     52340     52339     52341     52340     52341     52342     52343
     52342     52344     52343     52344     52345     52346     52345     52347
     52346     52347     52348     52349     52348     52350     52349     52350
     52351     52352     52351     52353     52352     52353     52354     52355
     52354     52356     52355     52356     52357     52358     52357     52359
     52358     52359     52360     52361     52360     52362     52361     52362
     52363     52364     52363     52365     52364     52365     52366     52367
     52366     52368     52367     52368     52369     52370     52369     52371
     52370     52371     52372     52373     52372     52374     52373     52374
     52375     52376     52375     52377     52376     52377     52378     52379
     52378     52380     52379     52380     52381     52382     52381     52383
     52382     52383     52384     52385     52384     52386     52385     52386
     52387     52388     52387     52389     52388     52389     52390     52391
     52390     52392     52391     52392     52393     52394     52393     52395
     52394     52395     52396     52397     52396     52398     52397     52398
     52399     52400     52399     52401     52400     52401     52402     52403
     52402     52404     52403     52404     52405     52406     52405     52407
     52406     52407     52408     52409     52408     52410     52409     52410
     52411     52412     52411     52413     52412     52413     52414     52415
     52414     52416     52415     52416     52417     52418     52417     52419
     52418     52419     52420     52421     52420     52422     52421     52422
     52423     52424     52423     52425     52424     52425     52426     52427
     52426     52428     52427     52428     52429     52430     52429     52431
     52430     52431     52432     52433     52432     52434     52433     52434
     52435     52436     52435     52437     52436     52437     52438     52439
     52438     52440     52439     52440     52441     52442     52441     52443
     52442     52443     52444     52445     52444     52446     52445     52446
     52447     52448     52447     52449     52448     52449     52450     52451
     52450     52452     52451     52452     52453     52454     52453     52455
     52454     52455     52456     52457     52456     52458     52457     52458
     52459     52460     52459     52461     52460     52461     52462     52463
     52462     52464     52463     52464     52465     52466     52465     52467
     52466     52467     52468     52469     52468     52470     52469     52470
     52471     52472     52471     52473     52472     52473     52474     52475
     52474     52476     52475     52476     52477     52478     52477     52479
     52478     52479     52480     52481     52480     52482     52481     52482
     52483     52484     52483     52485     52484     52485     52486     52487
     52486     52488     52487     52488     52489     52490     52489     52491
     52490     52491     52492     52493     52492     52494     52493     52494
     52495     52496     52495     52497     52496     52497     52498     52499
     52498     52500     52499     52500     52501     52502     52501     52503
     52502     52503     52504     52505     52504     52506     52505     52506
     52507     52508     52507     52509     52508     52509     52510     52511
     52510     52512     52511     52512     52513     52514     52513     52515
     52514     52515     52516     52517     52516     52518     52517     52518
     52519     52520     52519     52521     52520     52521     52522     52523
     52522     52524     52523     52524     52525     52526     52525     52527
     52526     52527     52528     52529     52528     52530     52529     52530
     52531     52532     52531     52533     52532     52533     52534     52535
     52534     52536     52535     52536     52537     52538     52537     52539
     52538     52539     52540     52541     52540     52542     52541     52542
     52543     52544     52543     52545     52544     52545     52546     52547
     52546     52548     52547     52548     52549     52550     52549     52551
     52550     52551     52552     52553     52552     52554     52553     52554
     52555     52556     52555     52557     52556     52557     52558     52559
     52558     52560     52559     52560     52561     52562     52561     52563
     52562     52563     52564     52565     52564     52566     52565     52566
     52567     52568     52567     52569     52568     52569     52570     52571
     52570     52572     52571     52572     52573     52574     52573     52575
     52574     52575     52576     52577     52576     52578     52577     52578
     52579     52580     52579     52581     52580     52581     52582     52583
     52582     52584     52583     52584     52585     52586     52585     52587
     52586     52587     52588     52589     52588     52590     52589     52590
     52591     52592     52591     52593     52592     52593     52594     52595
     52594     52596     52595     52596     52597     52598     52597     52599
     52598     52599     52600     52601     52600     52602     52601     52602
     52603     52604     52603     52605     52604     52605     52606     52607
     52606     52608     52607     52608     52609     52610     52609     52611
     52610     52611     52612     52613     52612     52614     52613     52614
     52615     52616     52615     52617     52616     52617     52618     52619
     52618     52620     52619     52620     52621     52622     52621     52623
     52622     52623     52624     52625     52624     52626     52625     52626
     52627     52628     52627     52629     52628     52629     52630     52631
     52630     52632     52631     52632     52633     52634     52633     52635
     52634     52635     52636     52637     52636     52638     52637     52638
     52639     52640     52639     52641     52640     52641     52642     52643
     52642     52644     52643     52644     52645     52646     52645     52647
     52646     52647     52648     52649     52648     52650     52649     52650
     52651     52652     52651     52653     52652     52653     52654     52655
     52654     52656     52655     52656     52657     52658     52657     52659
     52658     52659     52660     52661     52660     52662     52661     52662
     52663     52664     52663     52665     52664     52665     52666     52667
     52666     52668     52667     52668     52669     52670     52669     52671
     52670     52671     52672     52673     52672     52674     52673     52674
     52675     52676     52675     52677     52676     52677     52678     52679
     52678     52680     52679     52680     52681     52682     52681     52683
     52682     52683     52684     52685     52684     52686     52685     52686
     52687     52688     52687     52689     52688     52689     52690     52691
     52690     52692     52691     52692     52693     52694     52693     52695
     52694     52695     52696     52697     52696     52698     52697     52698
     52699     52700     52699     52701     52700     52701     52702     52703
     52702     52704     52703     52704     52705     52706     52705     52707
     52706     52707     52708     52709     52708     52710     52709     52710
     52711     52712     52711     52713     52712     52713     52714     52715
     52714     52716     52715     52716     52717     52718     52717     52719
     52718     52719     52720     52721     52720     52722     52721     52722
     52723     52724     52723     52725     52724     52725     52726     52727
     52726     52728     52727     52728     52729     52730     52729     52731
     52730     52731     52732     52733     52732     52734     52733     52734
     52735     52736     52735     52737     52736     52737     52738     52739
     52738     52740     52739     52740     52741     52742     52741     52743
     52742     52743     52744     52745     52744     52746     52745     52746
     52747     52748     52747     52749     52748     52749     52750     52751
     52750     52752     52751     52752     52753     52754     52753     52755
     52754     52755     52756     52757     52756     52758     52757     52758
     52759     52760     52759     52761     52760     52761     52762     52763
     52762     52764     52763     52764     52765     52766     52765     52767
     52766     52767     52768     52769     52768     52770     52769     52770
     52771     52772     52771     52773     52772     52773     52774     52775
     52774     52776     52775     52776     52777     52778     52777     52779
     52778     52779     52780     52781     52780     52782     52781     52782
     52783     52784     52783     52785     52784     52785     52786     52787
     52786     52788     52787     52788     52789     52790     52789     52791
     52790     52791     52792     52793     52792     52794     52793     52794
     52795     52796     52795     52797     52796     52797     52798     52799
     52798     52800     52799     52800     52801     52802     52801     52803
     52802     52803     52804     52805     52804     52806     52805     52806
     52807     52808     52807     52809     52808     52809     52810     52811
     52810     52812     52811     52812     52813     52814     52813     52815
     52814     52815     52816     52817     52816     52818     52817     52818
     52819     52820     52819     52821     52820     52821     52822     52823
     52822     52824     52823     52824     52825     52826     52825     52827
     52826     52827     52828     52829     52828     52830     52829     52830
     52831     52832     52831     52833     52832     52833     52834     52835
     52834     52836     52835     52836     52837     52838     52837     52839
     52838     52839     52840     52841     52840     52842     52841     52842
     52843     52844     52843     52845     52844     52845     52846     52847
     52846     52848     52847     52848     52849     52850     52849     52851
     52850     52851     52852     52853     52852     52854     52853     52854
     52855     52856     52855     52857     52856     52857     52858     52859
     52858     52860     52859     52860     52861     52862     52861     52863
     52862     52863     52864     52865     52864     52866     52865     52866
     52867     52868     52867     52869     52868     52869     52870     52871
     52870     52872     52871     52872     52873     52874     52873     52875
     52874     52875     52876     52877     52876     52878     52877     52878
     52879     52880     52879     52881     52880     52881     52882     52883
     52882     52884     52883     52884     52885     52886     52885     52887
     52886     52887     52888     52889     52888     52890     52889     52890
     52891     52892     52891     52893     52892     52893     52894     52895
     52894     52896     52895     52896     52897     52898     52897     52899
     52898     52899     52900     52901     52900     52902     52901     52902
     52903     52904     52903     52905     52904     52905     52906     52907
     52906     52908     52907     52908     52909     52910     52909     52911
     52910     52911     52912     52913     52912     52914     52913     52914
     52915     52916     52915     52917     52916     52917     52918     52919
     52918     52920     52919     52920     52921     52922     52921     52923
     52922     52923     52924     52925     52924     52926     52925     52926
     52927     52928     52927     52929     52928     52929     52930     52931
     52930     52932     52931     52932     52933     52934     52933     52935
     52934     52935     52936     52937     52936     52938     52937     52938
     52939     52940     52939     52941     52940     52941     52942     52943
     52942     52944     52943     52944     52945     52946     52945     52947
     52946     52947     52948     52949     52948     52950     52949     52950
     52951     52952     52951     52953     52952     52953     52954     52955
     52954     52956     52955     52956     52957     52958     52957     52959
     52958     52959     52960     52961     52960     52962     52961     52962
     52963     52964     52963     52965     52964     52965     52966     52967
     52966     52968     52967     52968     52969     52970     52969     52971
     52970     52971     52972     52973     52972     52974     52973     52974
     52975     52976     52975     52977     52976     52977     52978     52979
     52978     52980     52979     52980     52981     52982     52981     52983
     52982     52983     52984     52985     52984     52986     52985     52986
     52987     52988     52987     52989     52988     52989     52990     52991
     52990     52992     52991     52992     52993     52994     52993     52995
     52994     52995     52996     52997     52996     52998     52997     52998
     52999     53000     52999     53001     53000     53001     53002     53003
     53002     53004     53003     53004     53005     53006     53005     53007
     53006     53007     53008     53009     53008     53010     53009     53010
     53011     53012     53011     53013     53012     53013     53014     53015
     53014     53016     53015     53016     53017     53018     53017     53019
     53018     53019     53020     53021     53020     53022     53021     53022
     53023     53024     53023     53025     53024     53025     53026     53027
     53026     53028     53027     53028     53029     53030     53029     53031
     53030     53031     53032     53033     53032     53034     53033     53034
     53035     53036     53035     53037     53036     53037     53038     53039
     53038     53040     53039     53040     53041     53042     53041     53043
     53042     53043     53044     53045     53044     53046     53045     53046
     53047     53048     53047     53049     53048     53049     53050     53051
     53050     53052     53051     53052     53053     53054     53053     53055
     53054     53055     53056     53057     53056     53058     53057     53058
     53059     53060     53059     53061     53060     53061     53062     53063
     53062     53064     53063     53064     53065     53066     53065     53067
     53066     53067     53068     53069     53068     53070     53069     53070
     53071     53072     53071     53073     53072     53073     53074     53075
     53074     53076     53075     53076     53077     53078     53077     53079
     53078     53079     53080     53081     53080     53082     53081     53082
     53083     53084     53083     53085     53084     53085     53086     53087
     53086     53088     53087     53088     53089     53090     53089     53091
     53090     53091     53092     53093     53092     53094     53093     53094
     53095     53096     53095     53097     53096     53097     53098     53099
     53098     53100     53099     53100     53101     53102     53101     53103
     53102     53103     53104     53105     53104     53106     53105     53106
     53107     53108     53107     53109     53108     53109     53110     53111
     53110     53112     53111     53112     53113     53114     53113     53115
     53114     53115     53116     53117     53116     53118     53117     53118
     53119     53120     53119     53121     53120     53121     53122     53123
     53122     53124     53123     53124     53125     53126     53125     53127
     53126     53127     53128     53129     53128     53130     53129     53130
     53131     53132     53131     53133     53132     53133     53134     53135
     53134     53136     53135     53136     53137     53138     53137     53139
     53138     53139     53140     53141     53140     53142     53141     53142
     53143     53144     53143     53145     53144     53145     53146     53147
     53146     53148     53147     53148     53149     53150     53149     53151
     53150     53151     53152     53153     53152     53154     53153     53154
     53155     53156     53155     53157     53156     53157     53158     53159
     53158     53160     53159     53160     53161     53162     53161     53163
     53162     53163     53164     53165     53164     53166     53165     53166
     53167     53168     53167     53169     53168     53169     53170     53171
     53170     53172     53171     53172     53173     53174     53173     53175
     53174     53175     53176     53177     53176     53178     53177     53178
     53179     53180     53179     53181     53180     53181     53182     53183
     53182     53184     53183     53184     53185     53186     53185     53187
     53186     53187     53188     53189     53188     53190     53189     53190
     53191     53192     53191     53193     53192     53193     53194     53195
     53194     53196     53195     53196     53197     53198     53197     53199
     53198     53199     53200     53201     53200     53202     53201     53202
     53203     53204     53203     53205     53204     53205     53206     53207
     53206     53208     53207     53208     53209     53210     53209     53211
     53210     53211     53212     53213     53212     53214     53213     53214
     53215     53216     53215     53217     53216     53217     53218     53219
     53218     53220     53219     53220     53221     53222     53221     53223
     53222     53223     53224     53225     53224     53226     53225     53226
     53227     53228     53227     53229     53228     53229     53230     53231
     53230     53232     53231     53232     53233     53234     53233     53235
     53234     53235     53236     53237     53236     53238     53237     53238
     53239     53240     53239     53241     53240     53241     53242     53243
     53242     53244     53243     53244     53245     53246     53245     53247
     53246     53247     53248     53249     53248     53250     53249     53250
     53251     53252     53251     53253     53252     53253     53254     53255
     53254     53256     53255     53256     53257     53258     53257     53259
     53258     53259     53260     53261     53260     53262     53261     53262
     53263     53264     53263     53265     53264     53265     53266     53267
     53266     53268     53267     53268     53269     53270     53269     53271
     53270     53271     53272     53273     53272     53274     53273     53274
     53275     53276     53275     53277     53276     53277     53278     53279
     53278     53280     53279     53280     53281     53282     53281     53283
     53282     53283     53284     53285     53284     53286     53285     53286
     53287     53288     53287     53289     53288     53289     53290     53291
     53290     53292     53291     53292     53293     53294     53293     53295
     53294     53295     53296     53297     53296     53298     53297     53298
     53299     53300     53299     53301     53300     53301     53302     53303
     53302     53304     53303     53304     53305     53306     53305     53307
     53306     53307     53308     53309     53308     53310     53309     53310
     53311     53312     53311     53313     53312     53313     53314     53315
     53314     53316     53315     53316     53317     53318     53317     53319
     53318     53319     53320     53321     53320     53322     53321     53322
     53323     53324     53323     53325     53324     53325     53326     53327
     53326     53328     53327     53328     53329     53330     53329     53331
     53330     53331     53332     53333     53332     53334     53333     53334
     53335     53336     53335     53337     53336     53337     53338     53339
     53338     53340     53339     53340     53341     53342     53341     53343
     53342     53343     53344     53345     53344     53346     53345     53346
     53347     53348     53347     53349     53348     53349     53350     53351
     53350     53352     53351     53352     53353     53354     53353     53355
     53354     53355     53356     53357     53356     53358     53357     53358
     53359     53360     53359     53361     53360     53361     53362     53363
     53362     53364     53363     53364     53365     53366     53365     53367
     53366     53367     53368     53369     53368     53370     53369     53370
     53371     53372     53371     53373     53372     53373     53374     53375
     53374     53376     53375     53376     53377     53378     53377     53379
     53378     53379     53380     53381     53380     53382     53381     53382
     53383     53384     53383     53385     53384     53385     53386     53387
     53386     53388     53387     53388     53389     53390     53389     53391
     53390     53391     53392     53393     53392     53394     53393     53394
     53395     53396     53395     53397     53396     53397     53398     53399
     53398     53400     53399     53400     53401     53402     53401     53403
     53402     53403     53404     53405     53404     53406     53405     53406
     53407     53408     53407     53409     53408     53409     53410     53411
     53410     53412     53411     53412     53413     53414     53413     53415
     53414     53415     53416     53417     53416     53418     53417     53418
     53419     53420     53419     53421     53420     53421     53422     53423
     53422     53424     53423     53424     53425     53426     53425     53427
     53426     53427     53428     53429     53428     53430     53429     53430
     53431     53432     53431     53433     53432     53433     53434     53435
     53434     53436     53435     53436     53437     53438     53437     53439
     53438     53439     53440     53441     53440     53442     53441     53442
     53443     53444     53443     53445     53444     53445     53446     53447
     53446     53448     53447     53448     53449     53450     53449     53451
     53450     53451     53452     53453     53452     53454     53453     53454
     53455     53456     53455     53457     53456     53457     53458     53459
     53458     53460     53459     53460     53461     53462     53461     53463
     53462     53463     53464     53465     53464     53466     53465     53466
     53467     53468     53467     53469     53468     53469     53470     53471
     53470     53472     53471     53472     53473     53474     53473     53475
     53474     53475     53476     53477     53476     53478     53477     53478
     53479     53480     53479     53481     53480     53481     53482     53483
     53482     53484     53483     53484     53485     53486     53485     53487
     53486     53487     53488     53489     53488     53490     53489     53490
     53491     53492     53491     53493     53492     53493     53494     53495
     53494     53496     53495     53496     53497     53498     53497     53499
     53498     53499     53500     53501     53500     53502     53501     53502
     53503     53504     53503     53505     53504     53505     53506     53507
     53506     53508     53507     53508     53509     53510     53509     53511
     53510     53511     53512     53513     53512     53514     53513     53514
     53515     53516     53515     53517     53516     53517     53518     53519
     53518     53520     53519     53520     53521     53522     53521     53523
     53522     53523     53524     53525     53524     53526     53525     53526
     53527     53528     53527     53529     53528     53529     53530     53531
     53530     53532     53531     53532     53533     53534     53533     53535
     53534     53535     53536     53537     53536     53538     53537     53538
     53539     53540     53539     53541     53540     53541     53542     53543
     53542     53544     53543     53544     53545     53546     53545     53547
     53546     53547     53548     53549     53548     53550     53549     53550
     53551     53552     53551     53553     53552     53553     53554     53555
     53554     53556     53555     53556     53557     53558     53557     53559
     53558     53559     53560     53561     53560     53562     53561     53562
     53563     53564     53563     53565     53564     53565     53566     53567
     53566     53568     53567     53568     53569     53570     53569     53571
     53570     53571     53572     53573     53572     53574     53573     53574
     53575     53576     53575     53577     53576     53577     53578     53579
     53578     53580     53579     53580     53581     53582     53581     53583
     53582     53583     53584     53585     53584     53586     53585     53586
     53587     53588     53587     53589     53588     53589     53590     53591
     53590     53592     53591     53592     53593     53594     53593     53595
     53594     53595     53596     53597     53596     53598     53597     53598
     53599     53600     53599     53601     53600     53601     53602     53603
     53602     53604     53603     53604     53605     53606     53605     53607
     53606     53607     53608     53609     53608     53610     53609     53610
     53611     53612     53611     53613     53612     53613     53614     53615
     53614     53616     53615     53616     53617     53618     53617     53619
     53618     53619     53620     53621     53620     53622     53621     53622
     53623     53624     53623     53625     53624     53625     53626     53627
     53626     53628     53627     53628     53629     53630     53629     53631
     53630     53631     53632     53633     53632     53634     53633     53634
     53635     53636     53635     53637     53636     53637     53638     53639
     53638     53640     53639     53640     53641     53642     53641     53643
     53642     53643     53644     53645     53644     53646     53645     53646
     53647     53648     53647     53649     53648     53649     53650     53651
     53650     53652     53651     53652     53653     53654     53653     53655
     53654     53655     53656     53657     53656     53658     53657     53658
     53659     53660     53659     53661     53660     53661     53662     53663
     53662     53664     53663     53664     53665     53666     53665     53667
     53666     53667     53668     53669     53668     53670     53669     53670
     53671     53672     53671     53673     53672     53673     53674     53675
     53674     53676     53675     53676     53677     53678     53677     53679
     53678     53679     53680     53681     53680     53682     53681     53682
     53683     53684     53683     53685     53684     53685     53686     53687
     53686     53688     53687     53688     53689     53690     53689     53691
     53690     53691     53692     53693     53692     53694     53693     53694
     53695     53696     53695     53697     53696     53697     53698     53699
     53698     53700     53699     53700     53701     53702     53701     53703
     53702     53703     53704     53705     53704     53706     53705     53706
     53707     53708     53707     53709     53708     53709     53710     53711
     53710     53712     53711     53712     53713     53714     53713     53715
     53714     53715     53716     53717     53716     53718     53717     53718
     53719     53720     53719     53721     53720     53721     53722     53723
     53722     53724     53723     53724     53725     53726     53725     53727
     53726     53727     53728     53729     53728     53730     53729     53730
     53731     53732     53731     53733     53732     53733     53734     53735
     53734     53736     53735     53736     53737     53738     53737     53739
     53738     53739     53740     53741     53740     53742     53741     53742
     53743     53744     53743     53745     53744     53745     53746     53747
     53746     53748     53747     53748     53749     53750     53749     53751
     53750     53751     53752     53753     53752     53754     53753     53754
     53755     53756     53755     53757     53756     53757     53758     53759
     53758     53760     53759     53760     53761     53762     53761     53763
     53762     53763     53764     53765     53764     53766     53765     53766
     53767     53768     53767     53769     53768     53769     53770     53771
     53770     53772     53771     53772     53773     53774     53773     53775
     53774     53775     53776     53777     53776     53778     53777     53778
     53779     53780     53779     53781     53780     53781     53782     53783
     53782     53784     53783     53784     53785     53786     53785     53787
     53786     53787     53788     53789     53788     53790     53789     53790
     53791     53792     53791     53793     53792     53793     53794     53795
     53794     53796     53795     53796     53797     53798     53797     53799
     53798     53799     53800     53801     53800     53802     53801     53802
     53803     53804     53803     53805     53804     53805     53806     53807
     53806     53808     53807     53808     53809     53810     53809     53811
     53810     53811     53812     53813     53812     53814     53813     53814
     53815     53816     53815     53817     53816     53817     53818     53819
     53818     53820     53819     53820     53821     53822     53821     53823
     53822     53823     53824     53825     53824     53826     53825     53826
     53827     53828     53827     53829     53828     53829     53830     53831
     53830     53832     53831     53832     53833     53834     53833     53835
     53834     53835     53836     53837     53836     53838     53837     53838
     53839     53840     53839     53841     53840     53841     53842     53843
     53842     53844     53843     53844     53845     53846     53845     53847
     53846     53847     53848     53849     53848     53850     53849     53850
     53851     53852     53851     53853     53852     53853     53854     53855
     53854     53856     53855     53856     53857     53858     53857     53859
     53858     53859     53860     53861     53860     53862     53861     53862
     53863     53864     53863     53865     53864     53865     53866     53867
     53866     53868     53867     53868     53869     53870     53869     53871
     53870     53871     53872     53873     53872     53874     53873     53874
     53875     53876     53875     53877     53876     53877     53878     53879
     53878     53880     53879     53880     53881     53882     53881     53883
     53882     53883     53884     53885     53884     53886     53885     53886
     53887     53888     53887     53889     53888     53889     53890     53891
     53890     53892     53891     53892     53893     53894     53893     53895
     53894     53895     53896     53897     53896     53898     53897     53898
     53899     53900     53899     53901     53900     53901     53902     53903
     53902     53904     53903     53904     53905     53906     53905     53907
     53906     53907     53908     53909     53908     53910     53909     53910
     53911     53912     53911     53913     53912     53913     53914     53915
     53914     53916     53915     53916     53917     53918     53917     53919
     53918     53919     53920     53921     53920     53922     53921     53922
     53923     53924     53923     53925     53924     53925     53926     53927
     53926     53928     53927     53928     53929     53930     53929     53931
     53930     53931     53932     53933     53932     53934     53933     53934
     53935     53936     53935     53937     53936     53937     53938     53939
     53938     53940     53939     53940     53941     53942     53941     53943
     53942     53943     53944     53945     53944     53946     53945     53946
     53947     53948     53947     53949     53948     53949     53950     53951
     53950     53952     53951     53952     53953     53954     53953     53955
     53954     53955     53956     53957     53956     53958     53957     53958
     53959     53960     53959     53961     53960     53961     53962     53963
     53962     53964     53963     53964     53965     53966     53965     53967
     53966     53967     53968     53969     53968     53970     53969     53970
     53971     53972     53971     53973     53972     53973     53974     53975
     53974     53976     53975     53976     53977     53978     53977     53979
     53978     53979     53980     53981     53980     53982     53981     53982
     53983     53984     53983     53985     53984     53985     53986     53987
     53986     53988     53987     53988     53989     53990     53989     53991
     53990     53991     53992     53993     53992     53994     53993     53994
     53995     53996     53995     53997     53996     53997     53998     53999
     53998     54000     53999     54000     54001     54002     54001     54003
     54002     54003     54004     54005     54004     54006     54005     54006
     54007     54008     54007     54009     54008     54009     54010     54011
     54010     54012     54011     54012     54013     54014     54013     54015
     54014     54015     54016     54017     54016     54018     54017     54018
     54019     54020     54019     54021     54020     54021     54022     54023
     54022     54024     54023     54024     54025     54026     54025     54027
     54026     54027     54028     54029     54028     54030     54029     54030
     54031     54032     54031     54033     54032     54033     54034     54035
     54034     54036     54035     54036     54037     54038     54037     54039
     54038     54039     54040     54041     54040     54042     54041     54042
     54043     54044     54043     54045     54044     54045     54046     54047
     54046     54048     54047     54048     54049     54050     54049     54051
     54050     54051     54052     54053     54052     54054     54053     54054
     54055     54056     54055     54057     54056     54057     54058     54059
     54058     54060     54059     54060     54061     54062     54061     54063
     54062     54063     54064     54065     54064     54066     54065     54066
     54067     54068     54067     54069     54068     54069     54070     54071
     54070     54072     54071     54072     54073     54074     54073     54075
     54074     54075     54076     54077     54076     54078     54077     54078
     54079     54080     54079     54081     54080     54081     54082     54083
     54082     54084     54083     54084     54085     54086     54085     54087
     54086     54087     54088     54089     54088     54090     54089     54090
     54091     54092     54091     54093     54092     54093     54094     54095
     54094     54096     54095     54096     54097     54098     54097     54099
     54098     54099     54100     54101     54100     54102     54101     54102
     54103     54104     54103     54105     54104     54105     54106     54107
     54106     54108     54107     54108     54109     54110     54109     54111
     54110     54111     54112     54113     54112     54114     54113     54114
     54115     54116     54115     54117     54116     54117     54118     54119
     54118     54120     54119     54120     54121     54122     54121     54123
     54122     54123     54124     54125     54124     54126     54125     54126
     54127     54128     54127     54129     54128     54129     54130     54131
     54130     54132     54131     54132     54133     54134     54133     54135
     54134     54135     54136     54137     54136     54138     54137     54138
     54139     54140     54139     54141     54140     54141     54142     54143
     54142     54144     54143     54144     54145     54146     54145     54147
     54146     54147     54148     54149     54148     54150     54149     54150
     54151     54152     54151     54153     54152     54153     54154     54155
     54154     54156     54155     54156     54157     54158     54157     54159
     54158     54159     54160     54161     54160     54162     54161     54162
     54163     54164     54163     54165     54164     54165     54166     54167
     54166     54168     54167     54168     54169     54170     54169     54171
     54170     54171     54172     54173     54172     54174     54173     54174
     54175     54176     54175     54177     54176     54177     54178     54179
     54178     54180     54179     54180     54181     54182     54181     54183
     54182     54183     54184     54185     54184     54186     54185     54186
     54187     54188     54187     54189     54188     54189     54190     54191
     54190     54192     54191     54192     54193     54194     54193     54195
     54194     54195     54196     54197     54196     54198     54197     54198
     54199     54200     54199     54201     54200     54201     54202     54203
     54202     54204     54203     54204     54205     54206     54205     54207
     54206     54207     54208     54209     54208     54210     54209     54210
     54211     54212     54211     54213     54212     54213     54214     54215
     54214     54216     54215     54216     54217     54218     54217     54219
     54218     54219     54220     54221     54220     54222     54221     54222
     54223     54224     54223     54225     54224     54225     54226     54227
     54226     54228     54227     54228     54229     54230     54229     54231
     54230     54231     54232     54233     54232     54234     54233     54234
     54235     54236     54235     54237     54236     54237     54238     54239
     54238     54240     54239     54240     54241     54242     54241     54243
     54242     54243     54244     54245     54244     54246     54245     54246
     54247     54248     54247     54249     54248     54249     54250     54251
     54250     54252     54251     54252     54253     54254     54253     54255
     54254     54255     54256     54257     54256     54258     54257     54258
     54259     54260     54259     54261     54260     54261     54262     54263
     54262     54264     54263     54264     54265     54266     54265     54267
     54266     54267     54268     54269     54268     54270     54269     54270
     54271     54272     54271     54273     54272     54273     54274     54275
     54274     54276     54275     54276     54277     54278     54277     54279
     54278     54279     54280     54281     54280     54282     54281     54282
     54283     54284     54283     54285     54284     54285     54286     54287
     54286     54288     54287     54288     54289     54290     54289     54291
     54290     54291     54292     54293     54292     54294     54293     54294
     54295     54296     54295     54297     54296     54297     54298     54299
     54298     54300     54299     54300     54301     54302     54301     54303
     54302     54303     54304     54305     54304     54306     54305     54306
     54307     54308     54307     54309     54308     54309     54310     54311
     54310     54312     54311     54312     54313     54314     54313     54315
     54314     54315     54316     54317     54316     54318     54317     54318
     54319     54320     54319     54321     54320     54321     54322     54323
     54322     54324     54323     54324     54325     54326     54325     54327
     54326     54327     54328     54329     54328     54330     54329     54330
     54331     54332     54331     54333     54332     54333     54334     54335
     54334     54336     54335     54336     54337     54338     54337     54339
     54338     54339     54340     54341     54340     54342     54341     54342
     54343     54344     54343     54345     54344     54345     54346     54347
     54346     54348     54347     54348     54349     54350     54349     54351
     54350     54351     54352     54353     54352     54354     54353     54354
     54355     54356     54355     54357     54356     54357     54358     54359
     54358     54360     54359     54360     54361     54362     54361     54363
     54362     54363     54364     54365     54364     54366     54365     54366
     54367     54368     54367     54369     54368     54369     54370     54371
     54370     54372     54371     54372     54373     54374     54373     54375
     54374     54375     54376     54377     54376     54378     54377     54378
     54379     54380     54379     54381     54380     54381     54382     54383
     54382     54384     54383     54384     54385     54386     54385     54387
     54386     54387     54388     54389     54388     54390     54389     54390
     54391     54392     54391     54393     54392     54393     54394     54395
     54394     54396     54395     54396     54397     54398     54397     54399
     54398     54399     54400     54401     54400     54402     54401     54402
     54403     54404     54403     54405     54404     54405     54406     54407
     54406     54408     54407     54408     54409     54410     54409     54411
     54410     54411     54412     54413     54412     54414     54413     54414
     54415     54416     54415     54417     54416     54417     54418     54419
     54418     54420     54419     54420     54421     54422     54421     54423
     54422     54423     54424     54425     54424     54426     54425     54426
     54427     54428     54427     54429     54428     54429     54430     54431
     54430     54432     54431     54432     54433     54434     54433     54435
     54434     54435     54436     54437     54436     54438     54437     54438
     54439     54440     54439     54441     54440     54441     54442     54443
     54442     54444     54443     54444     54445     54446     54445     54447
     54446     54447     54448     54449     54448     54450     54449     54450
     54451     54452     54451     54453     54452     54453     54454     54455
     54454     54456     54455     54456     54457     54458     54457     54459
     54458     54459     54460     54461     54460     54462     54461     54462
     54463     54464     54463     54465     54464     54465     54466     54467
     54466     54468     54467     54468     54469     54470     54469     54471
     54470     54471     54472     54473     54472     54474     54473     54474
     54475     54476     54475     54477     54476     54477     54478     54479
     54478     54480     54479     54480     54481     54482     54481     54483
     54482     54483     54484     54485     54484     54486     54485     54486
     54487     54488     54487     54489     54488     54489     54490     54491
     54490     54492     54491     54492     54493     54494     54493     54495
     54494     54495     54496     54497     54496     54498     54497     54498
     54499     54500     54499     54501     54500     54501     54502     54503
     54502     54504     54503     54504     54505     54506     54505     54507
     54506     54507     54508     54509     54508     54510     54509     54510
     54511     54512     54511     54513     54512     54513     54514     54515
     54514     54516     54515     54516     54517     54518     54517     54519
     54518     54519     54520     54521     54520     54522     54521     54522
     54523     54524     54523     54525     54524     54525     54526     54527
     54526     54528     54527     54528     54529     54530     54529     54531
     54530     54531     54532     54533     54532     54534     54533     54534
     54535     54536     54535     54537     54536     54537     54538     54539
     54538     54540     54539     54540     54541     54542     54541     54543
     54542     54543     54544     54545     54544     54546     54545     54546
     54547     54548     54547     54549     54548     54549     54550     54551
     54550     54552     54551     54552     54553     54554     54553     54555
     54554     54555     54556     54557     54556     54558     54557     54558
     54559     54560     54559     54561     54560     54561     54562     54563
     54562     54564     54563     54564     54565     54566     54565     54567
     54566     54567     54568     54569     54568     54570     54569     54570
     54571     54572     54571     54573     54572     54573     54574     54575
     54574     54576     54575     54576     54577     54578     54577     54579
     54578     54579     54580     54581     54580     54582     54581     54582
     54583     54584     54583     54585     54584     54585     54586     54587
     54586     54588     54587     54588     54589     54590     54589     54591
     54590     54591     54592     54593     54592     54594     54593     54594
     54595     54596     54595     54597     54596     54597     54598     54599
     54598     54600     54599     54600     54601     54602     54601     54603
     54602     54603     54604     54605     54604     54606     54605     54606
     54607     54608     54607     54609     54608     54609     54610     54611
     54610     54612     54611     54612     54613     54614     54613     54615
     54614     54615     54616     54617     54616     54618     54617     54618
     54619     54620     54619     54621     54620     54621     54622     54623
     54622     54624     54623     54624     54625     54626     54625     54627
     54626     54627     54628     54629     54628     54630     54629     54630
     54631     54632     54631     54633     54632     54633     54634     54635
     54634     54636     54635     54636     54637     54638     54637     54639
     54638     54639     54640     54641     54640     54642     54641     54642
     54643     54644     54643     54645     54644     54645     54646     54647
     54646     54648     54647     54648     54649     54650     54649     54651
     54650     54651     54652     54653     54652     54654     54653     54654
     54655     54656     54655     54657     54656     54657     54658     54659
     54658     54660     54659     54660     54661     54662     54661     54663
     54662     54663     54664     54665     54664     54666     54665     54666
     54667     54668     54667     54669     54668     54669     54670     54671
     54670     54672     54671     54672     54673     54674     54673     54675
     54674     54675     54676     54677     54676     54678     54677     54678
     54679     54680     54679     54681     54680     54681     54682     54683
     54682     54684     54683     54684     54685     54686     54685     54687
     54686     54687     54688     54689     54688     54690     54689     54690
     54691     54692     54691     54693     54692     54693     54694     54695
     54694     54696     54695     54696     54697     54698     54697     54699
     54698     54699     54700     54701     54700     54702     54701     54702
     54703     54704     54703     54705     54704     54705     54706     54707
     54706     54708     54707     54708     54709     54710     54709     54711
     54710     54711     54712     54713     54712     54714     54713     54714
     54715     54716     54715     54717     54716     54717     54718     54719
     54718     54720     54719     54720     54721     54722     54721     54723
     54722     54723     54724     54725     54724     54726     54725     54726
     54727     54728     54727     54729     54728     54729     54730     54731
     54730     54732     54731     54732     54733     54734     54733     54735
     54734     54735     54736     54737     54736     54738     54737     54738
     54739     54740     54739     54741     54740     54741     54742     54743
     54742     54744     54743     54744     54745     54746     54745     54747
     54746     54747     54748     54749     54748     54750     54749     54750
     54751     54752     54751     54753     54752     54753     54754     54755
     54754     54756     54755     54756     54757     54758     54757     54759
     54758     54759     54760     54761     54760     54762     54761     54762
     54763     54764     54763     54765     54764     54765     54766     54767
     54766     54768     54767     54768     54769     54770     54769     54771
     54770     54771     54772     54773     54772     54774     54773     54774
     54775     54776     54775     54777     54776     54777     54778     54779
     54778     54780     54779     54780     54781     54782     54781     54783
     54782     54783     54784     54785     54784     54786     54785     54786
     54787     54788     54787     54789     54788     54789     54790     54791
     54790     54792     54791     54792     54793     54794     54793     54795
     54794     54795     54796     54797     54796     54798     54797     54798
     54799     54800     54799     54801     54800     54801     54802     54803
     54802     54804     54803     54804     54805     54806     54805     54807
     54806     54807     54808     54809     54808     54810     54809     54810
     54811     54812     54811     54813     54812     54813     54814     54815
     54814     54816     54815     54816     54817     54818     54817     54819
     54818     54819     54820     54821     54820     54822     54821     54822
     54823     54824     54823     54825     54824     54825     54826     54827
     54826     54828     54827     54828     54829     54830     54829     54831
     54830     54831     54832     54833     54832     54834     54833     54834
     54835     54836     54835     54837     54836     54837     54838     54839
     54838     54840     54839     54840     54841     54842     54841     54843
     54842     54843     54844     54845     54844     54846     54845     54846
     54847     54848     54847     54849     54848     54849     54850     54851
     54850     54852     54851     54852     54853     54854     54853     54855
     54854     54855     54856     54857     54856     54858     54857     54858
     54859     54860     54859     54861     54860     54861     54862     54863
     54862     54864     54863     54864     54865     54866     54865     54867
     54866     54867     54868     54869     54868     54870     54869     54870
     54871     54872     54871     54873     54872     54873     54874     54875
     54874     54876     54875     54876     54877     54878     54877     54879
     54878     54879     54880     54881     54880     54882     54881     54882
     54883     54884     54883     54885     54884     54885     54886     54887
     54886     54888     54887     54888     54889     54890     54889     54891
     54890     54891     54892     54893     54892     54894     54893     54894
     54895     54896     54895     54897     54896     54897     54898     54899
     54898     54900     54899     54900     54901     54902     54901     54903
     54902     54903     54904     54905     54904     54906     54905     54906
     54907     54908     54907     54909     54908     54909     54910     54911
     54910     54912     54911     54912     54913     54914     54913     54915
     54914     54915     54916     54917     54916     54918     54917     54918
     54919     54920     54919     54921     54920     54921     54922     54923
     54922     54924     54923     54924     54925     54926     54925     54927
     54926     54927     54928     54929     54928     54930     54929     54930
     54931     54932     54931     54933     54932     54933     54934     54935
     54934     54936     54935     54936     54937     54938     54937     54939
     54938     54939     54940     54941     54940     54942     54941     54942
     54943     54944     54943     54945     54944     54945     54946     54947
     54946     54948     54947     54948     54949     54950     54949     54951
     54950     54951     54952     54953     54952     54954     54953     54954
     54955     54956     54955     54957     54956     54957     54958     54959
     54958     54960     54959     54960     54961     54962     54961     54963
     54962     54963     54964     54965     54964     54966     54965     54966
     54967     54968     54967     54969     54968     54969     54970     54971
     54970     54972     54971     54972     54973     54974     54973     54975
     54974     54975     54976     54977     54976     54978     54977     54978
     54979     54980     54979     54981     54980     54981     54982     54983
     54982     54984     54983     54984     54985     54986     54985     54987
     54986     54987     54988     54989     54988     54990     54989     54990
     54991     54992     54991     54993     54992     54993     54994     54995
     54994     54996     54995     54996     54997     54998     54997     54999
     54998     54999     55000     55001     55000     55002     55001     55002
     55003     55004     55003     55005     55004     55005     55006     55007
     55006     55008     55007     55008     55009     55010     55009     55011
     55010     55011     55012     55013     55012     55014     55013     55014
     55015     55016     55015     55017     55016     55017     55018     55019
     55018     55020     55019     55020     55021     55022     55021     55023
     55022     55023     55024     55025     55024     55026     55025     55026
     55027     55028     55027     55029     55028     55029     55030     55031
     55030     55032     55031     55032     55033     55034     55033     55035
     55034     55035     55036     55037     55036     55038     55037     55038
     55039     55040     55039     55041     55040     55041     55042     55043
     55042     55044     55043     55044     55045     55046     55045     55047
     55046     55047     55048     55049     55048     55050     55049     55050
     55051     55052     55051     55053     55052     55053     55054     55055
     55054     55056     55055     55056     55057     55058     55057     55059
     55058     55059     55060     55061     55060     55062     55061     55062
     55063     55064     55063     55065     55064     55065     55066     55067
     55066     55068     55067     55068     55069     55070     55069     55071
     55070     55071     55072     55073     55072     55074     55073     55074
     55075     55076     55075     55077     55076     55077     55078     55079
     55078     55080     55079     55080     55081     55082     55081     55083
     55082     55083     55084     55085     55084     55086     55085     55086
     55087     55088     55087     55089     55088     55089     55090     55091
     55090     55092     55091     55092     55093     55094     55093     55095
     55094     55095     55096     55097     55096     55098     55097     55098
     55099     55100     55099     55101     55100     55101     55102     55103
     55102     55104     55103     55104     55105     55106     55105     55107
     55106     55107     55108     55109     55108     55110     55109     55110
     55111     55112     55111     55113     55112     55113     55114     55115
     55114     55116     55115     55116     55117     55118     55117     55119
     55118     55119     55120     55121     55120     55122     55121     55122
     55123     55124     55123     55125     55124     55125     55126     55127
     55126     55128     55127     55128     55129     55130     55129     55131
     55130     55131     55132     55133     55132     55134     55133     55134
     55135     55136     55135     55137     55136     55137     55138     55139
     55138     55140     55139     55140     55141     55142     55141     55143
     55142     55143     55144     55145     55144     55146     55145     55146
     55147     55148     55147     55149     55148     55149     55150     55151
     55150     55152     55151     55152     55153     55154     55153     55155
     55154     55155     55156     55157     55156     55158     55157     55158
     55159     55160     55159     55161     55160     55161     55162     55163
     55162     55164     55163     55164     55165     55166     55165     55167
     55166     55167     55168     55169     55168     55170     55169     55170
     55171     55172     55171     55173     55172     55173     55174     55175
     55174     55176     55175     55176     55177     55178     55177     55179
     55178     55179     55180     55181     55180     55182     55181     55182
     55183     55184     55183     55185     55184     55185     55186     55187
     55186     55188     55187     55188     55189     55190     55189     55191
     55190     55191     55192     55193     55192     55194     55193     55194
     55195     55196     55195     55197     55196     55197     55198     55199
     55198     55200     55199     55200     55201     55202     55201     55203
     55202     55203     55204     55205     55204     55206     55205     55206
     55207     55208     55207     55209     55208     55209     55210     55211
     55210     55212     55211     55212     55213     55214     55213     55215
     55214     55215     55216     55217     55216     55218     55217     55218
     55219     55220     55219     55221     55220     55221     55222     55223
     55222     55224     55223     55224     55225     55226     55225     55227
     55226     55227     55228     55229     55228     55230     55229     55230
     55231     55232     55231     55233     55232     55233     55234     55235
     55234     55236     55235     55236     55237     55238     55237     55239
     55238     55239     55240     55241     55240     55242     55241     55242
     55243     55244     55243     55245     55244     55245     55246     55247
     55246     55248     55247     55248     55249     55250     55249     55251
     55250     55251     55252     55253     55252     55254     55253     55254
     55255     55256     55255     55257     55256     55257     55258     55259
     55258     55260     55259     55260     55261     55262     55261     55263
     55262     55263     55264     55265     55264     55266     55265     55266
     55267     55268     55267     55269     55268     55269     55270     55271
     55270     55272     55271     55272     55273     55274     55273     55275
     55274     55275     55276     55277     55276     55278     55277     55278
     55279     55280     55279     55281     55280     55281     55282     55283
     55282     55284     55283     55284     55285     55286     55285     55287
     55286     55287     55288     55289     55288     55290     55289     55290
     55291     55292     55291     55293     55292     55293     55294     55295
     55294     55296     55295     55296     55297     55298     55297     55299
     55298     55299     55300     55301     55300     55302     55301     55302
     55303     55304     55303     55305     55304     55305     55306     55307
     55306     55308     55307     55308     55309     55310     55309     55311
     55310     55311     55312     55313     55312     55314     55313     55314
     55315     55316     55315     55317     55316     55317     55318     55319
     55318     55320     55319     55320     55321     55322     55321     55323
     55322     55323     55324     55325     55324     55326     55325     55326
     55327     55328     55327     55329     55328     55329     55330     55331
     55330     55332     55331     55332     55333     55334     55333     55335
     55334     55335     55336     55337     55336     55338     55337     55338
     55339     55340     55339     55341     55340     55341     55342     55343
     55342     55344     55343     55344     55345     55346     55345     55347
     55346     55347     55348     55349     55348     55350     55349     55350
     55351     55352     55351     55353     55352     55353     55354     55355
     55354     55356     55355     55356     55357     55358     55357     55359
     55358     55359     55360     55361     55360     55362     55361     55362
     55363     55364     55363     55365     55364     55365     55366     55367
     55366     55368     55367     55368     55369     55370     55369     55371
     55370     55371     55372     55373     55372     55374     55373     55374
     55375     55376     55375     55377     55376     55377     55378     55379
     55378     55380     55379     55380     55381     55382     55381     55383
     55382     55383     55384     55385     55384     55386     55385     55386
     55387     55388     55387     55389     55388     55389     55390     55391
     55390     55392     55391     55392     55393     55394     55393     55395
     55394     55395     55396     55397     55396     55398     55397     55398
     55399     55400     55399     55401     55400     55401     55402     55403
     55402     55404     55403     55404     55405     55406     55405     55407
     55406     55407     55408     55409     55408     55410     55409     55410
     55411     55412     55411     55413     55412     55413     55414     55415
     55414     55416     55415     55416     55417     55418     55417     55419
     55418     55419     55420     55421     55420     55422     55421     55422
     55423     55424     55423     55425     55424     55425     55426     55427
     55426     55428     55427     55428     55429     55430     55429     55431
     55430     55431     55432     55433     55432     55434     55433     55434
     55435     55436     55435     55437     55436     55437     55438     55439
     55438     55440     55439     55440     55441     55442     55441     55443
     55442     55443     55444     55445     55444     55446     55445     55446
     55447     55448     55447     55449     55448     55449     55450     55451
     55450     55452     55451     55452     55453     55454     55453     55455
     55454     55455     55456     55457     55456     55458     55457     55458
     55459     55460     55459     55461     55460     55461     55462     55463
     55462     55464     55463     55464     55465     55466     55465     55467
     55466     55467     55468     55469     55468     55470     55469     55470
     55471     55472     55471     55473     55472     55473     55474     55475
     55474     55476     55475     55476     55477     55478     55477     55479
     55478     55479     55480     55481     55480     55482     55481     55482
     55483     55484     55483     55485     55484     55485     55486     55487
     55486     55488     55487     55488     55489     55490     55489     55491
     55490     55491     55492     55493     55492     55494     55493     55494
     55495     55496     55495     55497     55496     55497     55498     55499
     55498     55500     55499     55500     55501     55502     55501     55503
     55502     55503     55504     55505     55504     55506     55505     55506
     55507     55508     55507     55509     55508     55509     55510     55511
     55510     55512     55511     55512     55513     55514     55513     55515
     55514     55515     55516     55517     55516     55518     55517     55518
     55519     55520     55519     55521     55520     55521     55522     55523
     55522     55524     55523     55524     55525     55526     55525     55527
     55526     55527     55528     55529     55528     55530     55529     55530
     55531     55532     55531     55533     55532     55533     55534     55535
     55534     55536     55535     55536     55537     55538     55537     55539
     55538     55539     55540     55541     55540     55542     55541     55542
     55543     55544     55543     55545     55544     55545     55546     55547
     55546     55548     55547     55548     55549     55550     55549     55551
     55550     55551     55552     55553     55552     55554     55553     55554
     55555     55556     55555     55557     55556     55557     55558     55559
     55558     55560     55559     55560     55561     55562     55561     55563
     55562     55563     55564     55565     55564     55566     55565     55566
     55567     55568     55567     55569     55568     55569     55570     55571
     55570     55572     55571     55572     55573     55574     55573     55575
     55574     55575     55576     55577     55576     55578     55577     55578
     55579     55580     55579     55581     55580     55581     55582     55583
     55582     55584     55583     55584     55585     55586     55585     55587
     55586     55587     55588     55589     55588     55590     55589     55590
     55591     55592     55591     55593     55592     55593     55594     55595
     55594     55596     55595     55596     55597     55598     55597     55599
     55598     55599     55600     55601     55600     55602     55601     55602
     55603     55604     55603     55605     55604     55605     55606     55607
     55606     55608     55607     55608     55609     55610     55609     55611
     55610     55611     55612     55613     55612     55614     55613     55614
     55615     55616     55615     55617     55616     55617     55618     55619
     55618     55620     55619     55620     55621     55622     55621     55623
     55622     55623     55624     55625     55624     55626     55625     55626
     55627     55628     55627     55629     55628     55629     55630     55631
     55630     55632     55631     55632     55633     55634     55633     55635
     55634     55635     55636     55637     55636     55638     55637     55638
     55639     55640     55639     55641     55640     55641     55642     55643
     55642     55644     55643     55644     55645     55646     55645     55647
     55646     55647     55648     55649     55648     55650     55649     55650
     55651     55652     55651     55653     55652     55653     55654     55655
     55654     55656     55655     55656     55657     55658     55657     55659
     55658     55659     55660     55661     55660     55662     55661     55662
     55663     55664     55663     55665     55664     55665     55666     55667
     55666     55668     55667     55668     55669     55670     55669     55671
     55670     55671     55672     55673     55672     55674     55673     55674
     55675     55676     55675     55677     55676     55677     55678     55679
     55678     55680     55679     55680     55681     55682     55681     55683
     55682     55683     55684     55685     55684     55686     55685     55686
     55687     55688     55687     55689     55688     55689     55690     55691
     55690     55692     55691     55692     55693     55694     55693     55695
     55694     55695     55696     55697     55696     55698     55697     55698
     55699     55700     55699     55701     55700     55701     55702     55703
     55702     55704     55703     55704     55705     55706     55705     55707
     55706     55707     55708     55709     55708     55710     55709     55710
     55711     55712     55711     55713     55712     55713     55714     55715
     55714     55716     55715     55716     55717     55718     55717     55719
     55718     55719     55720     55721     55720     55722     55721     55722
     55723     55724     55723     55725     55724     55725     55726     55727
     55726     55728     55727     55728     55729     55730     55729     55731
     55730     55731     55732     55733     55732     55734     55733     55734
     55735     55736     55735     55737     55736     55737     55738     55739
     55738     55740     55739     55740     55741     55742     55741     55743
     55742     55743     55744     55745     55744     55746     55745     55746
     55747     55748     55747     55749     55748     55749     55750     55751
     55750     55752     55751     55752     55753     55754     55753     55755
     55754     55755     55756     55757     55756     55758     55757     55758
     55759     55760     55759     55761     55760     55761     55762     55763
     55762     55764     55763     55764     55765     55766     55765     55767
     55766     55767     55768     55769     55768     55770     55769     55770
     55771     55772     55771     55773     55772     55773     55774     55775
     55774     55776     55775     55776     55777     55778     55777     55779
     55778     55779     55780     55781     55780     55782     55781     55782
     55783     55784     55783     55785     55784     55785     55786     55787
     55786     55788     55787     55788     55789     55790     55789     55791
     55790     55791     55792     55793     55792     55794     55793     55794
     55795     55796     55795     55797     55796     55797     55798     55799
     55798     55800     55799     55800     55801     55802     55801     55803
     55802     55803     55804     55805     55804     55806     55805     55806
     55807     55808     55807     55809     55808     55809     55810     55811
     55810     55812     55811     55812     55813     55814     55813     55815
     55814     55815     55816     55817     55816     55818     55817     55818
     55819     55820     55819     55821     55820     55821     55822     55823
     55822     55824     55823     55824     55825     55826     55825     55827
     55826     55827     55828     55829     55828     55830     55829     55830
     55831     55832     55831     55833     55832     55833     55834     55835
     55834     55836     55835     55836     55837     55838     55837     55839
     55838     55839     55840     55841     55840     55842     55841     55842
     55843     55844     55843     55845     55844     55845     55846     55847
     55846     55848     55847     55848     55849     55850     55849     55851
     55850     55851     55852     55853     55852     55854     55853     55854
     55855     55856     55855     55857     55856     55857     55858     55859
     55858     55860     55859     55860     55861     55862     55861     55863
     55862     55863     55864     55865     55864     55866     55865     55866
     55867     55868     55867     55869     55868     55869     55870     55871
     55870     55872     55871     55872     55873     55874     55873     55875
     55874     55875     55876     55877     55876     55878     55877     55878
     55879     55880     55879     55881     55880     55881     55882     55883
     55882     55884     55883     55884     55885     55886     55885     55887
     55886     55887     55888     55889     55888     55890     55889     55890
     55891     55892     55891     55893     55892     55893     55894     55895
     55894     55896     55895     55896     55897     55898     55897     55899
     55898     55899     55900     55901     55900     55902     55901     55902
     55903     55904     55903     55905     55904     55905     55906     55907
     55906     55908     55907     55908     55909     55910     55909     55911
     55910     55911     55912     55913     55912     55914     55913     55914
     55915     55916     55915     55917     55916     55917     55918     55919
     55918     55920     55919     55920     55921     55922     55921     55923
     55922     55923     55924     55925     55924     55926     55925     55926
     55927     55928     55927     55929     55928     55929     55930     55931
     55930     55932     55931     55932     55933     55934     55933     55935
     55934     55935     55936     55937     55936     55938     55937     55938
     55939     55940     55939     55941     55940     55941     55942     55943
     55942     55944     55943     55944     55945     55946     55945     55947
     55946     55947     55948     55949     55948     55950     55949     55950
     55951     55952     55951     55953     55952     55953     55954     55955
     55954     55956     55955     55956     55957     55958     55957     55959
     55958     55959     55960     55961     55960     55962     55961     55962
     55963     55964     55963     55965     55964     55965     55966     55967
     55966     55968     55967     55968     55969     55970     55969     55971
     55970     55971     55972     55973     55972     55974     55973     55974
     55975     55976     55975     55977     55976     55977     55978     55979
     55978     55980     55979     55980     55981     55982     55981     55983
     55982     55983     55984     55985     55984     55986     55985     55986
     55987     55988     55987     55989     55988     55989     55990     55991
     55990     55992     55991     55992     55993     55994     55993     55995
     55994     55995     55996     55997     55996     55998     55997     55998
     55999     56000     55999     56001     56000     56001     56002     56003
     56002     56004     56003     56004     56005     56006     56005     56007
     56006     56007     56008     56009     56008     56010     56009     56010
     56011     56012     56011     56013     56012     56013     56014     56015
     56014     56016     56015     56016     56017     56018     56017     56019
     56018     56019     56020     56021     56020     56022     56021     56022
     56023     56024     56023     56025     56024     56025     56026     56027
     56026     56028     56027     56028     56029     56030     56029     56031
     56030     56031     56032     56033     56032     56034     56033     56034
     56035     56036     56035     56037     56036     56037     56038     56039
     56038     56040     56039     56040     56041     56042     56041     56043
     56042     56043     56044     56045     56044     56046     56045     56046
     56047     56048     56047     56049     56048     56049     56050     56051
     56050     56052     56051     56052     56053     56054     56053     56055
     56054     56055     56056     56057     56056     56058     56057     56058
     56059     56060     56059     56061     56060     56061     56062     56063
     56062     56064     56063     56064     56065     56066     56065     56067
     56066     56067     56068     56069     56068     56070     56069     56070
     56071     56072     56071     56073     56072     56073     56074     56075
     56074     56076     56075     56076     56077     56078     56077     56079
     56078     56079     56080     56081     56080     56082     56081     56082
     56083     56084     56083     56085     56084     56085     56086     56087
     56086     56088     56087     56088     56089     56090     56089     56091
     56090     56091     56092     56093     56092     56094     56093     56094
     56095     56096     56095     56097     56096     56097     56098     56099
     56098     56100     56099     56100     56101     56102     56101     56103
     56102     56103     56104     56105     56104     56106     56105     56106
     56107     56108     56107     56109     56108     56109     56110     56111
     56110     56112     56111     56112     56113     56114     56113     56115
     56114     56115     56116     56117     56116     56118     56117     56118
     56119     56120     56119     56121     56120     56121     56122     56123
     56122     56124     56123     56124     56125     56126     56125     56127
     56126     56127     56128     56129     56128     56130     56129     56130
     56131     56132     56131     56133     56132     56133     56134     56135
     56134     56136     56135     56136     56137     56138     56137     56139
     56138     56139     56140     56141     56140     56142     56141     56142
     56143     56144     56143     56145     56144     56145     56146     56147
     56146     56148     56147     56148     56149     56150     56149     56151
     56150     56151     56152     56153     56152     56154     56153     56154
     56155     56156     56155     56157     56156     56157     56158     56159
     56158     56160     56159     56160     56161     56162     56161     56163
     56162     56163     56164     56165     56164     56166     56165     56166
     56167     56168     56167     56169     56168     56169     56170     56171
     56170     56172     56171     56172     56173     56174     56173     56175
     56174     56175     56176     56177     56176     56178     56177     56178
     56179     56180     56179     56181     56180     56181     56182     56183
     56182     56184     56183     56184     56185     56186     56185     56187
     56186     56187     56188     56189     56188     56190     56189     56190
     56191     56192     56191     56193     56192     56193     56194     56195
     56194     56196     56195     56196     56197     56198     56197     56199
     56198     56199     56200     56201     56200     56202     56201     56202
     56203     56204     56203     56205     56204     56205     56206     56207
     56206     56208     56207     56208     56209     56210     56209     56211
     56210     56211     56212     56213     56212     56214     56213     56214
     56215     56216     56215     56217     56216     56217     56218     56219
     56218     56220     56219     56220     56221     56222     56221     56223
     56222     56223     56224     56225     56224     56226     56225     56226
     56227     56228     56227     56229     56228     56229     56230     56231
     56230     56232     56231     56232     56233     56234     56233     56235
     56234     56235     56236     56237     56236     56238     56237     56238
     56239     56240     56239     56241     56240     56241     56242     56243
     56242     56244     56243     56244     56245     56246     56245     56247
     56246     56247     56248     56249     56248     56250     56249     56250
     56251     56252     56251     56253     56252     56253     56254     56255
     56254     56256     56255     56256     56257     56258     56257     56259
     56258     56259     56260     56261     56260     56262     56261     56262
     56263     56264     56263     56265     56264     56265     56266     56267
     56266     56268     56267     56268     56269     56270     56269     56271
     56270     56271     56272     56273     56272     56274     56273     56274
     56275     56276     56275     56277     56276     56277     56278     56279
     56278     56280     56279     56280     56281     56282     56281     56283
     56282     56283     56284     56285     56284     56286     56285     56286
     56287     56288     56287     56289     56288     56289     56290     56291
     56290     56292     56291     56292     56293     56294     56293     56295
     56294     56295     56296     56297     56296     56298     56297     56298
     56299     56300     56299     56301     56300     56301     56302     56303
     56302     56304     56303     56304     56305     56306     56305     56307
     56306     56307     56308     56309     56308     56310     56309     56310
     56311     56312     56311     56313     56312     56313     56314     56315
     56314     56316     56315     56316     56317     56318     56317     56319
     56318     56319     56320     56321     56320     56322     56321     56322
     56323     56324     56323     56325     56324     56325     56326     56327
     56326     56328     56327     56328     56329     56330     56329     56331
     56330     56331     56332     56333     56332     56334     56333     56334
     56335     56336     56335     56337     56336     56337     56338     56339
     56338     56340     56339     56340     56341     56342     56341     56343
     56342     56343     56344     56345     56344     56346     56345     56346
     56347     56348     56347     56349     56348     56349     56350     56351
     56350     56352     56351     56352     56353     56354     56353     56355
     56354     56355     56356     56357     56356     56358     56357     56358
     56359     56360     56359     56361     56360     56361     56362     56363
     56362     56364     56363     56364     56365     56366     56365     56367
     56366     56367     56368     56369     56368     56370     56369     56370
     56371     56372     56371     56373     56372     56373     56374     56375
     56374     56376     56375     56376     56377     56378     56377     56379
     56378     56379     56380     56381     56380     56382     56381     56382
     56383     56384     56383     56385     56384     56385     56386     56387
     56386     56388     56387     56388     56389     56390     56389     56391
     56390     56391     56392     56393     56392     56394     56393     56394
     56395     56396     56395     56397     56396     56397     56398     56399
     56398     56400     56399     56400     56401     56402     56401     56403
     56402     56403     56404     56405     56404     56406     56405     56406
     56407     56408     56407     56409     56408     56409     56410     56411
     56410     56412     56411     56412     56413     56414     56413     56415
     56414     56415     56416     56417     56416     56418     56417     56418
     56419     56420     56419     56421     56420     56421     56422     56423
     56422     56424     56423     56424     56425     56426     56425     56427
     56426     56427     56428     56429     56428     56430     56429     56430
     56431     56432     56431     56433     56432     56433     56434     56435
     56434     56436     56435     56436     56437     56438     56437     56439
     56438     56439     56440     56441     56440     56442     56441     56442
     56443     56444     56443     56445     56444     56445     56446     56447
     56446     56448     56447     56448     56449     56450     56449     56451
     56450     56451     56452     56453     56452     56454     56453     56454
     56455     56456     56455     56457     56456     56457     56458     56459
     56458     56460     56459     56460     56461     56462     56461     56463
     56462     56463     56464     56465     56464     56466     56465     56466
     56467     56468     56467     56469     56468     56469     56470     56471
     56470     56472     56471     56472     56473     56474     56473     56475
     56474     56475     56476     56477     56476     56478     56477     56478
     56479     56480     56479     56481     56480     56481     56482     56483
     56482     56484     56483     56484     56485     56486     56485     56487
     56486     56487     56488     56489     56488     56490     56489     56490
     56491     56492     56491     56493     56492     56493     56494     56495
     56494     56496     56495     56496     56497     56498     56497     56499
     56498     56499     56500     56501     56500     56502     56501     56502
     56503     56504     56503     56505     56504     56505     56506     56507
     56506     56508     56507     56508     56509     56510     56509     56511
     56510     56511     56512     56513     56512     56514     56513     56514
     56515     56516     56515     56517     56516     56517     56518     56519
     56518     56520     56519     56520     56521     56522     56521     56523
     56522     56523     56524     56525     56524     56526     56525     56526
     56527     56528     56527     56529     56528     56529     56530     56531
     56530     56532     56531     56532     56533     56534     56533     56535
     56534     56535     56536     56537     56536     56538     56537     56538
     56539     56540     56539     56541     56540     56541     56542     56543
     56542     56544     56543     56544     56545     56546     56545     56547
     56546     56547     56548     56549     56548     56550     56549     56550
     56551     56552     56551     56553     56552     56553     56554     56555
     56554     56556     56555     56556     56557     56558     56557     56559
     56558     56559     56560     56561     56560     56562     56561     56562
     56563     56564     56563     56565     56564     56565     56566     56567
     56566     56568     56567     56568     56569     56570     56569     56571
     56570     56571     56572     56573     56572     56574     56573     56574
     56575     56576     56575     56577     56576     56577     56578     56579
     56578     56580     56579     56580     56581     56582     56581     56583
     56582     56583     56584     56585     56584     56586     56585     56586
     56587     56588     56587     56589     56588     56589     56590     56591
     56590     56592     56591     56592     56593     56594     56593     56595
     56594     56595     56596     56597     56596     56598     56597     56598
     56599     56600     56599     56601     56600     56601     56602     56603
     56602     56604     56603     56604     56605     56606     56605     56607
     56606     56607     56608     56609     56608     56610     56609     56610
     56611     56612     56611     56613     56612     56613     56614     56615
     56614     56616     56615     56616     56617     56618     56617     56619
     56618     56619     56620     56621     56620     56622     56621     56622
     56623     56624     56623     56625     56624     56625     56626     56627
     56626     56628     56627     56628     56629     56630     56629     56631
     56630     56631     56632     56633     56632     56634     56633     56634
     56635     56636     56635     56637     56636     56637     56638     56639
     56638     56640     56639     56640     56641     56642     56641     56643
     56642     56643     56644     56645     56644     56646     56645     56646
     56647     56648     56647     56649     56648     56649     56650     56651
     56650     56652     56651     56652     56653     56654     56653     56655
     56654     56655     56656     56657     56656     56658     56657     56658
     56659     56660     56659     56661     56660     56661     56662     56663
     56662     56664     56663     56664     56665     56666     56665     56667
     56666     56667     56668     56669     56668     56670     56669     56670
     56671     56672     56671     56673     56672     56673     56674     56675
     56674     56676     56675     56676     56677     56678     56677     56679
     56678     56679     56680     56681     56680     56682     56681     56682
     56683     56684     56683     56685     56684     56685     56686     56687
     56686     56688     56687     56688     56689     56690     56689     56691
     56690     56691     56692     56693     56692     56694     56693     56694
     56695     56696     56695     56697     56696     56697     56698     56699
     56698     56700     56699     56700     56701     56702     56701     56703
     56702     56703     56704     56705     56704     56706     56705     56706
     56707     56708     56707     56709     56708     56709     56710     56711
     56710     56712     56711     56712     56713     56714     56713     56715
     56714     56715     56716     56717     56716     56718     56717     56718
     56719     56720     56719     56721     56720     56721     56722     56723
     56722     56724     56723     56724     56725     56726     56725     56727
     56726     56727     56728     56729     56728     56730     56729     56730
     56731     56732     56731     56733     56732     56733     56734     56735
     56734     56736     56735     56736     56737     56738     56737     56739
     56738     56739     56740     56741     56740     56742     56741     56742
     56743     56744     56743     56745     56744     56745     56746     56747
     56746     56748     56747     56748     56749     56750     56749     56751
     56750     56751     56752     56753     56752     56754     56753     56754
     56755     56756     56755     56757     56756     56757     56758     56759
     56758     56760     56759     56760     56761     56762     56761     56763
     56762     56763     56764     56765     56764     56766     56765     56766
     56767     56768     56767     56769     56768     56769     56770     56771
     56770     56772     56771     56772     56773     56774     56773     56775
     56774     56775     56776     56777     56776     56778     56777     56778
     56779     56780     56779     56781     56780     56781     56782     56783
     56782     56784     56783     56784     56785     56786     56785     56787
     56786     56787     56788     56789     56788     56790     56789     56790
     56791     56792     56791     56793     56792     56793     56794     56795
     56794     56796     56795     56796     56797     56798     56797     56799
     56798     56799     56800     56801     56800     56802     56801     56802
     56803     56804     56803     56805     56804     56805     56806     56807
     56806     56808     56807     56808     56809     56810     56809     56811
     56810     56811     56812     56813     56812     56814     56813     56814
     56815     56816     56815     56817     56816     56817     56818     56819
     56818     56820     56819     56820     56821     56822     56821     56823
     56822     56823     56824     56825     56824     56826     56825     56826
     56827     56828     56827     56829     56828     56829     56830     56831
     56830     56832     56831     56832     56833     56834     56833     56835
     56834     56835     56836     56837     56836     56838     56837     56838
     56839     56840     56839     56841     56840     56841     56842     56843
     56842     56844     56843     56844     56845     56846     56845     56847
     56846     56847     56848     56849     56848     56850     56849     56850
     56851     56852     56851     56853     56852     56853     56854     56855
     56854     56856     56855     56856     56857     56858     56857     56859
     56858     56859     56860     56861     56860     56862     56861     56862
     56863     56864     56863     56865     56864     56865     56866     56867
     56866     56868     56867     56868     56869     56870     56869     56871
     56870     56871     56872     56873     56872     56874     56873     56874
     56875     56876     56875     56877     56876     56877     56878     56879
     56878     56880     56879     56880     56881     56882     56881     56883
     56882     56883     56884     56885     56884     56886     56885     56886
     56887     56888     56887     56889     56888     56889     56890     56891
     56890     56892     56891     56892     56893     56894     56893     56895
     56894     56895     56896     56897     56896     56898     56897     56898
     56899     56900     56899     56901     56900     56901     56902     56903
     56902     56904     56903     56904     56905     56906     56905     56907
     56906     56907     56908     56909     56908     56910     56909     56910
     56911     56912     56911     56913     56912     56913     56914     56915
     56914     56916     56915     56916     56917     56918     56917     56919
     56918     56919     56920     56921     56920     56922     56921     56922
     56923     56924     56923     56925     56924     56925     56926     56927
     56926     56928     56927     56928     56929     56930     56929     56931
     56930     56931     56932     56933     56932     56934     56933     56934
     56935     56936     56935     56937     56936     56937     56938     56939
     56938     56940     56939     56940     56941     56942     56941     56943
     56942     56943     56944     56945     56944     56946     56945     56946
     56947     56948     56947     56949     56948     56949     56950     56951
     56950     56952     56951     56952     56953     56954     56953     56955
     56954     56955     56956     56957     56956     56958     56957     56958
     56959     56960     56959     56961     56960     56961     56962     56963
     56962     56964     56963     56964     56965     56966     56965     56967
     56966     56967     56968     56969     56968     56970     56969     56970
     56971     56972     56971     56973     56972     56973     56974     56975
     56974     56976     56975     56976     56977     56978     56977     56979
     56978     56979     56980     56981     56980     56982     56981     56982
     56983     56984     56983     56985     56984     56985     56986     56987
     56986     56988     56987     56988     56989     56990     56989     56991
     56990     56991     56992     56993     56992     56994     56993     56994
     56995     56996     56995     56997     56996     56997     56998     56999
     56998     57000     56999     57000     57001     57002     57001     57003
     57002     57003     57004     57005     57004     57006     57005     57006
     57007     57008     57007     57009     57008     57009     57010     57011
     57010     57012     57011     57012     57013     57014     57013     57015
     57014     57015     57016     57017     57016     57018     57017     57018
     57019     57020     57019     57021     57020     57021     57022     57023
     57022     57024     57023     57024     57025     57026     57025     57027
     57026     57027     57028     57029     57028     57030     57029     57030
     57031     57032     57031     57033     57032     57033     57034     57035
     57034     57036     57035     57036     57037     57038     57037     57039
     57038     57039     57040     57041     57040     57042     57041     57042
     57043     57044     57043     57045     57044     57045     57046     57047
     57046     57048     57047     57048     57049     57050     57049     57051
     57050     57051     57052     57053     57052     57054     57053     57054
     57055     57056     57055     57057     57056     57057     57058     57059
     57058     57060     57059     57060     57061     57062     57061     57063
     57062     57063     57064     57065     57064     57066     57065     57066
     57067     57068     57067     57069     57068     57069     57070     57071
     57070     57072     57071     57072     57073     57074     57073     57075
     57074     57075     57076     57077     57076     57078     57077     57078
     57079     57080     57079     57081     57080     57081     57082     57083
     57082     57084     57083     57084     57085     57086     57085     57087
     57086     57087     57088     57089     57088     57090     57089     57090
     57091     57092     57091     57093     57092     57093     57094     57095
     57094     57096     57095     57096     57097     57098     57097     57099
     57098     57099     57100     57101     57100     57102     57101     57102
     57103     57104     57103     57105     57104     57105     57106     57107
     57106     57108     57107     57108     57109     57110     57109     57111
     57110     57111     57112     57113     57112     57114     57113     57114
     57115     57116     57115     57117     57116     57117     57118     57119
     57118     57120     57119     57120     57121     57122     57121     57123
     57122     57123     57124     57125     57124     57126     57125     57126
     57127     57128     57127     57129     57128     57129     57130     57131
     57130     57132     57131     57132     57133     57134     57133     57135
     57134     57135     57136     57137     57136     57138     57137     57138
     57139     57140     57139     57141     57140     57141     57142     57143
     57142     57144     57143     57144     57145     57146     57145     57147
     57146     57147     57148     57149     57148     57150     57149     57150
     57151     57152     57151     57153     57152     57153     57154     57155
     57154     57156     57155     57156     57157     57158     57157     57159
     57158     57159     57160     57161     57160     57162     57161     57162
     57163     57164     57163     57165     57164     57165     57166     57167
     57166     57168     57167     57168     57169     57170     57169     57171
     57170     57171     57172     57173     57172     57174     57173     57174
     57175     57176     57175     57177     57176     57177     57178     57179
     57178     57180     57179     57180     57181     57182     57181     57183
     57182     57183     57184     57185     57184     57186     57185     57186
     57187     57188     57187     57189     57188     57189     57190     57191
     57190     57192     57191     57192     57193     57194     57193     57195
     57194     57195     57196     57197     57196     57198     57197     57198
     57199     57200     57199     57201     57200     57201     57202     57203
     57202     57204     57203     57204     57205     57206     57205     57207
     57206     57207     57208     57209     57208     57210     57209     57210
     57211     57212     57211     57213     57212     57213     57214     57215
     57214     57216     57215     57216     57217     57218     57217     57219
     57218     57219     57220     57221     57220     57222     57221     57222
     57223     57224     57223     57225     57224     57225     57226     57227
     57226     57228     57227     57228     57229     57230     57229     57231
     57230     57231     57232     57233     57232     57234     57233     57234
     57235     57236     57235     57237     57236     57237     57238     57239
     57238     57240     57239     57240     57241     57242     57241     57243
     57242     57243     57244     57245     57244     57246     57245     57246
     57247     57248     57247     57249     57248     57249     57250     57251
     57250     57252     57251     57252     57253     57254     57253     57255
     57254     57255     57256     57257     57256     57258     57257     57258
     57259     57260     57259     57261     57260     57261     57262     57263
     57262     57264     57263     57264     57265     57266     57265     57267
     57266     57267     57268     57269     57268     57270     57269     57270
     57271     57272     57271     57273     57272     57273     57274     57275
     57274     57276     57275     57276     57277     57278     57277     57279
     57278     57279     57280     57281     57280     57282     57281     57282
     57283     57284     57283     57285     57284     57285     57286     57287
     57286     57288     57287     57288     57289     57290     57289     57291
     57290     57291     57292     57293     57292     57294     57293     57294
     57295     57296     57295     57297     57296     57297     57298     57299
     57298     57300     57299     57300     57301     57302     57301     57303
     57302     57303     57304     57305     57304     57306     57305     57306
     57307     57308     57307     57309     57308     57309     57310     57311
     57310     57312     57311     57312     57313     57314     57313     57315
     57314     57315     57316     57317     57316     57318     57317     57318
     57319     57320     57319     57321     57320     57321     57322     57323
     57322     57324     57323     57324     57325     57326     57325     57327
     57326     57327     57328     57329     57328     57330     57329     57330
     57331     57332     57331     57333     57332     57333     57334     57335
     57334     57336     57335     57336     57337     57338     57337     57339
     57338     57339     57340     57341     57340     57342     57341     57342
     57343     57344     57343     57345     57344     57345     57346     57347
     57346     57348     57347     57348     57349     57350     57349     57351
     57350     57351     57352     57353     57352     57354     57353     57354
     57355     57356     57355     57357     57356     57357     57358     57359
     57358     57360     57359     57360     57361     57362     57361     57363
     57362     57363     57364     57365     57364     57366     57365     57366
     57367     57368     57367     57369     57368     57369     57370     57371
     57370     57372     57371     57372     57373     57374     57373     57375
     57374     57375     57376     57377     57376     57378     57377     57378
     57379     57380     57379     57381     57380     57381     57382     57383
     57382     57384     57383     57384     57385     57386     57385     57387
     57386     57387     57388     57389     57388     57390     57389     57390
     57391     57392     57391     57393     57392     57393     57394     57395
     57394     57396     57395     57396     57397     57398     57397     57399
     57398     57399     57400     57401     57400     57402     57401     57402
     57403     57404     57403     57405     57404     57405     57406     57407
     57406     57408     57407     57408     57409     57410     57409     57411
     57410     57411     57412     57413     57412     57414     57413     57414
     57415     57416     57415     57417     57416     57417     57418     57419
     57418     57420     57419     57420     57421     57422     57421     57423
     57422     57423     57424     57425     57424     57426     57425     57426
     57427     57428     57427     57429     57428     57429     57430     57431
     57430     57432     57431     57432     57433     57434     57433     57435
     57434     57435     57436     57437     57436     57438     57437     57438
     57439     57440     57439     57441     57440     57441     57442     57443
     57442     57444     57443     57444     57445     57446     57445     57447
     57446     57447     57448     57449     57448     57450     57449     57450
     57451     57452     57451     57453     57452     57453     57454     57455
     57454     57456     57455     57456     57457     57458     57457     57459
     57458     57459     57460     57461     57460     57462     57461     57462
     57463     57464     57463     57465     57464     57465     57466     57467
     57466     57468     57467     57468     57469     57470     57469     57471
     57470     57471     57472     57473     57472     57474     57473     57474
     57475     57476     57475     57477     57476     57477     57478     57479
     57478     57480     57479     57480     57481     57482     57481     57483
     57482     57483     57484     57485     57484     57486     57485     57486
     57487     57488     57487     57489     57488     57489     57490     57491
     57490     57492     57491     57492     57493     57494     57493     57495
     57494     57495     57496     57497     57496     57498     57497     57498
     57499     57500     57499     57501     57500     57501     57502     57503
     57502     57504     57503     57504     57505     57506     57505     57507
     57506     57507     57508     57509     57508     57510     57509     57510
     57511     57512     57511     57513     57512     57513     57514     57515
     57514     57516     57515     57516     57517     57518     57517     57519
     57518     57519     57520     57521     57520     57522     57521     57522
     57523     57524     57523     57525     57524     57525     57526     57527
     57526     57528     57527     57528     57529     57530     57529     57531
     57530     57531     57532     57533     57532     57534     57533     57534
     57535     57536     57535     57537     57536     57537     57538     57539
     57538     57540     57539     57540     57541     57542     57541     57543
     57542     57543     57544     57545     57544     57546     57545     57546
     57547     57548     57547     57549     57548     57549     57550     57551
     57550     57552     57551     57552     57553     57554     57553     57555
     57554     57555     57556     57557     57556     57558     57557     57558
     57559     57560     57559     57561     57560     57561     57562     57563
     57562     57564     57563     57564     57565     57566     57565     57567
     57566     57567     57568     57569     57568     57570     57569     57570
     57571     57572     57571     57573     57572     57573     57574     57575
     57574     57576     57575     57576     57577     57578     57577     57579
     57578     57579     57580     57581     57580     57582     57581     57582
     57583     57584     57583     57585     57584     57585     57586     57587
     57586     57588     57587     57588     57589     57590     57589     57591
     57590     57591     57592     57593     57592     57594     57593     57594
     57595     57596     57595     57597     57596     57597     57598     57599
     57598     57600     57599     57600     57601     57602     57601     57603
     57602     57603     57604     57605     57604     57606     57605     57606
     57607     57608     57607     57609     57608     57609     57610     57611
     57610     57612     57611     57612     57613     57614     57613     57615
     57614     57615     57616     57617     57616     57618     57617     57618
     57619     57620     57619     57621     57620     57621     57622     57623
     57622     57624     57623     57624     57625     57626     57625     57627
     57626     57627     57628     57629     57628     57630     57629     57630
     57631     57632     57631     57633     57632     57633     57634     57635
     57634     57636     57635     57636     57637     57638     57637     57639
     57638     57639     57640     57641     57640     57642     57641     57642
     57643     57644     57643     57645     57644     57645     57646     57647
     57646     57648     57647     57648     57649     57650     57649     57651
     57650     57651     57652     57653     57652     57654     57653     57654
     57655     57656     57655     57657     57656     57657     57658     57659
     57658     57660     57659     57660     57661     57662     57661     57663
     57662     57663     57664     57665     57664     57666     57665     57666
     57667     57668     57667     57669     57668     57669     57670     57671
     57670     57672     57671     57672     57673     57674     57673     57675
     57674     57675     57676     57677     57676     57678     57677     57678
     57679     57680     57679     57681     57680     57681     57682     57683
     57682     57684     57683     57684     57685     57686     57685     57687
     57686     57687     57688     57689     57688     57690     57689     57690
     57691     57692     57691     57693     57692     57693     57694     57695
     57694     57696     57695     57696     57697     57698     57697     57699
     57698     57699     57700     57701     57700     57702     57701     57702
     57703     57704     57703     57705     57704     57705     57706     57707
     57706     57708     57707     57708     57709     57710     57709     57711
     57710     57711     57712     57713     57712     57714     57713     57714
     57715     57716     57715     57717     57716     57717     57718     57719
     57718     57720     57719     57720     57721     57722     57721     57723
     57722     57723     57724     57725     57724     57726     57725     57726
     57727     57728     57727     57729     57728     57729     57730     57731
     57730     57732     57731     57732     57733     57734     57733     57735
     57734     57735     57736     57737     57736     57738     57737     57738
     57739     57740     57739     57741     57740     57741     57742     57743
     57742     57744     57743     57744     57745     57746     57745     57747
     57746     57747     57748     57749     57748     57750     57749     57750
     57751     57752     57751     57753     57752     57753     57754     57755
     57754     57756     57755     57756     57757     57758     57757     57759
     57758     57759     57760     57761     57760     57762     57761     57762
     57763     57764     57763     57765     57764     57765     57766     57767
     57766     57768     57767     57768     57769     57770     57769     57771
     57770     57771     57772     57773     57772     57774     57773     57774
     57775     57776     57775     57777     57776     57777     57778     57779
     57778     57780     57779     57780     57781     57782     57781     57783
     57782     57783     57784     57785     57784     57786     57785     57786
     57787     57788     57787     57789     57788     57789     57790     57791
     57790     57792     57791     57792     57793     57794     57793     57795
     57794     57795     57796     57797     57796     57798     57797     57798
     57799     57800     57799     57801     57800     57801     57802     57803
     57802     57804     57803     57804     57805     57806     57805     57807
     57806     57807     57808     57809     57808     57810     57809     57810
     57811     57812     57811     57813     57812     57813     57814     57815
     57814     57816     57815     57816     57817     57818     57817     57819
     57818     57819     57820     57821     57820     57822     57821     57822
     57823     57824     57823     57825     57824     57825     57826     57827
     57826     57828     57827     57828     57829     57830     57829     57831
     57830     57831     57832     57833     57832     57834     57833     57834
     57835     57836     57835     57837     57836     57837     57838     57839
     57838     57840     57839     57840     57841     57842     57841     57843
     57842     57843     57844     57845     57844     57846     57845     57846
     57847     57848     57847     57849     57848     57849     57850     57851
     57850     57852     57851     57852     57853     57854     57853     57855
     57854     57855     57856     57857     57856     57858     57857     57858
     57859     57860     57859     57861     57860     57861     57862     57863
     57862     57864     57863     57864     57865     57866     57865     57867
     57866     57867     57868     57869     57868     57870     57869     57870
     57871     57872     57871     57873     57872     57873     57874     57875
     57874     57876     57875     57876     57877     57878     57877     57879
     57878     57879     57880     57881     57880     57882     57881     57882
     57883     57884     57883     57885     57884     57885     57886     57887
     57886     57888     57887     57888     57889     57890     57889     57891
     57890     57891     57892     57893     57892     57894     57893     57894
     57895     57896     57895     57897     57896     57897     57898     57899
     57898     57900     57899     57900     57901     57902     57901     57903
     57902     57903     57904     57905     57904     57906     57905     57906
     57907     57908     57907     57909     57908     57909     57910     57911
     57910     57912     57911     57912     57913     57914     57913     57915
     57914     57915     57916     57917     57916     57918     57917     57918
     57919     57920     57919     57921     57920     57921     57922     57923
     57922     57924     57923     57924     57925     57926     57925     57927
     57926     57927     57928     57929     57928     57930     57929     57930
     57931     57932     57931     57933     57932     57933     57934     57935
     57934     57936     57935     57936     57937     57938     57937     57939
     57938     57939     57940     57941     57940     57942     57941     57942
     57943     57944     57943     57945     57944     57945     57946     57947
     57946     57948     57947     57948     57949     57950     57949     57951
     57950     57951     57952     57953     57952     57954     57953     57954
     57955     57956     57955     57957     57956     57957     57958     57959
     57958     57960     57959     57960     57961     57962     57961     57963
     57962     57963     57964     57965     57964     57966     57965     57966
     57967     57968     57967     57969     57968     57969     57970     57971
     57970     57972     57971     57972     57973     57974     57973     57975
     57974     57975     57976     57977     57976     57978     57977     57978
     57979     57980     57979     57981     57980     57981     57982     57983
     57982     57984     57983     57984     57985     57986     57985     57987
     57986     57987     57988     57989     57988     57990     57989     57990
     57991     57992     57991     57993     57992     57993     57994     57995
     57994     57996     57995     57996     57997     57998     57997     57999
     57998     57999     58000     58001     58000     58002     58001     58002
     58003     58004     58003     58005     58004     58005     58006     58007
     58006     58008     58007     58008     58009     58010     58009     58011
     58010     58011     58012     58013     58012     58014     58013     58014
     58015     58016     58015     58017     58016     58017     58018     58019
     58018     58020     58019     58020     58021     58022     58021     58023
     58022     58023     58024     58025     58024     58026     58025     58026
     58027     58028     58027     58029     58028     58029     58030     58031
     58030     58032     58031     58032     58033     58034     58033     58035
     58034     58035     58036     58037     58036     58038     58037     58038
     58039     58040     58039     58041     58040     58041     58042     58043
     58042     58044     58043     58044     58045     58046     58045     58047
     58046     58047     58048     58049     58048     58050     58049     58050
     58051     58052     58051     58053     58052     58053     58054     58055
     58054     58056     58055     58056     58057     58058     58057     58059
     58058     58059     58060     58061     58060     58062     58061     58062
     58063     58064     58063     58065     58064     58065     58066     58067
     58066     58068     58067     58068     58069     58070     58069     58071
     58070     58071     58072     58073     58072     58074     58073     58074
     58075     58076     58075     58077     58076     58077     58078     58079
     58078     58080     58079     58080     58081     58082     58081     58083
     58082     58083     58084     58085     58084     58086     58085     58086
     58087     58088     58087     58089     58088     58089     58090     58091
     58090     58092     58091     58092     58093     58094     58093     58095
     58094     58095     58096     58097     58096     58098     58097     58098
     58099     58100     58099     58101     58100     58101     58102     58103
     58102     58104     58103     58104     58105     58106     58105     58107
     58106     58107     58108     58109     58108     58110     58109     58110
     58111     58112     58111     58113     58112     58113     58114     58115
     58114     58116     58115     58116     58117     58118     58117     58119
     58118     58119     58120     58121     58120     58122     58121     58122
     58123     58124     58123     58125     58124     58125     58126     58127
     58126     58128     58127     58128     58129     58130     58129     58131
     58130     58131     58132     58133     58132     58134     58133     58134
     58135     58136     58135     58137     58136     58137     58138     58139
     58138     58140     58139     58140     58141     58142     58141     58143
     58142     58143     58144     58145     58144     58146     58145     58146
     58147     58148     58147     58149     58148     58149     58150     58151
     58150     58152     58151     58152     58153     58154     58153     58155
     58154     58155     58156     58157     58156     58158     58157     58158
     58159     58160     58159     58161     58160     58161     58162     58163
     58162     58164     58163     58164     58165     58166     58165     58167
     58166     58167     58168     58169     58168     58170     58169     58170
     58171     58172     58171     58173     58172     58173     58174     58175
     58174     58176     58175     58176     58177     58178     58177     58179
     58178     58179     58180     58181     58180     58182     58181     58182
     58183     58184     58183     58185     58184     58185     58186     58187
     58186     58188     58187     58188     58189     58190     58189     58191
     58190     58191     58192     58193     58192     58194     58193     58194
     58195     58196     58195     58197     58196     58197     58198     58199
     58198     58200     58199     58200     58201     58202     58201     58203
     58202     58203     58204     58205     58204     58206     58205     58206
     58207     58208     58207     58209     58208     58209     58210     58211
     58210     58212     58211     58212     58213     58214     58213     58215
     58214     58215     58216     58217     58216     58218     58217     58218
     58219     58220     58219     58221     58220     58221     58222     58223
     58222     58224     58223     58224     58225     58226     58225     58227
     58226     58227     58228     58229     58228     58230     58229     58230
     58231     58232     58231     58233     58232     58233     58234     58235
     58234     58236     58235     58236     58237     58238     58237     58239
     58238     58239     58240     58241     58240     58242     58241     58242
     58243     58244     58243     58245     58244     58245     58246     58247
     58246     58248     58247     58248     58249     58250     58249     58251
     58250     58251     58252     58253     58252     58254     58253     58254
     58255     58256     58255     58257     58256     58257     58258     58259
     58258     58260     58259     58260     58261     58262     58261     58263
     58262     58263     58264     58265     58264     58266     58265     58266
     58267     58268     58267     58269     58268     58269     58270     58271
     58270     58272     58271     58272     58273     58274     58273     58275
     58274     58275     58276     58277     58276     58278     58277     58278
     58279     58280     58279     58281     58280     58281     58282     58283
     58282     58284     58283     58284     58285     58286     58285     58287
     58286     58287     58288     58289     58288     58290     58289     58290
     58291     58292     58291     58293     58292     58293     58294     58295
     58294     58296     58295     58296     58297     58298     58297     58299
     58298     58299     58300     58301     58300     58302     58301     58302
     58303     58304     58303     58305     58304     58305     58306     58307
     58306     58308     58307     58308     58309     58310     58309     58311
     58310     58311     58312     58313     58312     58314     58313     58314
     58315     58316     58315     58317     58316     58317     58318     58319
     58318     58320     58319     58320     58321     58322     58321     58323
     58322     58323     58324     58325     58324     58326     58325     58326
     58327     58328     58327     58329     58328     58329     58330     58331
     58330     58332     58331     58332     58333     58334     58333     58335
     58334     58335     58336     58337     58336     58338     58337     58338
     58339     58340     58339     58341     58340     58341     58342     58343
     58342     58344     58343     58344     58345     58346     58345     58347
     58346     58347     58348     58349     58348     58350     58349     58350
     58351     58352     58351     58353     58352     58353     58354     58355
     58354     58356     58355     58356     58357     58358     58357     58359
     58358     58359     58360     58361     58360     58362     58361     58362
     58363     58364     58363     58365     58364     58365     58366     58367
     58366     58368     58367     58368     58369     58370     58369     58371
     58370     58371     58372     58373     58372     58374     58373     58374
     58375     58376     58375     58377     58376     58377     58378     58379
     58378     58380     58379     58380     58381     58382     58381     58383
     58382     58383     58384     58385     58384     58386     58385     58386
     58387     58388     58387     58389     58388     58389     58390     58391
     58390     58392     58391     58392     58393     58394     58393     58395
     58394     58395     58396     58397     58396     58398     58397     58398
     58399     58400     58399     58401     58400     58401     58402     58403
     58402     58404     58403     58404     58405     58406     58405     58407
     58406     58407     58408     58409     58408     58410     58409     58410
     58411     58412     58411     58413     58412     58413     58414     58415
     58414     58416     58415     58416     58417     58418     58417     58419
     58418     58419     58420     58421     58420     58422     58421     58422
     58423     58424     58423     58425     58424     58425     58426     58427
     58426     58428     58427     58428     58429     58430     58429     58431
     58430     58431     58432     58433     58432     58434     58433     58434
     58435     58436     58435     58437     58436     58437     58438     58439
     58438     58440     58439     58440     58441     58442     58441     58443
     58442     58443     58444     58445     58444     58446     58445     58446
     58447     58448     58447     58449     58448     58449     58450     58451
     58450     58452     58451     58452     58453     58454     58453     58455
     58454     58455     58456     58457     58456     58458     58457     58458
     58459     58460     58459     58461     58460     58461     58462     58463
     58462     58464     58463     58464     58465     58466     58465     58467
     58466     58467     58468     58469     58468     58470     58469     58470
     58471     58472     58471     58473     58472     58473     58474     58475
     58474     58476     58475     58476     58477     58478     58477     58479
     58478     58479     58480     58481     58480     58482     58481     58482
     58483     58484     58483     58485     58484     58485     58486     58487
     58486     58488     58487     58488     58489     58490     58489     58491
     58490     58491     58492     58493     58492     58494     58493     58494
     58495     58496     58495     58497     58496     58497     58498     58499
     58498     58500     58499     58500     58501     58502     58501     58503
     58502     58503     58504     58505     58504     58506     58505     58506
     58507     58508     58507     58509     58508     58509     58510     58511
     58510     58512     58511     58512     58513     58514     58513     58515
     58514     58515     58516     58517     58516     58518     58517     58518
     58519     58520     58519     58521     58520     58521     58522     58523
     58522     58524     58523     58524     58525     58526     58525     58527
     58526     58527     58528     58529     58528     58530     58529     58530
     58531     58532     58531     58533     58532     58533     58534     58535
     58534     58536     58535     58536     58537     58538     58537     58539
     58538     58539     58540     58541     58540     58542     58541     58542
     58543     58544     58543     58545     58544     58545     58546     58547
     58546     58548     58547     58548     58549     58550     58549     58551
     58550     58551     58552     58553     58552     58554     58553     58554
     58555     58556     58555     58557     58556     58557     58558     58559
     58558     58560     58559     58560     58561     58562     58561     58563
     58562     58563     58564     58565     58564     58566     58565     58566
     58567     58568     58567     58569     58568     58569     58570     58571
     58570     58572     58571     58572     58573     58574     58573     58575
     58574     58575     58576     58577     58576     58578     58577     58578
     58579     58580     58579     58581     58580     58581     58582     58583
     58582     58584     58583     58584     58585     58586     58585     58587
     58586     58587     58588     58589     58588     58590     58589     58590
     58591     58592     58591     58593     58592     58593     58594     58595
     58594     58596     58595     58596     58597     58598     58597     58599
     58598     58599     58600     58601     58600     58602     58601     58602
     58603     58604     58603     58605     58604     58605     58606     58607
     58606     58608     58607     58608     58609     58610     58609     58611
     58610     58611     58612     58613     58612     58614     58613     58614
     58615     58616     58615     58617     58616     58617     58618     58619
     58618     58620     58619     58620     58621     58622     58621     58623
     58622     58623     58624     58625     58624     58626     58625     58626
     58627     58628     58627     58629     58628     58629     58630     58631
     58630     58632     58631     58632     58633     58634     58633     58635
     58634     58635     58636     58637     58636     58638     58637     58638
     58639     58640     58639     58641     58640     58641     58642     58643
     58642     58644     58643     58644     58645     58646     58645     58647
     58646     58647     58648     58649     58648     58650     58649     58650
     58651     58652     58651     58653     58652     58653     58654     58655
     58654     58656     58655     58656     58657     58658     58657     58659
     58658     58659     58660     58661     58660     58662     58661     58662
     58663     58664     58663     58665     58664     58665     58666     58667
     58666     58668     58667     58668     58669     58670     58669     58671
     58670     58671     58672     58673     58672     58674     58673     58674
     58675     58676     58675     58677     58676     58677     58678     58679
     58678     58680     58679     58680     58681     58682     58681     58683
     58682     58683     58684     58685     58684     58686     58685     58686
     58687     58688     58687     58689     58688     58689     58690     58691
     58690     58692     58691     58692     58693     58694     58693     58695
     58694     58695     58696     58697     58696     58698     58697     58698
     58699     58700     58699     58701     58700     58701     58702     58703
     58702     58704     58703     58704     58705     58706     58705     58707
     58706     58707     58708     58709     58708     58710     58709     58710
     58711     58712     58711     58713     58712     58713     58714     58715
     58714     58716     58715     58716     58717     58718     58717     58719
     58718     58719     58720     58721     58720     58722     58721     58722
     58723     58724     58723     58725     58724     58725     58726     58727
     58726     58728     58727     58728     58729     58730     58729     58731
     58730     58731     58732     58733     58732     58734     58733     58734
     58735     58736     58735     58737     58736     58737     58738     58739
     58738     58740     58739     58740     58741     58742     58741     58743
     58742     58743     58744     58745     58744     58746     58745     58746
     58747     58748     58747     58749     58748     58749     58750     58751
     58750     58752     58751     58752     58753     58754     58753     58755
     58754     58755     58756     58757     58756     58758     58757     58758
     58759     58760     58759     58761     58760     58761     58762     58763
     58762     58764     58763     58764     58765     58766     58765     58767
     58766     58767     58768     58769     58768     58770     58769     58770
     58771     58772     58771     58773     58772     58773     58774     58775
     58774     58776     58775     58776     58777     58778     58777     58779
     58778     58779     58780     58781     58780     58782     58781     58782
     58783     58784     58783     58785     58784     58785     58786     58787
     58786     58788     58787     58788     58789     58790     58789     58791
     58790     58791     58792     58793     58792     58794     58793     58794
     58795     58796     58795     58797     58796     58797     58798     58799
     58798     58800     58799     58800     58801     58802     58801     58803
     58802     58803     58804     58805     58804     58806     58805     58806
     58807     58808     58807     58809     58808     58809     58810     58811
     58810     58812     58811     58812     58813     58814     58813     58815
     58814     58815     58816     58817     58816     58818     58817     58818
     58819     58820     58819     58821     58820     58821     58822     58823
     58822     58824     58823     58824     58825     58826     58825     58827
     58826     58827     58828     58829     58828     58830     58829     58830
     58831     58832     58831     58833     58832     58833     58834     58835
     58834     58836     58835     58836     58837     58838     58837     58839
     58838     58839     58840     58841     58840     58842     58841     58842
     58843     58844     58843     58845     58844     58845     58846     58847
     58846     58848     58847     58848     58849     58850     58849     58851
     58850     58851     58852     58853     58852     58854     58853     58854
     58855     58856     58855     58857     58856     58857     58858     58859
     58858     58860     58859     58860     58861     58862     58861     58863
     58862     58863     58864     58865     58864     58866     58865     58866
     58867     58868     58867     58869     58868     58869     58870     58871
     58870     58872     58871     58872     58873     58874     58873     58875
     58874     58875     58876     58877     58876     58878     58877     58878
     58879     58880     58879     58881     58880     58881     58882     58883
     58882     58884     58883     58884     58885     58886     58885     58887
     58886     58887     58888     58889     58888     58890     58889     58890
     58891     58892     58891     58893     58892     58893     58894     58895
     58894     58896     58895     58896     58897     58898     58897     58899
     58898     58899     58900     58901     58900     58902     58901     58902
     58903     58904     58903     58905     58904     58905     58906     58907
     58906     58908     58907     58908     58909     58910     58909     58911
     58910     58911     58912     58913     58912     58914     58913     58914
     58915     58916     58915     58917     58916     58917     58918     58919
     58918     58920     58919     58920     58921     58922     58921     58923
     58922     58923     58924     58925     58924     58926     58925     58926
     58927     58928     58927     58929     58928     58929     58930     58931
     58930     58932     58931     58932     58933     58934     58933     58935
     58934     58935     58936     58937     58936     58938     58937     58938
     58939     58940     58939     58941     58940     58941     58942     58943
     58942     58944     58943     58944     58945     58946     58945     58947
     58946     58947     58948     58949     58948     58950     58949     58950
     58951     58952     58951     58953     58952     58953     58954     58955
     58954     58956     58955     58956     58957     58958     58957     58959
     58958     58959     58960     58961     58960     58962     58961     58962
     58963     58964     58963     58965     58964     58965     58966     58967
     58966     58968     58967     58968     58969     58970     58969     58971
     58970     58971     58972     58973     58972     58974     58973     58974
     58975     58976     58975     58977     58976     58977     58978     58979
     58978     58980     58979     58980     58981     58982     58981     58983
     58982     58983     58984     58985     58984     58986     58985     58986
     58987     58988     58987     58989     58988     58989     58990     58991
     58990     58992     58991     58992     58993     58994     58993     58995
     58994     58995     58996     58997     58996     58998     58997     58998
     58999     59000     58999     59001     59000     59001     59002     59003
     59002     59004     59003     59004     59005     59006     59005     59007
     59006     59007     59008     59009     59008     59010     59009     59010
     59011     59012     59011     59013     59012     59013     59014     59015
     59014     59016     59015     59016     59017     59018     59017     59019
     59018     59019     59020     59021     59020     59022     59021     59022
     59023     59024     59023     59025     59024     59025     59026     59027
     59026     59028     59027     59028     59029     59030     59029     59031
     59030     59031     59032     59033     59032     59034     59033     59034
     59035     59036     59035     59037     59036     59037     59038     59039
     59038     59040     59039     59040     59041     59042     59041     59043
     59042     59043     59044     59045     59044     59046     59045     59046
     59047     59048     59047     59049     59048     59049     59050     59051
     59050     59052     59051     59052     59053     59054     59053     59055
     59054     59055     59056     59057     59056     59058     59057     59058
     59059     59060     59059     59061     59060     59061     59062     59063
     59062     59064     59063     59064     59065     59066     59065     59067
     59066     59067     59068     59069     59068     59070     59069     59070
     59071     59072     59071     59073     59072     59073     59074     59075
     59074     59076     59075     59076     59077     59078     59077     59079
     59078     59079     59080     59081     59080     59082     59081     59082
     59083     59084     59083     59085     59084     59085     59086     59087
     59086     59088     59087     59088     59089     59090     59089     59091
     59090     59091     59092     59093     59092     59094     59093     59094
     59095     59096     59095     59097     59096     59097     59098     59099
     59098     59100     59099     59100     59101     59102     59101     59103
     59102     59103     59104     59105     59104     59106     59105     59106
     59107     59108     59107     59109     59108     59109     59110     59111
     59110     59112     59111     59112     59113     59114     59113     59115
     59114     59115     59116     59117     59116     59118     59117     59118
     59119     59120     59119     59121     59120     59121     59122     59123
     59122     59124     59123     59124     59125     59126     59125     59127
     59126     59127     59128     59129     59128     59130     59129     59130
     59131     59132     59131     59133     59132     59133     59134     59135
     59134     59136     59135     59136     59137     59138     59137     59139
     59138     59139     59140     59141     59140     59142     59141     59142
     59143     59144     59143     59145     59144     59145     59146     59147
     59146     59148     59147     59148     59149     59150     59149     59151
     59150     59151     59152     59153     59152     59154     59153     59154
     59155     59156     59155     59157     59156     59157     59158     59159
     59158     59160     59159     59160     59161     59162     59161     59163
     59162     59163     59164     59165     59164     59166     59165     59166
     59167     59168     59167     59169     59168     59169     59170     59171
     59170     59172     59171     59172     59173     59174     59173     59175
     59174     59175     59176     59177     59176     59178     59177     59178
     59179     59180     59179     59181     59180     59181     59182     59183
     59182     59184     59183     59184     59185     59186     59185     59187
     59186     59187     59188     59189     59188     59190     59189     59190
     59191     59192     59191     59193     59192     59193     59194     59195
     59194     59196     59195     59196     59197     59198     59197     59199
     59198     59199     59200     59201     59200     59202     59201     59202
     59203     59204     59203     59205     59204     59205     59206     59207
     59206     59208     59207     59208     59209     59210     59209     59211
     59210     59211     59212     59213     59212     59214     59213     59214
     59215     59216     59215     59217     59216     59217     59218     59219
     59218     59220     59219     59220     59221     59222     59221     59223
     59222     59223     59224     59225     59224     59226     59225     59226
     59227     59228     59227     59229     59228     59229     59230     59231
     59230     59232     59231     59232     59233     59234     59233     59235
     59234     59235     59236     59237     59236     59238     59237     59238
     59239     59240     59239     59241     59240     59241     59242     59243
     59242     59244     59243     59244     59245     59246     59245     59247
     59246     59247     59248     59249     59248     59250     59249     59250
     59251     59252     59251     59253     59252     59253     59254     59255
     59254     59256     59255     59256     59257     59258     59257     59259
     59258     59259     59260     59261     59260     59262     59261     59262
     59263     59264     59263     59265     59264     59265     59266     59267
     59266     59268     59267     59268     59269     59270     59269     59271
     59270     59271     59272     59273     59272     59274     59273     59274
     59275     59276     59275     59277     59276     59277     59278     59279
     59278     59280     59279     59280     59281     59282     59281     59283
     59282     59283     59284     59285     59284     59286     59285     59286
     59287     59288     59287     59289     59288     59289     59290     59291
     59290     59292     59291     59292     59293     59294     59293     59295
     59294     59295     59296     59297     59296     59298     59297     59298
     59299     59300     59299     59301     59300     59301     59302     59303
     59302     59304     59303     59304     59305     59306     59305     59307
     59306     59307     59308     59309     59308     59310     59309     59310
     59311     59312     59311     59313     59312     59313     59314     59315
     59314     59316     59315     59316     59317     59318     59317     59319
     59318     59319     59320     59321     59320     59322     59321     59322
     59323     59324     59323     59325     59324     59325     59326     59327
     59326     59328     59327     59328     59329     59330     59329     59331
     59330     59331     59332     59333     59332     59334     59333     59334
     59335     59336     59335     59337     59336     59337     59338     59339
     59338     59340     59339     59340     59341     59342     59341     59343
     59342     59343     59344     59345     59344     59346     59345     59346
     59347     59348     59347     59349     59348     59349     59350     59351
     59350     59352     59351     59352     59353     59354     59353     59355
     59354     59355     59356     59357     59356     59358     59357     59358
     59359     59360     59359     59361     59360     59361     59362     59363
     59362     59364     59363     59364     59365     59366     59365     59367
     59366     59367     59368     59369     59368     59370     59369     59370
     59371     59372     59371     59373     59372     59373     59374     59375
     59374     59376     59375     59376     59377     59378     59377     59379
     59378     59379     59380     59381     59380     59382     59381     59382
     59383     59384     59383     59385     59384     59385     59386     59387
     59386     59388     59387     59388     59389     59390     59389     59391
     59390     59391     59392     59393     59392     59394     59393     59394
     59395     59396     59395     59397     59396     59397     59398     59399
     59398     59400     59399     59400     59401     59402     59401     59403
     59402     59403     59404     59405     59404     59406     59405     59406
     59407     59408     59407     59409     59408     59409     59410     59411
     59410     59412     59411     59412     59413     59414     59413     59415
     59414     59415     59416     59417     59416     59418     59417     59418
     59419     59420     59419     59421     59420     59421     59422     59423
     59422     59424     59423     59424     59425     59426     59425     59427
     59426     59427     59428     59429     59428     59430     59429     59430
     59431     59432     59431     59433     59432     59433     59434     59435
     59434     59436     59435     59436     59437     59438     59437     59439
     59438     59439     59440     59441     59440     59442     59441     59442
     59443     59444     59443     59445     59444     59445     59446     59447
     59446     59448     59447     59448     59449     59450     59449     59451
     59450     59451     59452     59453     59452     59454     59453     59454
     59455     59456     59455     59457     59456     59457     59458     59459
     59458     59460     59459     59460     59461     59462     59461     59463
     59462     59463     59464     59465     59464     59466     59465     59466
     59467     59468     59467     59469     59468     59469     59470     59471
     59470     59472     59471     59472     59473     59474     59473     59475
     59474     59475     59476     59477     59476     59478     59477     59478
     59479     59480     59479     59481     59480     59481     59482     59483
     59482     59484     59483     59484     59485     59486     59485     59487
     59486     59487     59488     59489     59488     59490     59489     59490
     59491     59492     59491     59493     59492     59493     59494     59495
     59494     59496     59495     59496     59497     59498     59497     59499
     59498     59499     59500     59501     59500     59502     59501     59502
     59503     59504     59503     59505     59504     59505     59506     59507
     59506     59508     59507     59508     59509     59510     59509     59511
     59510     59511     59512     59513     59512     59514     59513     59514
     59515     59516     59515     59517     59516     59517     59518     59519
     59518     59520     59519     59520     59521     59522     59521     59523
     59522     59523     59524     59525     59524     59526     59525     59526
     59527     59528     59527     59529     59528     59529     59530     59531
     59530     59532     59531     59532     59533     59534     59533     59535
     59534     59535     59536     59537     59536     59538     59537     59538
     59539     59540     59539     59541     59540     59541     59542     59543
     59542     59544     59543     59544     59545     59546     59545     59547
     59546     59547     59548     59549     59548     59550     59549     59550
     59551     59552     59551     59553     59552     59553     59554     59555
     59554     59556     59555     59556     59557     59558     59557     59559
     59558     59559     59560     59561     59560     59562     59561     59562
     59563     59564     59563     59565     59564     59565     59566     59567
     59566     59568     59567     59568     59569     59570     59569     59571
     59570     59571     59572     59573     59572     59574     59573     59574
     59575     59576     59575     59577     59576     59577     59578     59579
     59578     59580     59579     59580     59581     59582     59581     59583
     59582     59583     59584     59585     59584     59586     59585     59586
     59587     59588     59587     59589     59588     59589     59590     59591
     59590     59592     59591     59592     59593     59594     59593     59595
     59594     59595     59596     59597     59596     59598     59597     59598
     59599     59600     59599     59601     59600     59601     59602     59603
     59602     59604     59603     59604     59605     59606     59605     59607
     59606     59607     59608     59609     59608     59610     59609     59610
     59611     59612     59611     59613     59612     59613     59614     59615
     59614     59616     59615     59616     59617     59618     59617     59619
     59618     59619     59620     59621     59620     59622     59621     59622
     59623     59624     59623     59625     59624     59625     59626     59627
     59626     59628     59627     59628     59629     59630     59629     59631
     59630     59631     59632     59633     59632     59634     59633     59634
     59635     59636     59635     59637     59636     59637     59638     59639
     59638     59640     59639     59640     59641     59642     59641     59643
     59642     59643     59644     59645     59644     59646     59645     59646
     59647     59648     59647     59649     59648     59649     59650     59651
     59650     59652     59651     59652     59653     59654     59653     59655
     59654     59655     59656     59657     59656     59658     59657     59658
     59659     59660     59659     59661     59660     59661     59662     59663
     59662     59664     59663     59664     59665     59666     59665     59667
     59666     59667     59668     59669     59668     59670     59669     59670
     59671     59672     59671     59673     59672     59673     59674     59675
     59674     59676     59675     59676     59677     59678     59677     59679
     59678     59679     59680     59681     59680     59682     59681     59682
     59683     59684     59683     59685     59684     59685     59686     59687
     59686     59688     59687     59688     59689     59690     59689     59691
     59690     59691     59692     59693     59692     59694     59693     59694
     59695     59696     59695     59697     59696     59697     59698     59699
     59698     59700     59699     59700     59701     59702     59701     59703
     59702     59703     59704     59705     59704     59706     59705     59706
     59707     59708     59707     59709     59708     59709     59710     59711
     59710     59712     59711     59712     59713     59714     59713     59715
     59714     59715     59716     59717     59716     59718     59717     59718
     59719     59720     59719     59721     59720     59721     59722     59723
     59722     59724     59723     59724     59725     59726     59725     59727
     59726     59727     59728     59729     59728     59730     59729     59730
     59731     59732     59731     59733     59732     59733     59734     59735
     59734     59736     59735     59736     59737     59738     59737     59739
     59738     59739     59740     59741     59740     59742     59741     59742
     59743     59744     59743     59745     59744     59745     59746     59747
     59746     59748     59747     59748     59749     59750     59749     59751
     59750     59751     59752     59753     59752     59754     59753     59754
     59755     59756     59755     59757     59756     59757     59758     59759
     59758     59760     59759     59760     59761     59762     59761     59763
     59762     59763     59764     59765     59764     59766     59765     59766
     59767     59768     59767     59769     59768     59769     59770     59771
     59770     59772     59771     59772     59773     59774     59773     59775
     59774     59775     59776     59777     59776     59778     59777     59778
     59779     59780     59779     59781     59780     59781     59782     59783
     59782     59784     59783     59784     59785     59786     59785     59787
     59786     59787     59788     59789     59788     59790     59789     59790
     59791     59792     59791     59793     59792     59793     59794     59795
     59794     59796     59795     59796     59797     59798     59797     59799
     59798     59799     59800     59801     59800     59802     59801     59802
     59803     59804     59803     59805     59804     59805     59806     59807
     59806     59808     59807     59808     59809     59810     59809     59811
     59810     59811     59812     59813     59812     59814     59813     59814
     59815     59816     59815     59817     59816     59817     59818     59819
     59818     59820     59819     59820     59821     59822     59821     59823
     59822     59823     59824     59825     59824     59826     59825     59826
     59827     59828     59827     59829     59828     59829     59830     59831
     59830     59832     59831     59832     59833     59834     59833     59835
     59834     59835     59836     59837     59836     59838     59837     59838
     59839     59840     59839     59841     59840     59841     59842     59843
     59842     59844     59843     59844     59845     59846     59845     59847
     59846     59847     59848     59849     59848     59850     59849     59850
     59851     59852     59851     59853     59852     59853     59854     59855
     59854     59856     59855     59856     59857     59858     59857     59859
     59858     59859     59860     59861     59860     59862     59861     59862
     59863     59864     59863     59865     59864     59865     59866     59867
     59866     59868     59867     59868     59869     59870     59869     59871
     59870     59871     59872     59873     59872     59874     59873     59874
     59875     59876     59875     59877     59876     59877     59878     59879
     59878     59880     59879     59880     59881     59882     59881     59883
     59882     59883     59884     59885     59884     59886     59885     59886
     59887     59888     59887     59889     59888     59889     59890     59891
     59890     59892     59891     59892     59893     59894     59893     59895
     59894     59895     59896     59897     59896     59898     59897     59898
     59899     59900     59899     59901     59900     59901     59902     59903
     59902     59904     59903     59904     59905     59906     59905     59907
     59906     59907     59908     59909     59908     59910     59909     59910
     59911     59912     59911     59913     59912     59913     59914     59915
     59914     59916     59915     59916     59917     59918     59917     59919
     59918     59919     59920     59921     59920     59922     59921     59922
     59923     59924     59923     59925     59924     59925     59926     59927
     59926     59928     59927     59928     59929     59930     59929     59931
     59930     59931     59932     59933     59932     59934     59933     59934
     59935     59936     59935     59937     59936     59937     59938     59939
     59938     59940     59939     59940     59941     59942     59941     59943
     59942     59943     59944     59945     59944     59946     59945     59946
     59947     59948     59947     59949     59948     59949     59950     59951
     59950     59952     59951     59952     59953     59954     59953     59955
     59954     59955     59956     59957     59956     59958     59957     59958
     59959     59960     59959     59961     59960     59961     59962     59963
     59962     59964     59963     59964     59965     59966     59965     59967
     59966     59967     59968     59969     59968     59970     59969     59970
     59971     59972     59971     59973     59972     59973     59974     59975
     59974     59976     59975     59976     59977     59978     59977     59979
     59978     59979     59980     59981     59980     59982     59981     59982
     59983     59984     59983     59985     59984     59985     59986     59987
     59986     59988     59987     59988     59989     59990     59989     59991
     59990     59991     59992     59993     59992     59994     59993     59994
     59995     59996     59995     59997     59996     59997     59998     59999
     59998     60000     59999     60000     60001     60002     60001     60003
     60002     60003     60004     60005     60004     60006     60005     60006
     60007     60008     60007     60009     60008     60009     60010     60011
     60010     60012     60011     60012     60013     60014     60013     60015
     60014     60015     60016     60017     60016     60018     60017     60018
     60019     60020     60019     60021     60020     60021     60022     60023
     60022     60024     60023     60024     60025     60026     60025     60027
     60026     60027     60028     60029     60028     60030     60029     60030
     60031     60032     60031     60033     60032     60033     60034     60035
     60034     60036     60035     60036     60037     60038     60037     60039
     60038     60039     60040     60041     60040     60042     60041     60042
     60043     60044     60043     60045     60044     60045     60046     60047
     60046     60048     60047     60048     60049     60050     60049     60051
     60050     60051     60052     60053     60052     60054     60053     60054
     60055     60056     60055     60057     60056     60057     60058     60059
     60058     60060     60059     60060     60061     60062     60061     60063
     60062     60063     60064     60065     60064     60066     60065     60066
     60067     60068     60067     60069     60068     60069     60070     60071
     60070     60072     60071     60072     60073     60074     60073     60075
     60074     60075     60076     60077     60076     60078     60077     60078
     60079     60080     60079     60081     60080     60081     60082     60083
     60082     60084     60083     60084     60085     60086     60085     60087
     60086     60087     60088     60089     60088     60090     60089     60090
     60091     60092     60091     60093     60092     60093     60094     60095
     60094     60096     60095     60096     60097     60098     60097     60099
     60098     60099     60100     60101     60100     60102     60101     60102
     60103     60104     60103     60105     60104     60105     60106     60107
     60106     60108     60107     60108     60109     60110     60109     60111
     60110     60111     60112     60113     60112     60114     60113     60114
     60115     60116     60115     60117     60116     60117     60118     60119
     60118     60120     60119     60120     60121     60122     60121     60123
     60122     60123     60124     60125     60124     60126     60125     60126
     60127     60128     60127     60129     60128     60129     60130     60131
     60130     60132     60131     60132     60133     60134     60133     60135
     60134     60135     60136     60137     60136     60138     60137     60138
     60139     60140     60139     60141     60140     60141     60142     60143
     60142     60144     60143     60144     60145     60146     60145     60147
     60146     60147     60148     60149     60148     60150     60149     60150
     60151     60152     60151     60153     60152     60153     60154     60155
     60154     60156     60155     60156     60157     60158     60157     60159
     60158     60159     60160     60161     60160     60162     60161     60162
     60163     60164     60163     60165     60164     60165     60166     60167
     60166     60168     60167     60168     60169     60170     60169     60171
     60170     60171     60172     60173     60172     60174     60173     60174
     60175     60176     60175     60177     60176     60177     60178     60179
     60178     60180     60179     60180     60181     60182     60181     60183
     60182     60183     60184     60185     60184     60186     60185     60186
     60187     60188     60187     60189     60188     60189     60190     60191
     60190     60192     60191     60192     60193     60194     60193     60195
     60194     60195     60196     60197     60196     60198     60197     60198
     60199     60200     60199     60201     60200     60201     60202     60203
     60202     60204     60203     60204     60205     60206     60205     60207
     60206     60207     60208     60209     60208     60210     60209     60210
     60211     60212     60211     60213     60212     60213     60214     60215
     60214     60216     60215     60216     60217     60218     60217     60219
     60218     60219     60220     60221     60220     60222     60221     60222
     60223     60224     60223     60225     60224     60225     60226     60227
     60226     60228     60227     60228     60229     60230     60229     60231
     60230     60231     60232     60233     60232     60234     60233     60234
     60235     60236     60235     60237     60236     60237     60238     60239
     60238     60240     60239     60240     60241     60242     60241     60243
     60242     60243     60244     60245     60244     60246     60245     60246
     60247     60248     60247     60249     60248     60249     60250     60251
     60250     60252     60251     60252     60253     60254     60253     60255
     60254     60255     60256     60257     60256     60258     60257     60258
     60259     60260     60259     60261     60260     60261     60262     60263
     60262     60264     60263     60264     60265     60266     60265     60267
     60266     60267     60268     60269     60268     60270     60269     60270
     60271     60272     60271     60273     60272     60273     60274     60275
     60274     60276     60275     60276     60277     60278     60277     60279
     60278     60279     60280     60281     60280     60282     60281     60282
     60283     60284     60283     60285     60284     60285     60286     60287
     60286     60288     60287     60288     60289     60290     60289     60291
     60290     60291     60292     60293     60292     60294     60293     60294
     60295     60296     60295     60297     60296     60297     60298     60299
     60298     60300     60299     60300     60301     60302     60301     60303
     60302     60303     60304     60305     60304     60306     60305     60306
     60307     60308     60307     60309     60308     60309     60310     60311
     60310     60312     60311     60312     60313     60314     60313     60315
     60314     60315     60316     60317     60316     60318     60317     60318
     60319     60320     60319     60321     60320     60321     60322     60323
     60322     60324     60323     60324     60325     60326     60325     60327
     60326     60327     60328     60329     60328     60330     60329     60330
     60331     60332     60331     60333     60332     60333     60334     60335
     60334     60336     60335     60336     60337     60338     60337     60339
     60338     60339     60340     60341     60340     60342     60341     60342
     60343     60344     60343     60345     60344     60345     60346     60347
     60346     60348     60347     60348     60349     60350     60349     60351
     60350     60351     60352     60353     60352     60354     60353     60354
     60355     60356     60355     60357     60356     60357     60358     60359
     60358     60360     60359     60360     60361     60362     60361     60363
     60362     60363     60364     60365     60364     60366     60365     60366
     60367     60368     60367     60369     60368     60369     60370     60371
     60370     60372     60371     60372     60373     60374     60373     60375
     60374     60375     60376     60377     60376     60378     60377     60378
     60379     60380     60379     60381     60380     60381     60382     60383
     60382     60384     60383     60384     60385     60386     60385     60387
     60386     60387     60388     60389     60388     60390     60389     60390
     60391     60392     60391     60393     60392     60393     60394     60395
     60394     60396     60395     60396     60397     60398     60397     60399
     60398     60399     60400     60401     60400     60402     60401     60402
     60403     60404     60403     60405     60404     60405     60406     60407
     60406     60408     60407     60408     60409     60410     60409     60411
     60410     60411     60412     60413     60412     60414     60413     60414
     60415     60416     60415     60417     60416     60417     60418     60419
     60418     60420     60419     60420     60421     60422     60421     60423
     60422     60423     60424     60425     60424     60426     60425     60426
     60427     60428     60427     60429     60428     60429     60430     60431
     60430     60432     60431     60432     60433     60434     60433     60435
     60434     60435     60436     60437     60436     60438     60437     60438
     60439     60440     60439     60441     60440     60441     60442     60443
     60442     60444     60443     60444     60445     60446     60445     60447
     60446     60447     60448     60449     60448     60450     60449     60450
     60451     60452     60451     60453     60452     60453     60454     60455
     60454     60456     60455     60456     60457     60458     60457     60459
     60458     60459     60460     60461     60460     60462     60461     60462
     60463     60464     60463     60465     60464     60465     60466     60467
     60466     60468     60467     60468     60469     60470     60469     60471
     60470     60471     60472     60473     60472     60474     60473     60474
     60475     60476     60475     60477     60476     60477     60478     60479
     60478     60480     60479     60480     60481     60482     60481     60483
     60482     60483     60484     60485     60484     60486     60485     60486
     60487     60488     60487     60489     60488     60489     60490     60491
     60490     60492     60491     60492     60493     60494     60493     60495
     60494     60495     60496     60497     60496     60498     60497     60498
     60499     60500     60499     60501     60500     60501     60502     60503
     60502     60504     60503     60504     60505     60506     60505     60507
     60506     60507     60508     60509     60508     60510     60509     60510
     60511     60512     60511     60513     60512     60513     60514     60515
     60514     60516     60515     60516     60517     60518     60517     60519
     60518     60519     60520     60521     60520     60522     60521     60522
     60523     60524     60523     60525     60524     60525     60526     60527
     60526     60528     60527     60528     60529     60530     60529     60531
     60530     60531     60532     60533     60532     60534     60533     60534
     60535     60536     60535     60537     60536     60537     60538     60539
     60538     60540     60539     60540     60541     60542     60541     60543
     60542     60543     60544     60545     60544     60546     60545     60546
     60547     60548     60547     60549     60548     60549     60550     60551
     60550     60552     60551     60552     60553     60554     60553     60555
     60554     60555     60556     60557     60556     60558     60557     60558
     60559     60560     60559     60561     60560     60561     60562     60563
     60562     60564     60563     60564     60565     60566     60565     60567
     60566     60567     60568     60569     60568     60570     60569     60570
     60571     60572     60571     60573     60572     60573     60574     60575
     60574     60576     60575     60576     60577     60578     60577     60579
     60578     60579     60580     60581     60580     60582     60581     60582
     60583     60584     60583     60585     60584     60585     60586     60587
     60586     60588     60587     60588     60589     60590     60589     60591
     60590     60591     60592     60593     60592     60594     60593     60594
     60595     60596     60595     60597     60596     60597     60598     60599
     60598     60600     60599     60600     60601     60602     60601     60603
     60602     60603     60604     60605     60604     60606     60605     60606
     60607     60608     60607     60609     60608     60609     60610     60611
     60610     60612     60611     60612     60613     60614     60613     60615
     60614     60615     60616     60617     60616     60618     60617     60618
     60619     60620     60619     60621     60620     60621     60622     60623
     60622     60624     60623     60624     60625     60626     60625     60627
     60626     60627     60628     60629     60628     60630     60629     60630
     60631     60632     60631     60633     60632     60633     60634     60635
     60634     60636     60635     60636     60637     60638     60637     60639
     60638     60639     60640     60641     60640     60642     60641     60642
     60643     60644     60643     60645     60644     60645     60646     60647
     60646     60648     60647     60648     60649     60650     60649     60651
     60650     60651     60652     60653     60652     60654     60653     60654
     60655     60656     60655     60657     60656     60657     60658     60659
     60658     60660     60659     60660     60661     60662     60661     60663
     60662     60663     60664     60665     60664     60666     60665     60666
     60667     60668     60667     60669     60668     60669     60670     60671
     60670     60672     60671     60672     60673     60674     60673     60675
     60674     60675     60676     60677     60676     60678     60677     60678
     60679     60680     60679     60681     60680     60681     60682     60683
     60682     60684     60683     60684     60685     60686     60685     60687
     60686     60687     60688     60689     60688     60690     60689     60690
     60691     60692     60691     60693     60692     60693     60694     60695
     60694     60696     60695     60696     60697     60698     60697     60699
     60698     60699     60700     60701     60700     60702     60701     60702
     60703     60704     60703     60705     60704     60705     60706     60707
     60706     60708     60707     60708     60709     60710     60709     60711
     60710     60711     60712     60713     60712     60714     60713     60714
     60715     60716     60715     60717     60716     60717     60718     60719
     60718     60720     60719     60720     60721     60722     60721     60723
     60722     60723     60724     60725     60724     60726     60725     60726
     60727     60728     60727     60729     60728     60729     60730     60731
     60730     60732     60731     60732     60733     60734     60733     60735
     60734     60735     60736     60737     60736     60738     60737     60738
     60739     60740     60739     60741     60740     60741     60742     60743
     60742     60744     60743     60744     60745     60746     60745     60747
     60746     60747     60748     60749     60748     60750     60749     60750
     60751     60752     60751     60753     60752     60753     60754     60755
     60754     60756     60755     60756     60757     60758     60757     60759
     60758     60759     60760     60761     60760     60762     60761     60762
     60763     60764     60763     60765     60764     60765     60766     60767
     60766     60768     60767     60768     60769     60770     60769     60771
     60770     60771     60772     60773     60772     60774     60773     60774
     60775     60776     60775     60777     60776     60777     60778     60779
     60778     60780     60779     60780     60781     60782     60781     60783
     60782     60783     60784     60785     60784     60786     60785     60786
     60787     60788     60787     60789     60788     60789     60790     60791
     60790     60792     60791     60792     60793     60794     60793     60795
     60794     60795     60796     60797     60796     60798     60797     60798
     60799     60800     60799     60801     60800     60801     60802     60803
     60802     60804     60803     60804     60805     60806     60805     60807
     60806     60807     60808     60809     60808     60810     60809     60810
     60811     60812     60811     60813     60812     60813     60814     60815
     60814     60816     60815     60816     60817     60818     60817     60819
     60818     60819     60820     60821     60820     60822     60821     60822
     60823     60824     60823     60825     60824     60825     60826     60827
     60826     60828     60827     60828     60829     60830     60829     60831
     60830     60831     60832     60833     60832     60834     60833     60834
     60835     60836     60835     60837     60836     60837     60838     60839
     60838     60840     60839     60840     60841     60842     60841     60843
     60842     60843     60844     60845     60844     60846     60845     60846
     60847     60848     60847     60849     60848     60849     60850     60851
     60850     60852     60851     60852     60853     60854     60853     60855
     60854     60855     60856     60857     60856     60858     60857     60858
     60859     60860     60859     60861     60860     60861     60862     60863
     60862     60864     60863     60864     60865     60866     60865     60867
     60866     60867     60868     60869     60868     60870     60869     60870
     60871     60872     60871     60873     60872     60873     60874     60875
     60874     60876     60875     60876     60877     60878     60877     60879
     60878     60879     60880     60881     60880     60882     60881     60882
     60883     60884     60883     60885     60884     60885     60886     60887
     60886     60888     60887     60888     60889     60890     60889     60891
     60890     60891     60892     60893     60892     60894     60893     60894
     60895     60896     60895     60897     60896     60897     60898     60899
     60898     60900     60899     60900     60901     60902     60901     60903
     60902     60903     60904     60905     60904     60906     60905     60906
     60907     60908     60907     60909     60908     60909     60910     60911
     60910     60912     60911     60912     60913     60914     60913     60915
     60914     60915     60916     60917     60916     60918     60917     60918
     60919     60920     60919     60921     60920     60921     60922     60923
     60922     60924     60923     60924     60925     60926     60925     60927
     60926     60927     60928     60929     60928     60930     60929     60930
     60931     60932     60931     60933     60932     60933     60934     60935
     60934     60936     60935     60936     60937     60938     60937     60939
     60938     60939     60940     60941     60940     60942     60941     60942
     60943     60944     60943     60945     60944     60945     60946     60947
     60946     60948     60947     60948     60949     60950     60949     60951
     60950     60951     60952     60953     60952     60954     60953     60954
     60955     60956     60955     60957     60956     60957     60958     60959
     60958     60960     60959     60960     60961     60962     60961     60963
     60962     60963     60964     60965     60964     60966     60965     60966
     60967     60968     60967     60969     60968     60969     60970     60971
     60970     60972     60971     60972     60973     60974     60973     60975
     60974     60975     60976     60977     60976     60978     60977     60978
     60979     60980     60979     60981     60980     60981     60982     60983
     60982     60984     60983     60984     60985     60986     60985     60987
     60986     60987     60988     60989     60988     60990     60989     60990
     60991     60992     60991     60993     60992     60993     60994     60995
     60994     60996     60995     60996     60997     60998     60997     60999
     60998     60999     61000     61001     61000     61002     61001     61002
     61003     61004     61003     61005     61004     61005     61006     61007
     61006     61008     61007     61008     61009     61010     61009     61011
     61010     61011     61012     61013     61012     61014     61013     61014
     61015     61016     61015     61017     61016     61017     61018     61019
     61018     61020     61019     61020     61021     61022     61021     61023
     61022     61023     61024     61025     61024     61026     61025     61026
     61027     61028     61027     61029     61028     61029     61030     61031
     61030     61032     61031     61032     61033     61034     61033     61035
     61034     61035     61036     61037     61036     61038     61037     61038
     61039     61040     61039     61041     61040     61041     61042     61043
     61042     61044     61043     61044     61045     61046     61045     61047
     61046     61047     61048     61049     61048     61050     61049     61050
     61051     61052     61051     61053     61052     61053     61054     61055
     61054     61056     61055     61056     61057     61058     61057     61059
     61058     61059     61060     61061     61060     61062     61061     61062
     61063     61064     61063     61065     61064     61065     61066     61067
     61066     61068     61067     61068     61069     61070     61069     61071
     61070     61071     61072     61073     61072     61074     61073     61074
     61075     61076     61075     61077     61076     61077     61078     61079
     61078     61080     61079     61080     61081     61082     61081     61083
     61082     61083     61084     61085     61084     61086     61085     61086
     61087     61088     61087     61089     61088     61089     61090     61091
     61090     61092     61091     61092     61093     61094     61093     61095
     61094     61095     61096     61097     61096     61098     61097     61098
     61099     61100     61099     61101     61100     61101     61102     61103
     61102     61104     61103     61104     61105     61106     61105     61107
     61106     61107     61108     61109     61108     61110     61109     61110
     61111     61112     61111     61113     61112     61113     61114     61115
     61114     61116     61115     61116     61117     61118     61117     61119
     61118     61119     61120     61121     61120     61122     61121     61122
     61123     61124     61123     61125     61124     61125     61126     61127
     61126     61128     61127     61128     61129     61130     61129     61131
     61130     61131     61132     61133     61132     61134     61133     61134
     61135     61136     61135     61137     61136     61137     61138     61139
     61138     61140     61139     61140     61141     61142     61141     61143
     61142     61143     61144     61145     61144     61146     61145     61146
     61147     61148     61147     61149     61148     61149     61150     61151
     61150     61152     61151     61152     61153     61154     61153     61155
     61154     61155     61156     61157     61156     61158     61157     61158
     61159     61160     61159     61161     61160     61161     61162     61163
     61162     61164     61163     61164     61165     61166     61165     61167
     61166     61167     61168     61169     61168     61170     61169     61170
     61171     61172     61171     61173     61172     61173     61174     61175
     61174     61176     61175     61176     61177     61178     61177     61179
     61178     61179     61180     61181     61180     61182     61181     61182
     61183     61184     61183     61185     61184     61185     61186     61187
     61186     61188     61187     61188     61189     61190     61189     61191
     61190     61191     61192     61193     61192     61194     61193     61194
     61195     61196     61195     61197     61196     61197     61198     61199
     61198     61200     61199     61200     61201     61202     61201     61203
     61202     61203     61204     61205     61204     61206     61205     61206
     61207     61208     61207     61209     61208     61209     61210     61211
     61210     61212     61211     61212     61213     61214     61213     61215
     61214     61215     61216     61217     61216     61218     61217     61218
     61219     61220     61219     61221     61220     61221     61222     61223
     61222     61224     61223     61224     61225     61226     61225     61227
     61226     61227     61228     61229     61228     61230     61229     61230
     61231     61232     61231     61233     61232     61233     61234     61235
     61234     61236     61235     61236     61237     61238     61237     61239
     61238     61239     61240     61241     61240     61242     61241     61242
     61243     61244     61243     61245     61244     61245     61246     61247
     61246     61248     61247     61248     61249     61250     61249     61251
     61250     61251     61252     61253     61252     61254     61253     61254
     61255     61256     61255     61257     61256     61257     61258     61259
     61258     61260     61259     61260     61261     61262     61261     61263
     61262     61263     61264     61265     61264     61266     61265     61266
     61267     61268     61267     61269     61268     61269     61270     61271
     61270     61272     61271     61272     61273     61274     61273     61275
     61274     61275     61276     61277     61276     61278     61277     61278
     61279     61280     61279     61281     61280     61281     61282     61283
     61282     61284     61283     61284     61285     61286     61285     61287
     61286     61287     61288     61289     61288     61290     61289     61290
     61291     61292     61291     61293     61292     61293     61294     61295
     61294     61296     61295     61296     61297     61298     61297     61299
     61298     61299     61300     61301     61300     61302     61301     61302
     61303     61304     61303     61305     61304     61305     61306     61307
     61306     61308     61307     61308     61309     61310     61309     61311
     61310     61311     61312     61313     61312     61314     61313     61314
     61315     61316     61315     61317     61316     61317     61318     61319
     61318     61320     61319     61320     61321     61322     61321     61323
     61322     61323     61324     61325     61324     61326     61325     61326
     61327     61328     61327     61329     61328     61329     61330     61331
     61330     61332     61331     61332     61333     61334     61333     61335
     61334     61335     61336     61337     61336     61338     61337     61338
     61339     61340     61339     61341     61340     61341     61342     61343
     61342     61344     61343     61344     61345     61346     61345     61347
     61346     61347     61348     61349     61348     61350     61349     61350
     61351     61352     61351     61353     61352     61353     61354     61355
     61354     61356     61355     61356     61357     61358     61357     61359
     61358     61359     61360     61361     61360     61362     61361     61362
     61363     61364     61363     61365     61364     61365     61366     61367
     61366     61368     61367     61368     61369     61370     61369     61371
     61370     61371     61372     61373     61372     61374     61373     61374
     61375     61376     61375     61377     61376     61377     61378     61379
     61378     61380     61379     61380     61381     61382     61381     61383
     61382     61383     61384     61385     61384     61386     61385     61386
     61387     61388     61387     61389     61388     61389     61390     61391
     61390     61392     61391     61392     61393     61394     61393     61395
     61394     61395     61396     61397     61396     61398     61397     61398
     61399     61400     61399     61401     61400     61401     61402     61403
     61402     61404     61403     61404     61405     61406     61405     61407
     61406     61407     61408     61409     61408     61410     61409     61410
     61411     61412     61411     61413     61412     61413     61414     61415
     61414     61416     61415     61416     61417     61418     61417     61419
     61418     61419     61420     61421     61420     61422     61421     61422
     61423     61424     61423     61425     61424     61425     61426     61427
     61426     61428     61427     61428     61429     61430     61429     61431
     61430     61431     61432     61433     61432     61434     61433     61434
     61435     61436     61435     61437     61436     61437     61438     61439
     61438     61440     61439     61440     61441     61442     61441     61443
     61442     61443     61444     61445     61444     61446     61445     61446
     61447     61448     61447     61449     61448     61449     61450     61451
     61450     61452     61451     61452     61453     61454     61453     61455
     61454     61455     61456     61457     61456     61458     61457     61458
     61459     61460     61459     61461     61460     61461     61462     61463
     61462     61464     61463     61464     61465     61466     61465     61467
     61466     61467     61468     61469     61468     61470     61469     61470
     61471     61472     61471     61473     61472     61473     61474     61475
     61474     61476     61475     61476     61477     61478     61477     61479
     61478     61479     61480     61481     61480     61482     61481     61482
     61483     61484     61483     61485     61484     61485     61486     61487
     61486     61488     61487     61488     61489     61490     61489     61491
     61490     61491     61492     61493     61492     61494     61493     61494
     61495     61496     61495     61497     61496     61497     61498     61499
     61498     61500     61499     61500     61501     61502     61501     61503
     61502     61503     61504     61505     61504     61506     61505     61506
     61507     61508     61507     61509     61508     61509     61510     61511
     61510     61512     61511     61512     61513     61514     61513     61515
     61514     61515     61516     61517     61516     61518     61517     61518
     61519     61520     61519     61521     61520     61521     61522     61523
     61522     61524     61523     61524     61525     61526     61525     61527
     61526     61527     61528     61529     61528     61530     61529     61530
     61531     61532     61531     61533     61532     61533     61534     61535
     61534     61536     61535     61536     61537     61538     61537     61539
     61538     61539     61540     61541     61540     61542     61541     61542
     61543     61544     61543     61545     61544     61545     61546     61547
     61546     61548     61547     61548     61549     61550     61549     61551
     61550     61551     61552     61553     61552     61554     61553     61554
     61555     61556     61555     61557     61556     61557     61558     61559
     61558     61560     61559     61560     61561     61562     61561     61563
     61562     61563     61564     61565     61564     61566     61565     61566
     61567     61568     61567     61569     61568     61569     61570     61571
     61570     61572     61571     61572     61573     61574     61573     61575
     61574     61575     61576     61577     61576     61578     61577     61578
     61579     61580     61579     61581     61580     61581     61582     61583
     61582     61584     61583     61584     61585     61586     61585     61587
     61586     61587     61588     61589     61588     61590     61589     61590
     61591     61592     61591     61593     61592     61593     61594     61595
     61594     61596     61595     61596     61597     61598     61597     61599
     61598     61599     61600     61601     61600     61602     61601     61602
     61603     61604     61603     61605     61604     61605     61606     61607
     61606     61608     61607     61608     61609     61610     61609     61611
     61610     61611     61612     61613     61612     61614     61613     61614
     61615     61616     61615     61617     61616     61617     61618     61619
     61618     61620     61619     61620     61621     61622     61621     61623
     61622     61623     61624     61625     61624     61626     61625     61626
     61627     61628     61627     61629     61628     61629     61630     61631
     61630     61632     61631     61632     61633     61634     61633     61635
     61634     61635     61636     61637     61636     61638     61637     61638
     61639     61640     61639     61641     61640     61641     61642     61643
     61642     61644     61643     61644     61645     61646     61645     61647
     61646     61647     61648     61649     61648     61650     61649     61650
     61651     61652     61651     61653     61652     61653     61654     61655
     61654     61656     61655     61656     61657     61658     61657     61659
     61658     61659     61660     61661     61660     61662     61661     61662
     61663     61664     61663     61665     61664     61665     61666     61667
     61666     61668     61667     61668     61669     61670     61669     61671
     61670     61671     61672     61673     61672     61674     61673     61674
     61675     61676     61675     61677     61676     61677     61678     61679
     61678     61680     61679     61680     61681     61682     61681     61683
     61682     61683     61684     61685     61684     61686     61685     61686
     61687     61688     61687     61689     61688     61689     61690     61691
     61690     61692     61691     61692     61693     61694     61693     61695
     61694     61695     61696     61697     61696     61698     61697     61698
     61699     61700     61699     61701     61700     61701     61702     61703
     61702     61704     61703     61704     61705     61706     61705     61707
     61706     61707     61708     61709     61708     61710     61709     61710
     61711     61712     61711     61713     61712     61713     61714     61715
     61714     61716     61715     61716     61717     61718     61717     61719
     61718     61719     61720     61721     61720     61722     61721     61722
     61723     61724     61723     61725     61724     61725     61726     61727
     61726     61728     61727     61728     61729     61730     61729     61731
     61730     61731     61732     61733     61732     61734     61733     61734
     61735     61736     61735     61737     61736     61737     61738     61739
     61738     61740     61739     61740     61741     61742     61741     61743
     61742     61743     61744     61745     61744     61746     61745     61746
     61747     61748     61747     61749     61748     61749     61750     61751
     61750     61752     61751     61752     61753     61754     61753     61755
     61754     61755     61756     61757     61756     61758     61757     61758
     61759     61760     61759     61761     61760     61761     61762     61763
     61762     61764     61763     61764     61765     61766     61765     61767
     61766     61767     61768     61769     61768     61770     61769     61770
     61771     61772     61771     61773     61772     61773     61774     61775
     61774     61776     61775     61776     61777     61778     61777     61779
     61778     61779     61780     61781     61780     61782     61781     61782
     61783     61784     61783     61785     61784     61785     61786     61787
     61786     61788     61787     61788     61789     61790     61789     61791
     61790     61791     61792     61793     61792     61794     61793     61794
     61795     61796     61795     61797     61796     61797     61798     61799
     61798     61800     61799     61800     61801     61802     61801     61803
     61802     61803     61804     61805     61804     61806     61805     61806
     61807     61808     61807     61809     61808     61809     61810     61811
     61810     61812     61811     61812     61813     61814     61813     61815
     61814     61815     61816     61817     61816     61818     61817     61818
     61819     61820     61819     61821     61820     61821     61822     61823
     61822     61824     61823     61824     61825     61826     61825     61827
     61826     61827     61828     61829     61828     61830     61829     61830
     61831     61832     61831     61833     61832     61833     61834     61835
     61834     61836     61835     61836     61837     61838     61837     61839
     61838     61839     61840     61841     61840     61842     61841     61842
     61843     61844     61843     61845     61844     61845     61846     61847
     61846     61848     61847     61848     61849     61850     61849     61851
     61850     61851     61852     61853     61852     61854     61853     61854
     61855     61856     61855     61857     61856     61857     61858     61859
     61858     61860     61859     61860     61861     61862     61861     61863
     61862     61863     61864     61865     61864     61866     61865     61866
     61867     61868     61867     61869     61868     61869     61870     61871
     61870     61872     61871     61872     61873     61874     61873     61875
     61874     61875     61876     61877     61876     61878     61877     61878
     61879     61880     61879     61881     61880     61881     61882     61883
     61882     61884     61883     61884     61885     61886     61885     61887
     61886     61887     61888     61889     61888     61890     61889     61890
     61891     61892     61891     61893     61892     61893     61894     61895
     61894     61896     61895     61896     61897     61898     61897     61899
     61898     61899     61900     61901     61900     61902     61901     61902
     61903     61904     61903     61905     61904     61905     61906     61907
     61906     61908     61907     61908     61909     61910     61909     61911
     61910     61911     61912     61913     61912     61914     61913     61914
     61915     61916     61915     61917     61916     61917     61918     61919
     61918     61920     61919     61920     61921     61922     61921     61923
     61922     61923     61924     61925     61924     61926     61925     61926
     61927     61928     61927     61929     61928     61929     61930     61931
     61930     61932     61931     61932     61933     61934     61933     61935
     61934     61935     61936     61937     61936     61938     61937     61938
     61939     61940     61939     61941     61940     61941     61942     61943
     61942     61944     61943     61944     61945     61946     61945     61947
     61946     61947     61948     61949     61948     61950     61949     61950
     61951     61952     61951     61953     61952     61953     61954     61955
     61954     61956     61955     61956     61957     61958     61957     61959
     61958     61959     61960     61961     61960     61962     61961     61962
     61963     61964     61963     61965     61964     61965     61966     61967
     61966     61968     61967     61968     61969     61970     61969     61971
     61970     61971     61972     61973     61972     61974     61973     61974
     61975     61976     61975     61977     61976     61977     61978     61979
     61978     61980     61979     61980     61981     61982     61981     61983
     61982     61983     61984     61985     61984     61986     61985     61986
     61987     61988     61987     61989     61988     61989     61990     61991
     61990     61992     61991     61992     61993     61994     61993     61995
     61994     61995     61996     61997     61996     61998     61997     61998
     61999     62000     61999     62001     62000     62001     62002     62003
     62002     62004     62003     62004     62005     62006     62005     62007
     62006     62007     62008     62009     62008     62010     62009     62010
     62011     62012     62011     62013     62012     62013     62014     62015
     62014     62016     62015     62016     62017     62018     62017     62019
     62018     62019     62020     62021     62020     62022     62021     62022
     62023     62024     62023     62025     62024     62025     62026     62027
     62026     62028     62027     62028     62029     62030     62029     62031
     62030     62031     62032     62033     62032     62034     62033     62034
     62035     62036     62035     62037     62036     62037     62038     62039
     62038     62040     62039     62040     62041     62042     62041     62043
     62042     62043     62044     62045     62044     62046     62045     62046
     62047     62048     62047     62049     62048     62049     62050     62051
     62050     62052     62051     62052     62053     62054     62053     62055
     62054     62055     62056     62057     62056     62058     62057     62058
     62059     62060     62059     62061     62060     62061     62062     62063
     62062     62064     62063     62064     62065     62066     62065     62067
     62066     62067     62068     62069     62068     62070     62069     62070
     62071     62072     62071     62073     62072     62073     62074     62075
     62074     62076     62075     62076     62077     62078     62077     62079
     62078     62079     62080     62081     62080     62082     62081     62082
     62083     62084     62083     62085     62084     62085     62086     62087
     62086     62088     62087     62088     62089     62090     62089     62091
     62090     62091     62092     62093     62092     62094     62093     62094
     62095     62096     62095     62097     62096     62097     62098     62099
     62098     62100     62099     62100     62101     62102     62101     62103
     62102     62103     62104     62105     62104     62106     62105     62106
     62107     62108     62107     62109     62108     62109     62110     62111
     62110     62112     62111     62112     62113     62114     62113     62115
     62114     62115     62116     62117     62116     62118     62117     62118
     62119     62120     62119     62121     62120     62121     62122     62123
     62122     62124     62123     62124     62125     62126     62125     62127
     62126     62127     62128     62129     62128     62130     62129     62130
     62131     62132     62131     62133     62132     62133     62134     62135
     62134     62136     62135     62136     62137     62138     62137     62139
     62138     62139     62140     62141     62140     62142     62141     62142
     62143     62144     62143     62145     62144     62145     62146     62147
     62146     62148     62147     62148     62149     62150     62149     62151
     62150     62151     62152     62153     62152     62154     62153     62154
     62155     62156     62155     62157     62156     62157     62158     62159
     62158     62160     62159     62160     62161     62162     62161     62163
     62162     62163     62164     62165     62164     62166     62165     62166
     62167     62168     62167     62169     62168     62169     62170     62171
     62170     62172     62171     62172     62173     62174     62173     62175
     62174     62175     62176     62177     62176     62178     62177     62178
     62179     62180     62179     62181     62180     62181     62182     62183
     62182     62184     62183     62184     62185     62186     62185     62187
     62186     62187     62188     62189     62188     62190     62189     62190
     62191     62192     62191     62193     62192     62193     62194     62195
     62194     62196     62195     62196     62197     62198     62197     62199
     62198     62199     62200     62201     62200     62202     62201     62202
     62203     62204     62203     62205     62204     62205     62206     62207
     62206     62208     62207     62208     62209     62210     62209     62211
     62210     62211     62212     62213     62212     62214     62213     62214
     62215     62216     62215     62217     62216     62217     62218     62219
     62218     62220     62219     62220     62221     62222     62221     62223
     62222     62223     62224     62225     62224     62226     62225     62226
     62227     62228     62227     62229     62228     62229     62230     62231
     62230     62232     62231     62232     62233     62234     62233     62235
     62234     62235     62236     62237     62236     62238     62237     62238
     62239     62240     62239     62241     62240     62241     62242     62243
     62242     62244     62243     62244     62245     62246     62245     62247
     62246     62247     62248     62249     62248     62250     62249     62250
     62251     62252     62251     62253     62252     62253     62254     62255
     62254     62256     62255     62256     62257     62258     62257     62259
     62258     62259     62260     62261     62260     62262     62261     62262
     62263     62264     62263     62265     62264     62265     62266     62267
     62266     62268     62267     62268     62269     62270     62269     62271
     62270     62271     62272     62273     62272     62274     62273     62274
     62275     62276     62275     62277     62276     62277     62278     62279
     62278     62280     62279     62280     62281     62282     62281     62283
     62282     62283     62284     62285     62284     62286     62285     62286
     62287     62288     62287     62289     62288     62289     62290     62291
     62290     62292     62291     62292     62293     62294     62293     62295
     62294     62295     62296     62297     62296     62298     62297     62298
     62299     62300     62299     62301     62300     62301     62302     62303
     62302     62304     62303     62304     62305     62306     62305     62307
     62306     62307     62308     62309     62308     62310     62309     62310
     62311     62312     62311     62313     62312     62313     62314     62315
     62314     62316     62315     62316     62317     62318     62317     62319
     62318     62319     62320     62321     62320     62322     62321     62322
     62323     62324     62323     62325     62324     62325     62326     62327
     62326     62328     62327     62328     62329     62330     62329     62331
     62330     62331     62332     62333     62332     62334     62333     62334
     62335     62336     62335     62337     62336     62337     62338     62339
     62338     62340     62339     62340     62341     62342     62341     62343
     62342     62343     62344     62345     62344     62346     62345     62346
     62347     62348     62347     62349     62348     62349     62350     62351
     62350     62352     62351     62352     62353     62354     62353     62355
     62354     62355     62356     62357     62356     62358     62357     62358
     62359     62360     62359     62361     62360     62361     62362     62363
     62362     62364     62363     62364     62365     62366     62365     62367
     62366     62367     62368     62369     62368     62370     62369     62370
     62371     62372     62371     62373     62372     62373     62374     62375
     62374     62376     62375     62376     62377     62378     62377     62379
     62378     62379     62380     62381     62380     62382     62381     62382
     62383     62384     62383     62385     62384     62385     62386     62387
     62386     62388     62387     62388     62389     62390     62389     62391
     62390     62391     62392     62393     62392     62394     62393     62394
     62395     62396     62395     62397     62396     62397     62398     62399
     62398     62400     62399     62400     62401     62402     62401     62403
     62402     62403     62404     62405     62404     62406     62405     62406
     62407     62408     62407     62409     62408     62409     62410     62411
     62410     62412     62411     62412     62413     62414     62413     62415
     62414     62415     62416     62417     62416     62418     62417     62418
     62419     62420     62419     62421     62420     62421     62422     62423
     62422     62424     62423     62424     62425     62426     62425     62427
     62426     62427     62428     62429     62428     62430     62429     62430
     62431     62432     62431     62433     62432     62433     62434     62435
     62434     62436     62435     62436     62437     62438     62437     62439
     62438     62439     62440     62441     62440     62442     62441     62442
     62443     62444     62443     62445     62444     62445     62446     62447
     62446     62448     62447     62448     62449     62450     62449     62451
     62450     62451     62452     62453     62452     62454     62453     62454
     62455     62456     62455     62457     62456     62457     62458     62459
     62458     62460     62459     62460     62461     62462     62461     62463
     62462     62463     62464     62465     62464     62466     62465     62466
     62467     62468     62467     62469     62468     62469     62470     62471
     62470     62472     62471     62472     62473     62474     62473     62475
     62474     62475     62476     62477     62476     62478     62477     62478
     62479     62480     62479     62481     62480     62481     62482     62483
     62482     62484     62483     62484     62485     62486     62485     62487
     62486     62487     62488     62489     62488     62490     62489     62490
     62491     62492     62491     62493     62492     62493     62494     62495
     62494     62496     62495     62496     62497     62498     62497     62499
     62498     62499     62500     62501     62500     62502     62501     62502
     62503     62504     62503     62505     62504     62505     62506     62507
     62506     62508     62507     62508     62509     62510     62509     62511
     62510     62511     62512     62513     62512     62514     62513     62514
     62515     62516     62515     62517     62516     62517     62518     62519
     62518     62520     62519     62520     62521     62522     62521     62523
     62522     62523     62524     62525     62524     62526     62525     62526
     62527     62528     62527     62529     62528     62529     62530     62531
     62530     62532     62531     62532     62533     62534     62533     62535
     62534     62535     62536     62537     62536     62538     62537     62538
     62539     62540     62539     62541     62540     62541     62542     62543
     62542     62544     62543     62544     62545     62546     62545     62547
     62546     62547     62548     62549     62548     62550     62549     62550
     62551     62552     62551     62553     62552     62553     62554     62555
     62554     62556     62555     62556     62557     62558     62557     62559
     62558     62559     62560     62561     62560     62562     62561     62562
     62563     62564     62563     62565     62564     62565     62566     62567
     62566     62568     62567     62568     62569     62570     62569     62571
     62570     62571     62572     62573     62572     62574     62573     62574
     62575     62576     62575     62577     62576     62577     62578     62579
     62578     62580     62579     62580     62581     62582     62581     62583
     62582     62583     62584     62585     62584     62586     62585     62586
     62587     62588     62587     62589     62588     62589     62590     62591
     62590     62592     62591     62592     62593     62594     62593     62595
     62594     62595     62596     62597     62596     62598     62597     62598
     62599     62600     62599     62601     62600     62601     62602     62603
     62602     62604     62603     62604     62605     62606     62605     62607
     62606     62607     62608     62609     62608     62610     62609     62610
     62611     62612     62611     62613     62612     62613     62614     62615
     62614     62616     62615     62616     62617     62618     62617     62619
     62618     62619     62620     62621     62620     62622     62621     62622
     62623     62624     62623     62625     62624     62625     62626     62627
     62626     62628     62627     62628     62629     62630     62629     62631
     62630     62631     62632     62633     62632     62634     62633     62634
     62635     62636     62635     62637     62636     62637     62638     62639
     62638     62640     62639     62640     62641     62642     62641     62643
     62642     62643     62644     62645     62644     62646     62645     62646
     62647     62648     62647     62649     62648     62649     62650     62651
     62650     62652     62651     62652     62653     62654     62653     62655
     62654     62655     62656     62657     62656     62658     62657     62658
     62659     62660     62659     62661     62660     62661     62662     62663
     62662     62664     62663     62664     62665     62666     62665     62667
     62666     62667     62668     62669     62668     62670     62669     62670
     62671     62672     62671     62673     62672     62673     62674     62675
     62674     62676     62675     62676     62677     62678     62677     62679
     62678     62679     62680     62681     62680     62682     62681     62682
     62683     62684     62683     62685     62684     62685     62686     62687
     62686     62688     62687     62688     62689     62690     62689     62691
     62690     62691     62692     62693     62692     62694     62693     62694
     62695     62696     62695     62697     62696     62697     62698     62699
     62698     62700     62699     62700     62701     62702     62701     62703
     62702     62703     62704     62705     62704     62706     62705     62706
     62707     62708     62707     62709     62708     62709     62710     62711
     62710     62712     62711     62712     62713     62714     62713     62715
     62714     62715     62716     62717     62716     62718     62717     62718
     62719     62720     62719     62721     62720     62721     62722     62723
     62722     62724     62723     62724     62725     62726     62725     62727
     62726     62727     62728     62729     62728     62730     62729     62730
     62731     62732     62731     62733     62732     62733     62734     62735
     62734     62736     62735     62736     62737     62738     62737     62739
     62738     62739     62740     62741     62740     62742     62741     62742
     62743     62744     62743     62745     62744     62745     62746     62747
     62746     62748     62747     62748     62749     62750     62749     62751
     62750     62751     62752     62753     62752     62754     62753     62754
     62755     62756     62755     62757     62756     62757     62758     62759
     62758     62760     62759     62760     62761     62762     62761     62763
     62762     62763     62764     62765     62764     62766     62765     62766
     62767     62768     62767     62769     62768     62769     62770     62771
     62770     62772     62771     62772     62773     62774     62773     62775
     62774     62775     62776     62777     62776     62778     62777     62778
     62779     62780     62779     62781     62780     62781     62782     62783
     62782     62784     62783     62784     62785     62786     62785     62787
     62786     62787     62788     62789     62788     62790     62789     62790
     62791     62792     62791     62793     62792     62793     62794     62795
     62794     62796     62795     62796     62797     62798     62797     62799
     62798     62799     62800     62801     62800     62802     62801     62802
     62803     62804     62803     62805     62804     62805     62806     62807
     62806     62808     62807     62808     62809     62810     62809     62811
     62810     62811     62812     62813     62812     62814     62813     62814
     62815     62816     62815     62817     62816     62817     62818     62819
     62818     62820     62819     62820     62821     62822     62821     62823
     62822     62823     62824     62825     62824     62826     62825     62826
     62827     62828     62827     62829     62828     62829     62830     62831
     62830     62832     62831     62832     62833     62834     62833     62835
     62834     62835     62836     62837     62836     62838     62837     62838
     62839     62840     62839     62841     62840     62841     62842     62843
     62842     62844     62843     62844     62845     62846     62845     62847
     62846     62847     62848     62849     62848     62850     62849     62850
     62851     62852     62851     62853     62852     62853     62854     62855
     62854     62856     62855     62856     62857     62858     62857     62859
     62858     62859     62860     62861     62860     62862     62861     62862
     62863     62864     62863     62865     62864     62865     62866     62867
     62866     62868     62867     62868     62869     62870     62869     62871
     62870     62871     62872     62873     62872     62874     62873     62874
     62875     62876     62875     62877     62876     62877     62878     62879
     62878     62880     62879     62880     62881     62882     62881     62883
     62882     62883     62884     62885     62884     62886     62885     62886
     62887     62888     62887     62889     62888     62889     62890     62891
     62890     62892     62891     62892     62893     62894     62893     62895
     62894     62895     62896     62897     62896     62898     62897     62898
     62899     62900     62899     62901     62900     62901     62902     62903
     62902     62904     62903     62904     62905     62906     62905     62907
     62906     62907     62908     62909     62908     62910     62909     62910
     62911     62912     62911     62913     62912     62913     62914     62915
     62914     62916     62915     62916     62917     62918     62917     62919
     62918     62919     62920     62921     62920     62922     62921     62922
     62923     62924     62923     62925     62924     62925     62926     62927
     62926     62928     62927     62928     62929     62930     62929     62931
     62930     62931     62932     62933     62932     62934     62933     62934
     62935     62936     62935     62937     62936     62937     62938     62939
     62938     62940     62939     62940     62941     62942     62941     62943
     62942     62943     62944     62945     62944     62946     62945     62946
     62947     62948     62947     62949     62948     62949     62950     62951
     62950     62952     62951     62952     62953     62954     62953     62955
     62954     62955     62956     62957     62956     62958     62957     62958
     62959     62960     62959     62961     62960     62961     62962     62963
     62962     62964     62963     62964     62965     62966     62965     62967
     62966     62967     62968     62969     62968     62970     62969     62970
     62971     62972     62971     62973     62972     62973     62974     62975
     62974     62976     62975     62976     62977     62978     62977     62979
     62978     62979     62980     62981     62980     62982     62981     62982
     62983     62984     62983     62985     62984     62985     62986     62987
     62986     62988     62987     62988     62989     62990     62989     62991
     62990     62991     62992     62993     62992     62994     62993     62994
     62995     62996     62995     62997     62996     62997     62998     62999
     62998     63000     62999     63000     63001     63002     63001     63003
     63002     63003     63004     63005     63004     63006     63005     63006
     63007     63008     63007     63009     63008     63009     63010     63011
     63010     63012     63011     63012     63013     63014     63013     63015
     63014     63015     63016     63017     63016     63018     63017     63018
     63019     63020     63019     63021     63020     63021     63022     63023
     63022     63024     63023     63024     63025     63026     63025     63027
     63026     63027     63028     63029     63028     63030     63029     63030
     63031     63032     63031     63033     63032     63033     63034     63035
     63034     63036     63035     63036     63037     63038     63037     63039
     63038     63039     63040     63041     63040     63042     63041     63042
     63043     63044     63043     63045     63044     63045     63046     63047
     63046     63048     63047     63048     63049     63050     63049     63051
     63050     63051     63052     63053     63052     63054     63053     63054
     63055     63056     63055     63057     63056     63057     63058     63059
     63058     63060     63059     63060     63061     63062     63061     63063
     63062     63063     63064     63065     63064     63066     63065     63066
     63067     63068     63067     63069     63068     63069     63070     63071
     63070     63072     63071     63072     63073     63074     63073     63075
     63074     63075     63076     63077     63076     63078     63077     63078
     63079     63080     63079     63081     63080     63081     63082     63083
     63082     63084     63083     63084     63085     63086     63085     63087
     63086     63087     63088     63089     63088     63090     63089     63090
     63091     63092     63091     63093     63092     63093     63094     63095
     63094     63096     63095     63096     63097     63098     63097     63099
     63098     63099     63100     63101     63100     63102     63101     63102
     63103     63104     63103     63105     63104     63105     63106     63107
     63106     63108     63107     63108     63109     63110     63109     63111
     63110     63111     63112     63113     63112     63114     63113     63114
     63115     63116     63115     63117     63116     63117     63118     63119
     63118     63120     63119     63120     63121     63122     63121     63123
     63122     63123     63124     63125     63124     63126     63125     63126
     63127     63128     63127     63129     63128     63129     63130     63131
     63130     63132     63131     63132     63133     63134     63133     63135
     63134     63135     63136     63137     63136     63138     63137     63138
     63139     63140     63139     63141     63140     63141     63142     63143
     63142     63144     63143     63144     63145     63146     63145     63147
     63146     63147     63148     63149     63148     63150     63149     63150
     63151     63152     63151     63153     63152     63153     63154     63155
     63154     63156     63155     63156     63157     63158     63157     63159
     63158     63159     63160     63161     63160     63162     63161     63162
     63163     63164     63163     63165     63164     63165     63166     63167
     63166     63168     63167     63168     63169     63170     63169     63171
     63170     63171     63172     63173     63172     63174     63173     63174
     63175     63176     63175     63177     63176     63177     63178     63179
     63178     63180     63179     63180     63181     63182     63181     63183
     63182     63183     63184     63185     63184     63186     63185     63186
     63187     63188     63187     63189     63188     63189     63190     63191
     63190     63192     63191     63192     63193     63194     63193     63195
     63194     63195     63196     63197     63196     63198     63197     63198
     63199     63200     63199     63201     63200     63201     63202     63203
     63202     63204     63203     63204     63205     63206     63205     63207
     63206     63207     63208     63209     63208     63210     63209     63210
     63211     63212     63211     63213     63212     63213     63214     63215
     63214     63216     63215     63216     63217     63218     63217     63219
     63218     63219     63220     63221     63220     63222     63221     63222
     63223     63224     63223     63225     63224     63225     63226     63227
     63226     63228     63227     63228     63229     63230     63229     63231
     63230     63231     63232     63233     63232     63234     63233     63234
     63235     63236     63235     63237     63236     63237     63238     63239
     63238     63240     63239     63240     63241     63242     63241     63243
     63242     63243     63244     63245     63244     63246     63245     63246
     63247     63248     63247     63249     63248     63249     63250     63251
     63250     63252     63251     63252     63253     63254     63253     63255
     63254     63255     63256     63257     63256     63258     63257     63258
     63259     63260     63259     63261     63260     63261     63262     63263
     63262     63264     63263     63264     63265     63266     63265     63267
     63266     63267     63268     63269     63268     63270     63269     63270
     63271     63272     63271     63273     63272     63273     63274     63275
     63274     63276     63275     63276     63277     63278     63277     63279
     63278     63279     63280     63281     63280     63282     63281     63282
     63283     63284     63283     63285     63284     63285     63286     63287
     63286     63288     63287     63288     63289     63290     63289     63291
     63290     63291     63292     63293     63292     63294     63293     63294
     63295     63296     63295     63297     63296     63297     63298     63299
     63298     63300     63299     63300     63301     63302     63301     63303
     63302     63303     63304     63305     63304     63306     63305     63306
     63307     63308     63307     63309     63308     63309     63310     63311
     63310     63312     63311     63312     63313     63314     63313     63315
     63314     63315     63316     63317     63316     63318     63317     63318
     63319     63320     63319     63321     63320     63321     63322     63323
     63322     63324     63323     63324     63325     63326     63325     63327
     63326     63327     63328     63329     63328     63330     63329     63330
     63331     63332     63331     63333     63332     63333     63334     63335
     63334     63336     63335     63336     63337     63338     63337     63339
     63338     63339     63340     63341     63340     63342     63341     63342
     63343     63344     63343     63345     63344     63345     63346     63347
     63346     63348     63347     63348     63349     63350     63349     63351
     63350     63351     63352     63353     63352     63354     63353     63354
     63355     63356     63355     63357     63356     63357     63358     63359
     63358     63360     63359     63360     63361     63362     63361     63363
     63362     63363     63364     63365     63364     63366     63365     63366
     63367     63368     63367     63369     63368     63369     63370     63371
     63370     63372     63371     63372     63373     63374     63373     63375
     63374     63375     63376     63377     63376     63378     63377     63378
     63379     63380     63379     63381     63380     63381     63382     63383
     63382     63384     63383     63384     63385     63386     63385     63387
     63386     63387     63388     63389     63388     63390     63389     63390
     63391     63392     63391     63393     63392     63393     63394     63395
     63394     63396     63395     63396     63397     63398     63397     63399
     63398     63399     63400     63401     63400     63402     63401     63402
     63403     63404     63403     63405     63404     63405     63406     63407
     63406     63408     63407     63408     63409     63410     63409     63411
     63410     63411     63412     63413     63412     63414     63413     63414
     63415     63416     63415     63417     63416     63417     63418     63419
     63418     63420     63419     63420     63421     63422     63421     63423
     63422     63423     63424     63425     63424     63426     63425     63426
     63427     63428     63427     63429     63428     63429     63430     63431
     63430     63432     63431     63432     63433     63434     63433     63435
     63434     63435     63436     63437     63436     63438     63437     63438
     63439     63440     63439     63441     63440     63441     63442     63443
     63442     63444     63443     63444     63445     63446     63445     63447
     63446     63447     63448     63449     63448     63450     63449     63450
     63451     63452     63451     63453     63452     63453     63454     63455
     63454     63456     63455     63456     63457     63458     63457     63459
     63458     63459     63460     63461     63460     63462     63461     63462
     63463     63464     63463     63465     63464     63465     63466     63467
     63466     63468     63467     63468     63469     63470     63469     63471
     63470     63471     63472     63473     63472     63474     63473     63474
     63475     63476     63475     63477     63476     63477     63478     63479
     63478     63480     63479     63480     63481     63482     63481     63483
     63482     63483     63484     63485     63484     63486     63485     63486
     63487     63488     63487     63489     63488     63489     63490     63491
     63490     63492     63491     63492     63493     63494     63493     63495
     63494     63495     63496     63497     63496     63498     63497     63498
     63499     63500     63499     63501     63500     63501     63502     63503
     63502     63504     63503     63504     63505     63506     63505     63507
     63506     63507     63508     63509     63508     63510     63509     63510
     63511     63512     63511     63513     63512     63513     63514     63515
     63514     63516     63515     63516     63517     63518     63517     63519
     63518     63519     63520     63521     63520     63522     63521     63522
     63523     63524     63523     63525     63524     63525     63526     63527
     63526     63528     63527     63528     63529     63530     63529     63531
     63530     63531     63532     63533     63532     63534     63533     63534
     63535     63536     63535     63537     63536     63537     63538     63539
     63538     63540     63539     63540     63541     63542     63541     63543
     63542     63543     63544     63545     63544     63546     63545     63546
     63547     63548     63547     63549     63548     63549     63550     63551
     63550     63552     63551     63552     63553     63554     63553     63555
     63554     63555     63556     63557     63556     63558     63557     63558
     63559     63560     63559     63561     63560     63561     63562     63563
     63562     63564     63563     63564     63565     63566     63565     63567
     63566     63567     63568     63569     63568     63570     63569     63570
     63571     63572     63571     63573     63572     63573     63574     63575
     63574     63576     63575     63576     63577     63578     63577     63579
     63578     63579     63580     63581     63580     63582     63581     63582
     63583     63584     63583     63585     63584     63585     63586     63587
     63586     63588     63587     63588     63589     63590     63589     63591
     63590     63591     63592     63593     63592     63594     63593     63594
     63595     63596     63595     63597     63596     63597     63598     63599
     63598     63600     63599     63600     63601     63602     63601     63603
     63602     63603     63604     63605     63604     63606     63605     63606
     63607     63608     63607     63609     63608     63609     63610     63611
     63610     63612     63611     63612     63613     63614     63613     63615
     63614     63615     63616     63617     63616     63618     63617     63618
     63619     63620     63619     63621     63620     63621     63622     63623
     63622     63624     63623     63624     63625     63626     63625     63627
     63626     63627     63628     63629     63628     63630     63629     63630
     63631     63632     63631     63633     63632     63633     63634     63635
     63634     63636     63635     63636     63637     63638     63637     63639
     63638     63639     63640     63641     63640     63642     63641     63642
     63643     63644     63643     63645     63644     63645     63646     63647
     63646     63648     63647     63648     63649     63650     63649     63651
     63650     63651     63652     63653     63652     63654     63653     63654
     63655     63656     63655     63657     63656     63657     63658     63659
     63658     63660     63659     63660     63661     63662     63661     63663
     63662     63663     63664     63665     63664     63666     63665     63666
     63667     63668     63667     63669     63668     63669     63670     63671
     63670     63672     63671     63672     63673     63674     63673     63675
     63674     63675     63676     63677     63676     63678     63677     63678
     63679     63680     63679     63681     63680     63681     63682     63683
     63682     63684     63683     63684     63685     63686     63685     63687
     63686     63687     63688     63689     63688     63690     63689     63690
     63691     63692     63691     63693     63692     63693     63694     63695
     63694     63696     63695     63696     63697     63698     63697     63699
     63698     63699     63700     63701     63700     63702     63701     63702
     63703     63704     63703     63705     63704     63705     63706     63707
     63706     63708     63707     63708     63709     63710     63709     63711
     63710     63711     63712     63713     63712     63714     63713     63714
     63715     63716     63715     63717     63716     63717     63718     63719
     63718     63720     63719     63720     63721     63722     63721     63723
     63722     63723     63724     63725     63724     63726     63725     63726
     63727     63728     63727     63729     63728     63729     63730     63731
     63730     63732     63731     63732     63733     63734     63733     63735
     63734     63735     63736     63737     63736     63738     63737     63738
     63739     63740     63739     63741     63740     63741     63742     63743
     63742     63744     63743     63744     63745     63746     63745     63747
     63746     63747     63748     63749     63748     63750     63749     63750
     63751     63752     63751     63753     63752     63753     63754     63755
     63754     63756     63755     63756     63757     63758     63757     63759
     63758     63759     63760     63761     63760     63762     63761     63762
     63763     63764     63763     63765     63764     63765     63766     63767
     63766     63768     63767     63768     63769     63770     63769     63771
     63770     63771     63772     63773     63772     63774     63773     63774
     63775     63776     63775     63777     63776     63777     63778     63779
     63778     63780     63779     63780     63781     63782     63781     63783
     63782     63783     63784     63785     63784     63786     63785     63786
     63787     63788     63787     63789     63788     63789     63790     63791
     63790     63792     63791     63792     63793     63794     63793     63795
     63794     63795     63796     63797     63796     63798     63797     63798
     63799     63800     63799     63801     63800     63801     63802     63803
     63802     63804     63803     63804     63805     63806     63805     63807
     63806     63807     63808     63809     63808     63810     63809     63810
     63811     63812     63811     63813     63812     63813     63814     63815
     63814     63816     63815     63816     63817     63818     63817     63819
     63818     63819     63820     63821     63820     63822     63821     63822
     63823     63824     63823     63825     63824     63825     63826     63827
     63826     63828     63827     63828     63829     63830     63829     63831
     63830     63831     63832     63833     63832     63834     63833     63834
     63835     63836     63835     63837     63836     63837     63838     63839
     63838     63840     63839     63840     63841     63842     63841     63843
     63842     63843     63844     63845     63844     63846     63845     63846
     63847     63848     63847     63849     63848     63849     63850     63851
     63850     63852     63851     63852     63853     63854     63853     63855
     63854     63855     63856     63857     63856     63858     63857     63858
     63859     63860     63859     63861     63860     63861     63862     63863
     63862     63864     63863     63864     63865     63866     63865     63867
     63866     63867     63868     63869     63868     63870     63869     63870
     63871     63872     63871     63873     63872     63873     63874     63875
     63874     63876     63875     63876     63877     63878     63877     63879
     63878     63879     63880     63881     63880     63882     63881     63882
     63883     63884     63883     63885     63884     63885     63886     63887
     63886     63888     63887     63888     63889     63890     63889     63891
     63890     63891     63892     63893     63892     63894     63893     63894
     63895     63896     63895     63897     63896     63897     63898     63899
     63898     63900     63899     63900     63901     63902     63901     63903
     63902     63903     63904     63905     63904     63906     63905     63906
     63907     63908     63907     63909     63908     63909     63910     63911
     63910     63912     63911     63912     63913     63914     63913     63915
     63914     63915     63916     63917     63916     63918     63917     63918
     63919     63920     63919     63921     63920     63921     63922     63923
     63922     63924     63923     63924     63925     63926     63925     63927
     63926     63927     63928     63929     63928     63930     63929     63930
     63931     63932     63931     63933     63932     63933     63934     63935
     63934     63936     63935     63936     63937     63938     63937     63939
     63938     63939     63940     63941     63940     63942     63941     63942
     63943     63944     63943     63945     63944     63945     63946     63947
     63946     63948     63947     63948     63949     63950     63949     63951
     63950     63951     63952     63953     63952     63954     63953     63954
     63955     63956     63955     63957     63956     63957     63958     63959
     63958     63960     63959     63960     63961     63962     63961     63963
     63962     63963     63964     63965     63964     63966     63965     63966
     63967     63968     63967     63969     63968     63969     63970     63971
     63970     63972     63971     63972     63973     63974     63973     63975
     63974     63975     63976     63977     63976     63978     63977     63978
     63979     63980     63979     63981     63980     63981     63982     63983
     63982     63984     63983     63984     63985     63986     63985     63987
     63986     63987     63988     63989     63988     63990     63989     63990
     63991     63992     63991     63993     63992     63993     63994     63995
     63994     63996     63995     63996     63997     63998     63997     63999
     63998     63999     64000     64001     64000     64002     64001     64002
     64003     64004     64003     64005     64004     64005     64006     64007
     64006     64008     64007     64008     64009     64010     64009     64011
     64010     64011     64012     64013     64012     64014     64013     64014
     64015     64016     64015     64017     64016     64017     64018     64019
     64018     64020     64019     64020     64021     64022     64021     64023
     64022     64023     64024     64025     64024     64026     64025     64026
     64027     64028     64027     64029     64028     64029     64030     64031
     64030     64032     64031     64032     64033     64034     64033     64035
     64034     64035     64036     64037     64036     64038     64037     64038
     64039     64040     64039     64041     64040     64041     64042     64043
     64042     64044     64043     64044     64045     64046     64045     64047
     64046     64047     64048     64049     64048     64050     64049     64050
     64051     64052     64051     64053     64052     64053     64054     64055
     64054     64056     64055     64056     64057     64058     64057     64059
     64058     64059     64060     64061     64060     64062     64061     64062
     64063     64064     64063     64065     64064     64065     64066     64067
     64066     64068     64067     64068     64069     64070     64069     64071
     64070     64071     64072     64073     64072     64074     64073     64074
     64075     64076     64075     64077     64076     64077     64078     64079
     64078     64080     64079     64080     64081     64082     64081     64083
     64082     64083     64084     64085     64084     64086     64085     64086
     64087     64088     64087     64089     64088     64089     64090     64091
     64090     64092     64091     64092     64093     64094     64093     64095
     64094     64095     64096     64097     64096     64098     64097     64098
     64099     64100     64099     64101     64100     64101     64102     64103
     64102     64104     64103     64104     64105     64106     64105     64107
     64106     64107     64108     64109     64108     64110     64109     64110
     64111     64112     64111     64113     64112     64113     64114     64115
     64114     64116     64115     64116     64117     64118     64117     64119
     64118     64119     64120     64121     64120     64122     64121     64122
     64123     64124     64123     64125     64124     64125     64126     64127
     64126     64128     64127     64128     64129     64130     64129     64131
     64130     64131     64132     64133     64132     64134     64133     64134
     64135     64136     64135     64137     64136     64137     64138     64139
     64138     64140     64139     64140     64141     64142     64141     64143
     64142     64143     64144     64145     64144     64146     64145     64146
     64147     64148     64147     64149     64148     64149     64150     64151
     64150     64152     64151     64152     64153     64154     64153     64155
     64154     64155     64156     64157     64156     64158     64157     64158
     64159     64160     64159     64161     64160     64161     64162     64163
     64162     64164     64163     64164     64165     64166     64165     64167
     64166     64167     64168     64169     64168     64170     64169     64170
     64171     64172     64171     64173     64172     64173     64174     64175
     64174     64176     64175     64176     64177     64178     64177     64179
     64178     64179     64180     64181     64180     64182     64181     64182
     64183     64184     64183     64185     64184     64185     64186     64187
     64186     64188     64187     64188     64189     64190     64189     64191
     64190     64191     64192     64193     64192     64194     64193     64194
     64195     64196     64195     64197     64196     64197     64198     64199
     64198     64200     64199     64200     64201     64202     64201     64203
     64202     64203     64204     64205     64204     64206     64205     64206
     64207     64208     64207     64209     64208     64209     64210     64211
     64210     64212     64211     64212     64213     64214     64213     64215
     64214     64215     64216     64217     64216     64218     64217     64218
     64219     64220     64219     64221     64220     64221     64222     64223
     64222     64224     64223     64224     64225     64226     64225     64227
     64226     64227     64228     64229     64228     64230     64229     64230
     64231     64232     64231     64233     64232     64233     64234     64235
     64234     64236     64235     64236     64237     64238     64237     64239
     64238     64239     64240     64241     64240     64242     64241     64242
     64243     64244     64243     64245     64244     64245     64246     64247
     64246     64248     64247     64248     64249     64250     64249     64251
     64250     64251     64252     64253     64252     64254     64253     64254
     64255     64256     64255     64257     64256     64257     64258     64259
     64258     64260     64259     64260     64261     64262     64261     64263
     64262     64263     64264     64265     64264     64266     64265     64266
     64267     64268     64267     64269     64268     64269     64270     64271
     64270     64272     64271     64272     64273     64274     64273     64275
     64274     64275     64276     64277     64276     64278     64277     64278
     64279     64280     64279     64281     64280     64281     64282     64283
     64282     64284     64283     64284     64285     64286     64285     64287
     64286     64287     64288     64289     64288     64290     64289     64290
     64291     64292     64291     64293     64292     64293     64294     64295
     64294     64296     64295     64296     64297     64298     64297     64299
     64298     64299     64300     64301     64300     64302     64301     64302
     64303     64304     64303     64305     64304     64305     64306     64307
     64306     64308     64307     64308     64309     64310     64309     64311
     64310     64311     64312     64313     64312     64314     64313     64314
     64315     64316     64315     64317     64316     64317     64318     64319
     64318     64320     64319     64320     64321     64322     64321     64323
     64322     64323     64324     64325     64324     64326     64325     64326
     64327     64328     64327     64329     64328     64329     64330     64331
     64330     64332     64331     64332     64333     64334     64333     64335
     64334     64335     64336     64337     64336     64338     64337     64338
     64339     64340     64339     64341     64340     64341     64342     64343
     64342     64344     64343     64344     64345     64346     64345     64347
     64346     64347     64348     64349     64348     64350     64349     64350
     64351     64352     64351     64353     64352     64353     64354     64355
     64354     64356     64355     64356     64357     64358     64357     64359
     64358     64359     64360     64361     64360     64362     64361     64362
     64363     64364     64363     64365     64364     64365     64366     64367
     64366     64368     64367     64368     64369     64370     64369     64371
     64370     64371     64372     64373     64372     64374     64373     64374
     64375     64376     64375     64377     64376     64377     64378     64379
     64378     64380     64379     64380     64381     64382     64381     64383
     64382     64383     64384     64385     64384     64386     64385     64386
     64387     64388     64387     64389     64388     64389     64390     64391
     64390     64392     64391     64392     64393     64394     64393     64395
     64394     64395     64396     64397     64396     64398     64397     64398
     64399     64400     64399     64401     64400     64401     64402     64403
     64402     64404     64403     64404     64405     64406     64405     64407
     64406     64407     64408     64409     64408     64410     64409     64410
     64411     64412     64411     64413     64412     64413     64414     64415
     64414     64416     64415     64416     64417     64418     64417     64419
     64418     64419     64420     64421     64420     64422     64421     64422
     64423     64424     64423     64425     64424     64425     64426     64427
     64426     64428     64427     64428     64429     64430     64429     64431
     64430     64431     64432     64433     64432     64434     64433     64434
     64435     64436     64435     64437     64436     64437     64438     64439
     64438     64440     64439     64440     64441     64442     64441     64443
     64442     64443     64444     64445     64444     64446     64445     64446
     64447     64448     64447     64449     64448     64449     64450     64451
     64450     64452     64451     64452     64453     64454     64453     64455
     64454     64455     64456     64457     64456     64458     64457     64458
     64459     64460     64459     64461     64460     64461     64462     64463
     64462     64464     64463     64464     64465     64466     64465     64467
     64466     64467     64468     64469     64468     64470     64469     64470
     64471     64472     64471     64473     64472     64473     64474     64475
     64474     64476     64475     64476     64477     64478     64477     64479
     64478     64479     64480     64481     64480     64482     64481     64482
     64483     64484     64483     64485     64484     64485     64486     64487
     64486     64488     64487     64488     64489     64490     64489     64491
     64490     64491     64492     64493     64492     64494     64493     64494
     64495     64496     64495     64497     64496     64497     64498     64499
     64498     64500     64499     64500     64501     64502     64501     64503
     64502     64503     64504     64505     64504     64506     64505     64506
     64507     64508     64507     64509     64508     64509     64510     64511
     64510     64512     64511     64512     64513     64514     64513     64515
     64514     64515     64516     64517     64516     64518     64517     64518
     64519     64520     64519     64521     64520     64521     64522     64523
     64522     64524     64523     64524     64525     64526     64525     64527
     64526     64527     64528     64529     64528     64530     64529     64530
     64531     64532     64531     64533     64532     64533     64534     64535
     64534     64536     64535     64536     64537     64538     64537     64539
     64538     64539     64540     64541     64540     64542     64541     64542
     64543     64544     64543     64545     64544     64545     64546     64547
     64546     64548     64547     64548     64549     64550     64549     64551
     64550     64551     64552     64553     64552     64554     64553     64554
     64555     64556     64555     64557     64556     64557     64558     64559
     64558     64560     64559     64560     64561     64562     64561     64563
     64562     64563     64564     64565     64564     64566     64565     64566
     64567     64568     64567     64569     64568     64569     64570     64571
     64570     64572     64571     64572     64573     64574     64573     64575
     64574     64575     64576     64577     64576     64578     64577     64578
     64579     64580     64579     64581     64580     64581     64582     64583
     64582     64584     64583     64584     64585     64586     64585     64587
     64586     64587     64588     64589     64588     64590     64589     64590
     64591     64592     64591     64593     64592     64593     64594     64595
     64594     64596     64595     64596     64597     64598     64597     64599
     64598     64599     64600     64601     64600     64602     64601     64602
     64603     64604     64603     64605     64604     64605     64606     64607
     64606     64608     64607     64608     64609     64610     64609     64611
     64610     64611     64612     64613     64612     64614     64613     64614
     64615     64616     64615     64617     64616     64617     64618     64619
     64618     64620     64619     64620     64621     64622     64621     64623
     64622     64623     64624     64625     64624     64626     64625     64626
     64627     64628     64627     64629     64628     64629     64630     64631
     64630     64632     64631     64632     64633     64634     64633     64635
     64634     64635     64636     64637     64636     64638     64637     64638
     64639     64640     64639     64641     64640     64641     64642     64643
     64642     64644     64643     64644     64645     64646     64645     64647
     64646     64647     64648     64649     64648     64650     64649     64650
     64651     64652     64651     64653     64652     64653     64654     64655
     64654     64656     64655     64656     64657     64658     64657     64659
     64658     64659     64660     64661     64660     64662     64661     64662
     64663     64664     64663     64665     64664     64665     64666     64667
     64666     64668     64667     64668     64669     64670     64669     64671
     64670     64671     64672     64673     64672     64674     64673     64674
     64675     64676     64675     64677     64676     64677     64678     64679
     64678     64680     64679     64680     64681     64682     64681     64683
     64682     64683     64684     64685     64684     64686     64685     64686
     64687     64688     64687     64689     64688     64689     64690     64691
     64690     64692     64691     64692     64693     64694     64693     64695
     64694     64695     64696     64697     64696     64698     64697     64698
     64699     64700     64699     64701     64700     64701     64702     64703
     64702     64704     64703     64704     64705     64706     64705     64707
     64706     64707     64708     64709     64708     64710     64709     64710
     64711     64712     64711     64713     64712     64713     64714     64715
     64714     64716     64715     64716     64717     64718     64717     64719
     64718     64719     64720     64721     64720     64722     64721     64722
     64723     64724     64723     64725     64724     64725     64726     64727
     64726     64728     64727     64728     64729     64730     64729     64731
     64730     64731     64732     64733     64732     64734     64733     64734
     64735     64736     64735     64737     64736     64737     64738     64739
     64738     64740     64739     64740     64741     64742     64741     64743
     64742     64743     64744     64745     64744     64746     64745     64746
     64747     64748     64747     64749     64748     64749     64750     64751
     64750     64752     64751     64752     64753     64754     64753     64755
     64754     64755     64756     64757     64756     64758     64757     64758
     64759     64760     64759     64761     64760     64761     64762     64763
     64762     64764     64763     64764     64765     64766     64765     64767
     64766     64767     64768     64769     64768     64770     64769     64770
     64771     64772     64771     64773     64772     64773     64774     64775
     64774     64776     64775     64776     64777     64778     64777     64779
     64778     64779     64780     64781     64780     64782     64781     64782
     64783     64784     64783     64785     64784     64785     64786     64787
     64786     64788     64787     64788     64789     64790     64789     64791
     64790     64791     64792     64793     64792     64794     64793     64794
     64795     64796     64795     64797     64796     64797     64798     64799
     64798     64800     64799     64800     64801     64802     64801     64803
     64802     64803     64804     64805     64804     64806     64805     64806
     64807     64808     64807     64809     64808     64809     64810     64811
     64810     64812     64811     64812     64813     64814     64813     64815
     64814     64815     64816     64817     64816     64818     64817     64818
     64819     64820     64819     64821     64820     64821     64822     64823
     64822     64824     64823     64824     64825     64826     64825     64827
     64826     64827     64828     64829     64828     64830     64829     64830
     64831     64832     64831     64833     64832     64833     64834     64835
     64834     64836     64835     64836     64837     64838     64837     64839
     64838     64839     64840     64841     64840     64842     64841     64842
     64843     64844     64843     64845     64844     64845     64846     64847
     64846     64848     64847     64848     64849     64850     64849     64851
     64850     64851     64852     64853     64852     64854     64853     64854
     64855     64856     64855     64857     64856     64857     64858     64859
     64858     64860     64859     64860     64861     64862     64861     64863
     64862     64863     64864     64865     64864     64866     64865     64866
     64867     64868     64867     64869     64868     64869     64870     64871
     64870     64872     64871     64872     64873     64874     64873     64875
     64874     64875     64876     64877     64876     64878     64877     64878
     64879     64880     64879     64881     64880     64881     64882     64883
     64882     64884     64883     64884     64885     64886     64885     64887
     64886     64887     64888     64889     64888     64890     64889     64890
     64891     64892     64891     64893     64892     64893     64894     64895
     64894     64896     64895     64896     64897     64898     64897     64899
     64898     64899     64900     64901     64900     64902     64901     64902
     64903     64904     64903     64905     64904     64905     64906     64907
     64906     64908     64907     64908     64909     64910     64909     64911
     64910     64911     64912     64913     64912     64914     64913     64914
     64915     64916     64915     64917     64916     64917     64918     64919
     64918     64920     64919     64920     64921     64922     64921     64923
     64922     64923     64924     64925     64924     64926     64925     64926
     64927     64928     64927     64929     64928     64929     64930     64931
     64930     64932     64931     64932     64933     64934     64933     64935
     64934     64935     64936     64937     64936     64938     64937     64938
     64939     64940     64939     64941     64940     64941     64942     64943
     64942     64944     64943     64944     64945     64946     64945     64947
     64946     64947     64948     64949     64948     64950     64949     64950
     64951     64952     64951     64953     64952     64953     64954     64955
     64954     64956     64955     64956     64957     64958     64957     64959
     64958     64959     64960     64961     64960     64962     64961     64962
     64963     64964     64963     64965     64964     64965     64966     64967
     64966     64968     64967     64968     64969     64970     64969     64971
     64970     64971     64972     64973     64972     64974     64973     64974
     64975     64976     64975     64977     64976     64977     64978     64979
     64978     64980     64979     64980     64981     64982     64981     64983
     64982     64983     64984     64985     64984     64986     64985     64986
     64987     64988     64987     64989     64988     64989     64990     64991
     64990     64992     64991     64992     64993     64994     64993     64995
     64994     64995     64996     64997     64996     64998     64997     64998
     64999     65000     64999     65001     65000     65001     65002     65003
     65002     65004     65003     65004     65005     65006     65005     65007
     65006     65007     65008     65009     65008     65010     65009     65010
     65011     65012     65011     65013     65012     65013     65014     65015
     65014     65016     65015     65016     65017     65018     65017     65019
     65018     65019     65020     65021     65020     65022     65021     65022
     65023     65024     65023     65025     65024     65025     65026     65027
     65026     65028     65027     65028     65029     65030     65029     65031
     65030     65031     65032     65033     65032     65034     65033     65034
     65035     65036     65035     65037     65036     65037     65038     65039
     65038     65040     65039     65040     65041     65042     65041     65043
     65042     65043     65044     65045     65044     65046     65045     65046
     65047     65048     65047     65049     65048     65049     65050     65051
     65050     65052     65051     65052     65053     65054     65053     65055
     65054     65055     65056     65057     65056     65058     65057     65058
     65059     65060     65059     65061     65060     65061     65062     65063
     65062     65064     65063     65064     65065     65066     65065     65067
     65066     65067     65068     65069     65068     65070     65069     65070
     65071     65072     65071     65073     65072     65073     65074     65075
     65074     65076     65075     65076     65077     65078     65077     65079
     65078     65079     65080     65081     65080     65082     65081     65082
     65083     65084     65083     65085     65084     65085     65086     65087
     65086     65088     65087     65088     65089     65090     65089     65091
     65090     65091     65092     65093     65092     65094     65093     65094
     65095     65096     65095     65097     65096     65097     65098     65099
     65098     65100     65099     65100     65101     65102     65101     65103
     65102     65103     65104     65105     65104     65106     65105     65106
     65107     65108     65107     65109     65108     65109     65110     65111
     65110     65112     65111     65112     65113     65114     65113     65115
     65114     65115     65116     65117     65116     65118     65117     65118
     65119     65120     65119     65121     65120     65121     65122     65123
     65122     65124     65123     65124     65125     65126     65125     65127
     65126     65127     65128     65129     65128     65130     65129     65130
     65131     65132     65131     65133     65132     65133     65134     65135
     65134     65136     65135     65136     65137     65138     65137     65139
     65138     65139     65140     65141     65140     65142     65141     65142
     65143     65144     65143     65145     65144     65145     65146     65147
     65146     65148     65147     65148     65149     65150     65149     65151
     65150     65151     65152     65153     65152     65154     65153     65154
     65155     65156     65155     65157     65156     65157     65158     65159
     65158     65160     65159     65160     65161     65162     65161     65163
     65162     65163     65164     65165     65164     65166     65165     65166
     65167     65168     65167     65169     65168     65169     65170     65171
     65170     65172     65171     65172     65173     65174     65173     65175
     65174     65175     65176     65177     65176     65178     65177     65178
     65179     65180     65179     65181     65180     65181     65182     65183
     65182     65184     65183     65184     65185     65186     65185     65187
     65186     65187     65188     65189     65188     65190     65189     65190
     65191     65192     65191     65193     65192     65193     65194     65195
     65194     65196     65195     65196     65197     65198     65197     65199
     65198     65199     65200     65201     65200     65202     65201     65202
     65203     65204     65203     65205     65204     65205     65206     65207
     65206     65208     65207     65208     65209     65210     65209     65211
     65210     65211     65212     65213     65212     65214     65213     65214
     65215     65216     65215     65217     65216     65217     65218     65219
     65218     65220     65219     65220     65221     65222     65221     65223
     65222     65223     65224     65225     65224     65226     65225     65226
     65227     65228     65227     65229     65228     65229     65230     65231
     65230     65232     65231     65232     65233     65234     65233     65235
     65234     65235     65236     65237     65236     65238     65237     65238
     65239     65240     65239     65241     65240     65241     65242     65243
     65242     65244     65243     65244     65245     65246     65245     65247
     65246     65247     65248     65249     65248     65250     65249     65250
     65251     65252     65251     65253     65252     65253     65254     65255
     65254     65256     65255     65256     65257     65258     65257     65259
     65258     65259     65260     65261     65260     65262     65261     65262
     65263     65264     65263     65265     65264     65265     65266     65267
     65266     65268     65267     65268     65269     65270     65269     65271
     65270     65271     65272     65273     65272     65274     65273     65274
     65275     65276     65275     65277     65276     65277     65278     65279
     65278     65280     65279     65280     65281     65282     65281     65283
     65282     65283     65284     65285     65284     65286     65285     65286
     65287     65288     65287     65289     65288     65289     65290     65291
     65290     65292     65291     65292     65293     65294     65293     65295
     65294     65295     65296     65297     65296     65298     65297     65298
     65299     65300     65299     65301     65300     65301     65302     65303
     65302     65304     65303     65304     65305     65306     65305     65307
     65306     65307     65308     65309     65308     65310     65309     65310
     65311     65312     65311     65313     65312     65313     65314     65315
     65314     65316     65315     65316     65317     65318     65317     65319
     65318     65319     65320     65321     65320     65322     65321     65322
     65323     65324     65323     65325     65324     65325     65326     65327
     65326     65328     65327     65328     65329     65330     65329     65331
     65330     65331     65332     65333     65332     65334     65333     65334
     65335     65336     65335     65337     65336     65337     65338     65339
     65338     65340     65339     65340     65341     65342     65341     65343
     65342     65343     65344     65345     65344     65346     65345     65346
     65347     65348     65347     65349     65348     65349     65350     65351
     65350     65352     65351     65352     65353     65354     65353     65355
     65354     65355     65356     65357     65356     65358     65357     65358
     65359     65360     65359     65361     65360     65361     65362     65363
     65362     65364     65363     65364     65365     65366     65365     65367
     65366     65367     65368     65369     65368     65370     65369     65370
     65371     65372     65371     65373     65372     65373     65374     65375
     65374     65376     65375     65376     65377     65378     65377     65379
     65378     65379     65380     65381     65380     65382     65381     65382
     65383     65384     65383     65385     65384     65385     65386     65387
     65386     65388     65387     65388     65389     65390     65389     65391
     65390     65391     65392     65393     65392     65394     65393     65394
     65395     65396     65395     65397     65396     65397     65398     65399
     65398     65400     65399     65400     65401     65402     65401     65403
     65402     65403     65404     65405     65404     65406     65405     65406
     65407     65408     65407     65409     65408     65409     65410     65411
     65410     65412     65411     65412     65413     65414     65413     65415
     65414     65415     65416     65417     65416     65418     65417     65418
     65419     65420     65419     65421     65420     65421     65422     65423
     65422     65424     65423     65424     65425     65426     65425     65427
     65426     65427     65428     65429     65428     65430     65429     65430
     65431     65432     65431     65433     65432     65433     65434     65435
     65434     65436     65435     65436     65437     65438     65437     65439
     65438     65439     65440     65441     65440     65442     65441     65442
     65443     65444     65443     65445     65444     65445     65446     65447
     65446     65448     65447     65448     65449     65450     65449     65451
     65450     65451     65452     65453     65452     65454     65453     65454
     65455     65456     65455     65457     65456     65457     65458     65459
     65458     65460     65459     65460     65461     65462     65461     65463
     65462     65463     65464     65465     65464     65466     65465     65466
     65467     65468     65467     65469     65468     65469     65470     65471
     65470     65472     65471     65472     65473     65474     65473     65475
     65474     65475     65476     65477     65476     65478     65477     65478
     65479     65480     65479     65481     65480     65481     65482     65483
     65482     65484     65483     65484     65485     65486     65485     65487
     65486     65487     65488     65489     65488     65490     65489     65490
     65491     65492     65491     65493     65492     65493     65494     65495
     65494     65496     65495     65496     65497     65498     65497     65499
     65498     65499     65500     65501     65500     65502     65501     65502
     65503     65504     65503     65505     65504     65505     65506     65507
     65506     65508     65507     65508     65509     65510     65509     65511
     65510     65511     65512     65513     65512     65514     65513     65514
     65515     65516     65515     65517     65516     65517     65518     65519
     65518     65520     65519     65520     65521     65522     65521     65523
     65522     65523     65524     65525     65524     65526     65525     65526
     65527     65528     65527     65529     65528     65529     65530     65531
     65530     65532     65531     65532     65533     65534     65533     65535
     65534     65535     65536     65537     65536     65538     65537     65538
     65539     65540     65539     65541     65540     65541     65542     65543
     65542     65544     65543     65544     65545     65546     65545     65547
     65546     65547     65548     65549     65548     65550     65549     65550
     65551     65552     65551     65553     65552     65553     65554     65555
     65554     65556     65555     65556     65557     65558     65557     65559
     65558     65559     65560     65561     65560     65562     65561     65562
     65563     65564     65563     65565     65564     65565     65566     65567
     65566     65568     65567     65568     65569     65570     65569     65571
     65570     65571     65572     65573     65572     65574     65573     65574
     65575     65576     65575     65577     65576     65577     65578     65579
     65578     65580     65579     65580     65581     65582     65581     65583
     65582     65583     65584     65585     65584     65586     65585     65586
     65587     65588     65587     65589     65588     65589     65590     65591
     65590     65592     65591     65592     65593     65594     65593     65595
     65594     65595     65596     65597     65596     65598     65597     65598
     65599     65600     65599     65601     65600     65601     65602     65603
     65602     65604     65603     65604     65605     65606     65605     65607
     65606     65607     65608     65609     65608     65610     65609     65610
     65611     65612     65611     65613     65612     65613     65614     65615
     65614     65616     65615     65616     65617     65618     65617     65619
     65618     65619     65620     65621     65620     65622     65621     65622
     65623     65624     65623     65625     65624     65625     65626     65627
     65626     65628     65627     65628     65629     65630     65629     65631
     65630     65631     65632     65633     65632     65634     65633     65634
     65635     65636     65635     65637     65636     65637     65638     65639
     65638     65640     65639     65640     65641     65642     65641     65643
     65642     65643     65644     65645     65644     65646     65645     65646
     65647     65648     65647     65649     65648     65649     65650     65651
     65650     65652     65651     65652     65653     65654     65653     65655
     65654     65655     65656     65657     65656     65658     65657     65658
     65659     65660     65659     65661     65660     65661     65662     65663
     65662     65664     65663     65664     65665     65666     65665     65667
     65666     65667     65668     65669     65668     65670     65669     65670
     65671     65672     65671     65673     65672     65673     65674     65675
     65674     65676     65675     65676     65677     65678     65677     65679
     65678     65679     65680     65681     65680     65682     65681     65682
     65683     65684     65683     65685     65684     65685     65686     65687
     65686     65688     65687     65688     65689     65690     65689     65691
     65690     65691     65692     65693     65692     65694     65693     65694
     65695     65696     65695     65697     65696     65697     65698     65699
     65698     65700     65699     65700     65701     65702     65701     65703
     65702     65703     65704     65705     65704     65706     65705     65706
     65707     65708     65707     65709     65708     65709     65710     65711
     65710     65712     65711     65712     65713     65714     65713     65715
     65714     65715     65716     65717     65716     65718     65717     65718
     65719     65720     65719     65721     65720     65721     65722     65723
     65722     65724     65723     65724     65725     65726     65725     65727
     65726     65727     65728     65729     65728     65730     65729     65730
     65731     65732     65731     65733     65732     65733     65734     65735
     65734     65736     65735     65736     65737     65738     65737     65739
     65738     65739     65740     65741     65740     65742     65741     65742
     65743     65744     65743     65745     65744     65745     65746     65747
     65746     65748     65747     65748     65749     65750     65749     65751
     65750     65751     65752     65753     65752     65754     65753     65754
     65755     65756     65755     65757     65756     65757     65758     65759
     65758     65760     65759     65760     65761     65762     65761     65763
     65762     65763     65764     65765     65764     65766     65765     65766
     65767     65768     65767     65769     65768     65769     65770     65771
     65770     65772     65771     65772     65773     65774     65773     65775
     65774     65775     65776     65777     65776     65778     65777     65778
     65779     65780     65779     65781     65780     65781     65782     65783
     65782     65784     65783     65784     65785     65786     65785     65787
     65786     65787     65788     65789     65788     65790     65789     65790
     65791     65792     65791     65793     65792     65793     65794     65795
     65794     65796     65795     65796     65797     65798     65797     65799
     65798     65799     65800     65801     65800     65802     65801     65802
     65803     65804     65803     65805     65804     65805     65806     65807
     65806     65808     65807     65808     65809     65810     65809     65811
     65810     65811     65812     65813     65812     65814     65813     65814
     65815     65816     65815     65817     65816     65817     65818     65819
     65818     65820     65819     65820     65821     65822     65821     65823
     65822     65823     65824     65825     65824     65826     65825     65826
     65827     65828     65827     65829     65828     65829     65830     65831
     65830     65832     65831     65832     65833     65834     65833     65835
     65834     65835     65836     65837     65836     65838     65837     65838
     65839     65840     65839     65841     65840     65841     65842     65843
     65842     65844     65843     65844     65845     65846     65845     65847
     65846     65847     65848     65849     65848     65850     65849     65850
     65851     65852     65851     65853     65852     65853     65854     65855
     65854     65856     65855     65856     65857     65858     65857     65859
     65858     65859     65860     65861     65860     65862     65861     65862
     65863     65864     65863     65865     65864     65865     65866     65867
     65866     65868     65867     65868     65869     65870     65869     65871
     65870     65871     65872     65873     65872     65874     65873     65874
     65875     65876     65875     65877     65876     65877     65878     65879
     65878     65880     65879     65880     65881     65882     65881     65883
     65882     65883     65884     65885     65884     65886     65885     65886
     65887     65888     65887     65889     65888     65889     65890     65891
     65890     65892     65891     65892     65893     65894     65893     65895
     65894     65895     65896     65897     65896     65898     65897     65898
     65899     65900     65899     65901     65900     65901     65902     65903
     65902     65904     65903     65904     65905     65906     65905     65907
     65906     65907     65908     65909     65908     65910     65909     65910
     65911     65912     65911     65913     65912     65913     65914     65915
     65914     65916     65915     65916     65917     65918     65917     65919
     65918     65919     65920     65921     65920     65922     65921     65922
     65923     65924     65923     65925     65924     65925     65926     65927
     65926     65928     65927     65928     65929     65930     65929     65931
     65930     65931     65932     65933     65932     65934     65933     65934
     65935     65936     65935     65937     65936     65937     65938     65939
     65938     65940     65939     65940     65941     65942     65941     65943
     65942     65943     65944     65945     65944     65946     65945     65946
     65947     65948     65947     65949     65948     65949     65950     65951
     65950     65952     65951     65952     65953     65954     65953     65955
     65954     65955     65956     65957     65956     65958     65957     65958
     65959     65960     65959     65961     65960     65961     65962     65963
     65962     65964     65963     65964     65965     65966     65965     65967
     65966     65967     65968     65969     65968     65970     65969     65970
     65971     65972     65971     65973     65972     65973     65974     65975
     65974     65976     65975     65976     65977     65978     65977     65979
     65978     65979     65980     65981     65980     65982     65981     65982
     65983     65984     65983     65985     65984     65985     65986     65987
     65986     65988     65987     65988     65989     65990     65989     65991
     65990     65991     65992     65993     65992     65994     65993     65994
     65995     65996     65995     65997     65996     65997     65998     65999
     65998     66000     65999     66000     66001     66002     66001     66003
     66002     66003     66004     66005     66004     66006     66005     66006
     66007     66008     66007     66009     66008     66009     66010     66011
     66010     66012     66011     66012     66013     66014     66013     66015
     66014     66015     66016     66017     66016     66018     66017     66018
     66019     66020     66019     66021     66020     66021     66022     66023
     66022     66024     66023     66024     66025     66026     66025     66027
     66026     66027     66028     66029     66028     66030     66029     66030
     66031     66032     66031     66033     66032     66033     66034     66035
     66034     66036     66035     66036     66037     66038     66037     66039
     66038     66039     66040     66041     66040     66042     66041     66042
     66043     66044     66043     66045     66044     66045     66046     66047
     66046     66048     66047     66048     66049     66050     66049     66051
     66050     66051     66052     66053     66052     66054     66053     66054
     66055     66056     66055     66057     66056     66057     66058     66059
     66058     66060     66059     66060     66061     66062     66061     66063
     66062     66063     66064     66065     66064     66066     66065     66066
     66067     66068     66067     66069     66068     66069     66070     66071
     66070     66072     66071     66072     66073     66074     66073     66075
     66074     66075     66076     66077     66076     66078     66077     66078
     66079     66080     66079     66081     66080     66081     66082     66083
     66082     66084     66083     66084     66085     66086     66085     66087
     66086     66087     66088     66089     66088     66090     66089     66090
     66091     66092     66091     66093     66092     66093     66094     66095
     66094     66096     66095     66096     66097     66098     66097     66099
     66098     66099     66100     66101     66100     66102     66101     66102
     66103     66104     66103     66105     66104     66105     66106     66107
     66106     66108     66107     66108     66109     66110     66109     66111
     66110     66111     66112     66113     66112     66114     66113     66114
     66115     66116     66115     66117     66116     66117     66118     66119
     66118     66120     66119     66120     66121     66122     66121     66123
     66122     66123     66124     66125     66124     66126     66125     66126
     66127     66128     66127     66129     66128     66129     66130     66131
     66130     66132     66131     66132     66133     66134     66133     66135
     66134     66135     66136     66137     66136     66138     66137     66138
     66139     66140     66139     66141     66140     66141     66142     66143
     66142     66144     66143     66144     66145     66146     66145     66147
     66146     66147     66148     66149     66148     66150     66149     66150
     66151     66152     66151     66153     66152     66153     66154     66155
     66154     66156     66155     66156     66157     66158     66157     66159
     66158     66159     66160     66161     66160     66162     66161     66162
     66163     66164     66163     66165     66164     66165     66166     66167
     66166     66168     66167     66168     66169     66170     66169     66171
     66170     66171     66172     66173     66172     66174     66173     66174
     66175     66176     66175     66177     66176     66177     66178     66179
     66178     66180     66179     66180     66181     66182     66181     66183
     66182     66183     66184     66185     66184     66186     66185     66186
     66187     66188     66187     66189     66188     66189     66190     66191
     66190     66192     66191     66192     66193     66194     66193     66195
     66194     66195     66196     66197     66196     66198     66197     66198
     66199     66200     66199     66201     66200     66201     66202     66203
     66202     66204     66203     66204     66205     66206     66205     66207
     66206     66207     66208     66209     66208     66210     66209     66210
     66211     66212     66211     66213     66212     66213     66214     66215
     66214     66216     66215     66216     66217     66218     66217     66219
     66218     66219     66220     66221     66220     66222     66221     66222
     66223     66224     66223     66225     66224     66225     66226     66227
     66226     66228     66227     66228     66229     66230     66229     66231
     66230     66231     66232     66233     66232     66234     66233     66234
     66235     66236     66235     66237     66236     66237     66238     66239
     66238     66240     66239     66240     66241     66242     66241     66243
     66242     66243     66244     66245     66244     66246     66245     66246
     66247     66248     66247     66249     66248     66249     66250     66251
     66250     66252     66251     66252     66253     66254     66253     66255
     66254     66255     66256     66257     66256     66258     66257     66258
     66259     66260     66259     66261     66260     66261     66262     66263
     66262     66264     66263     66264     66265     66266     66265     66267
     66266     66267     66268     66269     66268     66270     66269     66270
     66271     66272     66271     66273     66272     66273     66274     66275
     66274     66276     66275     66276     66277     66278     66277     66279
     66278     66279     66280     66281     66280     66282     66281     66282
     66283     66284     66283     66285     66284     66285     66286     66287
     66286     66288     66287     66288     66289     66290     66289     66291
     66290     66291     66292     66293     66292     66294     66293     66294
     66295     66296     66295     66297     66296     66297     66298     66299
     66298     66300     66299     66300     66301     66302     66301     66303
     66302     66303     66304     66305     66304     66306     66305     66306
     66307     66308     66307     66309     66308     66309     66310     66311
     66310     66312     66311     66312     66313     66314     66313     66315
     66314     66315     66316     66317     66316     66318     66317     66318
     66319     66320     66319     66321     66320     66321     66322     66323
     66322     66324     66323     66324     66325     66326     66325     66327
     66326     66327     66328     66329     66328     66330     66329     66330
     66331     66332     66331     66333     66332     66333     66334     66335
     66334     66336     66335     66336     66337     66338     66337     66339
     66338     66339     66340     66341     66340     66342     66341     66342
     66343     66344     66343     66345     66344     66345     66346     66347
     66346     66348     66347     66348     66349     66350     66349     66351
     66350     66351     66352     66353     66352     66354     66353     66354
     66355     66356     66355     66357     66356     66357     66358     66359
     66358     66360     66359     66360     66361     66362     66361     66363
     66362     66363     66364     66365     66364     66366     66365     66366
     66367     66368     66367     66369     66368     66369     66370     66371
     66370     66372     66371     66372     66373     66374     66373     66375
     66374     66375     66376     66377     66376     66378     66377     66378
     66379     66380     66379     66381     66380     66381     66382     66383
     66382     66384     66383     66384     66385     66386     66385     66387
     66386     66387     66388     66389     66388     66390     66389     66390
     66391     66392     66391     66393     66392     66393     66394     66395
     66394     66396     66395     66396     66397     66398     66397     66399
     66398     66399     66400     66401     66400     66402     66401     66402
     66403     66404     66403     66405     66404     66405     66406     66407
     66406     66408     66407     66408     66409     66410     66409     66411
     66410     66411     66412     66413     66412     66414     66413     66414
     66415     66416     66415     66417     66416     66417     66418     66419
     66418     66420     66419     66420     66421     66422     66421     66423
     66422     66423     66424     66425     66424     66426     66425     66426
     66427     66428     66427     66429     66428     66429     66430     66431
     66430     66432     66431     66432     66433     66434     66433     66435
     66434     66435     66436     66437     66436     66438     66437     66438
     66439     66440     66439     66441     66440     66441     66442     66443
     66442     66444     66443     66444     66445     66446     66445     66447
     66446     66447     66448     66449     66448     66450     66449     66450
     66451     66452     66451     66453     66452     66453     66454     66455
     66454     66456     66455     66456     66457     66458     66457     66459
     66458     66459     66460     66461     66460     66462     66461     66462
     66463     66464     66463     66465     66464     66465     66466     66467
     66466     66468     66467     66468     66469     66470     66469     66471
     66470     66471     66472     66473     66472     66474     66473     66474
     66475     66476     66475     66477     66476     66477     66478     66479
     66478     66480     66479     66480     66481     66482     66481     66483
     66482     66483     66484     66485     66484     66486     66485     66486
     66487     66488     66487     66489     66488     66489     66490     66491
     66490     66492     66491     66492     66493     66494     66493     66495
     66494     66495     66496     66497     66496     66498     66497     66498
     66499     66500     66499     66501     66500     66501     66502     66503
     66502     66504     66503     66504     66505     66506     66505     66507
     66506     66507     66508     66509     66508     66510     66509     66510
     66511     66512     66511     66513     66512     66513     66514     66515
     66514     66516     66515     66516     66517     66518     66517     66519
     66518     66519     66520     66521     66520     66522     66521     66522
     66523     66524     66523     66525     66524     66525     66526     66527
     66526     66528     66527     66528     66529     66530     66529     66531
     66530     66531     66532     66533     66532     66534     66533     66534
     66535     66536     66535     66537     66536     66537     66538     66539
     66538     66540     66539     66540     66541     66542     66541     66543
     66542     66543     66544     66545     66544     66546     66545     66546
     66547     66548     66547     66549     66548     66549     66550     66551
     66550     66552     66551     66552     66553     66554     66553     66555
     66554     66555     66556     66557     66556     66558     66557     66558
     66559     66560     66559     66561     66560     66561     66562     66563
     66562     66564     66563     66564     66565     66566     66565     66567
     66566     66567     66568     66569     66568     66570     66569     66570
     66571     66572     66571     66573     66572     66573     66574     66575
     66574     66576     66575     66576     66577     66578     66577     66579
     66578     66579     66580     66581     66580     66582     66581     66582
     66583     66584     66583     66585     66584     66585     66586     66587
     66586     66588     66587     66588     66589     66590     66589     66591
     66590     66591     66592     66593     66592     66594     66593     66594
     66595     66596     66595     66597     66596     66597     66598     66599
     66598     66600     66599     66600     66601     66602     66601     66603
     66602     66603     66604     66605     66604     66606     66605     66606
     66607     66608     66607     66609     66608     66609     66610     66611
     66610     66612     66611     66612     66613     66614     66613     66615
     66614     66615     66616     66617     66616     66618     66617     66618
     66619     66620     66619     66621     66620     66621     66622     66623
     66622     66624     66623     66624     66625     66626     66625     66627
     66626     66627     66628     66629     66628     66630     66629     66630
     66631     66632     66631     66633     66632     66633     66634     66635
     66634     66636     66635     66636     66637     66638     66637     66639
     66638     66639     66640     66641     66640     66642     66641     66642
     66643     66644     66643     66645     66644     66645     66646     66647
     66646     66648     66647     66648     66649     66650     66649     66651
     66650     66651     66652     66653     66652     66654     66653     66654
     66655     66656     66655     66657     66656     66657     66658     66659
     66658     66660     66659     66660     66661     66662     66661     66663
     66662     66663     66664     66665     66664     66666     66665     66666
     66667     66668     66667     66669     66668     66669     66670     66671
     66670     66672     66671     66672     66673     66674     66673     66675
     66674     66675     66676     66677     66676     66678     66677     66678
     66679     66680     66679     66681     66680     66681     66682     66683
     66682     66684     66683     66684     66685     66686     66685     66687
     66686     66687     66688     66689     66688     66690     66689     66690
     66691     66692     66691     66693     66692     66693     66694     66695
     66694     66696     66695     66696     66697     66698     66697     66699
     66698     66699     66700     66701     66700     66702     66701     66702
     66703     66704     66703     66705     66704     66705     66706     66707
     66706     66708     66707     66708     66709     66710     66709     66711
     66710     66711     66712     66713     66712     66714     66713     66714
     66715     66716     66715     66717     66716     66717     66718     66719
     66718     66720     66719     66720     66721     66722     66721     66723
     66722     66723     66724     66725     66724     66726     66725     66726
     66727     66728     66727     66729     66728     66729     66730     66731
     66730     66732     66731     66732     66733     66734     66733     66735
     66734     66735     66736     66737     66736     66738     66737     66738
     66739     66740     66739     66741     66740     66741     66742     66743
     66742     66744     66743     66744     66745     66746     66745     66747
     66746     66747     66748     66749     66748     66750     66749     66750
     66751     66752     66751     66753     66752     66753     66754     66755
     66754     66756     66755     66756     66757     66758     66757     66759
     66758     66759     66760     66761     66760     66762     66761     66762
     66763     66764     66763     66765     66764     66765     66766     66767
     66766     66768     66767     66768     66769     66770     66769     66771
     66770     66771     66772     66773     66772     66774     66773     66774
     66775     66776     66775     66777     66776     66777     66778     66779
     66778     66780     66779     66780     66781     66782     66781     66783
     66782     66783     66784     66785     66784     66786     66785     66786
     66787     66788     66787     66789     66788     66789     66790     66791
     66790     66792     66791     66792     66793     66794     66793     66795
     66794     66795     66796     66797     66796     66798     66797     66798
     66799     66800     66799     66801     66800     66801     66802     66803
     66802     66804     66803     66804     66805     66806     66805     66807
     66806     66807     66808     66809     66808     66810     66809     66810
     66811     66812     66811     66813     66812     66813     66814     66815
     66814     66816     66815     66816     66817     66818     66817     66819
     66818     66819     66820     66821     66820     66822     66821     66822
     66823     66824     66823     66825     66824     66825     66826     66827
     66826     66828     66827     66828     66829     66830     66829     66831
     66830     66831     66832     66833     66832     66834     66833     66834
     66835     66836     66835     66837     66836     66837     66838     66839
     66838     66840     66839     66840     66841     66842     66841     66843
     66842     66843     66844     66845     66844     66846     66845     66846
     66847     66848     66847     66849     66848     66849     66850     66851
     66850     66852     66851     66852     66853     66854     66853     66855
     66854     66855     66856     66857     66856     66858     66857     66858
     66859     66860     66859     66861     66860     66861     66862     66863
     66862     66864     66863     66864     66865     66866     66865     66867
     66866     66867     66868     66869     66868     66870     66869     66870
     66871     66872     66871     66873     66872     66873     66874     66875
     66874     66876     66875     66876     66877     66878     66877     66879
     66878     66879     66880     66881     66880     66882     66881     66882
     66883     66884     66883     66885     66884     66885     66886     66887
     66886     66888     66887     66888     66889     66890     66889     66891
     66890     66891     66892     66893     66892     66894     66893     66894
     66895     66896     66895     66897     66896     66897     66898     66899
     66898     66900     66899     66900     66901     66902     66901     66903
     66902     66903     66904     66905     66904     66906     66905     66906
     66907     66908     66907     66909     66908     66909     66910     66911
     66910     66912     66911     66912     66913     66914     66913     66915
     66914     66915     66916     66917     66916     66918     66917     66918
     66919     66920     66919     66921     66920     66921     66922     66923
     66922     66924     66923     66924     66925     66926     66925     66927
     66926     66927     66928     66929     66928     66930     66929     66930
     66931     66932     66931     66933     66932     66933     66934     66935
     66934     66936     66935     66936     66937     66938     66937     66939
     66938     66939     66940     66941     66940     66942     66941     66942
     66943     66944     66943     66945     66944     66945     66946     66947
     66946     66948     66947     66948     66949     66950     66949     66951
     66950     66951     66952     66953     66952     66954     66953     66954
     66955     66956     66955     66957     66956     66957     66958     66959
     66958     66960     66959     66960     66961     66962     66961     66963
     66962     66963     66964     66965     66964     66966     66965     66966
     66967     66968     66967     66969     66968     66969     66970     66971
     66970     66972     66971     66972     66973     66974     66973     66975
     66974     66975     66976     66977     66976     66978     66977     66978
     66979     66980     66979     66981     66980     66981     66982     66983
     66982     66984     66983     66984     66985     66986     66985     66987
     66986     66987     66988     66989     66988     66990     66989     66990
     66991     66992     66991     66993     66992     66993     66994     66995
     66994     66996     66995     66996     66997     66998     66997     66999
     66998     66999     67000     67001     67000     67002     67001     67002
     67003     67004     67003     67005     67004     67005     67006     67007
     67006     67008     67007     67008     67009     67010     67009     67011
     67010     67011     67012     67013     67012     67014     67013     67014
     67015     67016     67015     67017     67016     67017     67018     67019
     67018     67020     67019     67020     67021     67022     67021     67023
     67022     67023     67024     67025     67024     67026     67025     67026
     67027     67028     67027     67029     67028     67029     67030     67031
     67030     67032     67031     67032     67033     67034     67033     67035
     67034     67035     67036     67037     67036     67038     67037     67038
     67039     67040     67039     67041     67040     67041     67042     67043
     67042     67044     67043     67044     67045     67046     67045     67047
     67046     67047     67048     67049     67048     67050     67049     67050
     67051     67052     67051     67053     67052     67053     67054     67055
     67054     67056     67055     67056     67057     67058     67057     67059
     67058     67059     67060     67061     67060     67062     67061     67062
     67063     67064     67063     67065     67064     67065     67066     67067
     67066     67068     67067     67068     67069     67070     67069     67071
     67070     67071     67072     67073     67072     67074     67073     67074
     67075     67076     67075     67077     67076     67077     67078     67079
     67078     67080     67079     67080     67081     67082     67081     67083
     67082     67083     67084     67085     67084     67086     67085     67086
     67087     67088     67087     67089     67088     67089     67090     67091
     67090     67092     67091     67092     67093     67094     67093     67095
     67094     67095     67096     67097     67096     67098     67097     67098
     67099     67100     67099     67101     67100     67101     67102     67103
     67102     67104     67103     67104     67105     67106     67105     67107
     67106     67107     67108     67109     67108     67110     67109     67110
     67111     67112     67111     67113     67112     67113     67114     67115
     67114     67116     67115     67116     67117     67118     67117     67119
     67118     67119     67120     67121     67120     67122     67121     67122
     67123     67124     67123     67125     67124     67125     67126     67127
     67126     67128     67127     67128     67129     67130     67129     67131
     67130     67131     67132     67133     67132     67134     67133     67134
     67135     67136     67135     67137     67136     67137     67138     67139
     67138     67140     67139     67140     67141     67142     67141     67143
     67142     67143     67144     67145     67144     67146     67145     67146
     67147     67148     67147     67149     67148     67149     67150     67151
     67150     67152     67151     67152     67153     67154     67153     67155
     67154     67155     67156     67157     67156     67158     67157     67158
     67159     67160     67159     67161     67160     67161     67162     67163
     67162     67164     67163     67164     67165     67166     67165     67167
     67166     67167     67168     67169     67168     67170     67169     67170
     67171     67172     67171     67173     67172     67173     67174     67175
     67174     67176     67175     67176     67177     67178     67177     67179
     67178     67179     67180     67181     67180     67182     67181     67182
     67183     67184     67183     67185     67184     67185     67186     67187
     67186     67188     67187     67188     67189     67190     67189     67191
     67190     67191     67192     67193     67192     67194     67193     67194
     67195     67196     67195     67197     67196     67197     67198     67199
     67198     67200     67199     67200     67201     67202     67201     67203
     67202     67203     67204     67205     67204     67206     67205     67206
     67207     67208     67207     67209     67208     67209     67210     67211
     67210     67212     67211     67212     67213     67214     67213     67215
     67214     67215     67216     67217     67216     67218     67217     67218
     67219     67220     67219     67221     67220     67221     67222     67223
     67222     67224     67223     67224     67225     67226     67225     67227
     67226     67227     67228     67229     67228     67230     67229     67230
     67231     67232     67231     67233     67232     67233     67234     67235
     67234     67236     67235     67236     67237     67238     67237     67239
     67238     67239     67240     67241     67240     67242     67241     67242
     67243     67244     67243     67245     67244     67245     67246     67247
     67246     67248     67247     67248     67249     67250     67249     67251
     67250     67251     67252     67253     67252     67254     67253     67254
     67255     67256     67255     67257     67256     67257     67258     67259
     67258     67260     67259     67260     67261     67262     67261     67263
     67262     67263     67264     67265     67264     67266     67265     67266
     67267     67268     67267     67269     67268     67269     67270     67271
     67270     67272     67271     67272     67273     67274     67273     67275
     67274     67275     67276     67277     67276     67278     67277     67278
     67279     67280     67279     67281     67280     67281     67282     67283
     67282     67284     67283     67284     67285     67286     67285     67287
     67286     67287     67288     67289     67288     67290     67289     67290
     67291     67292     67291     67293     67292     67293     67294     67295
     67294     67296     67295     67296     67297     67298     67297     67299
     67298     67299     67300     67301     67300     67302     67301     67302
     67303     67304     67303     67305     67304     67305     67306     67307
     67306     67308     67307     67308     67309     67310     67309     67311
     67310     67311     67312     67313     67312     67314     67313     67314
     67315     67316     67315     67317     67316     67317     67318     67319
     67318     67320     67319     67320     67321     67322     67321     67323
     67322     67323     67324     67325     67324     67326     67325     67326
     67327     67328     67327     67329     67328     67329     67330     67331
     67330     67332     67331     67332     67333     67334     67333     67335
     67334     67335     67336     67337     67336     67338     67337     67338
     67339     67340     67339     67341     67340     67341     67342     67343
     67342     67344     67343     67344     67345     67346     67345     67347
     67346     67347     67348     67349     67348     67350     67349     67350
     67351     67352     67351     67353     67352     67353     67354     67355
     67354     67356     67355     67356     67357     67358     67357     67359
     67358     67359     67360     67361     67360     67362     67361     67362
     67363     67364     67363     67365     67364     67365     67366     67367
     67366     67368     67367     67368     67369     67370     67369     67371
     67370     67371     67372     67373     67372     67374     67373     67374
     67375     67376     67375     67377     67376     67377     67378     67379
     67378     67380     67379     67380     67381     67382     67381     67383
     67382     67383     67384     67385     67384     67386     67385     67386
     67387     67388     67387     67389     67388     67389     67390     67391
     67390     67392     67391     67392     67393     67394     67393     67395
     67394     67395     67396     67397     67396     67398     67397     67398
     67399     67400     67399     67401     67400     67401     67402     67403
     67402     67404     67403     67404     67405     67406     67405     67407
     67406     67407     67408     67409     67408     67410     67409     67410
     67411     67412     67411     67413     67412     67413     67414     67415
     67414     67416     67415     67416     67417     67418     67417     67419
     67418     67419     67420     67421     67420     67422     67421     67422
     67423     67424     67423     67425     67424     67425     67426     67427
     67426     67428     67427     67428     67429     67430     67429     67431
     67430     67431     67432     67433     67432     67434     67433     67434
     67435     67436     67435     67437     67436     67437     67438     67439
     67438     67440     67439     67440     67441     67442     67441     67443
     67442     67443     67444     67445     67444     67446     67445     67446
     67447     67448     67447     67449     67448     67449     67450     67451
     67450     67452     67451     67452     67453     67454     67453     67455
     67454     67455     67456     67457     67456     67458     67457     67458
     67459     67460     67459     67461     67460     67461     67462     67463
     67462     67464     67463     67464     67465     67466     67465     67467
     67466     67467     67468     67469     67468     67470     67469     67470
     67471     67472     67471     67473     67472     67473     67474     67475
     67474     67476     67475     67476     67477     67478     67477     67479
     67478     67479     67480     67481     67480     67482     67481     67482
     67483     67484     67483     67485     67484     67485     67486     67487
     67486     67488     67487     67488     67489     67490     67489     67491
     67490     67491     67492     67493     67492     67494     67493     67494
     67495     67496     67495     67497     67496     67497     67498     67499
     67498     67500     67499     67500     67501     67502     67501     67503
     67502     67503     67504     67505     67504     67506     67505     67506
     67507     67508     67507     67509     67508     67509     67510     67511
     67510     67512     67511     67512     67513     67514     67513     67515
     67514     67515     67516     67517     67516     67518     67517     67518
     67519     67520     67519     67521     67520     67521     67522     67523
     67522     67524     67523     67524     67525     67526     67525     67527
     67526     67527     67528     67529     67528     67530     67529     67530
     67531     67532     67531     67533     67532     67533     67534     67535
     67534     67536     67535     67536     67537     67538     67537     67539
     67538     67539     67540     67541     67540     67542     67541     67542
     67543     67544     67543     67545     67544     67545     67546     67547
     67546     67548     67547     67548     67549     67550     67549     67551
     67550     67551     67552     67553     67552     67554     67553     67554
     67555     67556     67555     67557     67556     67557     67558     67559
     67558     67560     67559     67560     67561     67562     67561     67563
     67562     67563     67564     67565     67564     67566     67565     67566
     67567     67568     67567     67569     67568     67569     67570     67571
     67570     67572     67571     67572     67573     67574     67573     67575
     67574     67575     67576     67577     67576     67578     67577     67578
     67579     67580     67579     67581     67580     67581     67582     67583
     67582     67584     67583     67584     67585     67586     67585     67587
     67586     67587     67588     67589     67588     67590     67589     67590
     67591     67592     67591     67593     67592     67593     67594     67595
     67594     67596     67595     67596     67597     67598     67597     67599
     67598     67599     67600     67601     67600     67602     67601     67602
     67603     67604     67603     67605     67604     67605     67606     67607
     67606     67608     67607     67608     67609     67610     67609     67611
     67610     67611     67612     67613     67612     67614     67613     67614
     67615     67616     67615     67617     67616     67617     67618     67619
     67618     67620     67619     67620     67621     67622     67621     67623
     67622     67623     67624     67625     67624     67626     67625     67626
     67627     67628     67627     67629     67628     67629     67630     67631
     67630     67632     67631     67632     67633     67634     67633     67635
     67634     67635     67636     67637     67636     67638     67637     67638
     67639     67640     67639     67641     67640     67641     67642     67643
     67642     67644     67643     67644     67645     67646     67645     67647
     67646     67647     67648     67649     67648     67650     67649     67650
     67651     67652     67651     67653     67652     67653     67654     67655
     67654     67656     67655     67656     67657     67658     67657     67659
     67658     67659     67660     67661     67660     67662     67661     67662
     67663     67664     67663     67665     67664     67665     67666     67667
     67666     67668     67667     67668     67669     67670     67669     67671
     67670     67671     67672     67673     67672     67674     67673     67674
     67675     67676     67675     67677     67676     67677     67678     67679
     67678     67680     67679     67680     67681     67682     67681     67683
     67682     67683     67684     67685     67684     67686     67685     67686
     67687     67688     67687     67689     67688     67689     67690     67691
     67690     67692     67691     67692     67693     67694     67693     67695
     67694     67695     67696     67697     67696     67698     67697     67698
     67699     67700     67699     67701     67700     67701     67702     67703
     67702     67704     67703     67704     67705     67706     67705     67707
     67706     67707     67708     67709     67708     67710     67709     67710
     67711     67712     67711     67713     67712     67713     67714     67715
     67714     67716     67715     67716     67717     67718     67717     67719
     67718     67719     67720     67721     67720     67722     67721     67722
     67723     67724     67723     67725     67724     67725     67726     67727
     67726     67728     67727     67728     67729     67730     67729     67731
     67730     67731     67732     67733     67732     67734     67733     67734
     67735     67736     67735     67737     67736     67737     67738     67739
     67738     67740     67739     67740     67741     67742     67741     67743
     67742     67743     67744     67745     67744     67746     67745     67746
     67747     67748     67747     67749     67748     67749     67750     67751
     67750     67752     67751     67752     67753     67754     67753     67755
     67754     67755     67756     67757     67756     67758     67757     67758
     67759     67760     67759     67761     67760     67761     67762     67763
     67762     67764     67763     67764     67765     67766     67765     67767
     67766     67767     67768     67769     67768     67770     67769     67770
     67771     67772     67771     67773     67772     67773     67774     67775
     67774     67776     67775     67776     67777     67778     67777     67779
     67778     67779     67780     67781     67780     67782     67781     67782
     67783     67784     67783     67785     67784     67785     67786     67787
     67786     67788     67787     67788     67789     67790     67789     67791
     67790     67791     67792     67793     67792     67794     67793     67794
     67795     67796     67795     67797     67796     67797     67798     67799
     67798     67800     67799     67800     67801     67802     67801     67803
     67802     67803     67804     67805     67804     67806     67805     67806
     67807     67808     67807     67809     67808     67809     67810     67811
     67810     67812     67811     67812     67813     67814     67813     67815
     67814     67815     67816     67817     67816     67818     67817     67818
     67819     67820     67819     67821     67820     67821     67822     67823
     67822     67824     67823     67824     67825     67826     67825     67827
     67826     67827     67828     67829     67828     67830     67829     67830
     67831     67832     67831     67833     67832     67833     67834     67835
     67834     67836     67835     67836     67837     67838     67837     67839
     67838     67839     67840     67841     67840     67842     67841     67842
     67843     67844     67843     67845     67844     67845     67846     67847
     67846     67848     67847     67848     67849     67850     67849     67851
     67850     67851     67852     67853     67852     67854     67853     67854
     67855     67856     67855     67857     67856     67857     67858     67859
     67858     67860     67859     67860     67861     67862     67861     67863
     67862     67863     67864     67865     67864     67866     67865     67866
     67867     67868     67867     67869     67868     67869     67870     67871
     67870     67872     67871     67872     67873     67874     67873     67875
     67874     67875     67876     67877     67876     67878     67877     67878
     67879     67880     67879     67881     67880     67881     67882     67883
     67882     67884     67883     67884     67885     67886     67885     67887
     67886     67887     67888     67889     67888     67890     67889     67890
     67891     67892     67891     67893     67892     67893     67894     67895
     67894     67896     67895     67896     67897     67898     67897     67899
     67898     67899     67900     67901     67900     67902     67901     67902
     67903     67904     67903     67905     67904     67905     67906     67907
     67906     67908     67907     67908     67909     67910     67909     67911
     67910     67911     67912     67913     67912     67914     67913     67914
     67915     67916     67915     67917     67916     67917     67918     67919
     67918     67920     67919     67920     67921     67922     67921     67923
     67922     67923     67924     67925     67924     67926     67925     67926
     67927     67928     67927     67929     67928     67929     67930     67931
     67930     67932     67931     67932     67933     67934     67933     67935
     67934     67935     67936     67937     67936     67938     67937     67938
     67939     67940     67939     67941     67940     67941     67942     67943
     67942     67944     67943     67944     67945     67946     67945     67947
     67946     67947     67948     67949     67948     67950     67949     67950
     67951     67952     67951     67953     67952     67953     67954     67955
     67954     67956     67955     67956     67957     67958     67957     67959
     67958     67959     67960     67961     67960     67962     67961     67962
     67963     67964     67963     67965     67964     67965     67966     67967
     67966     67968     67967     67968     67969     67970     67969     67971
     67970     67971     67972     67973     67972     67974     67973     67974
     67975     67976     67975     67977     67976     67977     67978     67979
     67978     67980     67979     67980     67981     67982     67981     67983
     67982     67983     67984     67985     67984     67986     67985     67986
     67987     67988     67987     67989     67988     67989     67990     67991
     67990     67992     67991     67992     67993     67994     67993     67995
     67994     67995     67996     67997     67996     67998     67997     67998
     67999     68000     67999     68001     68000     68001     68002     68003
     68002     68004     68003     68004     68005     68006     68005     68007
     68006     68007     68008     68009     68008     68010     68009     68010
     68011     68012     68011     68013     68012     68013     68014     68015
     68014     68016     68015     68016     68017     68018     68017     68019
     68018     68019     68020     68021     68020     68022     68021     68022
     68023     68024     68023     68025     68024     68025     68026     68027
     68026     68028     68027     68028     68029     68030     68029     68031
     68030     68031     68032     68033     68032     68034     68033     68034
     68035     68036     68035     68037     68036     68037     68038     68039
     68038     68040     68039     68040     68041     68042     68041     68043
     68042     68043     68044     68045     68044     68046     68045     68046
     68047     68048     68047     68049     68048     68049     68050     68051
     68050     68052     68051     68052     68053     68054     68053     68055
     68054     68055     68056     68057     68056     68058     68057     68058
     68059     68060     68059     68061     68060     68061     68062     68063
     68062     68064     68063     68064     68065     68066     68065     68067
     68066     68067     68068     68069     68068     68070     68069     68070
     68071     68072     68071     68073     68072     68073     68074     68075
     68074     68076     68075     68076     68077     68078     68077     68079
     68078     68079     68080     68081     68080     68082     68081     68082
     68083     68084     68083     68085     68084     68085     68086     68087
     68086     68088     68087     68088     68089     68090     68089     68091
     68090     68091     68092     68093     68092     68094     68093     68094
     68095     68096     68095     68097     68096     68097     68098     68099
     68098     68100     68099     68100     68101     68102     68101     68103
     68102     68103     68104     68105     68104     68106     68105     68106
     68107     68108     68107     68109     68108     68109     68110     68111
     68110     68112     68111     68112     68113     68114     68113     68115
     68114     68115     68116     68117     68116     68118     68117     68118
     68119     68120     68119     68121     68120     68121     68122     68123
     68122     68124     68123     68124     68125     68126     68125     68127
     68126     68127     68128     68129     68128     68130     68129     68130
     68131     68132     68131     68133     68132     68133     68134     68135
     68134     68136     68135     68136     68137     68138     68137     68139
     68138     68139     68140     68141     68140     68142     68141     68142
     68143     68144     68143     68145     68144     68145     68146     68147
     68146     68148     68147     68148     68149     68150     68149     68151
     68150     68151     68152     68153     68152     68154     68153     68154
     68155     68156     68155     68157     68156     68157     68158     68159
     68158     68160     68159     68160     68161     68162     68161     68163
     68162     68163     68164     68165     68164     68166     68165     68166
     68167     68168     68167     68169     68168     68169     68170     68171
     68170     68172     68171     68172     68173     68174     68173     68175
     68174     68175     68176     68177     68176     68178     68177     68178
     68179     68180     68179     68181     68180     68181     68182     68183
     68182     68184     68183     68184     68185     68186     68185     68187
     68186     68187     68188     68189     68188     68190     68189     68190
     68191     68192     68191     68193     68192     68193     68194     68195
     68194     68196     68195     68196     68197     68198     68197     68199
     68198     68199     68200     68201     68200     68202     68201     68202
     68203     68204     68203     68205     68204     68205     68206     68207
     68206     68208     68207     68208     68209     68210     68209     68211
     68210     68211     68212     68213     68212     68214     68213     68214
     68215     68216     68215     68217     68216     68217     68218     68219
     68218     68220     68219     68220     68221     68222     68221     68223
     68222     68223     68224     68225     68224     68226     68225     68226
     68227     68228     68227     68229     68228     68229     68230     68231
     68230     68232     68231     68232     68233     68234     68233     68235
     68234     68235     68236     68237     68236     68238     68237     68238
     68239     68240     68239     68241     68240     68241     68242     68243
     68242     68244     68243     68244     68245     68246     68245     68247
     68246     68247     68248     68249     68248     68250     68249     68250
     68251     68252     68251     68253     68252     68253     68254     68255
     68254     68256     68255     68256     68257     68258     68257     68259
     68258     68259     68260     68261     68260     68262     68261     68262
     68263     68264     68263     68265     68264     68265     68266     68267
     68266     68268     68267     68268     68269     68270     68269     68271
     68270     68271     68272     68273     68272     68274     68273     68274
     68275     68276     68275     68277     68276     68277     68278     68279
     68278     68280     68279     68280     68281     68282     68281     68283
     68282     68283     68284     68285     68284     68286     68285     68286
     68287     68288     68287     68289     68288     68289     68290     68291
     68290     68292     68291     68292     68293     68294     68293     68295
     68294     68295     68296     68297     68296     68298     68297     68298
     68299     68300     68299     68301     68300     68301     68302     68303
     68302     68304     68303     68304     68305     68306     68305     68307
     68306     68307     68308     68309     68308     68310     68309     68310
     68311     68312     68311     68313     68312     68313     68314     68315
     68314     68316     68315     68316     68317     68318     68317     68319
     68318     68319     68320     68321     68320     68322     68321     68322
     68323     68324     68323     68325     68324     68325     68326     68327
     68326     68328     68327     68328     68329     68330     68329     68331
     68330     68331     68332     68333     68332     68334     68333     68334
     68335     68336     68335     68337     68336     68337     68338     68339
     68338     68340     68339     68340     68341     68342     68341     68343
     68342     68343     68344     68345     68344     68346     68345     68346
     68347     68348     68347     68349     68348     68349     68350     68351
     68350     68352     68351     68352     68353     68354     68353     68355
     68354     68355     68356     68357     68356     68358     68357     68358
     68359     68360     68359     68361     68360     68361     68362     68363
     68362     68364     68363     68364     68365     68366     68365     68367
     68366     68367     68368     68369     68368     68370     68369     68370
     68371     68372     68371     68373     68372     68373     68374     68375
     68374     68376     68375     68376     68377     68378     68377     68379
     68378     68379     68380     68381     68380     68382     68381     68382
     68383     68384     68383     68385     68384     68385     68386     68387
     68386     68388     68387     68388     68389     68390     68389     68391
     68390     68391     68392     68393     68392     68394     68393     68394
     68395     68396     68395     68397     68396     68397     68398     68399
     68398     68400     68399     68400     68401     68402     68401     68403
     68402     68403     68404     68405     68404     68406     68405     68406
     68407     68408     68407     68409     68408     68409     68410     68411
     68410     68412     68411     68412     68413     68414     68413     68415
     68414     68415     68416     68417     68416     68418     68417     68418
     68419     68420     68419     68421     68420     68421     68422     68423
     68422     68424     68423     68424     68425     68426     68425     68427
     68426     68427     68428     68429     68428     68430     68429     68430
     68431     68432     68431     68433     68432     68433     68434     68435
     68434     68436     68435     68436     68437     68438     68437     68439
     68438     68439     68440     68441     68440     68442     68441     68442
     68443     68444     68443     68445     68444     68445     68446     68447
     68446     68448     68447     68448     68449     68450     68449     68451
     68450     68451     68452     68453     68452     68454     68453     68454
     68455     68456     68455     68457     68456     68457     68458     68459
     68458     68460     68459     68460     68461     68462     68461     68463
     68462     68463     68464     68465     68464     68466     68465     68466
     68467     68468     68467     68469     68468     68469     68470     68471
     68470     68472     68471     68472     68473     68474     68473     68475
     68474     68475     68476     68477     68476     68478     68477     68478
     68479     68480     68479     68481     68480     68481     68482     68483
     68482     68484     68483     68484     68485     68486     68485     68487
     68486     68487     68488     68489     68488     68490     68489     68490
     68491     68492     68491     68493     68492     68493     68494     68495
     68494     68496     68495     68496     68497     68498     68497     68499
     68498     68499     68500     68501     68500     68502     68501     68502
     68503     68504     68503     68505     68504     68505     68506     68507
     68506     68508     68507     68508     68509     68510     68509     68511
     68510     68511     68512     68513     68512     68514     68513     68514
     68515     68516     68515     68517     68516     68517     68518     68519
     68518     68520     68519     68520     68521     68522     68521     68523
     68522     68523     68524     68525     68524     68526     68525     68526
     68527     68528     68527     68529     68528     68529     68530     68531
     68530     68532     68531     68532     68533     68534     68533     68535
     68534     68535     68536     68537     68536     68538     68537     68538
     68539     68540     68539     68541     68540     68541     68542     68543
     68542     68544     68543     68544     68545     68546     68545     68547
     68546     68547     68548     68549     68548     68550     68549     68550
     68551     68552     68551     68553     68552     68553     68554     68555
     68554     68556     68555     68556     68557     68558     68557     68559
     68558     68559     68560     68561     68560     68562     68561     68562
     68563     68564     68563     68565     68564     68565     68566     68567
     68566     68568     68567     68568     68569     68570     68569     68571
     68570     68571     68572     68573     68572     68574     68573     68574
     68575     68576     68575     68577     68576     68577     68578     68579
     68578     68580     68579     68580     68581     68582     68581     68583
     68582     68583     68584     68585     68584     68586     68585     68586
     68587     68588     68587     68589     68588     68589     68590     68591
     68590     68592     68591     68592     68593     68594     68593     68595
     68594     68595     68596     68597     68596     68598     68597     68598
     68599     68600     68599     68601     68600     68601     68602     68603
     68602     68604     68603     68604     68605     68606     68605     68607
     68606     68607     68608     68609     68608     68610     68609     68610
     68611     68612     68611     68613     68612     68613     68614     68615
     68614     68616     68615     68616     68617     68618     68617     68619
     68618     68619     68620     68621     68620     68622     68621     68622
     68623     68624     68623     68625     68624     68625     68626     68627
     68626     68628     68627     68628     68629     68630     68629     68631
     68630     68631     68632     68633     68632     68634     68633     68634
     68635     68636     68635     68637     68636     68637     68638     68639
     68638     68640     68639     68640     68641     68642     68641     68643
     68642     68643     68644     68645     68644     68646     68645     68646
     68647     68648     68647     68649     68648     68649     68650     68651
     68650     68652     68651     68652     68653     68654     68653     68655
     68654     68655     68656     68657     68656     68658     68657     68658
     68659     68660     68659     68661     68660     68661     68662     68663
     68662     68664     68663     68664     68665     68666     68665     68667
     68666     68667     68668     68669     68668     68670     68669     68670
     68671     68672     68671     68673     68672     68673     68674     68675
     68674     68676     68675     68676     68677     68678     68677     68679
     68678     68679     68680     68681     68680     68682     68681     68682
     68683     68684     68683     68685     68684     68685     68686     68687
     68686     68688     68687     68688     68689     68690     68689     68691
     68690     68691     68692     68693     68692     68694     68693     68694
     68695     68696     68695     68697     68696     68697     68698     68699
     68698     68700     68699     68700     68701     68702     68701     68703
     68702     68703     68704     68705     68704     68706     68705     68706
     68707     68708     68707     68709     68708     68709     68710     68711
     68710     68712     68711     68712     68713     68714     68713     68715
     68714     68715     68716     68717     68716     68718     68717     68718
     68719     68720     68719     68721     68720     68721     68722     68723
     68722     68724     68723     68724     68725     68726     68725     68727
     68726     68727     68728     68729     68728     68730     68729     68730
     68731     68732     68731     68733     68732     68733     68734     68735
     68734     68736     68735     68736     68737     68738     68737     68739
     68738     68739     68740     68741     68740     68742     68741     68742
     68743     68744     68743     68745     68744     68745     68746     68747
     68746     68748     68747     68748     68749     68750     68749     68751
     68750     68751     68752     68753     68752     68754     68753     68754
     68755     68756     68755     68757     68756     68757     68758     68759
     68758     68760     68759     68760     68761     68762     68761     68763
     68762     68763     68764     68765     68764     68766     68765     68766
     68767     68768     68767     68769     68768     68769     68770     68771
     68770     68772     68771     68772     68773     68774     68773     68775
     68774     68775     68776     68777     68776     68778     68777     68778
     68779     68780     68779     68781     68780     68781     68782     68783
     68782     68784     68783     68784     68785     68786     68785     68787
     68786     68787     68788     68789     68788     68790     68789     68790
     68791     68792     68791     68793     68792     68793     68794     68795
     68794     68796     68795     68796     68797     68798     68797     68799
     68798     68799     68800     68801     68800     68802     68801     68802
     68803     68804     68803     68805     68804     68805     68806     68807
     68806     68808     68807     68808     68809     68810     68809     68811
     68810     68811     68812     68813     68812     68814     68813     68814
     68815     68816     68815     68817     68816     68817     68818     68819
     68818     68820     68819     68820     68821     68822     68821     68823
     68822     68823     68824     68825     68824     68826     68825     68826
     68827     68828     68827     68829     68828     68829     68830     68831
     68830     68832     68831     68832     68833     68834     68833     68835
     68834     68835     68836     68837     68836     68838     68837     68838
     68839     68840     68839     68841     68840     68841     68842     68843
     68842     68844     68843     68844     68845     68846     68845     68847
     68846     68847     68848     68849     68848     68850     68849     68850
     68851     68852     68851     68853     68852     68853     68854     68855
     68854     68856     68855     68856     68857     68858     68857     68859
     68858     68859     68860     68861     68860     68862     68861     68862
     68863     68864     68863     68865     68864     68865     68866     68867
     68866     68868     68867     68868     68869     68870     68869     68871
     68870     68871     68872     68873     68872     68874     68873     68874
     68875     68876     68875     68877     68876     68877     68878     68879
     68878     68880     68879     68880     68881     68882     68881     68883
     68882     68883     68884     68885     68884     68886     68885     68886
     68887     68888     68887     68889     68888     68889     68890     68891
     68890     68892     68891     68892     68893     68894     68893     68895
     68894     68895     68896     68897     68896     68898     68897     68898
     68899     68900     68899     68901     68900     68901     68902     68903
     68902     68904     68903     68904     68905     68906     68905     68907
     68906     68907     68908     68909     68908     68910     68909     68910
     68911     68912     68911     68913     68912     68913     68914     68915
     68914     68916     68915     68916     68917     68918     68917     68919
     68918     68919     68920     68921     68920     68922     68921     68922
     68923     68924     68923     68925     68924     68925     68926     68927
     68926     68928     68927     68928     68929     68930     68929     68931
     68930     68931     68932     68933     68932     68934     68933     68934
     68935     68936     68935     68937     68936     68937     68938     68939
     68938     68940     68939     68940     68941     68942     68941     68943
     68942     68943     68944     68945     68944     68946     68945     68946
     68947     68948     68947     68949     68948     68949     68950     68951
     68950     68952     68951     68952     68953     68954     68953     68955
     68954     68955     68956     68957     68956     68958     68957     68958
     68959     68960     68959     68961     68960     68961     68962     68963
     68962     68964     68963     68964     68965     68966     68965     68967
     68966     68967     68968     68969     68968     68970     68969     68970
     68971     68972     68971     68973     68972     68973     68974     68975
     68974     68976     68975     68976     68977     68978     68977     68979
     68978     68979     68980     68981     68980     68982     68981     68982
     68983     68984     68983     68985     68984     68985     68986     68987
     68986     68988     68987     68988     68989     68990     68989     68991
     68990     68991     68992     68993     68992     68994     68993     68994
     68995     68996     68995     68997     68996     68997     68998     68999
     68998     69000     68999     69000     69001     69002     69001     69003
     69002     69003     69004     69005     69004     69006     69005     69006
     69007     69008     69007     69009     69008     69009     69010     69011
     69010     69012     69011     69012     69013     69014     69013     69015
     69014     69015     69016     69017     69016     69018     69017     69018
     69019     69020     69019     69021     69020     69021     69022     69023
     69022     69024     69023     69024     69025     69026     69025     69027
     69026     69027     69028     69029     69028     69030     69029     69030
     69031     69032     69031     69033     69032     69033     69034     69035
     69034     69036     69035     69036     69037     69038     69037     69039
     69038     69039     69040     69041     69040     69042     69041     69042
     69043     69044     69043     69045     69044     69045     69046     69047
     69046     69048     69047     69048     69049     69050     69049     69051
     69050     69051     69052     69053     69052     69054     69053     69054
     69055     69056     69055     69057     69056     69057     69058     69059
     69058     69060     69059     69060     69061     69062     69061     69063
     69062     69063     69064     69065     69064     69066     69065     69066
     69067     69068     69067     69069     69068     69069     69070     69071
     69070     69072     69071     69072     69073     69074     69073     69075
     69074     69075     69076     69077     69076     69078     69077     69078
     69079     69080     69079     69081     69080     69081     69082     69083
     69082     69084     69083     69084     69085     69086     69085     69087
     69086     69087     69088     69089     69088     69090     69089     69090
     69091     69092     69091     69093     69092     69093     69094     69095
     69094     69096     69095     69096     69097     69098     69097     69099
     69098     69099     69100     69101     69100     69102     69101     69102
     69103     69104     69103     69105     69104     69105     69106     69107
     69106     69108     69107     69108     69109     69110     69109     69111
     69110     69111     69112     69113     69112     69114     69113     69114
     69115     69116     69115     69117     69116     69117     69118     69119
     69118     69120     69119     69120     69121     69122     69121     69123
     69122     69123     69124     69125     69124     69126     69125     69126
     69127     69128     69127     69129     69128     69129     69130     69131
     69130     69132     69131     69132     69133     69134     69133     69135
     69134     69135     69136     69137     69136     69138     69137     69138
     69139     69140     69139     69141     69140     69141     69142     69143
     69142     69144     69143     69144     69145     69146     69145     69147
     69146     69147     69148     69149     69148     69150     69149     69150
     69151     69152     69151     69153     69152     69153     69154     69155
     69154     69156     69155     69156     69157     69158     69157     69159
     69158     69159     69160     69161     69160     69162     69161     69162
     69163     69164     69163     69165     69164     69165     69166     69167
     69166     69168     69167     69168     69169     69170     69169     69171
     69170     69171     69172     69173     69172     69174     69173     69174
     69175     69176     69175     69177     69176     69177     69178     69179
     69178     69180     69179     69180     69181     69182     69181     69183
     69182     69183     69184     69185     69184     69186     69185     69186
     69187     69188     69187     69189     69188     69189     69190     69191
     69190     69192     69191     69192     69193     69194     69193     69195
     69194     69195     69196     69197     69196     69198     69197     69198
     69199     69200     69199     69201     69200     69201     69202     69203
     69202     69204     69203     69204     69205     69206     69205     69207
     69206     69207     69208     69209     69208     69210     69209     69210
     69211     69212     69211     69213     69212     69213     69214     69215
     69214     69216     69215     69216     69217     69218     69217     69219
     69218     69219     69220     69221     69220     69222     69221     69222
     69223     69224     69223     69225     69224     69225     69226     69227
     69226     69228     69227     69228     69229     69230     69229     69231
     69230     69231     69232     69233     69232     69234     69233     69234
     69235     69236     69235     69237     69236     69237     69238     69239
     69238     69240     69239     69240     69241     69242     69241     69243
     69242     69243     69244     69245     69244     69246     69245     69246
     69247     69248     69247     69249     69248     69249     69250     69251
     69250     69252     69251     69252     69253     69254     69253     69255
     69254     69255     69256     69257     69256     69258     69257     69258
     69259     69260     69259     69261     69260     69261     69262     69263
     69262     69264     69263     69264     69265     69266     69265     69267
     69266     69267     69268     69269     69268     69270     69269     69270
     69271     69272     69271     69273     69272     69273     69274     69275
     69274     69276     69275     69276     69277     69278     69277     69279
     69278     69279     69280     69281     69280     69282     69281     69282
     69283     69284     69283     69285     69284     69285     69286     69287
     69286     69288     69287     69288     69289     69290     69289     69291
     69290     69291     69292     69293     69292     69294     69293     69294
     69295     69296     69295     69297     69296     69297     69298     69299
     69298     69300     69299     69300     69301     69302     69301     69303
     69302     69303     69304     69305     69304     69306     69305     69306
     69307     69308     69307     69309     69308     69309     69310     69311
     69310     69312     69311     69312     69313     69314     69313     69315
     69314     69315     69316     69317     69316     69318     69317     69318
     69319     69320     69319     69321     69320     69321     69322     69323
     69322     69324     69323     69324     69325     69326     69325     69327
     69326     69327     69328     69329     69328     69330     69329     69330
     69331     69332     69331     69333     69332     69333     69334     69335
     69334     69336     69335     69336     69337     69338     69337     69339
     69338     69339     69340     69341     69340     69342     69341     69342
     69343     69344     69343     69345     69344     69345     69346     69347
     69346     69348     69347     69348     69349     69350     69349     69351
     69350     69351     69352     69353     69352     69354     69353     69354
     69355     69356     69355     69357     69356     69357     69358     69359
     69358     69360     69359     69360     69361     69362     69361     69363
     69362     69363     69364     69365     69364     69366     69365     69366
     69367     69368     69367     69369     69368     69369     69370     69371
     69370     69372     69371     69372     69373     69374     69373     69375
     69374     69375     69376     69377     69376     69378     69377     69378
     69379     69380     69379     69381     69380     69381     69382     69383
     69382     69384     69383     69384     69385     69386     69385     69387
     69386     69387     69388     69389     69388     69390     69389     69390
     69391     69392     69391     69393     69392     69393     69394     69395
     69394     69396     69395     69396     69397     69398     69397     69399
     69398     69399     69400     69401     69400     69402     69401     69402
     69403     69404     69403     69405     69404     69405     69406     69407
     69406     69408     69407     69408     69409     69410     69409     69411
     69410     69411     69412     69413     69412     69414     69413     69414
     69415     69416     69415     69417     69416     69417     69418     69419
     69418     69420     69419     69420     69421     69422     69421     69423
     69422     69423     69424     69425     69424     69426     69425     69426
     69427     69428     69427     69429     69428     69429     69430     69431
     69430     69432     69431     69432     69433     69434     69433     69435
     69434     69435     69436     69437     69436     69438     69437     69438
     69439     69440     69439     69441     69440     69441     69442     69443
     69442     69444     69443     69444     69445     69446     69445     69447
     69446     69447     69448     69449     69448     69450     69449     69450
     69451     69452     69451     69453     69452     69453     69454     69455
     69454     69456     69455     69456     69457     69458     69457     69459
     69458     69459     69460     69461     69460     69462     69461     69462
     69463     69464     69463     69465     69464     69465     69466     69467
     69466     69468     69467     69468     69469     69470     69469     69471
     69470     69471     69472     69473     69472     69474     69473     69474
     69475     69476     69475     69477     69476     69477     69478     69479
     69478     69480     69479     69480     69481     69482     69481     69483
     69482     69483     69484     69485     69484     69486     69485     69486
     69487     69488     69487     69489     69488     69489     69490     69491
     69490     69492     69491     69492     69493     69494     69493     69495
     69494     69495     69496     69497     69496     69498     69497     69498
     69499     69500     69499     69501     69500     69501     69502     69503
     69502     69504     69503     69504     69505     69506     69505     69507
     69506     69507     69508     69509     69508     69510     69509     69510
     69511     69512     69511     69513     69512     69513     69514     69515
     69514     69516     69515     69516     69517     69518     69517     69519
     69518     69519     69520     69521     69520     69522     69521     69522
     69523     69524     69523     69525     69524     69525     69526     69527
     69526     69528     69527     69528     69529     69530     69529     69531
     69530     69531     69532     69533     69532     69534     69533     69534
     69535     69536     69535     69537     69536     69537     69538     69539
     69538     69540     69539     69540     69541     69542     69541     69543
     69542     69543     69544     69545     69544     69546     69545     69546
     69547     69548     69547     69549     69548     69549     69550     69551
     69550     69552     69551     69552     69553     69554     69553     69555
     69554     69555     69556     69557     69556     69558     69557     69558
     69559     69560     69559     69561     69560     69561     69562     69563
     69562     69564     69563     69564     69565     69566     69565     69567
     69566     69567     69568     69569     69568     69570     69569     69570
     69571     69572     69571     69573     69572     69573     69574     69575
     69574     69576     69575     69576     69577     69578     69577     69579
     69578     69579     69580     69581     69580     69582     69581     69582
     69583     69584     69583     69585     69584     69585     69586     69587
     69586     69588     69587     69588     69589     69590     69589     69591
     69590     69591     69592     69593     69592     69594     69593     69594
     69595     69596     69595     69597     69596     69597     69598     69599
     69598     69600     69599     69600     69601     69602     69601     69603
     69602     69603     69604     69605     69604     69606     69605     69606
     69607     69608     69607     69609     69608     69609     69610     69611
     69610     69612     69611     69612     69613     69614     69613     69615
     69614     69615     69616     69617     69616     69618     69617     69618
     69619     69620     69619     69621     69620     69621     69622     69623
     69622     69624     69623     69624     69625     69626     69625     69627
     69626     69627     69628     69629     69628     69630     69629     69630
     69631     69632     69631     69633     69632     69633     69634     69635
     69634     69636     69635     69636     69637     69638     69637     69639
     69638     69639     69640     69641     69640     69642     69641     69642
     69643     69644     69643     69645     69644     69645     69646     69647
     69646     69648     69647     69648     69649     69650     69649     69651
     69650     69651     69652     69653     69652     69654     69653     69654
     69655     69656     69655     69657     69656     69657     69658     69659
     69658     69660     69659     69660     69661     69662     69661     69663
     69662     69663     69664     69665     69664     69666     69665     69666
     69667     69668     69667     69669     69668     69669     69670     69671
     69670     69672     69671     69672     69673     69674     69673     69675
     69674     69675     69676     69677     69676     69678     69677     69678
     69679     69680     69679     69681     69680     69681     69682     69683
     69682     69684     69683     69684     69685     69686     69685     69687
     69686     69687     69688     69689     69688     69690     69689     69690
     69691     69692     69691     69693     69692     69693     69694     69695
     69694     69696     69695     69696     69697     69698     69697     69699
     69698     69699     69700     69701     69700     69702     69701     69702
     69703     69704     69703     69705     69704     69705     69706     69707
     69706     69708     69707     69708     69709     69710     69709     69711
     69710     69711     69712     69713     69712     69714     69713     69714
     69715     69716     69715     69717     69716     69717     69718     69719
     69718     69720     69719     69720     69721     69722     69721     69723
     69722     69723     69724     69725     69724     69726     69725     69726
     69727     69728     69727     69729     69728     69729     69730     69731
     69730     69732     69731     69732     69733     69734     69733     69735
     69734     69735     69736     69737     69736     69738     69737     69738
     69739     69740     69739     69741     69740     69741     69742     69743
     69742     69744     69743     69744     69745     69746     69745     69747
     69746     69747     69748     69749     69748     69750     69749     69750
     69751     69752     69751     69753     69752     69753     69754     69755
     69754     69756     69755     69756     69757     69758     69757     69759
     69758     69759     69760     69761     69760     69762     69761     69762
     69763     69764     69763     69765     69764     69765     69766     69767
     69766     69768     69767     69768     69769     69770     69769     69771
     69770     69771     69772     69773     69772     69774     69773     69774
     69775     69776     69775     69777     69776     69777     69778     69779
     69778     69780     69779     69780     69781     69782     69781     69783
     69782     69783     69784     69785     69784     69786     69785     69786
     69787     69788     69787     69789     69788     69789     69790     69791
     69790     69792     69791     69792     69793     69794     69793     69795
     69794     69795     69796     69797     69796     69798     69797     69798
     69799     69800     69799     69801     69800     69801     69802     69803
     69802     69804     69803     69804     69805     69806     69805     69807
     69806     69807     69808     69809     69808     69810     69809     69810
     69811     69812     69811     69813     69812     69813     69814     69815
     69814     69816     69815     69816     69817     69818     69817     69819
     69818     69819     69820     69821     69820     69822     69821     69822
     69823     69824     69823     69825     69824     69825     69826     69827
     69826     69828     69827     69828     69829     69830     69829     69831
     69830     69831     69832     69833     69832     69834     69833     69834
     69835     69836     69835     69837     69836     69837     69838     69839
     69838     69840     69839     69840     69841     69842     69841     69843
     69842     69843     69844     69845     69844     69846     69845     69846
     69847     69848     69847     69849     69848     69849     69850     69851
     69850     69852     69851     69852     69853     69854     69853     69855
     69854     69855     69856     69857     69856     69858     69857     69858
     69859     69860     69859     69861     69860     69861     69862     69863
     69862     69864     69863     69864     69865     69866     69865     69867
     69866     69867     69868     69869     69868     69870     69869     69870
     69871     69872     69871     69873     69872     69873     69874     69875
     69874     69876     69875     69876     69877     69878     69877     69879
     69878     69879     69880     69881     69880     69882     69881     69882
     69883     69884     69883     69885     69884     69885     69886     69887
     69886     69888     69887     69888     69889     69890     69889     69891
     69890     69891     69892     69893     69892     69894     69893     69894
     69895     69896     69895     69897     69896     69897     69898     69899
     69898     69900     69899     69900     69901     69902     69901     69903
     69902     69903     69904     69905     69904     69906     69905     69906
     69907     69908     69907     69909     69908     69909     69910     69911
     69910     69912     69911     69912     69913     69914     69913     69915
     69914     69915     69916     69917     69916     69918     69917     69918
     69919     69920     69919     69921     69920     69921     69922     69923
     69922     69924     69923     69924     69925     69926     69925     69927
     69926     69927     69928     69929     69928     69930     69929     69930
     69931     69932     69931     69933     69932     69933     69934     69935
     69934     69936     69935     69936     69937     69938     69937     69939
     69938     69939     69940     69941     69940     69942     69941     69942
     69943     69944     69943     69945     69944     69945     69946     69947
     69946     69948     69947     69948     69949     69950     69949     69951
     69950     69951     69952     69953     69952     69954     69953     69954
     69955     69956     69955     69957     69956     69957     69958     69959
     69958     69960     69959     69960     69961     69962     69961     69963
     69962     69963     69964     69965     69964     69966     69965     69966
     69967     69968     69967     69969     69968     69969     69970     69971
     69970     69972     69971     69972     69973     69974     69973     69975
     69974     69975     69976     69977     69976     69978     69977     69978
     69979     69980     69979     69981     69980     69981     69982     69983
     69982     69984     69983     69984     69985     69986     69985     69987
     69986     69987     69988     69989     69988     69990     69989     69990
     69991     69992     69991     69993     69992     69993     69994     69995
     69994     69996     69995     69996     69997     69998     69997     69999
     69998     69999     70000     70001     70000     70002     70001     70002
     70003     70004     70003     70005     70004     70005     70006     70007
     70006     70008     70007     70008     70009     70010     70009     70011
     70010     70011     70012     70013     70012     70014     70013     70014
     70015     70016     70015     70017     70016     70017     70018     70019
     70018     70020     70019     70020     70021     70022     70021     70023
     70022     70023     70024     70025     70024     70026     70025     70026
     70027     70028     70027     70029     70028     70029     70030     70031
     70030     70032     70031     70032     70033     70034     70033     70035
     70034     70035     70036     70037     70036     70038     70037     70038
     70039     70040     70039     70041     70040     70041     70042     70043
     70042     70044     70043     70044     70045     70046     70045     70047
     70046     70047     70048     70049     70048     70050     70049     70050
     70051     70052     70051     70053     70052     70053     70054     70055
     70054     70056     70055     70056     70057     70058     70057     70059
     70058     70059     70060     70061     70060     70062     70061     70062
     70063     70064     70063     70065     70064     70065     70066     70067
     70066     70068     70067     70068     70069     70070     70069     70071
     70070     70071     70072     70073     70072     70074     70073     70074
     70075     70076     70075     70077     70076     70077     70078     70079
     70078     70080     70079     70080     70081     70082     70081     70083
     70082     70083     70084     70085     70084     70086     70085     70086
     70087     70088     70087     70089     70088     70089     70090     70091
     70090     70092     70091     70092     70093     70094     70093     70095
     70094     70095     70096     70097     70096     70098     70097     70098
     70099     70100     70099     70101     70100     70101     70102     70103
     70102     70104     70103     70104     70105     70106     70105     70107
     70106     70107     70108     70109     70108     70110     70109     70110
     70111     70112     70111     70113     70112     70113     70114     70115
     70114     70116     70115     70116     70117     70118     70117     70119
     70118     70119     70120     70121     70120     70122     70121     70122
     70123     70124     70123     70125     70124     70125     70126     70127
     70126     70128     70127     70128     70129     70130     70129     70131
     70130     70131     70132     70133     70132     70134     70133     70134
     70135     70136     70135     70137     70136     70137     70138     70139
     70138     70140     70139     70140     70141     70142     70141     70143
     70142     70143     70144     70145     70144     70146     70145     70146
     70147     70148     70147     70149     70148     70149     70150     70151
     70150     70152     70151     70152     70153     70154     70153     70155
     70154     70155     70156     70157     70156     70158     70157     70158
     70159     70160     70159     70161     70160     70161     70162     70163
     70162     70164     70163     70164     70165     70166     70165     70167
     70166     70167     70168     70169     70168     70170     70169     70170
     70171     70172     70171     70173     70172     70173     70174     70175
     70174     70176     70175     70176     70177     70178     70177     70179
     70178     70179     70180     70181     70180     70182     70181     70182
     70183     70184     70183     70185     70184     70185     70186     70187
     70186     70188     70187     70188     70189     70190     70189     70191
     70190     70191     70192     70193     70192     70194     70193     70194
     70195     70196     70195     70197     70196     70197     70198     70199
     70198     70200     70199     70200     70201     70202     70201     70203
     70202     70203     70204     70205     70204     70206     70205     70206
     70207     70208     70207     70209     70208     70209     70210     70211
     70210     70212     70211     70212     70213     70214     70213     70215
     70214     70215     70216     70217     70216     70218     70217     70218
     70219     70220     70219     70221     70220     70221     70222     70223
     70222     70224     70223     70224     70225     70226     70225     70227
     70226     70227     70228     70229     70228     70230     70229     70230
     70231     70232     70231     70233     70232     70233     70234     70235
     70234     70236     70235     70236     70237     70238     70237     70239
     70238     70239     70240     70241     70240     70242     70241     70242
     70243     70244     70243     70245     70244     70245     70246     70247
     70246     70248     70247     70248     70249     70250     70249     70251
     70250     70251     70252     70253     70252     70254     70253     70254
     70255     70256     70255     70257     70256     70257     70258     70259
     70258     70260     70259     70260     70261     70262     70261     70263
     70262     70263     70264     70265     70264     70266     70265     70266
     70267     70268     70267     70269     70268     70269     70270     70271
     70270     70272     70271     70272     70273     70274     70273     70275
     70274     70275     70276     70277     70276     70278     70277     70278
     70279     70280     70279     70281     70280     70281     70282     70283
     70282     70284     70283     70284     70285     70286     70285     70287
     70286     70287     70288     70289     70288     70290     70289     70290
     70291     70292     70291     70293     70292     70293     70294     70295
     70294     70296     70295     70296     70297     70298     70297     70299
     70298     70299     70300     70301     70300     70302     70301     70302
     70303     70304     70303     70305     70304     70305     70306     70307
     70306     70308     70307     70308     70309     70310     70309     70311
     70310     70311     70312     70313     70312     70314     70313     70314
     70315     70316     70315     70317     70316     70317     70318     70319
     70318     70320     70319     70320     70321     70322     70321     70323
     70322     70323     70324     70325     70324     70326     70325     70326
     70327     70328     70327     70329     70328     70329     70330     70331
     70330     70332     70331     70332     70333     70334     70333     70335
     70334     70335     70336     70337     70336     70338     70337     70338
     70339     70340     70339     70341     70340     70341     70342     70343
     70342     70344     70343     70344     70345     70346     70345     70347
     70346     70347     70348     70349     70348     70350     70349     70350
     70351     70352     70351     70353     70352     70353     70354     70355
     70354     70356     70355     70356     70357     70358     70357     70359
     70358     70359     70360     70361     70360     70362     70361     70362
     70363     70364     70363     70365     70364     70365     70366     70367
     70366     70368     70367     70368     70369     70370     70369     70371
     70370     70371     70372     70373     70372     70374     70373     70374
     70375     70376     70375     70377     70376     70377     70378     70379
     70378     70380     70379     70380     70381     70382     70381     70383
     70382     70383     70384     70385     70384     70386     70385     70386
     70387     70388     70387     70389     70388     70389     70390     70391
     70390     70392     70391     70392     70393     70394     70393     70395
     70394     70395     70396     70397     70396     70398     70397     70398
     70399     70400     70399     70401     70400     70401     70402     70403
     70402     70404     70403     70404     70405     70406     70405     70407
     70406     70407     70408     70409     70408     70410     70409     70410
     70411     70412     70411     70413     70412     70413     70414     70415
     70414     70416     70415     70416     70417     70418     70417     70419
     70418     70419     70420     70421     70420     70422     70421     70422
     70423     70424     70423     70425     70424     70425     70426     70427
     70426     70428     70427     70428     70429     70430     70429     70431
     70430     70431     70432     70433     70432     70434     70433     70434
     70435     70436     70435     70437     70436     70437     70438     70439
     70438     70440     70439     70440     70441     70442     70441     70443
     70442     70443     70444     70445     70444     70446     70445     70446
     70447     70448     70447     70449     70448     70449     70450     70451
     70450     70452     70451     70452     70453     70454     70453     70455
     70454     70455     70456     70457     70456     70458     70457     70458
     70459     70460     70459     70461     70460     70461     70462     70463
     70462     70464     70463     70464     70465     70466     70465     70467
     70466     70467     70468     70469     70468     70470     70469     70470
     70471     70472     70471     70473     70472     70473     70474     70475
     70474     70476     70475     70476     70477     70478     70477     70479
     70478     70479     70480     70481     70480     70482     70481     70482
     70483     70484     70483     70485     70484     70485     70486     70487
     70486     70488     70487     70488     70489     70490     70489     70491
     70490     70491     70492     70493     70492     70494     70493     70494
     70495     70496     70495     70497     70496     70497     70498     70499
     70498     70500     70499     70500     70501     70502     70501     70503
     70502     70503     70504     70505     70504     70506     70505     70506
     70507     70508     70507     70509     70508     70509     70510     70511
     70510     70512     70511     70512     70513     70514     70513     70515
     70514     70515     70516     70517     70516     70518     70517     70518
     70519     70520     70519     70521     70520     70521     70522     70523
     70522     70524     70523     70524     70525     70526     70525     70527
     70526     70527     70528     70529     70528     70530     70529     70530
     70531     70532     70531     70533     70532     70533     70534     70535
     70534     70536     70535     70536     70537     70538     70537     70539
     70538     70539     70540     70541     70540     70542     70541     70542
     70543     70544     70543     70545     70544     70545     70546     70547
     70546     70548     70547     70548     70549     70550     70549     70551
     70550     70551     70552     70553     70552     70554     70553     70554
     70555     70556     70555     70557     70556     70557     70558     70559
     70558     70560     70559     70560     70561     70562     70561     70563
     70562     70563     70564     70565     70564     70566     70565     70566
     70567     70568     70567     70569     70568     70569     70570     70571
     70570     70572     70571     70572     70573     70574     70573     70575
     70574     70575     70576     70577     70576     70578     70577     70578
     70579     70580     70579     70581     70580     70581     70582     70583
     70582     70584     70583     70584     70585     70586     70585     70587
     70586     70587     70588     70589     70588     70590     70589     70590
     70591     70592     70591     70593     70592     70593     70594     70595
     70594     70596     70595     70596     70597     70598     70597     70599
     70598     70599     70600     70601     70600     70602     70601     70602
     70603     70604     70603     70605     70604     70605     70606     70607
     70606     70608     70607     70608     70609     70610     70609     70611
     70610     70611     70612     70613     70612     70614     70613     70614
     70615     70616     70615     70617     70616     70617     70618     70619
     70618     70620     70619     70620     70621     70622     70621     70623
     70622     70623     70624     70625     70624     70626     70625     70626
     70627     70628     70627     70629     70628     70629     70630     70631
     70630     70632     70631     70632     70633     70634     70633     70635
     70634     70635     70636     70637     70636     70638     70637     70638
     70639     70640     70639     70641     70640     70641     70642     70643
     70642     70644     70643     70644     70645     70646     70645     70647
     70646     70647     70648     70649     70648     70650     70649     70650
     70651     70652     70651     70653     70652     70653     70654     70655
     70654     70656     70655     70656     70657     70658     70657     70659
     70658     70659     70660     70661     70660     70662     70661     70662
     70663     70664     70663     70665     70664     70665     70666     70667
     70666     70668     70667     70668     70669     70670     70669     70671
     70670     70671     70672     70673     70672     70674     70673     70674
     70675     70676     70675     70677     70676     70677     70678     70679
     70678     70680     70679     70680     70681     70682     70681     70683
     70682     70683     70684     70685     70684     70686     70685     70686
     70687     70688     70687     70689     70688     70689     70690     70691
     70690     70692     70691     70692     70693     70694     70693     70695
     70694     70695     70696     70697     70696     70698     70697     70698
     70699     70700     70699     70701     70700     70701     70702     70703
     70702     70704     70703     70704     70705     70706     70705     70707
     70706     70707     70708     70709     70708     70710     70709     70710
     70711     70712     70711     70713     70712     70713     70714     70715
     70714     70716     70715     70716     70717     70718     70717     70719
     70718     70719     70720     70721     70720     70722     70721     70722
     70723     70724     70723     70725     70724     70725     70726     70727
     70726     70728     70727     70728     70729     70730     70729     70731
     70730     70731     70732     70733     70732     70734     70733     70734
     70735     70736     70735     70737     70736     70737     70738     70739
     70738     70740     70739     70740     70741     70742     70741     70743
     70742     70743     70744     70745     70744     70746     70745     70746
     70747     70748     70747     70749     70748     70749     70750     70751
     70750     70752     70751     70752     70753     70754     70753     70755
     70754     70755     70756     70757     70756     70758     70757     70758
     70759     70760     70759     70761     70760     70761     70762     70763
     70762     70764     70763     70764     70765     70766     70765     70767
     70766     70767     70768     70769     70768     70770     70769     70770
     70771     70772     70771     70773     70772     70773     70774     70775
     70774     70776     70775     70776     70777     70778     70777     70779
     70778     70779     70780     70781     70780     70782     70781     70782
     70783     70784     70783     70785     70784     70785     70786     70787
     70786     70788     70787     70788     70789     70790     70789     70791
     70790     70791     70792     70793     70792     70794     70793     70794
     70795     70796     70795     70797     70796     70797     70798     70799
     70798     70800     70799     70800     70801     70802     70801     70803
     70802     70803     70804     70805     70804     70806     70805     70806
     70807     70808     70807     70809     70808     70809     70810     70811
     70810     70812     70811     70812     70813     70814     70813     70815
     70814     70815     70816     70817     70816     70818     70817     70818
     70819     70820     70819     70821     70820     70821     70822     70823
     70822     70824     70823     70824     70825     70826     70825     70827
     70826     70827     70828     70829     70828     70830     70829     70830
     70831     70832     70831     70833     70832     70833     70834     70835
     70834     70836     70835     70836     70837     70838     70837     70839
     70838     70839     70840     70841     70840     70842     70841     70842
     70843     70844     70843     70845     70844     70845     70846     70847
     70846     70848     70847     70848     70849     70850     70849     70851
     70850     70851     70852     70853     70852     70854     70853     70854
     70855     70856     70855     70857     70856     70857     70858     70859
     70858     70860     70859     70860     70861     70862     70861     70863
     70862     70863     70864     70865     70864     70866     70865     70866
     70867     70868     70867     70869     70868     70869     70870     70871
     70870     70872     70871     70872     70873     70874     70873     70875
     70874     70875     70876     70877     70876     70878     70877     70878
     70879     70880     70879     70881     70880     70881     70882     70883
     70882     70884     70883     70884     70885     70886     70885     70887
     70886     70887     70888     70889     70888     70890     70889     70890
     70891     70892     70891     70893     70892     70893     70894     70895
     70894     70896     70895     70896     70897     70898     70897     70899
     70898     70899     70900     70901     70900     70902     70901     70902
     70903     70904     70903     70905     70904     70905     70906     70907
     70906     70908     70907     70908     70909     70910     70909     70911
     70910     70911     70912     70913     70912     70914     70913     70914
     70915     70916     70915     70917     70916     70917     70918     70919
     70918     70920     70919     70920     70921     70922     70921     70923
     70922     70923     70924     70925     70924     70926     70925     70926
     70927     70928     70927     70929     70928     70929     70930     70931
     70930     70932     70931     70932     70933     70934     70933     70935
     70934     70935     70936     70937     70936     70938     70937     70938
     70939     70940     70939     70941     70940     70941     70942     70943
     70942     70944     70943     70944     70945     70946     70945     70947
     70946     70947     70948     70949     70948     70950     70949     70950
     70951     70952     70951     70953     70952     70953     70954     70955
     70954     70956     70955     70956     70957     70958     70957     70959
     70958     70959     70960     70961     70960     70962     70961     70962
     70963     70964     70963     70965     70964     70965     70966     70967
     70966     70968     70967     70968     70969     70970     70969     70971
     70970     70971     70972     70973     70972     70974     70973     70974
     70975     70976     70975     70977     70976     70977     70978     70979
     70978     70980     70979     70980     70981     70982     70981     70983
     70982     70983     70984     70985     70984     70986     70985     70986
     70987     70988     70987     70989     70988     70989     70990     70991
     70990     70992     70991     70992     70993     70994     70993     70995
     70994     70995     70996     70997     70996     70998     70997     70998
     70999     71000     70999     71001     71000     71001     71002     71003
     71002     71004     71003     71004     71005     71006     71005     71007
     71006     71007     71008     71009     71008     71010     71009     71010
     71011     71012     71011     71013     71012     71013     71014     71015
     71014     71016     71015     71016     71017     71018     71017     71019
     71018     71019     71020     71021     71020     71022     71021     71022
     71023     71024     71023     71025     71024     71025     71026     71027
     71026     71028     71027     71028     71029     71030     71029     71031
     71030     71031     71032     71033     71032     71034     71033     71034
     71035     71036     71035     71037     71036     71037     71038     71039
     71038     71040     71039     71040     71041     71042     71041     71043
     71042     71043     71044     71045     71044     71046     71045     71046
     71047     71048     71047     71049     71048     71049     71050     71051
     71050     71052     71051     71052     71053     71054     71053     71055
     71054     71055     71056     71057     71056     71058     71057     71058
     71059     71060     71059     71061     71060     71061     71062     71063
     71062     71064     71063     71064     71065     71066     71065     71067
     71066     71067     71068     71069     71068     71070     71069     71070
     71071     71072     71071     71073     71072     71073     71074     71075
     71074     71076     71075     71076     71077     71078     71077     71079
     71078     71079     71080     71081     71080     71082     71081     71082
     71083     71084     71083     71085     71084     71085     71086     71087
     71086     71088     71087     71088     71089     71090     71089     71091
     71090     71091     71092     71093     71092     71094     71093     71094
     71095     71096     71095     71097     71096     71097     71098     71099
     71098     71100     71099     71100     71101     71102     71101     71103
     71102     71103     71104     71105     71104     71106     71105     71106
     71107     71108     71107     71109     71108     71109     71110     71111
     71110     71112     71111     71112     71113     71114     71113     71115
     71114     71115     71116     71117     71116     71118     71117     71118
     71119     71120     71119     71121     71120     71121     71122     71123
     71122     71124     71123     71124     71125     71126     71125     71127
     71126     71127     71128     71129     71128     71130     71129     71130
     71131     71132     71131     71133     71132     71133     71134     71135
     71134     71136     71135     71136     71137     71138     71137     71139
     71138     71139     71140     71141     71140     71142     71141     71142
     71143     71144     71143     71145     71144     71145     71146     71147
     71146     71148     71147     71148     71149     71150     71149     71151
     71150     71151     71152     71153     71152     71154     71153     71154
     71155     71156     71155     71157     71156     71157     71158     71159
     71158     71160     71159     71160     71161     71162     71161     71163
     71162     71163     71164     71165     71164     71166     71165     71166
     71167     71168     71167     71169     71168     71169     71170     71171
     71170     71172     71171     71172     71173     71174     71173     71175
     71174     71175     71176     71177     71176     71178     71177     71178
     71179     71180     71179     71181     71180     71181     71182     71183
     71182     71184     71183     71184     71185     71186     71185     71187
     71186     71187     71188     71189     71188     71190     71189     71190
     71191     71192     71191     71193     71192     71193     71194     71195
     71194     71196     71195     71196     71197     71198     71197     71199
     71198     71199     71200     71201     71200     71202     71201     71202
     71203     71204     71203     71205     71204     71205     71206     71207
     71206     71208     71207     71208     71209     71210     71209     71211
     71210     71211     71212     71213     71212     71214     71213     71214
     71215     71216     71215     71217     71216     71217     71218     71219
     71218     71220     71219     71220     71221     71222     71221     71223
     71222     71223     71224     71225     71224     71226     71225     71226
     71227     71228     71227     71229     71228     71229     71230     71231
     71230     71232     71231     71232     71233     71234     71233     71235
     71234     71235     71236     71237     71236     71238     71237     71238
     71239     71240     71239     71241     71240     71241     71242     71243
     71242     71244     71243     71244     71245     71246     71245     71247
     71246     71247     71248     71249     71248     71250     71249     71250
     71251     71252     71251     71253     71252     71253     71254     71255
     71254     71256     71255     71256     71257     71258     71257     71259
     71258     71259     71260     71261     71260     71262     71261     71262
     71263     71264     71263     71265     71264     71265     71266     71267
     71266     71268     71267     71268     71269     71270     71269     71271
     71270     71271     71272     71273     71272     71274     71273     71274
     71275     71276     71275     71277     71276     71277     71278     71279
     71278     71280     71279     71280     71281     71282     71281     71283
     71282     71283     71284     71285     71284     71286     71285     71286
     71287     71288     71287     71289     71288     71289     71290     71291
     71290     71292     71291     71292     71293     71294     71293     71295
     71294     71295     71296     71297     71296     71298     71297     71298
     71299     71300     71299     71301     71300     71301     71302     71303
     71302     71304     71303     71304     71305     71306     71305     71307
     71306     71307     71308     71309     71308     71310     71309     71310
     71311     71312     71311     71313     71312     71313     71314     71315
     71314     71316     71315     71316     71317     71318     71317     71319
     71318     71319     71320     71321     71320     71322     71321     71322
     71323     71324     71323     71325     71324     71325     71326     71327
     71326     71328     71327     71328     71329     71330     71329     71331
     71330     71331     71332     71333     71332     71334     71333     71334
     71335     71336     71335     71337     71336     71337     71338     71339
     71338     71340     71339     71340     71341     71342     71341     71343
     71342     71343     71344     71345     71344     71346     71345     71346
     71347     71348     71347     71349     71348     71349     71350     71351
     71350     71352     71351     71352     71353     71354     71353     71355
     71354     71355     71356     71357     71356     71358     71357     71358
     71359     71360     71359     71361     71360     71361     71362     71363
     71362     71364     71363     71364     71365     71366     71365     71367
     71366     71367     71368     71369     71368     71370     71369     71370
     71371     71372     71371     71373     71372     71373     71374     71375
     71374     71376     71375     71376     71377     71378     71377     71379
     71378     71379     71380     71381     71380     71382     71381     71382
     71383     71384     71383     71385     71384     71385     71386     71387
     71386     71388     71387     71388     71389     71390     71389     71391
     71390     71391     71392     71393     71392     71394     71393     71394
     71395     71396     71395     71397     71396     71397     71398     71399
     71398     71400     71399     71400     71401     71402     71401     71403
     71402     71403     71404     71405     71404     71406     71405     71406
     71407     71408     71407     71409     71408     71409     71410     71411
     71410     71412     71411     71412     71413     71414     71413     71415
     71414     71415     71416     71417     71416     71418     71417     71418
     71419     71420     71419     71421     71420     71421     71422     71423
     71422     71424     71423     71424     71425     71426     71425     71427
     71426     71427     71428     71429     71428     71430     71429     71430
     71431     71432     71431     71433     71432     71433     71434     71435
     71434     71436     71435     71436     71437     71438     71437     71439
     71438     71439     71440     71441     71440     71442     71441     71442
     71443     71444     71443     71445     71444     71445     71446     71447
     71446     71448     71447     71448     71449     71450     71449     71451
     71450     71451     71452     71453     71452     71454     71453     71454
     71455     71456     71455     71457     71456     71457     71458     71459
     71458     71460     71459     71460     71461     71462     71461     71463
     71462     71463     71464     71465     71464     71466     71465     71466
     71467     71468     71467     71469     71468     71469     71470     71471
     71470     71472     71471     71472     71473     71474     71473     71475
     71474     71475     71476     71477     71476     71478     71477     71478
     71479     71480     71479     71481     71480     71481     71482     71483
     71482     71484     71483     71484     71485     71486     71485     71487
     71486     71487     71488     71489     71488     71490     71489     71490
     71491     71492     71491     71493     71492     71493     71494     71495
     71494     71496     71495     71496     71497     71498     71497     71499
     71498     71499     71500     71501     71500     71502     71501     71502
     71503     71504     71503     71505     71504     71505     71506     71507
     71506     71508     71507     71508     71509     71510     71509     71511
     71510     71511     71512     71513     71512     71514     71513     71514
     71515     71516     71515     71517     71516     71517     71518     71519
     71518     71520     71519     71520     71521     71522     71521     71523
     71522     71523     71524     71525     71524     71526     71525     71526
     71527     71528     71527     71529     71528     71529     71530     71531
     71530     71532     71531     71532     71533     71534     71533     71535
     71534     71535     71536     71537     71536     71538     71537     71538
     71539     71540     71539     71541     71540     71541     71542     71543
     71542     71544     71543     71544     71545     71546     71545     71547
     71546     71547     71548     71549     71548     71550     71549     71550
     71551     71552     71551     71553     71552     71553     71554     71555
     71554     71556     71555     71556     71557     71558     71557     71559
     71558     71559     71560     71561     71560     71562     71561     71562
     71563     71564     71563     71565     71564     71565     71566     71567
     71566     71568     71567     71568     71569     71570     71569     71571
     71570     71571     71572     71573     71572     71574     71573     71574
     71575     71576     71575     71577     71576     71577     71578     71579
     71578     71580     71579     71580     71581     71582     71581     71583
     71582     71583     71584     71585     71584     71586     71585     71586
     71587     71588     71587     71589     71588     71589     71590     71591
     71590     71592     71591     71592     71593     71594     71593     71595
     71594     71595     71596     71597     71596     71598     71597     71598
     71599     71600     71599     71601     71600     71601     71602     71603
     71602     71604     71603     71604     71605     71606     71605     71607
     71606     71607     71608     71609     71608     71610     71609     71610
     71611     71612     71611     71613     71612     71613     71614     71615
     71614     71616     71615     71616     71617     71618     71617     71619
     71618     71619     71620     71621     71620     71622     71621     71622
     71623     71624     71623     71625     71624     71625     71626     71627
     71626     71628     71627     71628     71629     71630     71629     71631
     71630     71631     71632     71633     71632     71634     71633     71634
     71635     71636     71635     71637     71636     71637     71638     71639
     71638     71640     71639     71640     71641     71642     71641     71643
     71642     71643     71644     71645     71644     71646     71645     71646
     71647     71648     71647     71649     71648     71649     71650     71651
     71650     71652     71651     71652     71653     71654     71653     71655
     71654     71655     71656     71657     71656     71658     71657     71658
     71659     71660     71659     71661     71660     71661     71662     71663
     71662     71664     71663     71664     71665     71666     71665     71667
     71666     71667     71668     71669     71668     71670     71669     71670
     71671     71672     71671     71673     71672     71673     71674     71675
     71674     71676     71675     71676     71677     71678     71677     71679
     71678     71679     71680     71681     71680     71682     71681     71682
     71683     71684     71683     71685     71684     71685     71686     71687
     71686     71688     71687     71688     71689     71690     71689     71691
     71690     71691     71692     71693     71692     71694     71693     71694
     71695     71696     71695     71697     71696     71697     71698     71699
     71698     71700     71699     71700     71701     71702     71701     71703
     71702     71703     71704     71705     71704     71706     71705     71706
     71707     71708     71707     71709     71708     71709     71710     71711
     71710     71712     71711     71712     71713     71714     71713     71715
     71714     71715     71716     71717     71716     71718     71717     71718
     71719     71720     71719     71721     71720     71721     71722     71723
     71722     71724     71723     71724     71725     71726     71725     71727
     71726     71727     71728     71729     71728     71730     71729     71730
     71731     71732     71731     71733     71732     71733     71734     71735
     71734     71736     71735     71736     71737     71738     71737     71739
     71738     71739     71740     71741     71740     71742     71741     71742
     71743     71744     71743     71745     71744     71745     71746     71747
     71746     71748     71747     71748     71749     71750     71749     71751
     71750     71751     71752     71753     71752     71754     71753     71754
     71755     71756     71755     71757     71756     71757     71758     71759
     71758     71760     71759     71760     71761     71762     71761     71763
     71762     71763     71764     71765     71764     71766     71765     71766
     71767     71768     71767     71769     71768     71769     71770     71771
     71770     71772     71771     71772     71773     71774     71773     71775
     71774     71775     71776     71777     71776     71778     71777     71778
     71779     71780     71779     71781     71780     71781     71782     71783
     71782     71784     71783     71784     71785     71786     71785     71787
     71786     71787     71788     71789     71788     71790     71789     71790
     71791     71792     71791     71793     71792     71793     71794     71795
     71794     71796     71795     71796     71797     71798     71797     71799
     71798     71799     71800     71801     71800     71802     71801     71802
     71803     71804     71803     71805     71804     71805     71806     71807
     71806     71808     71807     71808     71809     71810     71809     71811
     71810     71811     71812     71813     71812     71814     71813     71814
     71815     71816     71815     71817     71816     71817     71818     71819
     71818     71820     71819     71820     71821     71822     71821     71823
     71822     71823     71824     71825     71824     71826     71825     71826
     71827     71828     71827     71829     71828     71829     71830     71831
     71830     71832     71831     71832     71833     71834     71833     71835
     71834     71835     71836     71837     71836     71838     71837     71838
     71839     71840     71839     71841     71840     71841     71842     71843
     71842     71844     71843     71844     71845     71846     71845     71847
     71846     71847     71848     71849     71848     71850     71849     71850
     71851     71852     71851     71853     71852     71853     71854     71855
     71854     71856     71855     71856     71857     71858     71857     71859
     71858     71859     71860     71861     71860     71862     71861     71862
     71863     71864     71863     71865     71864     71865     71866     71867
     71866     71868     71867     71868     71869     71870     71869     71871
     71870     71871     71872     71873     71872     71874     71873     71874
     71875     71876     71875     71877     71876     71877     71878     71879
     71878     71880     71879     71880     71881     71882     71881     71883
     71882     71883     71884     71885     71884     71886     71885     71886
     71887     71888     71887     71889     71888     71889     71890     71891
     71890     71892     71891     71892     71893     71894     71893     71895
     71894     71895     71896     71897     71896     71898     71897     71898
     71899     71900     71899     71901     71900     71901     71902     71903
     71902     71904     71903     71904     71905     71906     71905     71907
     71906     71907     71908     71909     71908     71910     71909     71910
     71911     71912     71911     71913     71912     71913     71914     71915
     71914     71916     71915     71916     71917     71918     71917     71919
     71918     71919     71920     71921     71920     71922     71921     71922
     71923     71924     71923     71925     71924     71925     71926     71927
     71926     71928     71927     71928     71929     71930     71929     71931
     71930     71931     71932     71933     71932     71934     71933     71934
     71935     71936     71935     71937     71936     71937     71938     71939
     71938     71940     71939     71940     71941     71942     71941     71943
     71942     71943     71944     71945     71944     71946     71945     71946
     71947     71948     71947     71949     71948     71949     71950     71951
     71950     71952     71951     71952     71953     71954     71953     71955
     71954     71955     71956     71957     71956     71958     71957     71958
     71959     71960     71959     71961     71960     71961     71962     71963
     71962     71964     71963     71964     71965     71966     71965     71967
     71966     71967     71968     71969     71968     71970     71969     71970
     71971     71972     71971     71973     71972     71973     71974     71975
     71974     71976     71975     71976     71977     71978     71977     71979
     71978     71979     71980     71981     71980     71982     71981     71982
     71983     71984     71983     71985     71984     71985     71986     71987
     71986     71988     71987     71988     71989     71990     71989     71991
     71990     71991     71992     71993     71992     71994     71993     71994
     71995     71996     71995     71997     71996     71997     71998     71999
     71998     72000     71999     72000     72001     72002     72001     72003
     72002     72003     72004     72005     72004     72006     72005     72006
     72007     72008     72007     72009     72008     72009     72010     72011
     72010     72012     72011     72012     72013     72014     72013     72015
     72014     72015     72016     72017     72016     72018     72017     72018
     72019     72020     72019     72021     72020     72021     72022     72023
     72022     72024     72023     72024     72025     72026     72025     72027
     72026     72027     72028     72029     72028     72030     72029     72030
     72031     72032     72031     72033     72032     72033     72034     72035
     72034     72036     72035     72036     72037     72038     72037     72039
     72038     72039     72040     72041     72040     72042     72041     72042
     72043     72044     72043     72045     72044     72045     72046     72047
     72046     72048     72047     72048     72049     72050     72049     72051
     72050     72051     72052     72053     72052     72054     72053     72054
     72055     72056     72055     72057     72056     72057     72058     72059
     72058     72060     72059     72060     72061     72062     72061     72063
     72062     72063     72064     72065     72064     72066     72065     72066
     72067     72068     72067     72069     72068     72069     72070     72071
     72070     72072     72071     72072     72073     72074     72073     72075
     72074     72075     72076     72077     72076     72078     72077     72078
     72079     72080     72079     72081     72080     72081     72082     72083
     72082     72084     72083     72084     72085     72086     72085     72087
     72086     72087     72088     72089     72088     72090     72089     72090
     72091     72092     72091     72093     72092     72093     72094     72095
     72094     72096     72095     72096     72097     72098     72097     72099
     72098     72099     72100     72101     72100     72102     72101     72102
     72103     72104     72103     72105     72104     72105     72106     72107
     72106     72108     72107     72108     72109     72110     72109     72111
     72110     72111     72112     72113     72112     72114     72113     72114
     72115     72116     72115     72117     72116     72117     72118     72119
     72118     72120     72119     72120     72121     72122     72121     72123
     72122     72123     72124     72125     72124     72126     72125     72126
     72127     72128     72127     72129     72128     72129     72130     72131
     72130     72132     72131     72132     72133     72134     72133     72135
     72134     72135     72136     72137     72136     72138     72137     72138
     72139     72140     72139     72141     72140     72141     72142     72143
     72142     72144     72143     72144     72145     72146     72145     72147
     72146     72147     72148     72149     72148     72150     72149     72150
     72151     72152     72151     72153     72152     72153     72154     72155
     72154     72156     72155     72156     72157     72158     72157     72159
     72158     72159     72160     72161     72160     72162     72161     72162
     72163     72164     72163     72165     72164     72165     72166     72167
     72166     72168     72167     72168     72169     72170     72169     72171
     72170     72171     72172     72173     72172     72174     72173     72174
     72175     72176     72175     72177     72176     72177     72178     72179
     72178     72180     72179     72180     72181     72182     72181     72183
     72182     72183     72184     72185     72184     72186     72185     72186
     72187     72188     72187     72189     72188     72189     72190     72191
     72190     72192     72191     72192     72193     72194     72193     72195
     72194     72195     72196     72197     72196     72198     72197     72198
     72199     72200     72199     72201     72200     72201     72202     72203
     72202     72204     72203     72204     72205     72206     72205     72207
     72206     72207     72208     72209     72208     72210     72209     72210
     72211     72212     72211     72213     72212     72213     72214     72215
     72214     72216     72215     72216     72217     72218     72217     72219
     72218     72219     72220     72221     72220     72222     72221     72222
     72223     72224     72223     72225     72224     72225     72226     72227
     72226     72228     72227     72228     72229     72230     72229     72231
     72230     72231     72232     72233     72232     72234     72233     72234
     72235     72236     72235     72237     72236     72237     72238     72239
     72238     72240     72239     72240     72241     72242     72241     72243
     72242     72243     72244     72245     72244     72246     72245     72246
     72247     72248     72247     72249     72248     72249     72250     72251
     72250     72252     72251     72252     72253     72254     72253     72255
     72254     72255     72256     72257     72256     72258     72257     72258
     72259     72260     72259     72261     72260     72261     72262     72263
     72262     72264     72263     72264     72265     72266     72265     72267
     72266     72267     72268     72269     72268     72270     72269     72270
     72271     72272     72271     72273     72272     72273     72274     72275
     72274     72276     72275     72276     72277     72278     72277     72279
     72278     72279     72280     72281     72280     72282     72281     72282
     72283     72284     72283     72285     72284     72285     72286     72287
     72286     72288     72287     72288     72289     72290     72289     72291
     72290     72291     72292     72293     72292     72294     72293     72294
     72295     72296     72295     72297     72296     72297     72298     72299
     72298     72300     72299     72300     72301     72302     72301     72303
     72302     72303     72304     72305     72304     72306     72305     72306
     72307     72308     72307     72309     72308     72309     72310     72311
     72310     72312     72311     72312     72313     72314     72313     72315
     72314     72315     72316     72317     72316     72318     72317     72318
     72319     72320     72319     72321     72320     72321     72322     72323
     72322     72324     72323     72324     72325     72326     72325     72327
     72326     72327     72328     72329     72328     72330     72329     72330
     72331     72332     72331     72333     72332     72333     72334     72335
     72334     72336     72335     72336     72337     72338     72337     72339
     72338     72339     72340     72341     72340     72342     72341     72342
     72343     72344     72343     72345     72344     72345     72346     72347
     72346     72348     72347     72348     72349     72350     72349     72351
     72350     72351     72352     72353     72352     72354     72353     72354
     72355     72356     72355     72357     72356     72357     72358     72359
     72358     72360     72359     72360     72361     72362     72361     72363
     72362     72363     72364     72365     72364     72366     72365     72366
     72367     72368     72367     72369     72368     72369     72370     72371
     72370     72372     72371     72372     72373     72374     72373     72375
     72374     72375     72376     72377     72376     72378     72377     72378
     72379     72380     72379     72381     72380     72381     72382     72383
     72382     72384     72383     72384     72385     72386     72385     72387
     72386     72387     72388     72389     72388     72390     72389     72390
     72391     72392     72391     72393     72392     72393     72394     72395
     72394     72396     72395     72396     72397     72398     72397     72399
     72398     72399     72400     72401     72400     72402     72401     72402
     72403     72404     72403     72405     72404     72405     72406     72407
     72406     72408     72407     72408     72409     72410     72409     72411
     72410     72411     72412     72413     72412     72414     72413     72414
     72415     72416     72415     72417     72416     72417     72418     72419
     72418     72420     72419     72420     72421     72422     72421     72423
     72422     72423     72424     72425     72424     72426     72425     72426
     72427     72428     72427     72429     72428     72429     72430     72431
     72430     72432     72431     72432     72433     72434     72433     72435
     72434     72435     72436     72437     72436     72438     72437     72438
     72439     72440     72439     72441     72440     72441     72442     72443
     72442     72444     72443     72444     72445     72446     72445     72447
     72446     72447     72448     72449     72448     72450     72449     72450
     72451     72452     72451     72453     72452     72453     72454     72455
     72454     72456     72455     72456     72457     72458     72457     72459
     72458     72459     72460     72461     72460     72462     72461     72462
     72463     72464     72463     72465     72464     72465     72466     72467
     72466     72468     72467     72468     72469     72470     72469     72471
     72470     72471     72472     72473     72472     72474     72473     72474
     72475     72476     72475     72477     72476     72477     72478     72479
     72478     72480     72479     72480     72481     72482     72481     72483
     72482     72483     72484     72485     72484     72486     72485     72486
     72487     72488     72487     72489     72488     72489     72490     72491
     72490     72492     72491     72492     72493     72494     72493     72495
     72494     72495     72496     72497     72496     72498     72497     72498
     72499     72500     72499     72501     72500     72501     72502     72503
     72502     72504     72503     72504     72505     72506     72505     72507
     72506     72507     72508     72509     72508     72510     72509     72510
     72511     72512     72511     72513     72512     72513     72514     72515
     72514     72516     72515     72516     72517     72518     72517     72519
     72518     72519     72520     72521     72520     72522     72521     72522
     72523     72524     72523     72525     72524     72525     72526     72527
     72526     72528     72527     72528     72529     72530     72529     72531
     72530     72531     72532     72533     72532     72534     72533     72534
     72535     72536     72535     72537     72536     72537     72538     72539
     72538     72540     72539     72540     72541     72542     72541     72543
     72542     72543     72544     72545     72544     72546     72545     72546
     72547     72548     72547     72549     72548     72549     72550     72551
     72550     72552     72551     72552     72553     72554     72553     72555
     72554     72555     72556     72557     72556     72558     72557     72558
     72559     72560     72559     72561     72560     72561     72562     72563
     72562     72564     72563     72564     72565     72566     72565     72567
     72566     72567     72568     72569     72568     72570     72569     72570
     72571     72572     72571     72573     72572     72573     72574     72575
     72574     72576     72575     72576     72577     72578     72577     72579
     72578     72579     72580     72581     72580     72582     72581     72582
     72583     72584     72583     72585     72584     72585     72586     72587
     72586     72588     72587     72588     72589     72590     72589     72591
     72590     72591     72592     72593     72592     72594     72593     72594
     72595     72596     72595     72597     72596     72597     72598     72599
     72598     72600     72599     72600     72601     72602     72601     72603
     72602     72603     72604     72605     72604     72606     72605     72606
     72607     72608     72607     72609     72608     72609     72610     72611
     72610     72612     72611     72612     72613     72614     72613     72615
     72614     72615     72616     72617     72616     72618     72617     72618
     72619     72620     72619     72621     72620     72621     72622     72623
     72622     72624     72623     72624     72625     72626     72625     72627
     72626     72627     72628     72629     72628     72630     72629     72630
     72631     72632     72631     72633     72632     72633     72634     72635
     72634     72636     72635     72636     72637     72638     72637     72639
     72638     72639     72640     72641     72640     72642     72641     72642
     72643     72644     72643     72645     72644     72645     72646     72647
     72646     72648     72647     72648     72649     72650     72649     72651
     72650     72651     72652     72653     72652     72654     72653     72654
     72655     72656     72655     72657     72656     72657     72658     72659
     72658     72660     72659     72660     72661     72662     72661     72663
     72662     72663     72664     72665     72664     72666     72665     72666
     72667     72668     72667     72669     72668     72669     72670     72671
     72670     72672     72671     72672     72673     72674     72673     72675
     72674     72675     72676     72677     72676     72678     72677     72678
     72679     72680     72679     72681     72680     72681     72682     72683
     72682     72684     72683     72684     72685     72686     72685     72687
     72686     72687     72688     72689     72688     72690     72689     72690
     72691     72692     72691     72693     72692     72693     72694     72695
     72694     72696     72695     72696     72697     72698     72697     72699
     72698     72699     72700     72701     72700     72702     72701     72702
     72703     72704     72703     72705     72704     72705     72706     72707
     72706     72708     72707     72708     72709     72710     72709     72711
     72710     72711     72712     72713     72712     72714     72713     72714
     72715     72716     72715     72717     72716     72717     72718     72719
     72718     72720     72719     72720     72721     72722     72721     72723
     72722     72723     72724     72725     72724     72726     72725     72726
     72727     72728     72727     72729     72728     72729     72730     72731
     72730     72732     72731     72732     72733     72734     72733     72735
     72734     72735     72736     72737     72736     72738     72737     72738
     72739     72740     72739     72741     72740     72741     72742     72743
     72742     72744     72743     72744     72745     72746     72745     72747
     72746     72747     72748     72749     72748     72750     72749     72750
     72751     72752     72751     72753     72752     72753     72754     72755
     72754     72756     72755     72756     72757     72758     72757     72759
     72758     72759     72760     72761     72760     72762     72761     72762
     72763     72764     72763     72765     72764     72765     72766     72767
     72766     72768     72767     72768     72769     72770     72769     72771
     72770     72771     72772     72773     72772     72774     72773     72774
     72775     72776     72775     72777     72776     72777     72778     72779
     72778     72780     72779     72780     72781     72782     72781     72783
     72782     72783     72784     72785     72784     72786     72785     72786
     72787     72788     72787     72789     72788     72789     72790     72791
     72790     72792     72791     72792     72793     72794     72793     72795
     72794     72795     72796     72797     72796     72798     72797     72798
     72799     72800     72799     72801     72800     72801     72802     72803
     72802     72804     72803     72804     72805     72806     72805     72807
     72806     72807     72808     72809     72808     72810     72809     72810
     72811     72812     72811     72813     72812     72813     72814     72815
     72814     72816     72815     72816     72817     72818     72817     72819
     72818     72819     72820     72821     72820     72822     72821     72822
     72823     72824     72823     72825     72824     72825     72826     72827
     72826     72828     72827     72828     72829     72830     72829     72831
     72830     72831     72832     72833     72832     72834     72833     72834
     72835     72836     72835     72837     72836     72837     72838     72839
     72838     72840     72839     72840     72841     72842     72841     72843
     72842     72843     72844     72845     72844     72846     72845     72846
     72847     72848     72847     72849     72848     72849     72850     72851
     72850     72852     72851     72852     72853     72854     72853     72855
     72854     72855     72856     72857     72856     72858     72857     72858
     72859     72860     72859     72861     72860     72861     72862     72863
     72862     72864     72863     72864     72865     72866     72865     72867
     72866     72867     72868     72869     72868     72870     72869     72870
     72871     72872     72871     72873     72872     72873     72874     72875
     72874     72876     72875     72876     72877     72878     72877     72879
     72878     72879     72880     72881     72880     72882     72881     72882
     72883     72884     72883     72885     72884     72885     72886     72887
     72886     72888     72887     72888     72889     72890     72889     72891
     72890     72891     72892     72893     72892     72894     72893     72894
     72895     72896     72895     72897     72896     72897     72898     72899
     72898     72900     72899     72900     72901     72902     72901     72903
     72902     72903     72904     72905     72904     72906     72905     72906
     72907     72908     72907     72909     72908     72909     72910     72911
     72910     72912     72911     72912     72913     72914     72913     72915
     72914     72915     72916     72917     72916     72918     72917     72918
     72919     72920     72919     72921     72920     72921     72922     72923
     72922     72924     72923     72924     72925     72926     72925     72927
     72926     72927     72928     72929     72928     72930     72929     72930
     72931     72932     72931     72933     72932     72933     72934     72935
     72934     72936     72935     72936     72937     72938     72937     72939
     72938     72939     72940     72941     72940     72942     72941     72942
     72943     72944     72943     72945     72944     72945     72946     72947
     72946     72948     72947     72948     72949     72950     72949     72951
     72950     72951     72952     72953     72952     72954     72953     72954
     72955     72956     72955     72957     72956     72957     72958     72959
     72958     72960     72959     72960     72961     72962     72961     72963
     72962     72963     72964     72965     72964     72966     72965     72966
     72967     72968     72967     72969     72968     72969     72970     72971
     72970     72972     72971     72972     72973     72974     72973     72975
     72974     72975     72976     72977     72976     72978     72977     72978
     72979     72980     72979     72981     72980     72981     72982     72983
     72982     72984     72983     72984     72985     72986     72985     72987
     72986     72987     72988     72989     72988     72990     72989     72990
     72991     72992     72991     72993     72992     72993     72994     72995
     72994     72996     72995     72996     72997     72998     72997     72999
     72998     72999     73000     73001     73000     73002     73001     73002
     73003     73004     73003     73005     73004     73005     73006     73007
     73006     73008     73007     73008     73009     73010     73009     73011
     73010     73011     73012     73013     73012     73014     73013     73014
     73015     73016     73015     73017     73016     73017     73018     73019
     73018     73020     73019     73020     73021     73022     73021     73023
     73022     73023     73024     73025     73024     73026     73025     73026
     73027     73028     73027     73029     73028     73029     73030     73031
     73030     73032     73031     73032     73033     73034     73033     73035
     73034     73035     73036     73037     73036     73038     73037     73038
     73039     73040     73039     73041     73040     73041     73042     73043
     73042     73044     73043     73044     73045     73046     73045     73047
     73046     73047     73048     73049     73048     73050     73049     73050
     73051     73052     73051     73053     73052     73053     73054     73055
     73054     73056     73055     73056     73057     73058     73057     73059
     73058     73059     73060     73061     73060     73062     73061     73062
     73063     73064     73063     73065     73064     73065     73066     73067
     73066     73068     73067     73068     73069     73070     73069     73071
     73070     73071     73072     73073     73072     73074     73073     73074
     73075     73076     73075     73077     73076     73077     73078     73079
     73078     73080     73079     73080     73081     73082     73081     73083
     73082     73083     73084     73085     73084     73086     73085     73086
     73087     73088     73087     73089     73088     73089     73090     73091
     73090     73092     73091     73092     73093     73094     73093     73095
     73094     73095     73096     73097     73096     73098     73097     73098
     73099     73100     73099     73101     73100     73101     73102     73103
     73102     73104     73103     73104     73105     73106     73105     73107
     73106     73107     73108     73109     73108     73110     73109     73110
     73111     73112     73111     73113     73112     73113     73114     73115
     73114     73116     73115     73116     73117     73118     73117     73119
     73118     73119     73120     73121     73120     73122     73121     73122
     73123     73124     73123     73125     73124     73125     73126     73127
     73126     73128     73127     73128     73129     73130     73129     73131
     73130     73131     73132     73133     73132     73134     73133     73134
     73135     73136     73135     73137     73136     73137     73138     73139
     73138     73140     73139     73140     73141     73142     73141     73143
     73142     73143     73144     73145     73144     73146     73145     73146
     73147     73148     73147     73149     73148     73149     73150     73151
     73150     73152     73151     73152     73153     73154     73153     73155
     73154     73155     73156     73157     73156     73158     73157     73158
     73159     73160     73159     73161     73160     73161     73162     73163
     73162     73164     73163     73164     73165     73166     73165     73167
     73166     73167     73168     73169     73168     73170     73169     73170
     73171     73172     73171     73173     73172     73173     73174     73175
     73174     73176     73175     73176     73177     73178     73177     73179
     73178     73179     73180     73181     73180     73182     73181     73182
     73183     73184     73183     73185     73184     73185     73186     73187
     73186     73188     73187     73188     73189     73190     73189     73191
     73190     73191     73192     73193     73192     73194     73193     73194
     73195     73196     73195     73197     73196     73197     73198     73199
     73198     73200     73199     73200     73201     73202     73201     73203
     73202     73203     73204     73205     73204     73206     73205     73206
     73207     73208     73207     73209     73208     73209     73210     73211
     73210     73212     73211     73212     73213     73214     73213     73215
     73214     73215     73216     73217     73216     73218     73217     73218
     73219     73220     73219     73221     73220     73221     73222     73223
     73222     73224     73223     73224     73225     73226     73225     73227
     73226     73227     73228     73229     73228     73230     73229     73230
     73231     73232     73231     73233     73232     73233     73234     73235
     73234     73236     73235     73236     73237     73238     73237     73239
     73238     73239     73240     73241     73240     73242     73241     73242
     73243     73244     73243     73245     73244     73245     73246     73247
     73246     73248     73247     73248     73249     73250     73249     73251
     73250     73251     73252     73253     73252     73254     73253     73254
     73255     73256     73255     73257     73256     73257     73258     73259
     73258     73260     73259     73260     73261     73262     73261     73263
     73262     73263     73264     73265     73264     73266     73265     73266
     73267     73268     73267     73269     73268     73269     73270     73271
     73270     73272     73271     73272     73273     73274     73273     73275
     73274     73275     73276     73277     73276     73278     73277     73278
     73279     73280     73279     73281     73280     73281     73282     73283
     73282     73284     73283     73284     73285     73286     73285     73287
     73286     73287     73288     73289     73288     73290     73289     73290
     73291     73292     73291     73293     73292     73293     73294     73295
     73294     73296     73295     73296     73297     73298     73297     73299
     73298     73299     73300     73301     73300     73302     73301     73302
     73303     73304     73303     73305     73304     73305     73306     73307
     73306     73308     73307     73308     73309     73310     73309     73311
     73310     73311     73312     73313     73312     73314     73313     73314
     73315     73316     73315     73317     73316     73317     73318     73319
     73318     73320     73319     73320     73321     73322     73321     73323
     73322     73323     73324     73325     73324     73326     73325     73326
     73327     73328     73327     73329     73328     73329     73330     73331
     73330     73332     73331     73332     73333     73334     73333     73335
     73334     73335     73336     73337     73336     73338     73337     73338
     73339     73340     73339     73341     73340     73341     73342     73343
     73342     73344     73343     73344     73345     73346     73345     73347
     73346     73347     73348     73349     73348     73350     73349     73350
     73351     73352     73351     73353     73352     73353     73354     73355
     73354     73356     73355     73356     73357     73358     73357     73359
     73358     73359     73360     73361     73360     73362     73361     73362
     73363     73364     73363     73365     73364     73365     73366     73367
     73366     73368     73367     73368     73369     73370     73369     73371
     73370     73371     73372     73373     73372     73374     73373     73374
     73375     73376     73375     73377     73376     73377     73378     73379
     73378     73380     73379     73380     73381     73382     73381     73383
     73382     73383     73384     73385     73384     73386     73385     73386
     73387     73388     73387     73389     73388     73389     73390     73391
     73390     73392     73391     73392     73393     73394     73393     73395
     73394     73395     73396     73397     73396     73398     73397     73398
     73399     73400     73399     73401     73400     73401     73402     73403
     73402     73404     73403     73404     73405     73406     73405     73407
     73406     73407     73408     73409     73408     73410     73409     73410
     73411     73412     73411     73413     73412     73413     73414     73415
     73414     73416     73415     73416     73417     73418     73417     73419
     73418     73419     73420     73421     73420     73422     73421     73422
     73423     73424     73423     73425     73424     73425     73426     73427
     73426     73428     73427     73428     73429     73430     73429     73431
     73430     73431     73432     73433     73432     73434     73433     73434
     73435     73436     73435     73437     73436     73437     73438     73439
     73438     73440     73439     73440     73441     73442     73441     73443
     73442     73443     73444     73445     73444     73446     73445     73446
     73447     73448     73447     73449     73448     73449     73450     73451
     73450     73452     73451     73452     73453     73454     73453     73455
     73454     73455     73456     73457     73456     73458     73457     73458
     73459     73460     73459     73461     73460     73461     73462     73463
     73462     73464     73463     73464     73465     73466     73465     73467
     73466     73467     73468     73469     73468     73470     73469     73470
     73471     73472     73471     73473     73472     73473     73474     73475
     73474     73476     73475     73476     73477     73478     73477     73479
     73478     73479     73480     73481     73480     73482     73481     73482
     73483     73484     73483     73485     73484     73485     73486     73487
     73486     73488     73487     73488     73489     73490     73489     73491
     73490     73491     73492     73493     73492     73494     73493     73494
     73495     73496     73495     73497     73496     73497     73498     73499
     73498     73500     73499     73500     73501     73502     73501     73503
     73502     73503     73504     73505     73504     73506     73505     73506
     73507     73508     73507     73509     73508     73509     73510     73511
     73510     73512     73511     73512     73513     73514     73513     73515
     73514     73515     73516     73517     73516     73518     73517     73518
     73519     73520     73519     73521     73520     73521     73522     73523
     73522     73524     73523     73524     73525     73526     73525     73527
     73526     73527     73528     73529     73528     73530     73529     73530
     73531     73532     73531     73533     73532     73533     73534     73535
     73534     73536     73535     73536     73537     73538     73537     73539
     73538     73539     73540     73541     73540     73542     73541     73542
     73543     73544     73543     73545     73544     73545     73546     73547
     73546     73548     73547     73548     73549     73550     73549     73551
     73550     73551     73552     73553     73552     73554     73553     73554
     73555     73556     73555     73557     73556     73557     73558     73559
     73558     73560     73559     73560     73561     73562     73561     73563
     73562     73563     73564     73565     73564     73566     73565     73566
     73567     73568     73567     73569     73568     73569     73570     73571
     73570     73572     73571     73572     73573     73574     73573     73575
     73574     73575     73576     73577     73576     73578     73577     73578
     73579     73580     73579     73581     73580     73581     73582     73583
     73582     73584     73583     73584     73585     73586     73585     73587
     73586     73587     73588     73589     73588     73590     73589     73590
     73591     73592     73591     73593     73592     73593     73594     73595
     73594     73596     73595     73596     73597     73598     73597     73599
     73598     73599     73600     73601     73600     73602     73601     73602
     73603     73604     73603     73605     73604     73605     73606     73607
     73606     73608     73607     73608     73609     73610     73609     73611
     73610     73611     73612     73613     73612     73614     73613     73614
     73615     73616     73615     73617     73616     73617     73618     73619
     73618     73620     73619     73620     73621     73622     73621     73623
     73622     73623     73624     73625     73624     73626     73625     73626
     73627     73628     73627     73629     73628     73629     73630     73631
     73630     73632     73631     73632     73633     73634     73633     73635
     73634     73635     73636     73637     73636     73638     73637     73638
     73639     73640     73639     73641     73640     73641     73642     73643
     73642     73644     73643     73644     73645     73646     73645     73647
     73646     73647     73648     73649     73648     73650     73649     73650
     73651     73652     73651     73653     73652     73653     73654     73655
     73654     73656     73655     73656     73657     73658     73657     73659
     73658     73659     73660     73661     73660     73662     73661     73662
     73663     73664     73663     73665     73664     73665     73666     73667
     73666     73668     73667     73668     73669     73670     73669     73671
     73670     73671     73672     73673     73672     73674     73673     73674
     73675     73676     73675     73677     73676     73677     73678     73679
     73678     73680     73679     73680     73681     73682     73681     73683
     73682     73683     73684     73685     73684     73686     73685     73686
     73687     73688     73687     73689     73688     73689     73690     73691
     73690     73692     73691     73692     73693     73694     73693     73695
     73694     73695     73696     73697     73696     73698     73697     73698
     73699     73700     73699     73701     73700     73701     73702     73703
     73702     73704     73703     73704     73705     73706     73705     73707
     73706     73707     73708     73709     73708     73710     73709     73710
     73711     73712     73711     73713     73712     73713     73714     73715
     73714     73716     73715     73716     73717     73718     73717     73719
     73718     73719     73720     73721     73720     73722     73721     73722
     73723     73724     73723     73725     73724     73725     73726     73727
     73726     73728     73727     73728     73729     73730     73729     73731
     73730     73731     73732     73733     73732     73734     73733     73734
     73735     73736     73735     73737     73736     73737     73738     73739
     73738     73740     73739     73740     73741     73742     73741     73743
     73742     73743     73744     73745     73744     73746     73745     73746
     73747     73748     73747     73749     73748     73749     73750     73751
     73750     73752     73751     73752     73753     73754     73753     73755
     73754     73755     73756     73757     73756     73758     73757     73758
     73759     73760     73759     73761     73760     73761     73762     73763
     73762     73764     73763     73764     73765     73766     73765     73767
     73766     73767     73768     73769     73768     73770     73769     73770
     73771     73772     73771     73773     73772     73773     73774     73775
     73774     73776     73775     73776     73777     73778     73777     73779
     73778     73779     73780     73781     73780     73782     73781     73782
     73783     73784     73783     73785     73784     73785     73786     73787
     73786     73788     73787     73788     73789     73790     73789     73791
     73790     73791     73792     73793     73792     73794     73793     73794
     73795     73796     73795     73797     73796     73797     73798     73799
     73798     73800     73799     73800     73801     73802     73801     73803
     73802     73803     73804     73805     73804     73806     73805     73806
     73807     73808     73807     73809     73808     73809     73810     73811
     73810     73812     73811     73812     73813     73814     73813     73815
     73814     73815     73816     73817     73816     73818     73817     73818
     73819     73820     73819     73821     73820     73821     73822     73823
     73822     73824     73823     73824     73825     73826     73825     73827
     73826     73827     73828     73829     73828     73830     73829     73830
     73831     73832     73831     73833     73832     73833     73834     73835
     73834     73836     73835     73836     73837     73838     73837     73839
     73838     73839     73840     73841     73840     73842     73841     73842
     73843     73844     73843     73845     73844     73845     73846     73847
     73846     73848     73847     73848     73849     73850     73849     73851
     73850     73851     73852     73853     73852     73854     73853     73854
     73855     73856     73855     73857     73856     73857     73858     73859
     73858     73860     73859     73860     73861     73862     73861     73863
     73862     73863     73864     73865     73864     73866     73865     73866
     73867     73868     73867     73869     73868     73869     73870     73871
     73870     73872     73871     73872     73873     73874     73873     73875
     73874     73875     73876     73877     73876     73878     73877     73878
     73879     73880     73879     73881     73880     73881     73882     73883
     73882     73884     73883     73884     73885     73886     73885     73887
     73886     73887     73888     73889     73888     73890     73889     73890
     73891     73892     73891     73893     73892     73893     73894     73895
     73894     73896     73895     73896     73897     73898     73897     73899
     73898     73899     73900     73901     73900     73902     73901     73902
     73903     73904     73903     73905     73904     73905     73906     73907
     73906     73908     73907     73908     73909     73910     73909     73911
     73910     73911     73912     73913     73912     73914     73913     73914
     73915     73916     73915     73917     73916     73917     73918     73919
     73918     73920     73919     73920     73921     73922     73921     73923
     73922     73923     73924     73925     73924     73926     73925     73926
     73927     73928     73927     73929     73928     73929     73930     73931
     73930     73932     73931     73932     73933     73934     73933     73935
     73934     73935     73936     73937     73936     73938     73937     73938
     73939     73940     73939     73941     73940     73941     73942     73943
     73942     73944     73943     73944     73945     73946     73945     73947
     73946     73947     73948     73949     73948     73950     73949     73950
     73951     73952     73951     73953     73952     73953     73954     73955
     73954     73956     73955     73956     73957     73958     73957     73959
     73958     73959     73960     73961     73960     73962     73961     73962
     73963     73964     73963     73965     73964     73965     73966     73967
     73966     73968     73967     73968     73969     73970     73969     73971
     73970     73971     73972     73973     73972     73974     73973     73974
     73975     73976     73975     73977     73976     73977     73978     73979
     73978     73980     73979     73980     73981     73982     73981     73983
     73982     73983     73984     73985     73984     73986     73985     73986
     73987     73988     73987     73989     73988     73989     73990     73991
     73990     73992     73991     73992     73993     73994     73993     73995
     73994     73995     73996     73997     73996     73998     73997     73998
     73999     74000     73999     74001     74000     74001     74002     74003
     74002     74004     74003     74004     74005     74006     74005     74007
     74006     74007     74008     74009     74008     74010     74009     74010
     74011     74012     74011     74013     74012     74013     74014     74015
     74014     74016     74015     74016     74017     74018     74017     74019
     74018     74019     74020     74021     74020     74022     74021     74022
     74023     74024     74023     74025     74024     74025     74026     74027
     74026     74028     74027     74028     74029     74030     74029     74031
     74030     74031     74032     74033     74032     74034     74033     74034
     74035     74036     74035     74037     74036     74037     74038     74039
     74038     74040     74039     74040     74041     74042     74041     74043
     74042     74043     74044     74045     74044     74046     74045     74046
     74047     74048     74047     74049     74048     74049     74050     74051
     74050     74052     74051     74052     74053     74054     74053     74055
     74054     74055     74056     74057     74056     74058     74057     74058
     74059     74060     74059     74061     74060     74061     74062     74063
     74062     74064     74063     74064     74065     74066     74065     74067
     74066     74067     74068     74069     74068     74070     74069     74070
     74071     74072     74071     74073     74072     74073     74074     74075
     74074     74076     74075     74076     74077     74078     74077     74079
     74078     74079     74080     74081     74080     74082     74081     74082
     74083     74084     74083     74085     74084     74085     74086     74087
     74086     74088     74087     74088     74089     74090     74089     74091
     74090     74091     74092     74093     74092     74094     74093     74094
     74095     74096     74095     74097     74096     74097     74098     74099
     74098     74100     74099     74100     74101     74102     74101     74103
     74102     74103     74104     74105     74104     74106     74105     74106
     74107     74108     74107     74109     74108     74109     74110     74111
     74110     74112     74111     74112     74113     74114     74113     74115
     74114     74115     74116     74117     74116     74118     74117     74118
     74119     74120     74119     74121     74120     74121     74122     74123
     74122     74124     74123     74124     74125     74126     74125     74127
     74126     74127     74128     74129     74128     74130     74129     74130
     74131     74132     74131     74133     74132     74133     74134     74135
     74134     74136     74135     74136     74137     74138     74137     74139
     74138     74139     74140     74141     74140     74142     74141     74142
     74143     74144     74143     74145     74144     74145     74146     74147
     74146     74148     74147     74148     74149     74150     74149     74151
     74150     74151     74152     74153     74152     74154     74153     74154
     74155     74156     74155     74157     74156     74157     74158     74159
     74158     74160     74159     74160     74161     74162     74161     74163
     74162     74163     74164     74165     74164     74166     74165     74166
     74167     74168     74167     74169     74168     74169     74170     74171
     74170     74172     74171     74172     74173     74174     74173     74175
     74174     74175     74176     74177     74176     74178     74177     74178
     74179     74180     74179     74181     74180     74181     74182     74183
     74182     74184     74183     74184     74185     74186     74185     74187
     74186     74187     74188     74189     74188     74190     74189     74190
     74191     74192     74191     74193     74192     74193     74194     74195
     74194     74196     74195     74196     74197     74198     74197     74199
     74198     74199     74200     74201     74200     74202     74201     74202
     74203     74204     74203     74205     74204     74205     74206     74207
     74206     74208     74207     74208     74209     74210     74209     74211
     74210     74211     74212     74213     74212     74214     74213     74214
     74215     74216     74215     74217     74216     74217     74218     74219
     74218     74220     74219     74220     74221     74222     74221     74223
     74222     74223     74224     74225     74224     74226     74225     74226
     74227     74228     74227     74229     74228     74229     74230     74231
     74230     74232     74231     74232     74233     74234     74233     74235
     74234     74235     74236     74237     74236     74238     74237     74238
     74239     74240     74239     74241     74240     74241     74242     74243
     74242     74244     74243     74244     74245     74246     74245     74247
     74246     74247     74248     74249     74248     74250     74249     74250
     74251     74252     74251     74253     74252     74253     74254     74255
     74254     74256     74255     74256     74257     74258     74257     74259
     74258     74259     74260     74261     74260     74262     74261     74262
     74263     74264     74263     74265     74264     74265     74266     74267
     74266     74268     74267     74268     74269     74270     74269     74271
     74270     74271     74272     74273     74272     74274     74273     74274
     74275     74276     74275     74277     74276     74277     74278     74279
     74278     74280     74279     74280     74281     74282     74281     74283
     74282     74283     74284     74285     74284     74286     74285     74286
     74287     74288     74287     74289     74288     74289     74290     74291
     74290     74292     74291     74292     74293     74294     74293     74295
     74294     74295     74296     74297     74296     74298     74297     74298
     74299     74300     74299     74301     74300     74301     74302     74303
     74302     74304     74303     74304     74305     74306     74305     74307
     74306     74307     74308     74309     74308     74310     74309     74310
     74311     74312     74311     74313     74312     74313     74314     74315
     74314     74316     74315     74316     74317     74318     74317     74319
     74318     74319     74320     74321     74320     74322     74321     74322
     74323     74324     74323     74325     74324     74325     74326     74327
     74326     74328     74327     74328     74329     74330     74329     74331
     74330     74331     74332     74333     74332     74334     74333     74334
     74335     74336     74335     74337     74336     74337     74338     74339
     74338     74340     74339     74340     74341     74342     74341     74343
     74342     74343     74344     74345     74344     74346     74345     74346
     74347     74348     74347     74349     74348     74349     74350     74351
     74350     74352     74351     74352     74353     74354     74353     74355
     74354     74355     74356     74357     74356     74358     74357     74358
     74359     74360     74359     74361     74360     74361     74362     74363
     74362     74364     74363     74364     74365     74366     74365     74367
     74366     74367     74368     74369     74368     74370     74369     74370
     74371     74372     74371     74373     74372     74373     74374     74375
     74374     74376     74375     74376     74377     74378     74377     74379
     74378     74379     74380     74381     74380     74382     74381     74382
     74383     74384     74383     74385     74384     74385     74386     74387
     74386     74388     74387     74388     74389     74390     74389     74391
     74390     74391     74392     74393     74392     74394     74393     74394
     74395     74396     74395     74397     74396     74397     74398     74399
     74398     74400     74399     74400     74401     74402     74401     74403
     74402     74403     74404     74405     74404     74406     74405     74406
     74407     74408     74407     74409     74408     74409     74410     74411
     74410     74412     74411     74412     74413     74414     74413     74415
     74414     74415     74416     74417     74416     74418     74417     74418
     74419     74420     74419     74421     74420     74421     74422     74423
     74422     74424     74423     74424     74425     74426     74425     74427
     74426     74427     74428     74429     74428     74430     74429     74430
     74431     74432     74431     74433     74432     74433     74434     74435
     74434     74436     74435     74436     74437     74438     74437     74439
     74438     74439     74440     74441     74440     74442     74441     74442
     74443     74444     74443     74445     74444     74445     74446     74447
     74446     74448     74447     74448     74449     74450     74449     74451
     74450     74451     74452     74453     74452     74454     74453     74454
     74455     74456     74455     74457     74456     74457     74458     74459
     74458     74460     74459     74460     74461     74462     74461     74463
     74462     74463     74464     74465     74464     74466     74465     74466
     74467     74468     74467     74469     74468     74469     74470     74471
     74470     74472     74471     74472     74473     74474     74473     74475
     74474     74475     74476     74477     74476     74478     74477     74478
     74479     74480     74479     74481     74480     74481     74482     74483
     74482     74484     74483     74484     74485     74486     74485     74487
     74486     74487     74488     74489     74488     74490     74489     74490
     74491     74492     74491     74493     74492     74493     74494     74495
     74494     74496     74495     74496     74497     74498     74497     74499
     74498     74499     74500     74501     74500     74502     74501     74502
     74503     74504     74503     74505     74504     74505     74506     74507
     74506     74508     74507     74508     74509     74510     74509     74511
     74510     74511     74512     74513     74512     74514     74513     74514
     74515     74516     74515     74517     74516     74517     74518     74519
     74518     74520     74519     74520     74521     74522     74521     74523
     74522     74523     74524     74525     74524     74526     74525     74526
     74527     74528     74527     74529     74528     74529     74530     74531
     74530     74532     74531     74532     74533     74534     74533     74535
     74534     74535     74536     74537     74536     74538     74537     74538
     74539     74540     74539     74541     74540     74541     74542     74543
     74542     74544     74543     74544     74545     74546     74545     74547
     74546     74547     74548     74549     74548     74550     74549     74550
     74551     74552     74551     74553     74552     74553     74554     74555
     74554     74556     74555     74556     74557     74558     74557     74559
     74558     74559     74560     74561     74560     74562     74561     74562
     74563     74564     74563     74565     74564     74565     74566     74567
     74566     74568     74567     74568     74569     74570     74569     74571
     74570     74571     74572     74573     74572     74574     74573     74574
     74575     74576     74575     74577     74576     74577     74578     74579
     74578     74580     74579     74580     74581     74582     74581     74583
     74582     74583     74584     74585     74584     74586     74585     74586
     74587     74588     74587     74589     74588     74589     74590     74591
     74590     74592     74591     74592     74593     74594     74593     74595
     74594     74595     74596     74597     74596     74598     74597     74598
     74599     74600     74599     74601     74600     74601     74602     74603
     74602     74604     74603     74604     74605     74606     74605     74607
     74606     74607     74608     74609     74608     74610     74609     74610
     74611     74612     74611     74613     74612     74613     74614     74615
     74614     74616     74615     74616     74617     74618     74617     74619
     74618     74619     74620     74621     74620     74622     74621     74622
     74623     74624     74623     74625     74624     74625     74626     74627
     74626     74628     74627     74628     74629     74630     74629     74631
     74630     74631     74632     74633     74632     74634     74633     74634
     74635     74636     74635     74637     74636     74637     74638     74639
     74638     74640     74639     74640     74641     74642     74641     74643
     74642     74643     74644     74645     74644     74646     74645     74646
     74647     74648     74647     74649     74648     74649     74650     74651
     74650     74652     74651     74652     74653     74654     74653     74655
     74654     74655     74656     74657     74656     74658     74657     74658
     74659     74660     74659     74661     74660     74661     74662     74663
     74662     74664     74663     74664     74665     74666     74665     74667
     74666     74667     74668     74669     74668     74670     74669     74670
     74671     74672     74671     74673     74672     74673     74674     74675
     74674     74676     74675     74676     74677     74678     74677     74679
     74678     74679     74680     74681     74680     74682     74681     74682
     74683     74684     74683     74685     74684     74685     74686     74687
     74686     74688     74687     74688     74689     74690     74689     74691
     74690     74691     74692     74693     74692     74694     74693     74694
     74695     74696     74695     74697     74696     74697     74698     74699
     74698     74700     74699     74700     74701     74702     74701     74703
     74702     74703     74704     74705     74704     74706     74705     74706
     74707     74708     74707     74709     74708     74709     74710     74711
     74710     74712     74711     74712     74713     74714     74713     74715
     74714     74715     74716     74717     74716     74718     74717     74718
     74719     74720     74719     74721     74720     74721     74722     74723
     74722     74724     74723     74724     74725     74726     74725     74727
     74726     74727     74728     74729     74728     74730     74729     74730
     74731     74732     74731     74733     74732     74733     74734     74735
     74734     74736     74735     74736     74737     74738     74737     74739
     74738     74739     74740     74741     74740     74742     74741     74742
     74743     74744     74743     74745     74744     74745     74746     74747
     74746     74748     74747     74748     74749     74750     74749     74751
     74750     74751     74752     74753     74752     74754     74753     74754
     74755     74756     74755     74757     74756     74757     74758     74759
     74758     74760     74759     74760     74761     74762     74761     74763
     74762     74763     74764     74765     74764     74766     74765     74766
     74767     74768     74767     74769     74768     74769     74770     74771
     74770     74772     74771     74772     74773     74774     74773     74775
     74774     74775     74776     74777     74776     74778     74777     74778
     74779     74780     74779     74781     74780     74781     74782     74783
     74782     74784     74783     74784     74785     74786     74785     74787
     74786     74787     74788     74789     74788     74790     74789     74790
     74791     74792     74791     74793     74792     74793     74794     74795
     74794     74796     74795     74796     74797     74798     74797     74799
     74798     74799     74800     74801     74800     74802     74801     74802
     74803     74804     74803     74805     74804     74805     74806     74807
     74806     74808     74807     74808     74809     74810     74809     74811
     74810     74811     74812     74813     74812     74814     74813     74814
     74815     74816     74815     74817     74816     74817     74818     74819
     74818     74820     74819     74820     74821     74822     74821     74823
     74822     74823     74824     74825     74824     74826     74825     74826
     74827     74828     74827     74829     74828     74829     74830     74831
     74830     74832     74831     74832     74833     74834     74833     74835
     74834     74835     74836     74837     74836     74838     74837     74838
     74839     74840     74839     74841     74840     74841     74842     74843
     74842     74844     74843     74844     74845     74846     74845     74847
     74846     74847     74848     74849     74848     74850     74849     74850
     74851     74852     74851     74853     74852     74853     74854     74855
     74854     74856     74855     74856     74857     74858     74857     74859
     74858     74859     74860     74861     74860     74862     74861     74862
     74863     74864     74863     74865     74864     74865     74866     74867
     74866     74868     74867     74868     74869     74870     74869     74871
     74870     74871     74872     74873     74872     74874     74873     74874
     74875     74876     74875     74877     74876     74877     74878     74879
     74878     74880     74879     74880     74881     74882     74881     74883
     74882     74883     74884     74885     74884     74886     74885     74886
     74887     74888     74887     74889     74888     74889     74890     74891
     74890     74892     74891     74892     74893     74894     74893     74895
     74894     74895     74896     74897     74896     74898     74897     74898
     74899     74900     74899     74901     74900     74901     74902     74903
     74902     74904     74903     74904     74905     74906     74905     74907
     74906     74907     74908     74909     74908     74910     74909     74910
     74911     74912     74911     74913     74912     74913     74914     74915
     74914     74916     74915     74916     74917     74918     74917     74919
     74918     74919     74920     74921     74920     74922     74921     74922
     74923     74924     74923     74925     74924     74925     74926     74927
     74926     74928     74927     74928     74929     74930     74929     74931
     74930     74931     74932     74933     74932     74934     74933     74934
     74935     74936     74935     74937     74936     74937     74938     74939
     74938     74940     74939     74940     74941     74942     74941     74943
     74942     74943     74944     74945     74944     74946     74945     74946
     74947     74948     74947     74949     74948     74949     74950     74951
     74950     74952     74951     74952     74953     74954     74953     74955
     74954     74955     74956     74957     74956     74958     74957     74958
     74959     74960     74959     74961     74960     74961     74962     74963
     74962     74964     74963     74964     74965     74966     74965     74967
     74966     74967     74968     74969     74968     74970     74969     74970
     74971     74972     74971     74973     74972     74973     74974     74975
     74974     74976     74975     74976     74977     74978     74977     74979
     74978     74979     74980     74981     74980     74982     74981     74982
     74983     74984     74983     74985     74984     74985     74986     74987
     74986     74988     74987     74988     74989     74990     74989     74991
     74990     74991     74992     74993     74992     74994     74993     74994
     74995     74996     74995     74997     74996     74997     74998     74999
     74998     75000     74999     75000     75001     75002     75001     75003
     75002     75003     75004     75005     75004     75006     75005     75006
     75007     75008     75007     75009     75008     75009     75010     75011
     75010     75012     75011     75012     75013     75014     75013     75015
     75014     75015     75016     75017     75016     75018     75017     75018
     75019     75020     75019     75021     75020     75021     75022     75023
     75022     75024     75023     75024     75025     75026     75025     75027
     75026     75027     75028     75029     75028     75030     75029     75030
     75031     75032     75031     75033     75032     75033     75034     75035
     75034     75036     75035     75036     75037     75038     75037     75039
     75038     75039     75040     75041     75040     75042     75041     75042
     75043     75044     75043     75045     75044     75045     75046     75047
     75046     75048     75047     75048     75049     75050     75049     75051
     75050     75051     75052     75053     75052     75054     75053     75054
     75055     75056     75055     75057     75056     75057     75058     75059
     75058     75060     75059     75060     75061     75062     75061     75063
     75062     75063     75064     75065     75064     75066     75065     75066
     75067     75068     75067     75069     75068     75069     75070     75071
     75070     75072     75071     75072     75073     75074     75073     75075
     75074     75075     75076     75077     75076     75078     75077     75078
     75079     75080     75079     75081     75080     75081     75082     75083
     75082     75084     75083     75084     75085     75086     75085     75087
     75086     75087     75088     75089     75088     75090     75089     75090
     75091     75092     75091     75093     75092     75093     75094     75095
     75094     75096     75095     75096     75097     75098     75097     75099
     75098     75099     75100     75101     75100     75102     75101     75102
     75103     75104     75103     75105     75104     75105     75106     75107
     75106     75108     75107     75108     75109     75110     75109     75111
     75110     75111     75112     75113     75112     75114     75113     75114
     75115     75116     75115     75117     75116     75117     75118     75119
     75118     75120     75119     75120     75121     75122     75121     75123
     75122     75123     75124     75125     75124     75126     75125     75126
     75127     75128     75127     75129     75128     75129     75130     75131
     75130     75132     75131     75132     75133     75134     75133     75135
     75134     75135     75136     75137     75136     75138     75137     75138
     75139     75140     75139     75141     75140     75141     75142     75143
     75142     75144     75143     75144     75145     75146     75145     75147
     75146     75147     75148     75149     75148     75150     75149     75150
     75151     75152     75151     75153     75152     75153     75154     75155
     75154     75156     75155     75156     75157     75158     75157     75159
     75158     75159     75160     75161     75160     75162     75161     75162
     75163     75164     75163     75165     75164     75165     75166     75167
     75166     75168     75167     75168     75169     75170     75169     75171
     75170     75171     75172     75173     75172     75174     75173     75174
     75175     75176     75175     75177     75176     75177     75178     75179
     75178     75180     75179     75180     75181     75182     75181     75183
     75182     75183     75184     75185     75184     75186     75185     75186
     75187     75188     75187     75189     75188     75189     75190     75191
     75190     75192     75191     75192     75193     75194     75193     75195
     75194     75195     75196     75197     75196     75198     75197     75198
     75199     75200     75199     75201     75200     75201     75202     75203
     75202     75204     75203     75204     75205     75206     75205     75207
     75206     75207     75208     75209     75208     75210     75209     75210
     75211     75212     75211     75213     75212     75213     75214     75215
     75214     75216     75215     75216     75217     75218     75217     75219
     75218     75219     75220     75221     75220     75222     75221     75222
     75223     75224     75223     75225     75224     75225     75226     75227
     75226     75228     75227     75228     75229     75230     75229     75231
     75230     75231     75232     75233     75232     75234     75233     75234
     75235     75236     75235     75237     75236     75237     75238     75239
     75238     75240     75239     75240     75241     75242     75241     75243
     75242     75243     75244     75245     75244     75246     75245     75246
     75247     75248     75247     75249     75248     75249     75250     75251
     75250     75252     75251     75252     75253     75254     75253     75255
     75254     75255     75256     75257     75256     75258     75257     75258
     75259     75260     75259     75261     75260     75261     75262     75263
     75262     75264     75263     75264     75265     75266     75265     75267
     75266     75267     75268     75269     75268     75270     75269     75270
     75271     75272     75271     75273     75272     75273     75274     75275
     75274     75276     75275     75276     75277     75278     75277     75279
     75278     75279     75280     75281     75280     75282     75281     75282
     75283     75284     75283     75285     75284     75285     75286     75287
     75286     75288     75287     75288     75289     75290     75289     75291
     75290     75291     75292     75293     75292     75294     75293     75294
     75295     75296     75295     75297     75296     75297     75298     75299
     75298     75300     75299     75300     75301     75302     75301     75303
     75302     75303     75304     75305     75304     75306     75305     75306
     75307     75308     75307     75309     75308     75309     75310     75311
     75310     75312     75311     75312     75313     75314     75313     75315
     75314     75315     75316     75317     75316     75318     75317     75318
     75319     75320     75319     75321     75320     75321     75322     75323
     75322     75324     75323     75324     75325     75326     75325     75327
     75326     75327     75328     75329     75328     75330     75329     75330
     75331     75332     75331     75333     75332     75333     75334     75335
     75334     75336     75335     75336     75337     75338     75337     75339
     75338     75339     75340     75341     75340     75342     75341     75342
     75343     75344     75343     75345     75344     75345     75346     75347
     75346     75348     75347     75348     75349     75350     75349     75351
     75350     75351     75352     75353     75352     75354     75353     75354
     75355     75356     75355     75357     75356     75357     75358     75359
     75358     75360     75359     75360     75361     75362     75361     75363
     75362     75363     75364     75365     75364     75366     75365     75366
     75367     75368     75367     75369     75368     75369     75370     75371
     75370     75372     75371     75372     75373     75374     75373     75375
     75374     75375     75376     75377     75376     75378     75377     75378
     75379     75380     75379     75381     75380     75381     75382     75383
     75382     75384     75383     75384     75385     75386     75385     75387
     75386     75387     75388     75389     75388     75390     75389     75390
     75391     75392     75391     75393     75392     75393     75394     75395
     75394     75396     75395     75396     75397     75398     75397     75399
     75398     75399     75400     75401     75400     75402     75401     75402
     75403     75404     75403     75405     75404     75405     75406     75407
     75406     75408     75407     75408     75409     75410     75409     75411
     75410     75411     75412     75413     75412     75414     75413     75414
     75415     75416     75415     75417     75416     75417     75418     75419
     75418     75420     75419     75420     75421     75422     75421     75423
     75422     75423     75424     75425     75424     75426     75425     75426
     75427     75428     75427     75429     75428     75429     75430     75431
     75430     75432     75431     75432     75433     75434     75433     75435
     75434     75435     75436     75437     75436     75438     75437     75438
     75439     75440     75439     75441     75440     75441     75442     75443
     75442     75444     75443     75444     75445     75446     75445     75447
     75446     75447     75448     75449     75448     75450     75449     75450
     75451     75452     75451     75453     75452     75453     75454     75455
     75454     75456     75455     75456     75457     75458     75457     75459
     75458     75459     75460     75461     75460     75462     75461     75462
     75463     75464     75463     75465     75464     75465     75466     75467
     75466     75468     75467     75468     75469     75470     75469     75471
     75470     75471     75472     75473     75472     75474     75473     75474
     75475     75476     75475     75477     75476     75477     75478     75479
     75478     75480     75479     75480     75481     75482     75481     75483
     75482     75483     75484     75485     75484     75486     75485     75486
     75487     75488     75487     75489     75488     75489     75490     75491
     75490     75492     75491     75492     75493     75494     75493     75495
     75494     75495     75496     75497     75496     75498     75497     75498
     75499     75500     75499     75501     75500     75501     75502     75503
     75502     75504     75503     75504     75505     75506     75505     75507
     75506     75507     75508     75509     75508     75510     75509     75510
     75511     75512     75511     75513     75512     75513     75514     75515
     75514     75516     75515     75516     75517     75518     75517     75519
     75518     75519     75520     75521     75520     75522     75521     75522
     75523     75524     75523     75525     75524     75525     75526     75527
     75526     75528     75527     75528     75529     75530     75529     75531
     75530     75531     75532     75533     75532     75534     75533     75534
     75535     75536     75535     75537     75536     75537     75538     75539
     75538     75540     75539     75540     75541     75542     75541     75543
     75542     75543     75544     75545     75544     75546     75545     75546
     75547     75548     75547     75549     75548     75549     75550     75551
     75550     75552     75551     75552     75553     75554     75553     75555
     75554     75555     75556     75557     75556     75558     75557     75558
     75559     75560     75559     75561     75560     75561     75562     75563
     75562     75564     75563     75564     75565     75566     75565     75567
     75566     75567     75568     75569     75568     75570     75569     75570
     75571     75572     75571     75573     75572     75573     75574     75575
     75574     75576     75575     75576     75577     75578     75577     75579
     75578     75579     75580     75581     75580     75582     75581     75582
     75583     75584     75583     75585     75584     75585     75586     75587
     75586     75588     75587     75588     75589     75590     75589     75591
     75590     75591     75592     75593     75592     75594     75593     75594
     75595     75596     75595     75597     75596     75597     75598     75599
     75598     75600     75599     75600     75601     75602     75601     75603
     75602     75603     75604     75605     75604     75606     75605     75606
     75607     75608     75607     75609     75608     75609     75610     75611
     75610     75612     75611     75612     75613     75614     75613     75615
     75614     75615     75616     75617     75616     75618     75617     75618
     75619     75620     75619     75621     75620     75621     75622     75623
     75622     75624     75623     75624     75625     75626     75625     75627
     75626     75627     75628     75629     75628     75630     75629     75630
     75631     75632     75631     75633     75632     75633     75634     75635
     75634     75636     75635     75636     75637     75638     75637     75639
     75638     75639     75640     75641     75640     75642     75641     75642
     75643     75644     75643     75645     75644     75645     75646     75647
     75646     75648     75647     75648     75649     75650     75649     75651
     75650     75651     75652     75653     75652     75654     75653     75654
     75655     75656     75655     75657     75656     75657     75658     75659
     75658     75660     75659     75660     75661     75662     75661     75663
     75662     75663     75664     75665     75664     75666     75665     75666
     75667     75668     75667     75669     75668     75669     75670     75671
     75670     75672     75671     75672     75673     75674     75673     75675
     75674     75675     75676     75677     75676     75678     75677     75678
     75679     75680     75679     75681     75680     75681     75682     75683
     75682     75684     75683     75684     75685     75686     75685     75687
     75686     75687     75688     75689     75688     75690     75689     75690
     75691     75692     75691     75693     75692     75693     75694     75695
     75694     75696     75695     75696     75697     75698     75697     75699
     75698     75699     75700     75701     75700     75702     75701     75702
     75703     75704     75703     75705     75704     75705     75706     75707
     75706     75708     75707     75708     75709     75710     75709     75711
     75710     75711     75712     75713     75712     75714     75713     75714
     75715     75716     75715     75717     75716     75717     75718     75719
     75718     75720     75719     75720     75721     75722     75721     75723
     75722     75723     75724     75725     75724     75726     75725     75726
     75727     75728     75727     75729     75728     75729     75730     75731
     75730     75732     75731     75732     75733     75734     75733     75735
     75734     75735     75736     75737     75736     75738     75737     75738
     75739     75740     75739     75741     75740     75741     75742     75743
     75742     75744     75743     75744     75745     75746     75745     75747
     75746     75747     75748     75749     75748     75750     75749     75750
     75751     75752     75751     75753     75752     75753     75754     75755
     75754     75756     75755     75756     75757     75758     75757     75759
     75758     75759     75760     75761     75760     75762     75761     75762
     75763     75764     75763     75765     75764     75765     75766     75767
     75766     75768     75767     75768     75769     75770     75769     75771
     75770     75771     75772     75773     75772     75774     75773     75774
     75775     75776     75775     75777     75776     75777     75778     75779
     75778     75780     75779     75780     75781     75782     75781     75783
     75782     75783     75784     75785     75784     75786     75785     75786
     75787     75788     75787     75789     75788     75789     75790     75791
     75790     75792     75791     75792     75793     75794     75793     75795
     75794     75795     75796     75797     75796     75798     75797     75798
     75799     75800     75799     75801     75800     75801     75802     75803
     75802     75804     75803     75804     75805     75806     75805     75807
     75806     75807     75808     75809     75808     75810     75809     75810
     75811     75812     75811     75813     75812     75813     75814     75815
     75814     75816     75815     75816     75817     75818     75817     75819
     75818     75819     75820     75821     75820     75822     75821     75822
     75823     75824     75823     75825     75824     75825     75826     75827
     75826     75828     75827     75828     75829     75830     75829     75831
     75830     75831     75832     75833     75832     75834     75833     75834
     75835     75836     75835     75837     75836     75837     75838     75839
     75838     75840     75839     75840     75841     75842     75841     75843
     75842     75843     75844     75845     75844     75846     75845     75846
     75847     75848     75847     75849     75848     75849     75850     75851
     75850     75852     75851     75852     75853     75854     75853     75855
     75854     75855     75856     75857     75856     75858     75857     75858
     75859     75860     75859     75861     75860     75861     75862     75863
     75862     75864     75863     75864     75865     75866     75865     75867
     75866     75867     75868     75869     75868     75870     75869     75870
     75871     75872     75871     75873     75872     75873     75874     75875
     75874     75876     75875     75876     75877     75878     75877     75879
     75878     75879     75880     75881     75880     75882     75881     75882
     75883     75884     75883     75885     75884     75885     75886     75887
     75886     75888     75887     75888     75889     75890     75889     75891
     75890     75891     75892     75893     75892     75894     75893     75894
     75895     75896     75895     75897     75896     75897     75898     75899
     75898     75900     75899     75900     75901     75902     75901     75903
     75902     75903     75904     75905     75904     75906     75905     75906
     75907     75908     75907     75909     75908     75909     75910     75911
     75910     75912     75911     75912     75913     75914     75913     75915
     75914     75915     75916     75917     75916     75918     75917     75918
     75919     75920     75919     75921     75920     75921     75922     75923
     75922     75924     75923     75924     75925     75926     75925     75927
     75926     75927     75928     75929     75928     75930     75929     75930
     75931     75932     75931     75933     75932     75933     75934     75935
     75934     75936     75935     75936     75937     75938     75937     75939
     75938     75939     75940     75941     75940     75942     75941     75942
     75943     75944     75943     75945     75944     75945     75946     75947
     75946     75948     75947     75948     75949     75950     75949     75951
     75950     75951     75952     75953     75952     75954     75953     75954
     75955     75956     75955     75957     75956     75957     75958     75959
     75958     75960     75959     75960     75961     75962     75961     75963
     75962     75963     75964     75965     75964     75966     75965     75966
     75967     75968     75967     75969     75968     75969     75970     75971
     75970     75972     75971     75972     75973     75974     75973     75975
     75974     75975     75976     75977     75976     75978     75977     75978
     75979     75980     75979     75981     75980     75981     75982     75983
     75982     75984     75983     75984     75985     75986     75985     75987
     75986     75987     75988     75989     75988     75990     75989     75990
     75991     75992     75991     75993     75992     75993     75994     75995
     75994     75996     75995     75996     75997     75998     75997     75999
     75998     75999     76000     76001     76000     76002     76001     76002
     76003     76004     76003     76005     76004     76005     76006     76007
     76006     76008     76007     76008     76009     76010     76009     76011
     76010     76011     76012     76013     76012     76014     76013     76014
     76015     76016     76015     76017     76016     76017     76018     76019
     76018     76020     76019     76020     76021     76022     76021     76023
     76022     76023     76024     76025     76024     76026     76025     76026
     76027     76028     76027     76029     76028     76029     76030     76031
     76030     76032     76031     76032     76033     76034     76033     76035
     76034     76035     76036     76037     76036     76038     76037     76038
     76039     76040     76039     76041     76040     76041     76042     76043
     76042     76044     76043     76044     76045     76046     76045     76047
     76046     76047     76048     76049     76048     76050     76049     76050
     76051     76052     76051     76053     76052     76053     76054     76055
     76054     76056     76055     76056     76057     76058     76057     76059
     76058     76059     76060     76061     76060     76062     76061     76062
     76063     76064     76063     76065     76064     76065     76066     76067
     76066     76068     76067     76068     76069     76070     76069     76071
     76070     76071     76072     76073     76072     76074     76073     76074
     76075     76076     76075     76077     76076     76077     76078     76079
     76078     76080     76079     76080     76081     76082     76081     76083
     76082     76083     76084     76085     76084     76086     76085     76086
     76087     76088     76087     76089     76088     76089     76090     76091
     76090     76092     76091     76092     76093     76094     76093     76095
     76094     76095     76096     76097     76096     76098     76097     76098
     76099     76100     76099     76101     76100     76101     76102     76103
     76102     76104     76103     76104     76105     76106     76105     76107
     76106     76107     76108     76109     76108     76110     76109     76110
     76111     76112     76111     76113     76112     76113     76114     76115
     76114     76116     76115     76116     76117     76118     76117     76119
     76118     76119     76120     76121     76120     76122     76121     76122
     76123     76124     76123     76125     76124     76125     76126     76127
     76126     76128     76127     76128     76129     76130     76129     76131
     76130     76131     76132     76133     76132     76134     76133     76134
     76135     76136     76135     76137     76136     76137     76138     76139
     76138     76140     76139     76140     76141     76142     76141     76143
     76142     76143     76144     76145     76144     76146     76145     76146
     76147     76148     76147     76149     76148     76149     76150     76151
     76150     76152     76151     76152     76153     76154     76153     76155
     76154     76155     76156     76157     76156     76158     76157     76158
     76159     76160     76159     76161     76160     76161     76162     76163
     76162     76164     76163     76164     76165     76166     76165     76167
     76166     76167     76168     76169     76168     76170     76169     76170
     76171     76172     76171     76173     76172     76173     76174     76175
     76174     76176     76175     76176     76177     76178     76177     76179
     76178     76179     76180     76181     76180     76182     76181     76182
     76183     76184     76183     76185     76184     76185     76186     76187
     76186     76188     76187     76188     76189     76190     76189     76191
     76190     76191     76192     76193     76192     76194     76193     76194
     76195     76196     76195     76197     76196     76197     76198     76199
     76198     76200     76199     76200     76201     76202     76201     76203
     76202     76203     76204     76205     76204     76206     76205     76206
     76207     76208     76207     76209     76208     76209     76210     76211
     76210     76212     76211     76212     76213     76214     76213     76215
     76214     76215     76216     76217     76216     76218     76217     76218
     76219     76220     76219     76221     76220     76221     76222     76223
     76222     76224     76223     76224     76225     76226     76225     76227
     76226     76227     76228     76229     76228     76230     76229     76230
     76231     76232     76231     76233     76232     76233     76234     76235
     76234     76236     76235     76236     76237     76238     76237     76239
     76238     76239     76240     76241     76240     76242     76241     76242
     76243     76244     76243     76245     76244     76245     76246     76247
     76246     76248     76247     76248     76249     76250     76249     76251
     76250     76251     76252     76253     76252     76254     76253     76254
     76255     76256     76255     76257     76256     76257     76258     76259
     76258     76260     76259     76260     76261     76262     76261     76263
     76262     76263     76264     76265     76264     76266     76265     76266
     76267     76268     76267     76269     76268     76269     76270     76271
     76270     76272     76271     76272     76273     76274     76273     76275
     76274     76275     76276     76277     76276     76278     76277     76278
     76279     76280     76279     76281     76280     76281     76282     76283
     76282     76284     76283     76284     76285     76286     76285     76287
     76286     76287     76288     76289     76288     76290     76289     76290
     76291     76292     76291     76293     76292     76293     76294     76295
     76294     76296     76295     76296     76297     76298     76297     76299
     76298     76299     76300     76301     76300     76302     76301     76302
     76303     76304     76303     76305     76304     76305     76306     76307
     76306     76308     76307     76308     76309     76310     76309     76311
     76310     76311     76312     76313     76312     76314     76313     76314
     76315     76316     76315     76317     76316     76317     76318     76319
     76318     76320     76319     76320     76321     76322     76321     76323
     76322     76323     76324     76325     76324     76326     76325     76326
     76327     76328     76327     76329     76328     76329     76330     76331
     76330     76332     76331     76332     76333     76334     76333     76335
     76334     76335     76336     76337     76336     76338     76337     76338
     76339     76340     76339     76341     76340     76341     76342     76343
     76342     76344     76343     76344     76345     76346     76345     76347
     76346     76347     76348     76349     76348     76350     76349     76350
     76351     76352     76351     76353     76352     76353     76354     76355
     76354     76356     76355     76356     76357     76358     76357     76359
     76358     76359     76360     76361     76360     76362     76361     76362
     76363     76364     76363     76365     76364     76365     76366     76367
     76366     76368     76367     76368     76369     76370     76369     76371
     76370     76371     76372     76373     76372     76374     76373     76374
     76375     76376     76375     76377     76376     76377     76378     76379
     76378     76380     76379     76380     76381     76382     76381     76383
     76382     76383     76384     76385     76384     76386     76385     76386
     76387     76388     76387     76389     76388     76389     76390     76391
     76390     76392     76391     76392     76393     76394     76393     76395
     76394     76395     76396     76397     76396     76398     76397     76398
     76399     76400     76399     76401     76400     76401     76402     76403
     76402     76404     76403     76404     76405     76406     76405     76407
     76406     76407     76408     76409     76408     76410     76409     76410
     76411     76412     76411     76413     76412     76413     76414     76415
     76414     76416     76415     76416     76417     76418     76417     76419
     76418     76419     76420     76421     76420     76422     76421     76422
     76423     76424     76423     76425     76424     76425     76426     76427
     76426     76428     76427     76428     76429     76430     76429     76431
     76430     76431     76432     76433     76432     76434     76433     76434
     76435     76436     76435     76437     76436     76437     76438     76439
     76438     76440     76439     76440     76441     76442     76441     76443
     76442     76443     76444     76445     76444     76446     76445     76446
     76447     76448     76447     76449     76448     76449     76450     76451
     76450     76452     76451     76452     76453     76454     76453     76455
     76454     76455     76456     76457     76456     76458     76457     76458
     76459     76460     76459     76461     76460     76461     76462     76463
     76462     76464     76463     76464     76465     76466     76465     76467
     76466     76467     76468     76469     76468     76470     76469     76470
     76471     76472     76471     76473     76472     76473     76474     76475
     76474     76476     76475     76476     76477     76478     76477     76479
     76478     76479     76480     76481     76480     76482     76481     76482
     76483     76484     76483     76485     76484     76485     76486     76487
     76486     76488     76487     76488     76489     76490     76489     76491
     76490     76491     76492     76493     76492     76494     76493     76494
     76495     76496     76495     76497     76496     76497     76498     76499
     76498     76500     76499     76500     76501     76502     76501     76503
     76502     76503     76504     76505     76504     76506     76505     76506
     76507     76508     76507     76509     76508     76509     76510     76511
     76510     76512     76511     76512     76513     76514     76513     76515
     76514     76515     76516     76517     76516     76518     76517     76518
     76519     76520     76519     76521     76520     76521     76522     76523
     76522     76524     76523     76524     76525     76526     76525     76527
     76526     76527     76528     76529     76528     76530     76529     76530
     76531     76532     76531     76533     76532     76533     76534     76535
     76534     76536     76535     76536     76537     76538     76537     76539
     76538     76539     76540     76541     76540     76542     76541     76542
     76543     76544     76543     76545     76544     76545     76546     76547
     76546     76548     76547     76548     76549     76550     76549     76551
     76550     76551     76552     76553     76552     76554     76553     76554
     76555     76556     76555     76557     76556     76557     76558     76559
     76558     76560     76559     76560     76561     76562     76561     76563
     76562     76563     76564     76565     76564     76566     76565     76566
     76567     76568     76567     76569     76568     76569     76570     76571
     76570     76572     76571     76572     76573     76574     76573     76575
     76574     76575     76576     76577     76576     76578     76577     76578
     76579     76580     76579     76581     76580     76581     76582     76583
     76582     76584     76583     76584     76585     76586     76585     76587
     76586     76587     76588     76589     76588     76590     76589     76590
     76591     76592     76591     76593     76592     76593     76594     76595
     76594     76596     76595     76596     76597     76598     76597     76599
     76598     76599     76600     76601     76600     76602     76601     76602
     76603     76604     76603     76605     76604     76605     76606     76607
     76606     76608     76607     76608     76609     76610     76609     76611
     76610     76611     76612     76613     76612     76614     76613     76614
     76615     76616     76615     76617     76616     76617     76618     76619
     76618     76620     76619     76620     76621     76622     76621     76623
     76622     76623     76624     76625     76624     76626     76625     76626
     76627     76628     76627     76629     76628     76629     76630     76631
     76630     76632     76631     76632     76633     76634     76633     76635
     76634     76635     76636     76637     76636     76638     76637     76638
     76639     76640     76639     76641     76640     76641     76642     76643
     76642     76644     76643     76644     76645     76646     76645     76647
     76646     76647     76648     76649     76648     76650     76649     76650
     76651     76652     76651     76653     76652     76653     76654     76655
     76654     76656     76655     76656     76657     76658     76657     76659
     76658     76659     76660     76661     76660     76662     76661     76662
     76663     76664     76663     76665     76664     76665     76666     76667
     76666     76668     76667     76668     76669     76670     76669     76671
     76670     76671     76672     76673     76672     76674     76673     76674
     76675     76676     76675     76677     76676     76677     76678     76679
     76678     76680     76679     76680     76681     76682     76681     76683
     76682     76683     76684     76685     76684     76686     76685     76686
     76687     76688     76687     76689     76688     76689     76690     76691
     76690     76692     76691     76692     76693     76694     76693     76695
     76694     76695     76696     76697     76696     76698     76697     76698
     76699     76700     76699     76701     76700     76701     76702     76703
     76702     76704     76703     76704     76705     76706     76705     76707
     76706     76707     76708     76709     76708     76710     76709     76710
     76711     76712     76711     76713     76712     76713     76714     76715
     76714     76716     76715     76716     76717     76718     76717     76719
     76718     76719     76720     76721     76720     76722     76721     76722
     76723     76724     76723     76725     76724     76725     76726     76727
     76726     76728     76727     76728     76729     76730     76729     76731
     76730     76731     76732     76733     76732     76734     76733     76734
     76735     76736     76735     76737     76736     76737     76738     76739
     76738     76740     76739     76740     76741     76742     76741     76743
     76742     76743     76744     76745     76744     76746     76745     76746
     76747     76748     76747     76749     76748     76749     76750     76751
     76750     76752     76751     76752     76753     76754     76753     76755
     76754     76755     76756     76757     76756     76758     76757     76758
     76759     76760     76759     76761     76760     76761     76762     76763
     76762     76764     76763     76764     76765     76766     76765     76767
     76766     76767     76768     76769     76768     76770     76769     76770
     76771     76772     76771     76773     76772     76773     76774     76775
     76774     76776     76775     76776     76777     76778     76777     76779
     76778     76779     76780     76781     76780     76782     76781     76782
     76783     76784     76783     76785     76784     76785     76786     76787
     76786     76788     76787     76788     76789     76790     76789     76791
     76790     76791     76792     76793     76792     76794     76793     76794
     76795     76796     76795     76797     76796     76797     76798     76799
     76798     76800     76799     76800     76801     76802     76801     76803
     76802     76803     76804     76805     76804     76806     76805     76806
     76807     76808     76807     76809     76808     76809     76810     76811
     76810     76812     76811     76812     76813     76814     76813     76815
     76814     76815     76816     76817     76816     76818     76817     76818
     76819     76820     76819     76821     76820     76821     76822     76823
     76822     76824     76823     76824     76825     76826     76825     76827
     76826     76827     76828     76829     76828     76830     76829     76830
     76831     76832     76831     76833     76832     76833     76834     76835
     76834     76836     76835     76836     76837     76838     76837     76839
     76838     76839     76840     76841     76840     76842     76841     76842
     76843     76844     76843     76845     76844     76845     76846     76847
     76846     76848     76847     76848     76849     76850     76849     76851
     76850     76851     76852     76853     76852     76854     76853     76854
     76855     76856     76855     76857     76856     76857     76858     76859
     76858     76860     76859     76860     76861     76862     76861     76863
     76862     76863     76864     76865     76864     76866     76865     76866
     76867     76868     76867     76869     76868     76869     76870     76871
     76870     76872     76871     76872     76873     76874     76873     76875
     76874     76875     76876     76877     76876     76878     76877     76878
     76879     76880     76879     76881     76880     76881     76882     76883
     76882     76884     76883     76884     76885     76886     76885     76887
     76886     76887     76888     76889     76888     76890     76889     76890
     76891     76892     76891     76893     76892     76893     76894     76895
     76894     76896     76895     76896     76897     76898     76897     76899
     76898     76899     76900     76901     76900     76902     76901     76902
     76903     76904     76903     76905     76904     76905     76906     76907
     76906     76908     76907     76908     76909     76910     76909     76911
     76910     76911     76912     76913     76912     76914     76913     76914
     76915     76916     76915     76917     76916     76917     76918     76919
     76918     76920     76919     76920     76921     76922     76921     76923
     76922     76923     76924     76925     76924     76926     76925     76926
     76927     76928     76927     76929     76928     76929     76930     76931
     76930     76932     76931     76932     76933     76934     76933     76935
     76934     76935     76936     76937     76936     76938     76937     76938
     76939     76940     76939     76941     76940     76941     76942     76943
     76942     76944     76943     76944     76945     76946     76945     76947
     76946     76947     76948     76949     76948     76950     76949     76950
     76951     76952     76951     76953     76952     76953     76954     76955
     76954     76956     76955     76956     76957     76958     76957     76959
     76958     76959     76960     76961     76960     76962     76961     76962
     76963     76964     76963     76965     76964     76965     76966     76967
     76966     76968     76967     76968     76969     76970     76969     76971
     76970     76971     76972     76973     76972     76974     76973     76974
     76975     76976     76975     76977     76976     76977     76978     76979
     76978     76980     76979     76980     76981     76982     76981     76983
     76982     76983     76984     76985     76984     76986     76985     76986
     76987     76988     76987     76989     76988     76989     76990     76991
     76990     76992     76991     76992     76993     76994     76993     76995
     76994     76995     76996     76997     76996     76998     76997     76998
     76999     77000     76999     77001     77000     77001     77002     77003
     77002     77004     77003     77004     77005     77006     77005     77007
     77006     77007     77008     77009     77008     77010     77009     77010
     77011     77012     77011     77013     77012     77013     77014     77015
     77014     77016     77015     77016     77017     77018     77017     77019
     77018     77019     77020     77021     77020     77022     77021     77022
     77023     77024     77023     77025     77024     77025     77026     77027
     77026     77028     77027     77028     77029     77030     77029     77031
     77030     77031     77032     77033     77032     77034     77033     77034
     77035     77036     77035     77037     77036     77037     77038     77039
     77038     77040     77039     77040     77041     77042     77041     77043
     77042     77043     77044     77045     77044     77046     77045     77046
     77047     77048     77047     77049     77048     77049     77050     77051
     77050     77052     77051     77052     77053     77054     77053     77055
     77054     77055     77056     77057     77056     77058     77057     77058
     77059     77060     77059     77061     77060     77061     77062     77063
     77062     77064     77063     77064     77065     77066     77065     77067
     77066     77067     77068     77069     77068     77070     77069     77070
     77071     77072     77071     77073     77072     77073     77074     77075
     77074     77076     77075     77076     77077     77078     77077     77079
     77078     77079     77080     77081     77080     77082     77081     77082
     77083     77084     77083     77085     77084     77085     77086     77087
     77086     77088     77087     77088     77089     77090     77089     77091
     77090     77091     77092     77093     77092     77094     77093     77094
     77095     77096     77095     77097     77096     77097     77098     77099
     77098     77100     77099     77100     77101     77102     77101     77103
     77102     77103     77104     77105     77104     77106     77105     77106
     77107     77108     77107     77109     77108     77109     77110     77111
     77110     77112     77111     77112     77113     77114     77113     77115
     77114     77115     77116     77117     77116     77118     77117     77118
     77119     77120     77119     77121     77120     77121     77122     77123
     77122     77124     77123     77124     77125     77126     77125     77127
     77126     77127     77128     77129     77128     77130     77129     77130
     77131     77132     77131     77133     77132     77133     77134     77135
     77134     77136     77135     77136     77137     77138     77137     77139
     77138     77139     77140     77141     77140     77142     77141     77142
     77143     77144     77143     77145     77144     77145     77146     77147
     77146     77148     77147     77148     77149     77150     77149     77151
     77150     77151     77152     77153     77152     77154     77153     77154
     77155     77156     77155     77157     77156     77157     77158     77159
     77158     77160     77159     77160     77161     77162     77161     77163
     77162     77163     77164     77165     77164     77166     77165     77166
     77167     77168     77167     77169     77168     77169     77170     77171
     77170     77172     77171     77172     77173     77174     77173     77175
     77174     77175     77176     77177     77176     77178     77177     77178
     77179     77180     77179     77181     77180     77181     77182     77183
     77182     77184     77183     77184     77185     77186     77185     77187
     77186     77187     77188     77189     77188     77190     77189     77190
     77191     77192     77191     77193     77192     77193     77194     77195
     77194     77196     77195     77196     77197     77198     77197     77199
     77198     77199     77200     77201     77200     77202     77201     77202
     77203     77204     77203     77205     77204     77205     77206     77207
     77206     77208     77207     77208     77209     77210     77209     77211
     77210     77211     77212     77213     77212     77214     77213     77214
     77215     77216     77215     77217     77216     77217     77218     77219
     77218     77220     77219     77220     77221     77222     77221     77223
     77222     77223     77224     77225     77224     77226     77225     77226
     77227     77228     77227     77229     77228     77229     77230     77231
     77230     77232     77231     77232     77233     77234     77233     77235
     77234     77235     77236     77237     77236     77238     77237     77238
     77239     77240     77239     77241     77240     77241     77242     77243
     77242     77244     77243     77244     77245     77246     77245     77247
     77246     77247     77248     77249     77248     77250     77249     77250
     77251     77252     77251     77253     77252     77253     77254     77255
     77254     77256     77255     77256     77257     77258     77257     77259
     77258     77259     77260     77261     77260     77262     77261     77262
     77263     77264     77263     77265     77264     77265     77266     77267
     77266     77268     77267     77268     77269     77270     77269     77271
     77270     77271     77272     77273     77272     77274     77273     77274
     77275     77276     77275     77277     77276     77277     77278     77279
     77278     77280     77279     77280     77281     77282     77281     77283
     77282     77283     77284     77285     77284     77286     77285     77286
     77287     77288     77287     77289     77288     77289     77290     77291
     77290     77292     77291     77292     77293     77294     77293     77295
     77294     77295     77296     77297     77296     77298     77297     77298
     77299     77300     77299     77301     77300     77301     77302     77303
     77302     77304     77303     77304     77305     77306     77305     77307
     77306     77307     77308     77309     77308     77310     77309     77310
     77311     77312     77311     77313     77312     77313     77314     77315
     77314     77316     77315     77316     77317     77318     77317     77319
     77318     77319     77320     77321     77320     77322     77321     77322
     77323     77324     77323     77325     77324     77325     77326     77327
     77326     77328     77327     77328     77329     77330     77329     77331
     77330     77331     77332     77333     77332     77334     77333     77334
     77335     77336     77335     77337     77336     77337     77338     77339
     77338     77340     77339     77340     77341     77342     77341     77343
     77342     77343     77344     77345     77344     77346     77345     77346
     77347     77348     77347     77349     77348     77349     77350     77351
     77350     77352     77351     77352     77353     77354     77353     77355
     77354     77355     77356     77357     77356     77358     77357     77358
     77359     77360     77359     77361     77360     77361     77362     77363
     77362     77364     77363     77364     77365     77366     77365     77367
     77366     77367     77368     77369     77368     77370     77369     77370
     77371     77372     77371     77373     77372     77373     77374     77375
     77374     77376     77375     77376     77377     77378     77377     77379
     77378     77379     77380     77381     77380     77382     77381     77382
     77383     77384     77383     77385     77384     77385     77386     77387
     77386     77388     77387     77388     77389     77390     77389     77391
     77390     77391     77392     77393     77392     77394     77393     77394
     77395     77396     77395     77397     77396     77397     77398     77399
     77398     77400     77399     77400     77401     77402     77401     77403
     77402     77403     77404     77405     77404     77406     77405     77406
     77407     77408     77407     77409     77408     77409     77410     77411
     77410     77412     77411     77412     77413     77414     77413     77415
     77414     77415     77416     77417     77416     77418     77417     77418
     77419     77420     77419     77421     77420     77421     77422     77423
     77422     77424     77423     77424     77425     77426     77425     77427
     77426     77427     77428     77429     77428     77430     77429     77430
     77431     77432     77431     77433     77432     77433     77434     77435
     77434     77436     77435     77436     77437     77438     77437     77439
     77438     77439     77440     77441     77440     77442     77441     77442
     77443     77444     77443     77445     77444     77445     77446     77447
     77446     77448     77447     77448     77449     77450     77449     77451
     77450     77451     77452     77453     77452     77454     77453     77454
     77455     77456     77455     77457     77456     77457     77458     77459
     77458     77460     77459     77460     77461     77462     77461     77463
     77462     77463     77464     77465     77464     77466     77465     77466
     77467     77468     77467     77469     77468     77469     77470     77471
     77470     77472     77471     77472     77473     77474     77473     77475
     77474     77475     77476     77477     77476     77478     77477     77478
     77479     77480     77479     77481     77480     77481     77482     77483
     77482     77484     77483     77484     77485     77486     77485     77487
     77486     77487     77488     77489     77488     77490     77489     77490
     77491     77492     77491     77493     77492     77493     77494     77495
     77494     77496     77495     77496     77497     77498     77497     77499
     77498     77499     77500     77501     77500     77502     77501     77502
     77503     77504     77503     77505     77504     77505     77506     77507
     77506     77508     77507     77508     77509     77510     77509     77511
     77510     77511     77512     77513     77512     77514     77513     77514
     77515     77516     77515     77517     77516     77517     77518     77519
     77518     77520     77519     77520     77521     77522     77521     77523
     77522     77523     77524     77525     77524     77526     77525     77526
     77527     77528     77527     77529     77528     77529     77530     77531
     77530     77532     77531     77532     77533     77534     77533     77535
     77534     77535     77536     77537     77536     77538     77537     77538
     77539     77540     77539     77541     77540     77541     77542     77543
     77542     77544     77543     77544     77545     77546     77545     77547
     77546     77547     77548     77549     77548     77550     77549     77550
     77551     77552     77551     77553     77552     77553     77554     77555
     77554     77556     77555     77556     77557     77558     77557     77559
     77558     77559     77560     77561     77560     77562     77561     77562
     77563     77564     77563     77565     77564     77565     77566     77567
     77566     77568     77567     77568     77569     77570     77569     77571
     77570     77571     77572     77573     77572     77574     77573     77574
     77575     77576     77575     77577     77576     77577     77578     77579
     77578     77580     77579     77580     77581     77582     77581     77583
     77582     77583     77584     77585     77584     77586     77585     77586
     77587     77588     77587     77589     77588     77589     77590     77591
     77590     77592     77591     77592     77593     77594     77593     77595
     77594     77595     77596     77597     77596     77598     77597     77598
     77599     77600     77599     77601     77600     77601     77602     77603
     77602     77604     77603     77604     77605     77606     77605     77607
     77606     77607     77608     77609     77608     77610     77609     77610
     77611     77612     77611     77613     77612     77613     77614     77615
     77614     77616     77615     77616     77617     77618     77617     77619
     77618     77619     77620     77621     77620     77622     77621     77622
     77623     77624     77623     77625     77624     77625     77626     77627
     77626     77628     77627     77628     77629     77630     77629     77631
     77630     77631     77632     77633     77632     77634     77633     77634
     77635     77636     77635     77637     77636     77637     77638     77639
     77638     77640     77639     77640     77641     77642     77641     77643
     77642     77643     77644     77645     77644     77646     77645     77646
     77647     77648     77647     77649     77648     77649     77650     77651
     77650     77652     77651     77652     77653     77654     77653     77655
     77654     77655     77656     77657     77656     77658     77657     77658
     77659     77660     77659     77661     77660     77661     77662     77663
     77662     77664     77663     77664     77665     77666     77665     77667
     77666     77667     77668     77669     77668     77670     77669     77670
     77671     77672     77671     77673     77672     77673     77674     77675
     77674     77676     77675     77676     77677     77678     77677     77679
     77678     77679     77680     77681     77680     77682     77681     77682
     77683     77684     77683     77685     77684     77685     77686     77687
     77686     77688     77687     77688     77689     77690     77689     77691
     77690     77691     77692     77693     77692     77694     77693     77694
     77695     77696     77695     77697     77696     77697     77698     77699
     77698     77700     77699     77700     77701     77702     77701     77703
     77702     77703     77704     77705     77704     77706     77705     77706
     77707     77708     77707     77709     77708     77709     77710     77711
     77710     77712     77711     77712     77713     77714     77713     77715
     77714     77715     77716     77717     77716     77718     77717     77718
     77719     77720     77719     77721     77720     77721     77722     77723
     77722     77724     77723     77724     77725     77726     77725     77727
     77726     77727     77728     77729     77728     77730     77729     77730
     77731     77732     77731     77733     77732     77733     77734     77735
     77734     77736     77735     77736     77737     77738     77737     77739
     77738     77739     77740     77741     77740     77742     77741     77742
     77743     77744     77743     77745     77744     77745     77746     77747
     77746     77748     77747     77748     77749     77750     77749     77751
     77750     77751     77752     77753     77752     77754     77753     77754
     77755     77756     77755     77757     77756     77757     77758     77759
     77758     77760     77759     77760     77761     77762     77761     77763
     77762     77763     77764     77765     77764     77766     77765     77766
     77767     77768     77767     77769     77768     77769     77770     77771
     77770     77772     77771     77772     77773     77774     77773     77775
     77774     77775     77776     77777     77776     77778     77777     77778
     77779     77780     77779     77781     77780     77781     77782     77783
     77782     77784     77783     77784     77785     77786     77785     77787
     77786     77787     77788     77789     77788     77790     77789     77790
     77791     77792     77791     77793     77792     77793     77794     77795
     77794     77796     77795     77796     77797     77798     77797     77799
     77798     77799     77800     77801     77800     77802     77801     77802
     77803     77804     77803     77805     77804     77805     77806     77807
     77806     77808     77807     77808     77809     77810     77809     77811
     77810     77811     77812     77813     77812     77814     77813     77814
     77815     77816     77815     77817     77816     77817     77818     77819
     77818     77820     77819     77820     77821     77822     77821     77823
     77822     77823     77824     77825     77824     77826     77825     77826
     77827     77828     77827     77829     77828     77829     77830     77831
     77830     77832     77831     77832     77833     77834     77833     77835
     77834     77835     77836     77837     77836     77838     77837     77838
     77839     77840     77839     77841     77840     77841     77842     77843
     77842     77844     77843     77844     77845     77846     77845     77847
     77846     77847     77848     77849     77848     77850     77849     77850
     77851     77852     77851     77853     77852     77853     77854     77855
     77854     77856     77855     77856     77857     77858     77857     77859
     77858     77859     77860     77861     77860     77862     77861     77862
     77863     77864     77863     77865     77864     77865     77866     77867
     77866     77868     77867     77868     77869     77870     77869     77871
     77870     77871     77872     77873     77872     77874     77873     77874
     77875     77876     77875     77877     77876     77877     77878     77879
     77878     77880     77879     77880     77881     77882     77881     77883
     77882     77883     77884     77885     77884     77886     77885     77886
     77887     77888     77887     77889     77888     77889     77890     77891
     77890     77892     77891     77892     77893     77894     77893     77895
     77894     77895     77896     77897     77896     77898     77897     77898
     77899     77900     77899     77901     77900     77901     77902     77903
     77902     77904     77903     77904     77905     77906     77905     77907
     77906     77907     77908     77909     77908     77910     77909     77910
     77911     77912     77911     77913     77912     77913     77914     77915
     77914     77916     77915     77916     77917     77918     77917     77919
     77918     77919     77920     77921     77920     77922     77921     77922
     77923     77924     77923     77925     77924     77925     77926     77927
     77926     77928     77927     77928     77929     77930     77929     77931
     77930     77931     77932     77933     77932     77934     77933     77934
     77935     77936     77935     77937     77936     77937     77938     77939
     77938     77940     77939     77940     77941     77942     77941     77943
     77942     77943     77944     77945     77944     77946     77945     77946
     77947     77948     77947     77949     77948     77949     77950     77951
     77950     77952     77951     77952     77953     77954     77953     77955
     77954     77955     77956     77957     77956     77958     77957     77958
     77959     77960     77959     77961     77960     77961     77962     77963
     77962     77964     77963     77964     77965     77966     77965     77967
     77966     77967     77968     77969     77968     77970     77969     77970
     77971     77972     77971     77973     77972     77973     77974     77975
     77974     77976     77975     77976     77977     77978     77977     77979
     77978     77979     77980     77981     77980     77982     77981     77982
     77983     77984     77983     77985     77984     77985     77986     77987
     77986     77988     77987     77988     77989     77990     77989     77991
     77990     77991     77992     77993     77992     77994     77993     77994
     77995     77996     77995     77997     77996     77997     77998     77999
     77998     78000     77999     78000     78001     78002     78001     78003
     78002     78003     78004     78005     78004     78006     78005     78006
     78007     78008     78007     78009     78008     78009     78010     78011
     78010     78012     78011     78012     78013     78014     78013     78015
     78014     78015     78016     78017     78016     78018     78017     78018
     78019     78020     78019     78021     78020     78021     78022     78023
     78022     78024     78023     78024     78025     78026     78025     78027
     78026     78027     78028     78029     78028     78030     78029     78030
     78031     78032     78031     78033     78032     78033     78034     78035
     78034     78036     78035     78036     78037     78038     78037     78039
     78038     78039     78040     78041     78040     78042     78041     78042
     78043     78044     78043     78045     78044     78045     78046     78047
     78046     78048     78047     78048     78049     78050     78049     78051
     78050     78051     78052     78053     78052     78054     78053     78054
     78055     78056     78055     78057     78056     78057     78058     78059
     78058     78060     78059     78060     78061     78062     78061     78063
     78062     78063     78064     78065     78064     78066     78065     78066
     78067     78068     78067     78069     78068     78069     78070     78071
     78070     78072     78071     78072     78073     78074     78073     78075
     78074     78075     78076     78077     78076     78078     78077     78078
     78079     78080     78079     78081     78080     78081     78082     78083
     78082     78084     78083     78084     78085     78086     78085     78087
     78086     78087     78088     78089     78088     78090     78089     78090
     78091     78092     78091     78093     78092     78093     78094     78095
     78094     78096     78095     78096     78097     78098     78097     78099
     78098     78099     78100     78101     78100     78102     78101     78102
     78103     78104     78103     78105     78104     78105     78106     78107
     78106     78108     78107     78108     78109     78110     78109     78111
     78110     78111     78112     78113     78112     78114     78113     78114
     78115     78116     78115     78117     78116     78117     78118     78119
     78118     78120     78119     78120     78121     78122     78121     78123
     78122     78123     78124     78125     78124     78126     78125     78126
     78127     78128     78127     78129     78128     78129     78130     78131
     78130     78132     78131     78132     78133     78134     78133     78135
     78134     78135     78136     78137     78136     78138     78137     78138
     78139     78140     78139     78141     78140     78141     78142     78143
     78142     78144     78143     78144     78145     78146     78145     78147
     78146     78147     78148     78149     78148     78150     78149     78150
     78151     78152     78151     78153     78152     78153     78154     78155
     78154     78156     78155     78156     78157     78158     78157     78159
     78158     78159     78160     78161     78160     78162     78161     78162
     78163     78164     78163     78165     78164     78165     78166     78167
     78166     78168     78167     78168     78169     78170     78169     78171
     78170     78171     78172     78173     78172     78174     78173     78174
     78175     78176     78175     78177     78176     78177     78178     78179
     78178     78180     78179     78180     78181     78182     78181     78183
     78182     78183     78184     78185     78184     78186     78185     78186
     78187     78188     78187     78189     78188     78189     78190     78191
     78190     78192     78191     78192     78193     78194     78193     78195
     78194     78195     78196     78197     78196     78198     78197     78198
     78199     78200     78199     78201     78200     78201     78202     78203
     78202     78204     78203     78204     78205     78206     78205     78207
     78206     78207     78208     78209     78208     78210     78209     78210
     78211     78212     78211     78213     78212     78213     78214     78215
     78214     78216     78215     78216     78217     78218     78217     78219
     78218     78219     78220     78221     78220     78222     78221     78222
     78223     78224     78223     78225     78224     78225     78226     78227
     78226     78228     78227     78228     78229     78230     78229     78231
     78230     78231     78232     78233     78232     78234     78233     78234
     78235     78236     78235     78237     78236     78237     78238     78239
     78238     78240     78239     78240     78241     78242     78241     78243
     78242     78243     78244     78245     78244     78246     78245     78246
     78247     78248     78247     78249     78248     78249     78250     78251
     78250     78252     78251     78252     78253     78254     78253     78255
     78254     78255     78256     78257     78256     78258     78257     78258
     78259     78260     78259     78261     78260     78261     78262     78263
     78262     78264     78263     78264     78265     78266     78265     78267
     78266     78267     78268     78269     78268     78270     78269     78270
     78271     78272     78271     78273     78272     78273     78274     78275
     78274     78276     78275     78276     78277     78278     78277     78279
     78278     78279     78280     78281     78280     78282     78281     78282
     78283     78284     78283     78285     78284     78285     78286     78287
     78286     78288     78287     78288     78289     78290     78289     78291
     78290     78291     78292     78293     78292     78294     78293     78294
     78295     78296     78295     78297     78296     78297     78298     78299
     78298     78300     78299     78300     78301     78302     78301     78303
     78302     78303     78304     78305     78304     78306     78305     78306
     78307     78308     78307     78309     78308     78309     78310     78311
     78310     78312     78311     78312     78313     78314     78313     78315
     78314     78315     78316     78317     78316     78318     78317     78318
     78319     78320     78319     78321     78320     78321     78322     78323
     78322     78324     78323     78324     78325     78326     78325     78327
     78326     78327     78328     78329     78328     78330     78329     78330
     78331     78332     78331     78333     78332     78333     78334     78335
     78334     78336     78335     78336     78337     78338     78337     78339
     78338     78339     78340     78341     78340     78342     78341     78342
     78343     78344     78343     78345     78344     78345     78346     78347
     78346     78348     78347     78348     78349     78350     78349     78351
     78350     78351     78352     78353     78352     78354     78353     78354
     78355     78356     78355     78357     78356     78357     78358     78359
     78358     78360     78359     78360     78361     78362     78361     78363
     78362     78363     78364     78365     78364     78366     78365     78366
     78367     78368     78367     78369     78368     78369     78370     78371
     78370     78372     78371     78372     78373     78374     78373     78375
     78374     78375     78376     78377     78376     78378     78377     78378
     78379     78380     78379     78381     78380     78381     78382     78383
     78382     78384     78383     78384     78385     78386     78385     78387
     78386     78387     78388     78389     78388     78390     78389     78390
     78391     78392     78391     78393     78392     78393     78394     78395
     78394     78396     78395     78396     78397     78398     78397     78399
     78398     78399     78400     78401     78400     78402     78401     78402
     78403     78404     78403     78405     78404     78405     78406     78407
     78406     78408     78407     78408     78409     78410     78409     78411
     78410     78411     78412     78413     78412     78414     78413     78414
     78415     78416     78415     78417     78416     78417     78418     78419
     78418     78420     78419     78420     78421     78422     78421     78423
     78422     78423     78424     78425     78424     78426     78425     78426
     78427     78428     78427     78429     78428     78429     78430     78431
     78430     78432     78431     78432     78433     78434     78433     78435
     78434     78435     78436     78437     78436     78438     78437     78438
     78439     78440     78439     78441     78440     78441     78442     78443
     78442     78444     78443     78444     78445     78446     78445     78447
     78446     78447     78448     78449     78448     78450     78449     78450
     78451     78452     78451     78453     78452     78453     78454     78455
     78454     78456     78455     78456     78457     78458     78457     78459
     78458     78459     78460     78461     78460     78462     78461     78462
     78463     78464     78463     78465     78464     78465     78466     78467
     78466     78468     78467     78468     78469     78470     78469     78471
     78470     78471     78472     78473     78472     78474     78473     78474
     78475     78476     78475     78477     78476     78477     78478     78479
     78478     78480     78479     78480     78481     78482     78481     78483
     78482     78483     78484     78485     78484     78486     78485     78486
     78487     78488     78487     78489     78488     78489     78490     78491
     78490     78492     78491     78492     78493     78494     78493     78495
     78494     78495     78496     78497     78496     78498     78497     78498
     78499     78500     78499     78501     78500     78501     78502     78503
     78502     78504     78503     78504     78505     78506     78505     78507
     78506     78507     78508     78509     78508     78510     78509     78510
     78511     78512     78511     78513     78512     78513     78514     78515
     78514     78516     78515     78516     78517     78518     78517     78519
     78518     78519     78520     78521     78520     78522     78521     78522
     78523     78524     78523     78525     78524     78525     78526     78527
     78526     78528     78527     78528     78529     78530     78529     78531
     78530     78531     78532     78533     78532     78534     78533     78534
     78535     78536     78535     78537     78536     78537     78538     78539
     78538     78540     78539     78540     78541     78542     78541     78543
     78542     78543     78544     78545     78544     78546     78545     78546
     78547     78548     78547     78549     78548     78549     78550     78551
     78550     78552     78551     78552     78553     78554     78553     78555
     78554     78555     78556     78557     78556     78558     78557     78558
     78559     78560     78559     78561     78560     78561     78562     78563
     78562     78564     78563     78564     78565     78566     78565     78567
     78566     78567     78568     78569     78568     78570     78569     78570
     78571     78572     78571     78573     78572     78573     78574     78575
     78574     78576     78575     78576     78577     78578     78577     78579
     78578     78579     78580     78581     78580     78582     78581     78582
     78583     78584     78583     78585     78584     78585     78586     78587
     78586     78588     78587     78588     78589     78590     78589     78591
     78590     78591     78592     78593     78592     78594     78593     78594
     78595     78596     78595     78597     78596     78597     78598     78599
     78598     78600     78599     78600     78601     78602     78601     78603
     78602     78603     78604     78605     78604     78606     78605     78606
     78607     78608     78607     78609     78608     78609     78610     78611
     78610     78612     78611     78612     78613     78614     78613     78615
     78614     78615     78616     78617     78616     78618     78617     78618
     78619     78620     78619     78621     78620     78621     78622     78623
     78622     78624     78623     78624     78625     78626     78625     78627
     78626     78627     78628     78629     78628     78630     78629     78630
     78631     78632     78631     78633     78632     78633     78634     78635
     78634     78636     78635     78636     78637     78638     78637     78639
     78638     78639     78640     78641     78640     78642     78641     78642
     78643     78644     78643     78645     78644     78645     78646     78647
     78646     78648     78647     78648     78649     78650     78649     78651
     78650     78651     78652     78653     78652     78654     78653     78654
     78655     78656     78655     78657     78656     78657     78658     78659
     78658     78660     78659     78660     78661     78662     78661     78663
     78662     78663     78664     78665     78664     78666     78665     78666
     78667     78668     78667     78669     78668     78669     78670     78671
     78670     78672     78671     78672     78673     78674     78673     78675
     78674     78675     78676     78677     78676     78678     78677     78678
     78679     78680     78679     78681     78680     78681     78682     78683
     78682     78684     78683     78684     78685     78686     78685     78687
     78686     78687     78688     78689     78688     78690     78689     78690
     78691     78692     78691     78693     78692     78693     78694     78695
     78694     78696     78695     78696     78697     78698     78697     78699
     78698     78699     78700     78701     78700     78702     78701     78702
     78703     78704     78703     78705     78704     78705     78706     78707
     78706     78708     78707     78708     78709     78710     78709     78711
     78710     78711     78712     78713     78712     78714     78713     78714
     78715     78716     78715     78717     78716     78717     78718     78719
     78718     78720     78719     78720     78721     78722     78721     78723
     78722     78723     78724     78725     78724     78726     78725     78726
     78727     78728     78727     78729     78728     78729     78730     78731
     78730     78732     78731     78732     78733     78734     78733     78735
     78734     78735     78736     78737     78736     78738     78737     78738
     78739     78740     78739     78741     78740     78741     78742     78743
     78742     78744     78743     78744     78745     78746     78745     78747
     78746     78747     78748     78749     78748     78750     78749     78750
     78751     78752     78751     78753     78752     78753     78754     78755
     78754     78756     78755     78756     78757     78758     78757     78759
     78758     78759     78760     78761     78760     78762     78761     78762
     78763     78764     78763     78765     78764     78765     78766     78767
     78766     78768     78767     78768     78769     78770     78769     78771
     78770     78771     78772     78773     78772     78774     78773     78774
     78775     78776     78775     78777     78776     78777     78778     78779
     78778     78780     78779     78780     78781     78782     78781     78783
     78782     78783     78784     78785     78784     78786     78785     78786
     78787     78788     78787     78789     78788     78789     78790     78791
     78790     78792     78791     78792     78793     78794     78793     78795
     78794     78795     78796     78797     78796     78798     78797     78798
     78799     78800     78799     78801     78800     78801     78802     78803
     78802     78804     78803     78804     78805     78806     78805     78807
     78806     78807     78808     78809     78808     78810     78809     78810
     78811     78812     78811     78813     78812     78813     78814     78815
     78814     78816     78815     78816     78817     78818     78817     78819
     78818     78819     78820     78821     78820     78822     78821     78822
     78823     78824     78823     78825     78824     78825     78826     78827
     78826     78828     78827     78828     78829     78830     78829     78831
     78830     78831     78832     78833     78832     78834     78833     78834
     78835     78836     78835     78837     78836     78837     78838     78839
     78838     78840     78839     78840     78841     78842     78841     78843
     78842     78843     78844     78845     78844     78846     78845     78846
     78847     78848     78847     78849     78848     78849     78850     78851
     78850     78852     78851     78852     78853     78854     78853     78855
     78854     78855     78856     78857     78856     78858     78857     78858
     78859     78860     78859     78861     78860     78861     78862     78863
     78862     78864     78863     78864     78865     78866     78865     78867
     78866     78867     78868     78869     78868     78870     78869     78870
     78871     78872     78871     78873     78872     78873     78874     78875
     78874     78876     78875     78876     78877     78878     78877     78879
     78878     78879     78880     78881     78880     78882     78881     78882
     78883     78884     78883     78885     78884     78885     78886     78887
     78886     78888     78887     78888     78889     78890     78889     78891
     78890     78891     78892     78893     78892     78894     78893     78894
     78895     78896     78895     78897     78896     78897     78898     78899
     78898     78900     78899     78900     78901     78902     78901     78903
     78902     78903     78904     78905     78904     78906     78905     78906
     78907     78908     78907     78909     78908     78909     78910     78911
     78910     78912     78911     78912     78913     78914     78913     78915
     78914     78915     78916     78917     78916     78918     78917     78918
     78919     78920     78919     78921     78920     78921     78922     78923
     78922     78924     78923     78924     78925     78926     78925     78927
     78926     78927     78928     78929     78928     78930     78929     78930
     78931     78932     78931     78933     78932     78933     78934     78935
     78934     78936     78935     78936     78937     78938     78937     78939
     78938     78939     78940     78941     78940     78942     78941     78942
     78943     78944     78943     78945     78944     78945     78946     78947
     78946     78948     78947     78948     78949     78950     78949     78951
     78950     78951     78952     78953     78952     78954     78953     78954
     78955     78956     78955     78957     78956     78957     78958     78959
     78958     78960     78959     78960     78961     78962     78961     78963
     78962     78963     78964     78965     78964     78966     78965     78966
     78967     78968     78967     78969     78968     78969     78970     78971
     78970     78972     78971     78972     78973     78974     78973     78975
     78974     78975     78976     78977     78976     78978     78977     78978
     78979     78980     78979     78981     78980     78981     78982     78983
     78982     78984     78983     78984     78985     78986     78985     78987
     78986     78987     78988     78989     78988     78990     78989     78990
     78991     78992     78991     78993     78992     78993     78994     78995
     78994     78996     78995     78996     78997     78998     78997     78999
     78998     78999     79000     79001     79000     79002     79001     79002
     79003     79004     79003     79005     79004     79005     79006     79007
     79006     79008     79007     79008     79009     79010     79009     79011
     79010     79011     79012     79013     79012     79014     79013     79014
     79015     79016     79015     79017     79016     79017     79018     79019
     79018     79020     79019     79020     79021     79022     79021     79023
     79022     79023     79024     79025     79024     79026     79025     79026
     79027     79028     79027     79029     79028     79029     79030     79031
     79030     79032     79031     79032     79033     79034     79033     79035
     79034     79035     79036     79037     79036     79038     79037     79038
     79039     79040     79039     79041     79040     79041     79042     79043
     79042     79044     79043     79044     79045     79046     79045     79047
     79046     79047     79048     79049     79048     79050     79049     79050
     79051     79052     79051     79053     79052     79053     79054     79055
     79054     79056     79055     79056     79057     79058     79057     79059
     79058     79059     79060     79061     79060     79062     79061     79062
     79063     79064     79063     79065     79064     79065     79066     79067
     79066     79068     79067     79068     79069     79070     79069     79071
     79070     79071     79072     79073     79072     79074     79073     79074
     79075     79076     79075     79077     79076     79077     79078     79079
     79078     79080     79079     79080     79081     79082     79081     79083
     79082     79083     79084     79085     79084     79086     79085     79086
     79087     79088     79087     79089     79088     79089     79090     79091
     79090     79092     79091     79092     79093     79094     79093     79095
     79094     79095     79096     79097     79096     79098     79097     79098
     79099     79100     79099     79101     79100     79101     79102     79103
     79102     79104     79103     79104     79105     79106     79105     79107
     79106     79107     79108     79109     79108     79110     79109     79110
     79111     79112     79111     79113     79112     79113     79114     79115
     79114     79116     79115     79116     79117     79118     79117     79119
     79118     79119     79120     79121     79120     79122     79121     79122
     79123     79124     79123     79125     79124     79125     79126     79127
     79126     79128     79127     79128     79129     79130     79129     79131
     79130     79131     79132     79133     79132     79134     79133     79134
     79135     79136     79135     79137     79136     79137     79138     79139
     79138     79140     79139     79140     79141     79142     79141     79143
     79142     79143     79144     79145     79144     79146     79145     79146
     79147     79148     79147     79149     79148     79149     79150     79151
     79150     79152     79151     79152     79153     79154     79153     79155
     79154     79155     79156     79157     79156     79158     79157     79158
     79159     79160     79159     79161     79160     79161     79162     79163
     79162     79164     79163     79164     79165     79166     79165     79167
     79166     79167     79168     79169     79168     79170     79169     79170
     79171     79172     79171     79173     79172     79173     79174     79175
     79174     79176     79175     79176     79177     79178     79177     79179
     79178     79179     79180     79181     79180     79182     79181     79182
     79183     79184     79183     79185     79184     79185     79186     79187
     79186     79188     79187     79188     79189     79190     79189     79191
     79190     79191     79192     79193     79192     79194     79193     79194
     79195     79196     79195     79197     79196     79197     79198     79199
     79198     79200     79199     79200     79201     79202     79201     79203
     79202     79203     79204     79205     79204     79206     79205     79206
     79207     79208     79207     79209     79208     79209     79210     79211
     79210     79212     79211     79212     79213     79214     79213     79215
     79214     79215     79216     79217     79216     79218     79217     79218
     79219     79220     79219     79221     79220     79221     79222     79223
     79222     79224     79223     79224     79225     79226     79225     79227
     79226     79227     79228     79229     79228     79230     79229     79230
     79231     79232     79231     79233     79232     79233     79234     79235
     79234     79236     79235     79236     79237     79238     79237     79239
     79238     79239     79240     79241     79240     79242     79241     79242
     79243     79244     79243     79245     79244     79245     79246     79247
     79246     79248     79247     79248     79249     79250     79249     79251
     79250     79251     79252     79253     79252     79254     79253     79254
     79255     79256     79255     79257     79256     79257     79258     79259
     79258     79260     79259     79260     79261     79262     79261     79263
     79262     79263     79264     79265     79264     79266     79265     79266
     79267     79268     79267     79269     79268     79269     79270     79271
     79270     79272     79271     79272     79273     79274     79273     79275
     79274     79275     79276     79277     79276     79278     79277     79278
     79279     79280     79279     79281     79280     79281     79282     79283
     79282     79284     79283     79284     79285     79286     79285     79287
     79286     79287     79288     79289     79288     79290     79289     79290
     79291     79292     79291     79293     79292     79293     79294     79295
     79294     79296     79295     79296     79297     79298     79297     79299
     79298     79299     79300     79301     79300     79302     79301     79302
     79303     79304     79303     79305     79304     79305     79306     79307
     79306     79308     79307     79308     79309     79310     79309     79311
     79310     79311     79312     79313     79312     79314     79313     79314
     79315     79316     79315     79317     79316     79317     79318     79319
     79318     79320     79319     79320     79321     79322     79321     79323
     79322     79323     79324     79325     79324     79326     79325     79326
     79327     79328     79327     79329     79328     79329     79330     79331
     79330     79332     79331     79332     79333     79334     79333     79335
     79334     79335     79336     79337     79336     79338     79337     79338
     79339     79340     79339     79341     79340     79341     79342     79343
     79342     79344     79343     79344     79345     79346     79345     79347
     79346     79347     79348     79349     79348     79350     79349     79350
     79351     79352     79351     79353     79352     79353     79354     79355
     79354     79356     79355     79356     79357     79358     79357     79359
     79358     79359     79360     79361     79360     79362     79361     79362
     79363     79364     79363     79365     79364     79365     79366     79367
     79366     79368     79367     79368     79369     79370     79369     79371
     79370     79371     79372     79373     79372     79374     79373     79374
     79375     79376     79375     79377     79376     79377     79378     79379
     79378     79380     79379     79380     79381     79382     79381     79383
     79382     79383     79384     79385     79384     79386     79385     79386
     79387     79388     79387     79389     79388     79389     79390     79391
     79390     79392     79391     79392     79393     79394     79393     79395
     79394     79395     79396     79397     79396     79398     79397     79398
     79399     79400     79399     79401     79400     79401     79402     79403
     79402     79404     79403     79404     79405     79406     79405     79407
     79406     79407     79408     79409     79408     79410     79409     79410
     79411     79412     79411     79413     79412     79413     79414     79415
     79414     79416     79415     79416     79417     79418     79417     79419
     79418     79419     79420     79421     79420     79422     79421     79422
     79423     79424     79423     79425     79424     79425     79426     79427
     79426     79428     79427     79428     79429     79430     79429     79431
     79430     79431     79432     79433     79432     79434     79433     79434
     79435     79436     79435     79437     79436     79437     79438     79439
     79438     79440     79439     79440     79441     79442     79441     79443
     79442     79443     79444     79445     79444     79446     79445     79446
     79447     79448     79447     79449     79448     79449     79450     79451
     79450     79452     79451     79452     79453     79454     79453     79455
     79454     79455     79456     79457     79456     79458     79457     79458
     79459     79460     79459     79461     79460     79461     79462     79463
     79462     79464     79463     79464     79465     79466     79465     79467
     79466     79467     79468     79469     79468     79470     79469     79470
     79471     79472     79471     79473     79472     79473     79474     79475
     79474     79476     79475     79476     79477     79478     79477     79479
     79478     79479     79480     79481     79480     79482     79481     79482
     79483     79484     79483     79485     79484     79485     79486     79487
     79486     79488     79487     79488     79489     79490     79489     79491
     79490     79491     79492     79493     79492     79494     79493     79494
     79495     79496     79495     79497     79496     79497     79498     79499
     79498     79500     79499     79500     79501     79502     79501     79503
     79502     79503     79504     79505     79504     79506     79505     79506
     79507     79508     79507     79509     79508     79509     79510     79511
     79510     79512     79511     79512     79513     79514     79513     79515
     79514     79515     79516     79517     79516     79518     79517     79518
     79519     79520     79519     79521     79520     79521     79522     79523
     79522     79524     79523     79524     79525     79526     79525     79527
     79526     79527     79528     79529     79528     79530     79529     79530
     79531     79532     79531     79533     79532     79533     79534     79535
     79534     79536     79535     79536     79537     79538     79537     79539
     79538     79539     79540     79541     79540     79542     79541     79542
     79543     79544     79543     79545     79544     79545     79546     79547
     79546     79548     79547     79548     79549     79550     79549     79551
     79550     79551     79552     79553     79552     79554     79553     79554
     79555     79556     79555     79557     79556     79557     79558     79559
     79558     79560     79559     79560     79561     79562     79561     79563
     79562     79563     79564     79565     79564     79566     79565     79566
     79567     79568     79567     79569     79568     79569     79570     79571
     79570     79572     79571     79572     79573     79574     79573     79575
     79574     79575     79576     79577     79576     79578     79577     79578
     79579     79580     79579     79581     79580     79581     79582     79583
     79582     79584     79583     79584     79585     79586     79585     79587
     79586     79587     79588     79589     79588     79590     79589     79590
     79591     79592     79591     79593     79592     79593     79594     79595
     79594     79596     79595     79596     79597     79598     79597     79599
     79598     79599     79600     79601     79600     79602     79601     79602
     79603     79604     79603     79605     79604     79605     79606     79607
     79606     79608     79607     79608     79609     79610     79609     79611
     79610     79611     79612     79613     79612     79614     79613     79614
     79615     79616     79615     79617     79616     79617     79618     79619
     79618     79620     79619     79620     79621     79622     79621     79623
     79622     79623     79624     79625     79624     79626     79625     79626
     79627     79628     79627     79629     79628     79629     79630     79631
     79630     79632     79631     79632     79633     79634     79633     79635
     79634     79635     79636     79637     79636     79638     79637     79638
     79639     79640     79639     79641     79640     79641     79642     79643
     79642     79644     79643     79644     79645     79646     79645     79647
     79646     79647     79648     79649     79648     79650     79649     79650
     79651     79652     79651     79653     79652     79653     79654     79655
     79654     79656     79655     79656     79657     79658     79657     79659
     79658     79659     79660     79661     79660     79662     79661     79662
     79663     79664     79663     79665     79664     79665     79666     79667
     79666     79668     79667     79668     79669     79670     79669     79671
     79670     79671     79672     79673     79672     79674     79673     79674
     79675     79676     79675     79677     79676     79677     79678     79679
     79678     79680     79679     79680     79681     79682     79681     79683
     79682     79683     79684     79685     79684     79686     79685     79686
     79687     79688     79687     79689     79688     79689     79690     79691
     79690     79692     79691     79692     79693     79694     79693     79695
     79694     79695     79696     79697     79696     79698     79697     79698
     79699     79700     79699     79701     79700     79701     79702     79703
     79702     79704     79703     79704     79705     79706     79705     79707
     79706     79707     79708     79709     79708     79710     79709     79710
     79711     79712     79711     79713     79712     79713     79714     79715
     79714     79716     79715     79716     79717     79718     79717     79719
     79718     79719     79720     79721     79720     79722     79721     79722
     79723     79724     79723     79725     79724     79725     79726     79727
     79726     79728     79727     79728     79729     79730     79729     79731
     79730     79731     79732     79733     79732     79734     79733     79734
     79735     79736     79735     79737     79736     79737     79738     79739
     79738     79740     79739     79740     79741     79742     79741     79743
     79742     79743     79744     79745     79744     79746     79745     79746
     79747     79748     79747     79749     79748     79749     79750     79751
     79750     79752     79751     79752     79753     79754     79753     79755
     79754     79755     79756     79757     79756     79758     79757     79758
     79759     79760     79759     79761     79760     79761     79762     79763
     79762     79764     79763     79764     79765     79766     79765     79767
     79766     79767     79768     79769     79768     79770     79769     79770
     79771     79772     79771     79773     79772     79773     79774     79775
     79774     79776     79775     79776     79777     79778     79777     79779
     79778     79779     79780     79781     79780     79782     79781     79782
     79783     79784     79783     79785     79784     79785     79786     79787
     79786     79788     79787     79788     79789     79790     79789     79791
     79790     79791     79792     79793     79792     79794     79793     79794
     79795     79796     79795     79797     79796     79797     79798     79799
     79798     79800     79799     79800     79801     79802     79801     79803
     79802     79803     79804     79805     79804     79806     79805     79806
     79807     79808     79807     79809     79808     79809     79810     79811
     79810     79812     79811     79812     79813     79814     79813     79815
     79814     79815     79816     79817     79816     79818     79817     79818
     79819     79820     79819     79821     79820     79821     79822     79823
     79822     79824     79823     79824     79825     79826     79825     79827
     79826     79827     79828     79829     79828     79830     79829     79830
     79831     79832     79831     79833     79832     79833     79834     79835
     79834     79836     79835     79836     79837     79838     79837     79839
     79838     79839     79840     79841     79840     79842     79841     79842
     79843     79844     79843     79845     79844     79845     79846     79847
     79846     79848     79847     79848     79849     79850     79849     79851
     79850     79851     79852     79853     79852     79854     79853     79854
     79855     79856     79855     79857     79856     79857     79858     79859
     79858     79860     79859     79860     79861     79862     79861     79863
     79862     79863     79864     79865     79864     79866     79865     79866
     79867     79868     79867     79869     79868     79869     79870     79871
     79870     79872     79871     79872     79873     79874     79873     79875
     79874     79875     79876     79877     79876     79878     79877     79878
     79879     79880     79879     79881     79880     79881     79882     79883
     79882     79884     79883     79884     79885     79886     79885     79887
     79886     79887     79888     79889     79888     79890     79889     79890
     79891     79892     79891     79893     79892     79893     79894     79895
     79894     79896     79895     79896     79897     79898     79897     79899
     79898     79899     79900     79901     79900     79902     79901     79902
     79903     79904     79903     79905     79904     79905     79906     79907
     79906     79908     79907     79908     79909     79910     79909     79911
     79910     79911     79912     79913     79912     79914     79913     79914
     79915     79916     79915     79917     79916     79917     79918     79919
     79918     79920     79919     79920     79921     79922     79921     79923
     79922     79923     79924     79925     79924     79926     79925     79926
     79927     79928     79927     79929     79928     79929     79930     79931
     79930     79932     79931     79932     79933     79934     79933     79935
     79934     79935     79936     79937     79936     79938     79937     79938
     79939     79940     79939     79941     79940     79941     79942     79943
     79942     79944     79943     79944     79945     79946     79945     79947
     79946     79947     79948     79949     79948     79950     79949     79950
     79951     79952     79951     79953     79952     79953     79954     79955
     79954     79956     79955     79956     79957     79958     79957     79959
     79958     79959     79960     79961     79960     79962     79961     79962
     79963     79964     79963     79965     79964     79965     79966     79967
     79966     79968     79967     79968     79969     79970     79969     79971
     79970     79971     79972     79973     79972     79974     79973     79974
     79975     79976     79975     79977     79976     79977     79978     79979
     79978     79980     79979     79980     79981     79982     79981     79983
     79982     79983     79984     79985     79984     79986     79985     79986
     79987     79988     79987     79989     79988     79989     79990     79991
     79990     79992     79991     79992     79993     79994     79993     79995
     79994     79995     79996     79997     79996     79998     79997     79998
     79999     80000     79999     80001     80000     80001     80002     80003
     80002     80004     80003     80004     80005     80006     80005     80007
     80006     80007     80008     80009     80008     80010     80009     80010
     80011     80012     80011     80013     80012     80013     80014     80015
     80014     80016     80015     80016     80017     80018     80017     80019
     80018     80019     80020     80021     80020     80022     80021     80022
     80023     80024     80023     80025     80024     80025     80026     80027
     80026     80028     80027     80028     80029     80030     80029     80031
     80030     80031     80032     80033     80032     80034     80033     80034
     80035     80036     80035     80037     80036     80037     80038     80039
     80038     80040     80039     80040     80041     80042     80041     80043
     80042     80043     80044     80045     80044     80046     80045     80046
     80047     80048     80047     80049     80048     80049     80050     80051
     80050     80052     80051     80052     80053     80054     80053     80055
     80054     80055     80056     80057     80056     80058     80057     80058
     80059     80060     80059     80061     80060     80061     80062     80063
     80062     80064     80063     80064     80065     80066     80065     80067
     80066     80067     80068     80069     80068     80070     80069     80070
     80071     80072     80071     80073     80072     80073     80074     80075
     80074     80076     80075     80076     80077     80078     80077     80079
     80078     80079     80080     80081     80080     80082     80081     80082
     80083     80084     80083     80085     80084     80085     80086     80087
     80086     80088     80087     80088     80089     80090     80089     80091
     80090     80091     80092     80093     80092     80094     80093     80094
     80095     80096     80095     80097     80096     80097     80098     80099
     80098     80100     80099     80100     80101     80102     80101     80103
     80102     80103     80104     80105     80104     80106     80105     80106
     80107     80108     80107     80109     80108     80109     80110     80111
     80110     80112     80111     80112     80113     80114     80113     80115
     80114     80115     80116     80117     80116     80118     80117     80118
     80119     80120     80119     80121     80120     80121     80122     80123
     80122     80124     80123     80124     80125     80126     80125     80127
     80126     80127     80128     80129     80128     80130     80129     80130
     80131     80132     80131     80133     80132     80133     80134     80135
     80134     80136     80135     80136     80137     80138     80137     80139
     80138     80139     80140     80141     80140     80142     80141     80142
     80143     80144     80143     80145     80144     80145     80146     80147
     80146     80148     80147     80148     80149     80150     80149     80151
     80150     80151     80152     80153     80152     80154     80153     80154
     80155     80156     80155     80157     80156     80157     80158     80159
     80158     80160     80159     80160     80161     80162     80161     80163
     80162     80163     80164     80165     80164     80166     80165     80166
     80167     80168     80167     80169     80168     80169     80170     80171
     80170     80172     80171     80172     80173     80174     80173     80175
     80174     80175     80176     80177     80176     80178     80177     80178
     80179     80180     80179     80181     80180     80181     80182     80183
     80182     80184     80183     80184     80185     80186     80185     80187
     80186     80187     80188     80189     80188     80190     80189     80190
     80191     80192     80191     80193     80192     80193     80194     80195
     80194     80196     80195     80196     80197     80198     80197     80199
     80198     80199     80200     80201     80200     80202     80201     80202
     80203     80204     80203     80205     80204     80205     80206     80207
     80206     80208     80207     80208     80209     80210     80209     80211
     80210     80211     80212     80213     80212     80214     80213     80214
     80215     80216     80215     80217     80216     80217     80218     80219
     80218     80220     80219     80220     80221     80222     80221     80223
     80222     80223     80224     80225     80224     80226     80225     80226
     80227     80228     80227     80229     80228     80229     80230     80231
     80230     80232     80231     80232     80233     80234     80233     80235
     80234     80235     80236     80237     80236     80238     80237     80238
     80239     80240     80239     80241     80240     80241     80242     80243
     80242     80244     80243     80244     80245     80246     80245     80247
     80246     80247     80248     80249     80248     80250     80249     80250
     80251     80252     80251     80253     80252     80253     80254     80255
     80254     80256     80255     80256     80257     80258     80257     80259
     80258     80259     80260     80261     80260     80262     80261     80262
     80263     80264     80263     80265     80264     80265     80266     80267
     80266     80268     80267     80268     80269     80270     80269     80271
     80270     80271     80272     80273     80272     80274     80273     80274
     80275     80276     80275     80277     80276     80277     80278     80279
     80278     80280     80279     80280     80281     80282     80281     80283
     80282     80283     80284     80285     80284     80286     80285     80286
     80287     80288     80287     80289     80288     80289     80290     80291
     80290     80292     80291     80292     80293     80294     80293     80295
     80294     80295     80296     80297     80296     80298     80297     80298
     80299     80300     80299     80301     80300     80301     80302     80303
     80302     80304     80303     80304     80305     80306     80305     80307
     80306     80307     80308     80309     80308     80310     80309     80310
     80311     80312     80311     80313     80312     80313     80314     80315
     80314     80316     80315     80316     80317     80318     80317     80319
     80318     80319     80320     80321     80320     80322     80321     80322
     80323     80324     80323     80325     80324     80325     80326     80327
     80326     80328     80327     80328     80329     80330     80329     80331
     80330     80331     80332     80333     80332     80334     80333     80334
     80335     80336     80335     80337     80336     80337     80338     80339
     80338     80340     80339     80340     80341     80342     80341     80343
     80342     80343     80344     80345     80344     80346     80345     80346
     80347     80348     80347     80349     80348     80349     80350     80351
     80350     80352     80351     80352     80353     80354     80353     80355
     80354     80355     80356     80357     80356     80358     80357     80358
     80359     80360     80359     80361     80360     80361     80362     80363
     80362     80364     80363     80364     80365     80366     80365     80367
     80366     80367     80368     80369     80368     80370     80369     80370
     80371     80372     80371     80373     80372     80373     80374     80375
     80374     80376     80375     80376     80377     80378     80377     80379
     80378     80379     80380     80381     80380     80382     80381     80382
     80383     80384     80383     80385     80384     80385     80386     80387
     80386     80388     80387     80388     80389     80390     80389     80391
     80390     80391     80392     80393     80392     80394     80393     80394
     80395     80396     80395     80397     80396     80397     80398     80399
     80398     80400     80399     80400     80401     80402     80401     80403
     80402     80403     80404     80405     80404     80406     80405     80406
     80407     80408     80407     80409     80408     80409     80410     80411
     80410     80412     80411     80412     80413     80414     80413     80415
     80414     80415     80416     80417     80416     80418     80417     80418
     80419     80420     80419     80421     80420     80421     80422     80423
     80422     80424     80423     80424     80425     80426     80425     80427
     80426     80427     80428     80429     80428     80430     80429     80430
     80431     80432     80431     80433     80432     80433     80434     80435
     80434     80436     80435     80436     80437     80438     80437     80439
     80438     80439     80440     80441     80440     80442     80441     80442
     80443     80444     80443     80445     80444     80445     80446     80447
     80446     80448     80447     80448     80449     80450     80449     80451
     80450     80451     80452     80453     80452     80454     80453     80454
     80455     80456     80455     80457     80456     80457     80458     80459
     80458     80460     80459     80460     80461     80462     80461     80463
     80462     80463     80464     80465     80464     80466     80465     80466
     80467     80468     80467     80469     80468     80469     80470     80471
     80470     80472     80471     80472     80473     80474     80473     80475
     80474     80475     80476     80477     80476     80478     80477     80478
     80479     80480     80479     80481     80480     80481     80482     80483
     80482     80484     80483     80484     80485     80486     80485     80487
     80486     80487     80488     80489     80488     80490     80489     80490
     80491     80492     80491     80493     80492     80493     80494     80495
     80494     80496     80495     80496     80497     80498     80497     80499
     80498     80499     80500     80501     80500     80502     80501     80502
     80503     80504     80503     80505     80504     80505     80506     80507
     80506     80508     80507     80508     80509     80510     80509     80511
     80510     80511     80512     80513     80512     80514     80513     80514
     80515     80516     80515     80517     80516     80517     80518     80519
     80518     80520     80519     80520     80521     80522     80521     80523
     80522     80523     80524     80525     80524     80526     80525     80526
     80527     80528     80527     80529     80528     80529     80530     80531
     80530     80532     80531     80532     80533     80534     80533     80535
     80534     80535     80536     80537     80536     80538     80537     80538
     80539     80540     80539     80541     80540     80541     80542     80543
     80542     80544     80543     80544     80545     80546     80545     80547
     80546     80547     80548     80549     80548     80550     80549     80550
     80551     80552     80551     80553     80552     80553     80554     80555
     80554     80556     80555     80556     80557     80558     80557     80559
     80558     80559     80560     80561     80560     80562     80561     80562
     80563     80564     80563     80565     80564     80565     80566     80567
     80566     80568     80567     80568     80569     80570     80569     80571
     80570     80571     80572     80573     80572     80574     80573     80574
     80575     80576     80575     80577     80576     80577     80578     80579
     80578     80580     80579     80580     80581     80582     80581     80583
     80582     80583     80584     80585     80584     80586     80585     80586
     80587     80588     80587     80589     80588     80589     80590     80591
     80590     80592     80591     80592     80593     80594     80593     80595
     80594     80595     80596     80597     80596     80598     80597     80598
     80599     80600     80599     80601     80600     80601     80602     80603
     80602     80604     80603     80604     80605     80606     80605     80607
     80606     80607     80608     80609     80608     80610     80609     80610
     80611     80612     80611     80613     80612     80613     80614     80615
     80614     80616     80615     80616     80617     80618     80617     80619
     80618     80619     80620     80621     80620     80622     80621     80622
     80623     80624     80623     80625     80624     80625     80626     80627
     80626     80628     80627     80628     80629     80630     80629     80631
     80630     80631     80632     80633     80632     80634     80633     80634
     80635     80636     80635     80637     80636     80637     80638     80639
     80638     80640     80639     80640     80641     80642     80641     80643
     80642     80643     80644     80645     80644     80646     80645     80646
     80647     80648     80647     80649     80648     80649     80650     80651
     80650     80652     80651     80652     80653     80654     80653     80655
     80654     80655     80656     80657     80656     80658     80657     80658
     80659     80660     80659     80661     80660     80661     80662     80663
     80662     80664     80663     80664     80665     80666     80665     80667
     80666     80667     80668     80669     80668     80670     80669     80670
     80671     80672     80671     80673     80672     80673     80674     80675
     80674     80676     80675     80676     80677     80678     80677     80679
     80678     80679     80680     80681     80680     80682     80681     80682
     80683     80684     80683     80685     80684     80685     80686     80687
     80686     80688     80687     80688     80689     80690     80689     80691
     80690     80691     80692     80693     80692     80694     80693     80694
     80695     80696     80695     80697     80696     80697     80698     80699
     80698     80700     80699     80700     80701     80702     80701     80703
     80702     80703     80704     80705     80704     80706     80705     80706
     80707     80708     80707     80709     80708     80709     80710     80711
     80710     80712     80711     80712     80713     80714     80713     80715
     80714     80715     80716     80717     80716     80718     80717     80718
     80719     80720     80719     80721     80720     80721     80722     80723
     80722     80724     80723     80724     80725     80726     80725     80727
     80726     80727     80728     80729     80728     80730     80729     80730
     80731     80732     80731     80733     80732     80733     80734     80735
     80734     80736     80735     80736     80737     80738     80737     80739
     80738     80739     80740     80741     80740     80742     80741     80742
     80743     80744     80743     80745     80744     80745     80746     80747
     80746     80748     80747     80748     80749     80750     80749     80751
     80750     80751     80752     80753     80752     80754     80753     80754
     80755     80756     80755     80757     80756     80757     80758     80759
     80758     80760     80759     80760     80761     80762     80761     80763
     80762     80763     80764     80765     80764     80766     80765     80766
     80767     80768     80767     80769     80768     80769     80770     80771
     80770     80772     80771     80772     80773     80774     80773     80775
     80774     80775     80776     80777     80776     80778     80777     80778
     80779     80780     80779     80781     80780     80781     80782     80783
     80782     80784     80783     80784     80785     80786     80785     80787
     80786     80787     80788     80789     80788     80790     80789     80790
     80791     80792     80791     80793     80792     80793     80794     80795
     80794     80796     80795     80796     80797     80798     80797     80799
     80798     80799     80800     80801     80800     80802     80801     80802
     80803     80804     80803     80805     80804     80805     80806     80807
     80806     80808     80807     80808     80809     80810     80809     80811
     80810     80811     80812     80813     80812     80814     80813     80814
     80815     80816     80815     80817     80816     80817     80818     80819
     80818     80820     80819     80820     80821     80822     80821     80823
     80822     80823     80824     80825     80824     80826     80825     80826
     80827     80828     80827     80829     80828     80829     80830     80831
     80830     80832     80831     80832     80833     80834     80833     80835
     80834     80835     80836     80837     80836     80838     80837     80838
     80839     80840     80839     80841     80840     80841     80842     80843
     80842     80844     80843     80844     80845     80846     80845     80847
     80846     80847     80848     80849     80848     80850     80849     80850
     80851     80852     80851     80853     80852     80853     80854     80855
     80854     80856     80855     80856     80857     80858     80857     80859
     80858     80859     80860     80861     80860     80862     80861     80862
     80863     80864     80863     80865     80864     80865     80866     80867
     80866     80868     80867     80868     80869     80870     80869     80871
     80870     80871     80872     80873     80872     80874     80873     80874
     80875     80876     80875     80877     80876     80877     80878     80879
     80878     80880     80879     80880     80881     80882     80881     80883
     80882     80883     80884     80885     80884     80886     80885     80886
     80887     80888     80887     80889     80888     80889     80890     80891
     80890     80892     80891     80892     80893     80894     80893     80895
     80894     80895     80896     80897     80896     80898     80897     80898
     80899     80900     80899     80901     80900     80901     80902     80903
     80902     80904     80903     80904     80905     80906     80905     80907
     80906     80907     80908     80909     80908     80910     80909     80910
     80911     80912     80911     80913     80912     80913     80914     80915
     80914     80916     80915     80916     80917     80918     80917     80919
     80918     80919     80920     80921     80920     80922     80921     80922
     80923     80924     80923     80925     80924     80925     80926     80927
     80926     80928     80927     80928     80929     80930     80929     80931
     80930     80931     80932     80933     80932     80934     80933     80934
     80935     80936     80935     80937     80936     80937     80938     80939
     80938     80940     80939     80940     80941     80942     80941     80943
     80942     80943     80944     80945     80944     80946     80945     80946
     80947     80948     80947     80949     80948     80949     80950     80951
     80950     80952     80951     80952     80953     80954     80953     80955
     80954     80955     80956     80957     80956     80958     80957     80958
     80959     80960     80959     80961     80960     80961     80962     80963
     80962     80964     80963     80964     80965     80966     80965     80967
     80966     80967     80968     80969     80968     80970     80969     80970
     80971     80972     80971     80973     80972     80973     80974     80975
     80974     80976     80975     80976     80977     80978     80977     80979
     80978     80979     80980     80981     80980     80982     80981     80982
     80983     80984     80983     80985     80984     80985     80986     80987
     80986     80988     80987     80988     80989     80990     80989     80991
     80990     80991     80992     80993     80992     80994     80993     80994
     80995     80996     80995     80997     80996     80997     80998     80999
     80998     81000     80999     81000     81001     81002     81001     81003
     81002     81003     81004     81005     81004     81006     81005     81006
     81007     81008     81007     81009     81008     81009     81010     81011
     81010     81012     81011     81012     81013     81014     81013     81015
     81014     81015     81016     81017     81016     81018     81017     81018
     81019     81020     81019     81021     81020     81021     81022     81023
     81022     81024     81023     81024     81025     81026     81025     81027
     81026     81027     81028     81029     81028     81030     81029     81030
     81031     81032     81031     81033     81032     81033     81034     81035
     81034     81036     81035     81036     81037     81038     81037     81039
     81038     81039     81040     81041     81040     81042     81041     81042
     81043     81044     81043     81045     81044     81045     81046     81047
     81046     81048     81047     81048     81049     81050     81049     81051
     81050     81051     81052     81053     81052     81054     81053     81054
     81055     81056     81055     81057     81056     81057     81058     81059
     81058     81060     81059     81060     81061     81062     81061     81063
     81062     81063     81064     81065     81064     81066     81065     81066
     81067     81068     81067     81069     81068     81069     81070     81071
     81070     81072     81071     81072     81073     81074     81073     81075
     81074     81075     81076     81077     81076     81078     81077     81078
     81079     81080     81079     81081     81080     81081     81082     81083
     81082     81084     81083     81084     81085     81086     81085     81087
     81086     81087     81088     81089     81088     81090     81089     81090
     81091     81092     81091     81093     81092     81093     81094     81095
     81094     81096     81095     81096     81097     81098     81097     81099
     81098     81099     81100     81101     81100     81102     81101     81102
     81103     81104     81103     81105     81104     81105     81106     81107
     81106     81108     81107     81108     81109     81110     81109     81111
     81110     81111     81112     81113     81112     81114     81113     81114
     81115     81116     81115     81117     81116     81117     81118     81119
     81118     81120     81119     81120     81121     81122     81121     81123
     81122     81123     81124     81125     81124     81126     81125     81126
     81127     81128     81127     81129     81128     81129     81130     81131
     81130     81132     81131     81132     81133     81134     81133     81135
     81134     81135     81136     81137     81136     81138     81137     81138
     81139     81140     81139     81141     81140     81141     81142     81143
     81142     81144     81143     81144     81145     81146     81145     81147
     81146     81147     81148     81149     81148     81150     81149     81150
     81151     81152     81151     81153     81152     81153     81154     81155
     81154     81156     81155     81156     81157     81158     81157     81159
     81158     81159     81160     81161     81160     81162     81161     81162
     81163     81164     81163     81165     81164     81165     81166     81167
     81166     81168     81167     81168     81169     81170     81169     81171
     81170     81171     81172     81173     81172     81174     81173     81174
     81175     81176     81175     81177     81176     81177     81178     81179
     81178     81180     81179     81180     81181     81182     81181     81183
     81182     81183     81184     81185     81184     81186     81185     81186
     81187     81188     81187     81189     81188     81189     81190     81191
     81190     81192     81191     81192     81193     81194     81193     81195
     81194     81195     81196     81197     81196     81198     81197     81198
     81199     81200     81199     81201     81200     81201     81202     81203
     81202     81204     81203     81204     81205     81206     81205     81207
     81206     81207     81208     81209     81208     81210     81209     81210
     81211     81212     81211     81213     81212     81213     81214     81215
     81214     81216     81215     81216     81217     81218     81217     81219
     81218     81219     81220     81221     81220     81222     81221     81222
     81223     81224     81223     81225     81224     81225     81226     81227
     81226     81228     81227     81228     81229     81230     81229     81231
     81230     81231     81232     81233     81232     81234     81233     81234
     81235     81236     81235     81237     81236     81237     81238     81239
     81238     81240     81239     81240     81241     81242     81241     81243
     81242     81243     81244     81245     81244     81246     81245     81246
     81247     81248     81247     81249     81248     81249     81250     81251
     81250     81252     81251     81252     81253     81254     81253     81255
     81254     81255     81256     81257     81256     81258     81257     81258
     81259     81260     81259     81261     81260     81261     81262     81263
     81262     81264     81263     81264     81265     81266     81265     81267
     81266     81267     81268     81269     81268     81270     81269     81270
     81271     81272     81271     81273     81272     81273     81274     81275
     81274     81276     81275     81276     81277     81278     81277     81279
     81278     81279     81280     81281     81280     81282     81281     81282
     81283     81284     81283     81285     81284     81285     81286     81287
     81286     81288     81287     81288     81289     81290     81289     81291
     81290     81291     81292     81293     81292     81294     81293     81294
     81295     81296     81295     81297     81296     81297     81298     81299
     81298     81300     81299     81300     81301     81302     81301     81303
     81302     81303     81304     81305     81304     81306     81305     81306
     81307     81308     81307     81309     81308     81309     81310     81311
     81310     81312     81311     81312     81313     81314     81313     81315
     81314     81315     81316     81317     81316     81318     81317     81318
     81319     81320     81319     81321     81320     81321     81322     81323
     81322     81324     81323     81324     81325     81326     81325     81327
     81326     81327     81328     81329     81328     81330     81329     81330
     81331     81332     81331     81333     81332     81333     81334     81335
     81334     81336     81335     81336     81337     81338     81337     81339
     81338     81339     81340     81341     81340     81342     81341     81342
     81343     81344     81343     81345     81344     81345     81346     81347
     81346     81348     81347     81348     81349     81350     81349     81351
     81350     81351     81352     81353     81352     81354     81353     81354
     81355     81356     81355     81357     81356     81357     81358     81359
     81358     81360     81359     81360     81361     81362     81361     81363
     81362     81363     81364     81365     81364     81366     81365     81366
     81367     81368     81367     81369     81368     81369     81370     81371
     81370     81372     81371     81372     81373     81374     81373     81375
     81374     81375     81376     81377     81376     81378     81377     81378
     81379     81380     81379     81381     81380     81381     81382     81383
     81382     81384     81383     81384     81385     81386     81385     81387
     81386     81387     81388     81389     81388     81390     81389     81390
     81391     81392     81391     81393     81392     81393     81394     81395
     81394     81396     81395     81396     81397     81398     81397     81399
     81398     81399     81400     81401     81400     81402     81401     81402
     81403     81404     81403     81405     81404     81405     81406     81407
     81406     81408     81407     81408     81409     81410     81409     81411
     81410     81411     81412     81413     81412     81414     81413     81414
     81415     81416     81415     81417     81416     81417     81418     81419
     81418     81420     81419     81420     81421     81422     81421     81423
     81422     81423     81424     81425     81424     81426     81425     81426
     81427     81428     81427     81429     81428     81429     81430     81431
     81430     81432     81431     81432     81433     81434     81433     81435
     81434     81435     81436     81437     81436     81438     81437     81438
     81439     81440     81439     81441     81440     81441     81442     81443
     81442     81444     81443     81444     81445     81446     81445     81447
     81446     81447     81448     81449     81448     81450     81449     81450
     81451     81452     81451     81453     81452     81453     81454     81455
     81454     81456     81455     81456     81457     81458     81457     81459
     81458     81459     81460     81461     81460     81462     81461     81462
     81463     81464     81463     81465     81464     81465     81466     81467
     81466     81468     81467     81468     81469     81470     81469     81471
     81470     81471     81472     81473     81472     81474     81473     81474
     81475     81476     81475     81477     81476     81477     81478     81479
     81478     81480     81479     81480     81481     81482     81481     81483
     81482     81483     81484     81485     81484     81486     81485     81486
     81487     81488     81487     81489     81488     81489     81490     81491
     81490     81492     81491     81492     81493     81494     81493     81495
     81494     81495     81496     81497     81496     81498     81497     81498
     81499     81500     81499     81501     81500     81501     81502     81503
     81502     81504     81503     81504     81505     81506     81505     81507
     81506     81507     81508     81509     81508     81510     81509     81510
     81511     81512     81511     81513     81512     81513     81514     81515
     81514     81516     81515     81516     81517     81518     81517     81519
     81518     81519     81520     81521     81520     81522     81521     81522
     81523     81524     81523     81525     81524     81525     81526     81527
     81526     81528     81527     81528     81529     81530     81529     81531
     81530     81531     81532     81533     81532     81534     81533     81534
     81535     81536     81535     81537     81536     81537     81538     81539
     81538     81540     81539     81540     81541     81542     81541     81543
     81542     81543     81544     81545     81544     81546     81545     81546
     81547     81548     81547     81549     81548     81549     81550     81551
     81550     81552     81551     81552     81553     81554     81553     81555
     81554     81555     81556     81557     81556     81558     81557     81558
     81559     81560     81559     81561     81560     81561     81562     81563
     81562     81564     81563     81564     81565     81566     81565     81567
     81566     81567     81568     81569     81568     81570     81569     81570
     81571     81572     81571     81573     81572     81573     81574     81575
     81574     81576     81575     81576     81577     81578     81577     81579
     81578     81579     81580     81581     81580     81582     81581     81582
     81583     81584     81583     81585     81584     81585     81586     81587
     81586     81588     81587     81588     81589     81590     81589     81591
     81590     81591     81592     81593     81592     81594     81593     81594
     81595     81596     81595     81597     81596     81597     81598     81599
     81598     81600     81599     81600     81601     81602     81601     81603
     81602     81603     81604     81605     81604     81606     81605     81606
     81607     81608     81607     81609     81608     81609     81610     81611
     81610     81612     81611     81612     81613     81614     81613     81615
     81614     81615     81616     81617     81616     81618     81617     81618
     81619     81620     81619     81621     81620     81621     81622     81623
     81622     81624     81623     81624     81625     81626     81625     81627
     81626     81627     81628     81629     81628     81630     81629     81630
     81631     81632     81631     81633     81632     81633     81634     81635
     81634     81636     81635     81636     81637     81638     81637     81639
     81638     81639     81640     81641     81640     81642     81641     81642
     81643     81644     81643     81645     81644     81645     81646     81647
     81646     81648     81647     81648     81649     81650     81649     81651
     81650     81651     81652     81653     81652     81654     81653     81654
     81655     81656     81655     81657     81656     81657     81658     81659
     81658     81660     81659     81660     81661     81662     81661     81663
     81662     81663     81664     81665     81664     81666     81665     81666
     81667     81668     81667     81669     81668     81669     81670     81671
     81670     81672     81671     81672     81673     81674     81673     81675
     81674     81675     81676     81677     81676     81678     81677     81678
     81679     81680     81679     81681     81680     81681     81682     81683
     81682     81684     81683     81684     81685     81686     81685     81687
     81686     81687     81688     81689     81688     81690     81689     81690
     81691     81692     81691     81693     81692     81693     81694     81695
     81694     81696     81695     81696     81697     81698     81697     81699
     81698     81699     81700     81701     81700     81702     81701     81702
     81703     81704     81703     81705     81704     81705     81706     81707
     81706     81708     81707     81708     81709     81710     81709     81711
     81710     81711     81712     81713     81712     81714     81713     81714
     81715     81716     81715     81717     81716     81717     81718     81719
     81718     81720     81719     81720     81721     81722     81721     81723
     81722     81723     81724     81725     81724     81726     81725     81726
     81727     81728     81727     81729     81728     81729     81730     81731
     81730     81732     81731     81732     81733     81734     81733     81735
     81734     81735     81736     81737     81736     81738     81737     81738
     81739     81740     81739     81741     81740     81741     81742     81743
     81742     81744     81743     81744     81745     81746     81745     81747
     81746     81747     81748     81749     81748     81750     81749     81750
     81751     81752     81751     81753     81752     81753     81754     81755
     81754     81756     81755     81756     81757     81758     81757     81759
     81758     81759     81760     81761     81760     81762     81761     81762
     81763     81764     81763     81765     81764     81765     81766     81767
     81766     81768     81767     81768     81769     81770     81769     81771
     81770     81771     81772     81773     81772     81774     81773     81774
     81775     81776     81775     81777     81776     81777     81778     81779
     81778     81780     81779     81780     81781     81782     81781     81783
     81782     81783     81784     81785     81784     81786     81785     81786
     81787     81788     81787     81789     81788     81789     81790     81791
     81790     81792     81791     81792     81793     81794     81793     81795
     81794     81795     81796     81797     81796     81798     81797     81798
     81799     81800     81799     81801     81800     81801     81802     81803
     81802     81804     81803     81804     81805     81806     81805     81807
     81806     81807     81808     81809     81808     81810     81809     81810
     81811     81812     81811     81813     81812     81813     81814     81815
     81814     81816     81815     81816     81817     81818     81817     81819
     81818     81819     81820     81821     81820     81822     81821     81822
     81823     81824     81823     81825     81824     81825     81826     81827
     81826     81828     81827     81828     81829     81830     81829     81831
     81830     81831     81832     81833     81832     81834     81833     81834
     81835     81836     81835     81837     81836     81837     81838     81839
     81838     81840     81839     81840     81841     81842     81841     81843
     81842     81843     81844     81845     81844     81846     81845     81846
     81847     81848     81847     81849     81848     81849     81850     81851
     81850     81852     81851     81852     81853     81854     81853     81855
     81854     81855     81856     81857     81856     81858     81857     81858
     81859     81860     81859     81861     81860     81861     81862     81863
     81862     81864     81863     81864     81865     81866     81865     81867
     81866     81867     81868     81869     81868     81870     81869     81870
     81871     81872     81871     81873     81872     81873     81874     81875
     81874     81876     81875     81876     81877     81878     81877     81879
     81878     81879     81880     81881     81880     81882     81881     81882
     81883     81884     81883     81885     81884     81885     81886     81887
     81886     81888     81887     81888     81889     81890     81889     81891
     81890     81891     81892     81893     81892     81894     81893     81894
     81895     81896     81895     81897     81896     81897     81898     81899
     81898     81900     81899     81900     81901     81902     81901     81903
     81902     81903     81904     81905     81904     81906     81905     81906
     81907     81908     81907     81909     81908     81909     81910     81911
     81910     81912     81911     81912     81913     81914     81913     81915
     81914     81915     81916     81917     81916     81918     81917     81918
     81919     81920     81919     81921     81920     81921     81922     81923
     81922     81924     81923     81924     81925     81926     81925     81927
     81926     81927     81928     81929     81928     81930     81929     81930
     81931     81932     81931     81933     81932     81933     81934     81935
     81934     81936     81935     81936     81937     81938     81937     81939
     81938     81939     81940     81941     81940     81942     81941     81942
     81943     81944     81943     81945     81944     81945     81946     81947
     81946     81948     81947     81948     81949     81950     81949     81951
     81950     81951     81952     81953     81952     81954     81953     81954
     81955     81956     81955     81957     81956     81957     81958     81959
     81958     81960     81959     81960     81961     81962     81961     81963
     81962     81963     81964     81965     81964     81966     81965     81966
     81967     81968     81967     81969     81968     81969     81970     81971
     81970     81972     81971     81972     81973     81974     81973     81975
     81974     81975     81976     81977     81976     81978     81977     81978
     81979     81980     81979     81981     81980     81981     81982     81983
     81982     81984     81983     81984     81985     81986     81985     81987
     81986     81987     81988     81989     81988     81990     81989     81990
     81991     81992     81991     81993     81992     81993     81994     81995
     81994     81996     81995     81996     81997     81998     81997     81999
     81998     81999     82000     82001     82000     82002     82001     82002
     82003     82004     82003     82005     82004     82005     82006     82007
     82006     82008     82007     82008     82009     82010     82009     82011
     82010     82011     82012     82013     82012     82014     82013     82014
     82015     82016     82015     82017     82016     82017     82018     82019
     82018     82020     82019     82020     82021     82022     82021     82023
     82022     82023     82024     82025     82024     82026     82025     82026
     82027     82028     82027     82029     82028     82029     82030     82031
     82030     82032     82031     82032     82033     82034     82033     82035
     82034     82035     82036     82037     82036     82038     82037     82038
     82039     82040     82039     82041     82040     82041     82042     82043
     82042     82044     82043     82044     82045     82046     82045     82047
     82046     82047     82048     82049     82048     82050     82049     82050
     82051     82052     82051     82053     82052     82053     82054     82055
     82054     82056     82055     82056     82057     82058     82057     82059
     82058     82059     82060     82061     82060     82062     82061     82062
     82063     82064     82063     82065     82064     82065     82066     82067
     82066     82068     82067     82068     82069     82070     82069     82071
     82070     82071     82072     82073     82072     82074     82073     82074
     82075     82076     82075     82077     82076     82077     82078     82079
     82078     82080     82079     82080     82081     82082     82081     82083
     82082     82083     82084     82085     82084     82086     82085     82086
     82087     82088     82087     82089     82088     82089     82090     82091
     82090     82092     82091     82092     82093     82094     82093     82095
     82094     82095     82096     82097     82096     82098     82097     82098
     82099     82100     82099     82101     82100     82101     82102     82103
     82102     82104     82103     82104     82105     82106     82105     82107
     82106     82107     82108     82109     82108     82110     82109     82110
     82111     82112     82111     82113     82112     82113     82114     82115
     82114     82116     82115     82116     82117     82118     82117     82119
     82118     82119     82120     82121     82120     82122     82121     82122
     82123     82124     82123     82125     82124     82125     82126     82127
     82126     82128     82127     82128     82129     82130     82129     82131
     82130     82131     82132     82133     82132     82134     82133     82134
     82135     82136     82135     82137     82136     82137     82138     82139
     82138     82140     82139     82140     82141     82142     82141     82143
     82142     82143     82144     82145     82144     82146     82145     82146
     82147     82148     82147     82149     82148     82149     82150     82151
     82150     82152     82151     82152     82153     82154     82153     82155
     82154     82155     82156     82157     82156     82158     82157     82158
     82159     82160     82159     82161     82160     82161     82162     82163
     82162     82164     82163     82164     82165     82166     82165     82167
     82166     82167     82168     82169     82168     82170     82169     82170
     82171     82172     82171     82173     82172     82173     82174     82175
     82174     82176     82175     82176     82177     82178     82177     82179
     82178     82179     82180     82181     82180     82182     82181     82182
     82183     82184     82183     82185     82184     82185     82186     82187
     82186     82188     82187     82188     82189     82190     82189     82191
     82190     82191     82192     82193     82192     82194     82193     82194
     82195     82196     82195     82197     82196     82197     82198     82199
     82198     82200     82199     82200     82201     82202     82201     82203
     82202     82203     82204     82205     82204     82206     82205     82206
     82207     82208     82207     82209     82208     82209     82210     82211
     82210     82212     82211     82212     82213     82214     82213     82215
     82214     82215     82216     82217     82216     82218     82217     82218
     82219     82220     82219     82221     82220     82221     82222     82223
     82222     82224     82223     82224     82225     82226     82225     82227
     82226     82227     82228     82229     82228     82230     82229     82230
     82231     82232     82231     82233     82232     82233     82234     82235
     82234     82236     82235     82236     82237     82238     82237     82239
     82238     82239     82240     82241     82240     82242     82241     82242
     82243     82244     82243     82245     82244     82245     82246     82247
     82246     82248     82247     82248     82249     82250     82249     82251
     82250     82251     82252     82253     82252     82254     82253     82254
     82255     82256     82255     82257     82256     82257     82258     82259
     82258     82260     82259     82260     82261     82262     82261     82263
     82262     82263     82264     82265     82264     82266     82265     82266
     82267     82268     82267     82269     82268     82269     82270     82271
     82270     82272     82271     82272     82273     82274     82273     82275
     82274     82275     82276     82277     82276     82278     82277     82278
     82279     82280     82279     82281     82280     82281     82282     82283
     82282     82284     82283     82284     82285     82286     82285     82287
     82286     82287     82288     82289     82288     82290     82289     82290
     82291     82292     82291     82293     82292     82293     82294     82295
     82294     82296     82295     82296     82297     82298     82297     82299
     82298     82299     82300     82301     82300     82302     82301     82302
     82303     82304     82303     82305     82304     82305     82306     82307
     82306     82308     82307     82308     82309     82310     82309     82311
     82310     82311     82312     82313     82312     82314     82313     82314
     82315     82316     82315     82317     82316     82317     82318     82319
     82318     82320     82319     82320     82321     82322     82321     82323
     82322     82323     82324     82325     82324     82326     82325     82326
     82327     82328     82327     82329     82328     82329     82330     82331
     82330     82332     82331     82332     82333     82334     82333     82335
     82334     82335     82336     82337     82336     82338     82337     82338
     82339     82340     82339     82341     82340     82341     82342     82343
     82342     82344     82343     82344     82345     82346     82345     82347
     82346     82347     82348     82349     82348     82350     82349     82350

     63008 !NTHETA: angles
         2         1         3         2         1         4         2         1         5
         3         1         4         3         1         5         4         1         5
         1         5         6         1         5         7         1         5        10
         6         5         7         6         5        10         7         5        10
         5         7         8         5         7         9         8         7         9
         5        10        11         5        10        12         5        10        16
        11        10        12        11        10        16        12        10        16
        14        13        15        14        13        16        14        13        17
        15        13        16        15        13        17        16        13        17
        10        16        13        13        17        18        17        18        19
        17        18        20        17        18        21        19        18        20
        19        18        21        20        18        21        18        21        22
        18        21        23        18        21        29        22        21        23
        22        21        29        23        21        29        21        23        24
        23        24        25        23        24        26        25        24        26
        24        26        27        24        26        28        24        26        38
        27        26        28        27        26        38        28        26        38
        21        29        30        21        29        31        21        29        32
        30        29        31        30        29        32        31        29        32
        29        32        33        32        33        34        32        33        35
        34        33        35        33        35        36        33        35        37
        33        35        85        36        35        37        36        35        85
        37        35        85        26        38        39        26        38        40
        26        38        41        39        38        40        39        38        41
        40        38        41        38        41        42        38        41        43
        38        41        44        42        41        43        42        41        44
        43        41        44        41        44        45        41        44        46
        45        44        46        44        46        47        44        46        48
        47        46        48        46        48        49        46        48        50
        46        48        51        49        48        50        49        48        51
        50        48        51        48        51        52        48        51        53
        52        51        53        51        53        54        51        53        55
        54        53        55        53        55        56        53        55        57
        53        55        58        56        55        57        56        55        58
        57        55        58        55        58        59        55        58        60
        59        58        60        58        60        61        58        60        62
        61        60        62        60        62        63        60        62        64
        60        62        65        63        62        64        63        62        65
        64        62        65        62        65        66        62        65        67
        66        65        67        65        67        68        65        67        69
        68        67        69        67        69        70        67        69        71
        67        69        72        70        69        71        70        69        72
        71        69        72        69        72        73        69        72        74
        69        72        75        73        72        74        73        72        75
        74        72        75        72        75        76        72        75        77
        72        75        78        76        75        77        76        75        78
        77        75        78        75        78        79        75        78        80
        75        78        81        79        78        80        79        78        81
        80        78        81        78        81        82        78        81        83
        78        81        84        82        81        83        82        81        84
        83        81        84        35        85        86        35        85        87
        35        85        88        86        85        87        86        85        88
        87        85        88        85        88        89        85        88        90
        85        88        91        89        88        90        89        88        91
        90        88        91        88        91        92        88        91        93
        88        91        94        92        91        93        92        91        94
        93        91        94        91        94        95        91        94        96
        91        94        97        95        94        96        95        94        97
        96        94        97        94        97        98        94        97        99
        94        97       100        98        97        99        98        97       100
        99        97       100        97       100       101        97       100       102
        97       100       103       101       100       102       101       100       103
       102       100       103       100       103       104       100       103       105
       100       103       106       104       103       105       104       103       106
       105       103       106       103       106       107       103       106       108
       103       106       109       107       106       108       107       106       109
       108       106       109       106       109       110       106       109       111
       106       109       112       110       109       111       110       109       112
       111       109       112       109       112       113       109       112       114
       109       112       115       113       112       114       113       112       115
       114       112       115       112       115       116       112       115       117
       112       115       118       116       115       117       116       115       118
       117       115       118       115       118       119       115       118       120
       115       118       121       119       118       120       119       118       121
       120       118       121       118       121       122       118       121       123
       118       121       124       122       121       123       122       121       124
       123       121       124       121       124       125       121       124       126
       121       124       127       125       124       126       125       124       127
       126       124       127       124       127       128       124       127       129
       124       127       130       128       127       129       128       127       130
       129       127       130       127       130       131       127       130       132
       127       130       133       131       130       132       131       130       133
       132       130       133      2130      2129      2133      2130      2129      2137
      2130      2129      2141      2133      2129      2137      2133      2129      2141
      2137      2129      2141      2129      2130      2131      2129      2130      2132
      2129      2130      2145      2131      2130      2132      2131      2130      2145
      2132      2130      2145      2129      2133      2134      2129      2133      2135
      2129      2133      2136      2134      2133      2135      2134      2133      2136
      2135      2133      2136      2129      2137      2138      2129      2137      2139
      2129      2137      2140      2138      2137      2139      2138      2137      2140
      2139      2137      2140      2129      2141      2142      2129      2141      2143
      2129      2141      2144      2142      2141      2143      2142      2141      2144
      2143      2141      2144      2130      2145      2146      2130      2145      2147
      2130      2145      2151      2146      2145      2147      2146      2145      2151
      2147      2145      2151      2149      2148      2150      2149      2148      2151
      2149      2148      2152      2150      2148      2151      2150      2148      2152
      2151      2148      2152      2145      2151      2148      2148      2152      2153
      2152      2153      2154      2152      2153      2155      2152      2153      2156
      2154      2153      2155      2154      2153      2156      2155      2153      2156
      2153      2156      2157      2153      2156      2158      2153      2156      2164
      2157      2156      2158      2157      2156      2164      2158      2156      2164
      2156      2158      2159      2158      2159      2160      2158      2159      2161
      2160      2159      2161      2159      2161      2162      2159      2161      2163
      2159      2161      2173      2162      2161      2163      2162      2161      2173
      2163      2161      2173      2156      2164      2165      2156      2164      2166
      2156      2164      2167      2165      2164      2166      2165      2164      2167
      2166      2164      2167      2164      2167      2168      2167      2168      2169
      2167      2168      2170      2169      2168      2170      2168      2170      2171
      2168      2170      2172      2168      2170      2220      2171      2170      2172
      2171      2170      2220      2172      2170      2220      2161      2173      2174
      2161      2173      2175      2161      2173      2176      2174      2173      2175
      2174      2173      2176      2175      2173      2176      2173      2176      2177
      2173      2176      2178      2173      2176      2179      2177      2176      2178
      2177      2176      2179      2178      2176      2179      2176      2179      2180
      2176      2179      2181      2180      2179      2181      2179      2181      2182
      2179      2181      2183      2182      2181      2183      2181      2183      2184
      2181      2183      2185      2181      2183      2186      2184      2183      2185
      2184      2183      2186      2185      2183      2186      2183      2186      2187
      2183      2186      2188      2187      2186      2188      2186      2188      2189
      2186      2188      2190      2189      2188      2190      2188      2190      2191
      2188      2190      2192      2188      2190      2193      2191      2190      2192
      2191      2190      2193      2192      2190      2193      2190      2193      2194
      2190      2193      2195      2194      2193      2195      2193      2195      2196
      2193      2195      2197      2196      2195      2197      2195      2197      2198
      2195      2197      2199      2195      2197      2200      2198      2197      2199
      2198      2197      2200      2199      2197      2200      2197      2200      2201
      2197      2200      2202      2201      2200      2202      2200      2202      2203
      2200      2202      2204      2203      2202      2204      2202      2204      2205
      2202      2204      2206      2202      2204      2207      2205      2204      2206
      2205      2204      2207      2206      2204      2207      2204      2207      2208
      2204      2207      2209      2204      2207      2210      2208      2207      2209
      2208      2207      2210      2209      2207      2210      2207      2210      2211
      2207      2210      2212      2207      2210      2213      2211      2210      2212
      2211      2210      2213      2212      2210      2213      2210      2213      2214
      2210      2213      2215      2210      2213      2216      2214      2213      2215
      2214      2213      2216      2215      2213      2216      2213      2216      2217
      2213      2216      2218      2213      2216      2219      2217      2216      2218
      2217      2216      2219      2218      2216      2219      2170      2220      2221
      2170      2220      2222      2170      2220      2223      2221      2220      2222
      2221      2220      2223      2222      2220      2223      2220      2223      2224
      2220      2223      2225      2220      2223      2226      2224      2223      2225
      2224      2223      2226      2225      2223      2226      2223      2226      2227
      2223      2226      2228      2223      2226      2229      2227      2226      2228
      2227      2226      2229      2228      2226      2229      2226      2229      2230
      2226      2229      2231      2226      2229      2232      2230      2229      2231
      2230      2229      2232      2231      2229      2232      2229      2232      2233
      2229      2232      2234      2229      2232      2235      2233      2232      2234
      2233      2232      2235      2234      2232      2235      2232      2235      2236
      2232      2235      2237      2232      2235      2238      2236      2235      2237
      2236      2235      2238      2237      2235      2238      2235      2238      2239
      2235      2238      2240      2235      2238      2241      2239      2238      2240
      2239      2238      2241      2240      2238      2241      2238      2241      2242
      2238      2241      2243      2238      2241      2244      2242      2241      2243
      2242      2241      2244      2243      2241      2244      2241      2244      2245
      2241      2244      2246      2241      2244      2247      2245      2244      2246
      2245      2244      2247      2246      2244      2247      2244      2247      2248
      2244      2247      2249      2244      2247      2250      2248      2247      2249
      2248      2247      2250      2249      2247      2250      2247      2250      2251
      2247      2250      2252      2247      2250      2253      2251      2250      2252
      2251      2250      2253      2252      2250      2253      2250      2253      2254
      2250      2253      2255      2250      2253      2256      2254      2253      2255
      2254      2253      2256      2255      2253      2256      2253      2256      2257
      2253      2256      2258      2253      2256      2259      2257      2256      2258
      2257      2256      2259      2258      2256      2259      2256      2259      2260
      2256      2259      2261      2256      2259      2262      2260      2259      2261
      2260      2259      2262      2261      2259      2262      2259      2262      2263
      2259      2262      2264      2259      2262      2265      2263      2262      2264
      2263      2262      2265      2264      2262      2265      2262      2265      2266
      2262      2265      2267      2262      2265      2268      2266      2265      2267
      2266      2265      2268      2267      2265      2268      4370      4369      4373
      4370      4369      4377      4370      4369      4381      4373      4369      4377
      4373      4369      4381      4377      4369      4381      4369      4370      4371
      4369      4370      4372      4369      4370      4385      4371      4370      4372
      4371      4370      4385      4372      4370      4385      4369      4373      4374
      4369      4373      4375      4369      4373      4376      4374      4373      4375
      4374      4373      4376      4375      4373      4376      4369      4377      4378
      4369      4377      4379      4369      4377      4380      4378      4377      4379
      4378      4377      4380      4379      4377      4380      4369      4381      4382
      4369      4381      4383      4369      4381      4384      4382      4381      4383
      4382      4381      4384      4383      4381      4384      4370      4385      4386
      4370      4385      4387      4370      4385      4391      4386      4385      4387
      4386      4385      4391      4387      4385      4391      4389      4388      4390
      4389      4388      4391      4389      4388      4392      4390      4388      4391
      4390      4388      4392      4391      4388      4392      4385      4391      4388
      4388      4392      4393      4392      4393      4394      4392      4393      4395
      4392      4393      4396      4394      4393      4395      4394      4393      4396
      4395      4393      4396      4393      4396      4397      4393      4396      4398
      4393      4396      4404      4397      4396      4398      4397      4396      4404
      4398      4396      4404      4396      4398      4399      4398      4399      4400
      4398      4399      4401      4400      4399      4401      4399      4401      4402
      4399      4401      4403      4399      4401      4413      4402      4401      4403
      4402      4401      4413      4403      4401      4413      4396      4404      4405
      4396      4404      4406      4396      4404      4407      4405      4404      4406
      4405      4404      4407      4406      4404      4407      4404      4407      4408
      4407      4408      4409      4407      4408      4410      4409      4408      4410
      4408      4410      4411      4408      4410      4412      4408      4410      4460
      4411      4410      4412      4411      4410      4460      4412      4410      4460
      4401      4413      4414      4401      4413      4415      4401      4413      4416
      4414      4413      4415      4414      4413      4416      4415      4413      4416
      4413      4416      4417      4413      4416      4418      4413      4416      4419
      4417      4416      4418      4417      4416      4419      4418      4416      4419
      4416      4419      4420      4416      4419      4421      4416      4419      4422
      4420      4419      4421      4420      4419      4422      4421      4419      4422
      4419      4422      4423      4419      4422      4424      4419      4422      4425
      4423      4422      4424      4423      4422      4425      4424      4422      4425
      4422      4425      4426      4422      4425      4427      4422      4425      4428
      4426      4425      4427      4426      4425      4428      4427      4425      4428
      4425      4428      4429      4425      4428      4430      4425      4428      4431
      4429      4428      4430      4429      4428      4431      4430      4428      4431
      4428      4431      4432      4428      4431      4433      4432      4431      4433
      4431      4433      4434      4431      4433      4435      4434      4433      4435
      4433      4435      4436      4433      4435      4437      4433      4435      4438
      4436      4435      4437      4436      4435      4438      4437      4435      4438
      4435      4438      4439      4435      4438      4440      4435      4438      4441
      4439      4438      4440      4439      4438      4441      4440      4438      4441
      4438      4441      4442      4438      4441      4443      4438      4441      4444
      4442      4441      4443      4442      4441      4444      4443      4441      4444
      4441      4444      4445      4441      4444      4446      4441      4444      4447
      4445      4444      4446      4445      4444      4447      4446      4444      4447
      4444      4447      4448      4444      4447      4449      4444      4447      4450
      4448      4447      4449      4448      4447      4450      4449      4447      4450
      4447      4450      4451      4447      4450      4452      4447      4450      4453
      4451      4450      4452      4451      4450      4453      4452      4450      4453
      4450      4453      4454      4450      4453      4455      4450      4453      4456
      4454      4453      4455      4454      4453      4456      4455      4453      4456
      4453      4456      4457      4453      4456      4458      4453      4456      4459
      4457      4456      4458      4457      4456      4459      4458      4456      4459
      4410      4460      4461      4410      4460      4462      4410      4460      4463
      4461      4460      4462      4461      4460      4463      4462      4460      4463
      4460      4463      4464      4460      4463      4465      4460      4463      4466
      4464      4463      4465      4464      4463      4466      4465      4463      4466
      4463      4466      4467      4463      4466      4468      4463      4466      4469
      4467      4466      4468      4467      4466      4469      4468      4466      4469
      4466      4469      4470      4466      4469      4471      4466      4469      4472
      4470      4469      4471      4470      4469      4472      4471      4469      4472
      4469      4472      4473      4469      4472      4474      4469      4472      4475
      4473      4472      4474      4473      4472      4475      4474      4472      4475
      4472      4475      4476      4472      4475      4477      4472      4475      4478
      4476      4475      4477      4476      4475      4478      4477      4475      4478
      4475      4478      4479      4475      4478      4480      4475      4478      4481
      4479      4478      4480      4479      4478      4481      4480      4478      4481
      4478      4481      4482      4478      4481      4483      4478      4481      4484
      4482      4481      4483      4482      4481      4484      4483      4481      4484
      4481      4484      4485      4481      4484      4486      4481      4484      4487
      4485      4484      4486      4485      4484      4487      4486      4484      4487
      4484      4487      4488      4484      4487      4489      4484      4487      4490
      4488      4487      4489      4488      4487      4490      4489      4487      4490
      4487      4490      4491      4487      4490      4492      4487      4490      4493
      4491      4490      4492      4491      4490      4493      4492      4490      4493
      4490      4493      4494      4490      4493      4495      4490      4493      4496
      4494      4493      4495      4494      4493      4496      4495      4493      4496
      4493      4496      4497      4493      4496      4498      4493      4496      4499
      4497      4496      4498      4497      4496      4499      4498      4496      4499
      4496      4499      4500      4496      4499      4501      4496      4499      4502
      4500      4499      4501      4500      4499      4502      4501      4499      4502
      5442      5441      5443      5442      5441      5445      5442      5441      5487
      5443      5441      5445      5443      5441      5487      5445      5441      5487
      5441      5443      5444      5441      5445      5446      5441      5445      5447
      5441      5445      5448      5446      5445      5447      5446      5445      5448
      5447      5445      5448      5445      5448      5449      5445      5448      5479
      5449      5448      5479      5448      5449      5450      5448      5449      5451
      5450      5449      5451      5449      5451      5452      5449      5451      5453
      5449      5451      5454      5452      5451      5453      5452      5451      5454
      5453      5451      5454      5451      5454      5455      5451      5454      5456
      5451      5454      5477      5455      5454      5456      5455      5454      5477
      5456      5454      5477      5454      5456      5457      5454      5456      5458
      5454      5456      5466      5457      5456      5458      5457      5456      5466
      5458      5456      5466      5456      5458      5459      5456      5458      5460
      5456      5458      5461      5459      5458      5460      5459      5458      5461
      5460      5458      5461      5458      5461      5462      5458      5461      5463
      5458      5461      5464      5462      5461      5463      5462      5461      5464
      5463      5461      5464      5461      5464      5465      5461      5464      5466
      5461      5464      5490      5465      5464      5466      5465      5464      5490
      5466      5464      5490      5456      5466      5464      5456      5466      5467
      5456      5466      5471      5464      5466      5467      5464      5466      5471
      5467      5466      5471      5466      5467      5468      5466      5467      5469
      5466      5467      5470      5468      5467      5469      5468      5467      5470
      5469      5467      5470      5466      5471      5472      5466      5471      5473
      5466      5471      5474      5472      5471      5473      5472      5471      5474
      5473      5471      5474      5471      5474      5475      5471      5474      5476
      5471      5474      5477      5475      5474      5476      5475      5474      5477
      5476      5474      5477      5454      5477      5474      5454      5477      5478
      5454      5477      5479      5474      5477      5478      5474      5477      5479
      5478      5477      5479      5448      5479      5477      5448      5479      5480
      5448      5479      5484      5477      5479      5480      5477      5479      5484
      5480      5479      5484      5479      5480      5481      5479      5480      5482
      5479      5480      5483      5481      5480      5482      5481      5480      5483
      5482      5480      5483      5479      5484      5485      5479      5484      5486
      5479      5484      5487      5485      5484      5486      5485      5484      5487
      5486      5484      5487      5441      5487      5484      5441      5487      5488
      5441      5487      5489      5484      5487      5488      5484      5487      5489
      5488      5487      5489      5464      5490      5491      5464      5490      5492
      5464      5490      5496      5491      5490      5492      5491      5490      5496
      5492      5490      5496      5490      5492      5493      5490      5492      5494
      5490      5492      5495      5493      5492      5494      5493      5492      5495
      5494      5492      5495      5490      5496      5497      5490      5496      5498
      5490      5496      5499      5497      5496      5498      5497      5496      5499
      5498      5496      5499      5496      5499      5500      5496      5499      5501
      5496      5499      5502      5500      5499      5501      5500      5499      5502
      5501      5499      5502      5499      5502      5503      5499      5502      5504
      5499      5502      5505      5503      5502      5504      5503      5502      5505
      5504      5502      5505      5502      5505      5506      5502      5505      5507
      5502      5505      5511      5506      5505      5507      5506      5505      5511
      5507      5505      5511      5505      5507      5508      5505      5507      5509
      5505      5507      5510      5508      5507      5509      5508      5507      5510
      5509      5507      5510      5505      5511      5512      5505      5511      5513
      5505      5511      5514      5512      5511      5513      5512      5511      5514
      5513      5511      5514      9586      9585      9590      9586      9585      9594
      9586      9585      9598      9590      9585      9594      9590      9585      9598
      9594      9585      9598      9585      9586      9587      9585      9586      9588
      9585      9586      9589      9587      9586      9588      9587      9586      9589
      9588      9586      9589      9585      9590      9591      9585      9590      9592
      9585      9590      9593      9591      9590      9592      9591      9590      9593
      9592      9590      9593      9585      9594      9595      9585      9594      9596
      9585      9594      9597      9595      9594      9596      9595      9594      9597
      9596      9594      9597      9585      9598      9599      9585      9598      9600
      9585      9598      9601      9599      9598      9600      9599      9598      9601
      9600      9598      9601      9598      9601      9602      9598      9601      9603
      9598      9601      9608      9602      9601      9603      9602      9601      9608
      9603      9601      9608      9605      9604      9606      9605      9604      9607
      9605      9604      9608      9606      9604      9607      9606      9604      9608
      9607      9604      9608      9604      9607      9609      9601      9608      9604
      9607      9609      9610      9607      9609      9611      9607      9609      9614
      9610      9609      9611      9610      9609      9614      9611      9609      9614
      9613      9612      9614      9613      9612      9664      9614      9612      9664
      9609      9614      9612      9609      9614      9615      9609      9614      9616
      9612      9614      9615      9612      9614      9616      9615      9614      9616
      9614      9616      9617      9614      9616      9618      9614      9616      9620
      9617      9616      9618      9617      9616      9620      9618      9616      9620
      9616      9618      9619      9616      9620      9621      9616      9620      9622
      9621      9620      9622      9620      9622      9623      9620      9622      9624
      9623      9622      9624      9622      9624      9625      9622      9624      9626
      9622      9624      9627      9625      9624      9626      9625      9624      9627
      9626      9624      9627      9624      9627      9628      9624      9627      9629
      9624      9627      9630      9628      9627      9629      9628      9627      9630
      9629      9627      9630      9627      9630      9631      9627      9630      9632
      9627      9630      9633      9631      9630      9632      9631      9630      9633
      9632      9630      9633      9630      9633      9634      9630      9633      9635
      9630      9633      9636      9634      9633      9635      9634      9633      9636
      9635      9633      9636      9633      9636      9637      9633      9636      9638
      9633      9636      9639      9637      9636      9638      9637      9636      9639
      9638      9636      9639      9636      9639      9640      9636      9639      9641
      9636      9639      9642      9640      9639      9641      9640      9639      9642
      9641      9639      9642      9639      9642      9643      9639      9642      9644
      9639      9642      9645      9643      9642      9644      9643      9642      9645
      9644      9642      9645      9642      9645      9646      9642      9645      9647
      9642      9645      9648      9646      9645      9647      9646      9645      9648
      9647      9645      9648      9645      9648      9649      9645      9648      9650
      9645      9648      9651      9649      9648      9650      9649      9648      9651
      9650      9648      9651      9648      9651      9652      9648      9651      9653
      9648      9651      9654      9652      9651      9653      9652      9651      9654
      9653      9651      9654      9651      9654      9655      9651      9654      9656
      9651      9654      9657      9655      9654      9656      9655      9654      9657
      9656      9654      9657      9654      9657      9658      9654      9657      9659
      9654      9657      9660      9658      9657      9659      9658      9657      9660
      9659      9657      9660      9657      9660      9661      9657      9660      9662
      9657      9660      9663      9661      9660      9662      9661      9660      9663
      9662      9660      9663      9612      9664      9665      9612      9664      9666
      9665      9664      9666      9664      9666      9667      9664      9666      9668
      9664      9666      9669      9667      9666      9668      9667      9666      9669
      9668      9666      9669      9666      9669      9670      9666      9669      9671
      9666      9669      9672      9670      9669      9671      9670      9669      9672
      9671      9669      9672      9669      9672      9673      9669      9672      9674
      9669      9672      9675      9673      9672      9674      9673      9672      9675
      9674      9672      9675      9672      9675      9676      9672      9675      9677
      9672      9675      9678      9676      9675      9677      9676      9675      9678
      9677      9675      9678      9675      9678      9679      9675      9678      9680
      9675      9678      9681      9679      9678      9680      9679      9678      9681
      9680      9678      9681      9678      9681      9682      9678      9681      9683
      9678      9681      9684      9682      9681      9683      9682      9681      9684
      9683      9681      9684      9681      9684      9685      9681      9684      9686
      9681      9684      9687      9685      9684      9686      9685      9684      9687
      9686      9684      9687      9684      9687      9688      9684      9687      9689
      9688      9687      9689      9687      9689      9690      9687      9689      9691
      9690      9689      9691      9689      9691      9692      9689      9691      9693
      9689      9691      9694      9692      9691      9693      9692      9691      9694
      9693      9691      9694      9691      9694      9695      9691      9694      9696
      9691      9694      9697      9695      9694      9696      9695      9694      9697
      9696      9694      9697      9694      9697      9698      9694      9697      9699
      9694      9697      9700      9698      9697      9699      9698      9697      9700
      9699      9697      9700      9697      9700      9701      9697      9700      9702
      9697      9700      9703      9701      9700      9702      9701      9700      9703
      9702      9700      9703      9700      9703      9704      9700      9703      9705
      9700      9703      9706      9704      9703      9705      9704      9703      9706
      9705      9703      9706      9703      9706      9707      9703      9706      9708
      9703      9706      9709      9707      9706      9708      9707      9706      9709
      9708      9706      9709      9706      9709      9710      9706      9709      9711
      9706      9709      9712      9710      9709      9711      9710      9709      9712
      9711      9709      9712      9709      9712      9713      9709      9712      9714
      9709      9712      9715      9713      9712      9714      9713      9712      9715
      9714      9712      9715     14302     14301     14303     14302     14301     14304
     14302     14301     14305     14303     14301     14304     14303     14301     14305
     14304     14301     14305     14301     14305     14306     14301     14305     14307
     14301     14305     14308     14306     14305     14307     14306     14305     14308
     14307     14305     14308     14305     14308     14309     14305     14308     14310
     14305     14308     14314     14309     14308     14310     14309     14308     14314
     14310     14308     14314     14312     14311     14313     14312     14311     14314
     14312     14311     14315     14313     14311     14314     14313     14311     14315
     14314     14311     14315     14308     14314     14311     14311     14315     14316
     14315     14316     14317     14315     14316     14318     14315     14316     14319
     14317     14316     14318     14317     14316     14319     14318     14316     14319
     14316     14319     14320     14316     14319     14321     14316     14319     14327
     14320     14319     14321     14320     14319     14327     14321     14319     14327
     14319     14321     14322     14321     14322     14323     14321     14322     14324
     14323     14322     14324     14322     14324     14325     14322     14324     14326
     14322     14324     14336     14325     14324     14326     14325     14324     14336
     14326     14324     14336     14319     14327     14328     14319     14327     14329
     14319     14327     14330     14328     14327     14329     14328     14327     14330
     14329     14327     14330     14327     14330     14331     14330     14331     14332
     14330     14331     14333     14332     14331     14333     14331     14333     14334
     14331     14333     14335     14331     14333     14383     14334     14333     14335
     14334     14333     14383     14335     14333     14383     14324     14336     14337
     14324     14336     14338     14324     14336     14339     14337     14336     14338
     14337     14336     14339     14338     14336     14339     14336     14339     14340
     14336     14339     14341     14336     14339     14342     14340     14339     14341
     14340     14339     14342     14341     14339     14342     14339     14342     14343
     14339     14342     14344     14343     14342     14344     14342     14344     14345
     14342     14344     14346     14345     14344     14346     14344     14346     14347
     14344     14346     14348     14344     14346     14349     14347     14346     14348
     14347     14346     14349     14348     14346     14349     14346     14349     14350
     14346     14349     14351     14350     14349     14351     14349     14351     14352
     14349     14351     14353     14352     14351     14353     14351     14353     14354
     14351     14353     14355     14351     14353     14356     14354     14353     14355
     14354     14353     14356     14355     14353     14356     14353     14356     14357
     14353     14356     14358     14357     14356     14358     14356     14358     14359
     14356     14358     14360     14359     14358     14360     14358     14360     14361
     14358     14360     14362     14358     14360     14363     14361     14360     14362
     14361     14360     14363     14362     14360     14363     14360     14363     14364
     14360     14363     14365     14364     14363     14365     14363     14365     14366
     14363     14365     14367     14366     14365     14367     14365     14367     14368
     14365     14367     14369     14365     14367     14370     14368     14367     14369
     14368     14367     14370     14369     14367     14370     14367     14370     14371
     14367     14370     14372     14367     14370     14373     14371     14370     14372
     14371     14370     14373     14372     14370     14373     14370     14373     14374
     14370     14373     14375     14370     14373     14376     14374     14373     14375
     14374     14373     14376     14375     14373     14376     14373     14376     14377
     14373     14376     14378     14373     14376     14379     14377     14376     14378
     14377     14376     14379     14378     14376     14379     14376     14379     14380
     14376     14379     14381     14376     14379     14382     14380     14379     14381
     14380     14379     14382     14381     14379     14382     14333     14383     14384
     14333     14383     14385     14333     14383     14386     14384     14383     14385
     14384     14383     14386     14385     14383     14386     14383     14386     14387
     14383     14386     14388     14383     14386     14389     14387     14386     14388
     14387     14386     14389     14388     14386     14389     14386     14389     14390
     14386     14389     14391     14386     14389     14392     14390     14389     14391
     14390     14389     14392     14391     14389     14392     14389     14392     14393
     14389     14392     14394     14389     14392     14395     14393     14392     14394
     14393     14392     14395     14394     14392     14395     14392     14395     14396
     14392     14395     14397     14392     14395     14398     14396     14395     14397
     14396     14395     14398     14397     14395     14398     14395     14398     14399
     14395     14398     14400     14395     14398     14401     14399     14398     14400
     14399     14398     14401     14400     14398     14401     14398     14401     14402
     14398     14401     14403     14398     14401     14404     14402     14401     14403
     14402     14401     14404     14403     14401     14404     14401     14404     14405
     14401     14404     14406     14401     14404     14407     14405     14404     14406
     14405     14404     14407     14406     14404     14407     14404     14407     14408
     14404     14407     14409     14404     14407     14410     14408     14407     14409
     14408     14407     14410     14409     14407     14410     14407     14410     14411
     14407     14410     14412     14407     14410     14413     14411     14410     14412
     14411     14410     14413     14412     14410     14413     14410     14413     14414
     14410     14413     14415     14410     14413     14416     14414     14413     14415
     14414     14413     14416     14415     14413     14416     14413     14416     14417
     14413     14416     14418     14413     14416     14419     14417     14416     14418
     14417     14416     14419     14418     14416     14419     14416     14419     14420
     14416     14419     14421     14416     14419     14422     14420     14419     14421
     14420     14419     14422     14421     14419     14422     14419     14422     14423
     14419     14422     14424     14419     14422     14425     14423     14422     14424
     14423     14422     14425     14424     14422     14425     14422     14425     14426
     14422     14425     14427     14422     14425     14428     14426     14425     14427
     14426     14425     14428     14427     14425     14428     14425     14428     14429
     14425     14428     14430     14425     14428     14431     14429     14428     14430
     14429     14428     14431     14430     14428     14431      5516      5515      5517
      5516      5515      5519      5516      5515      5561      5517      5515      5519
      5517      5515      5561      5519      5515      5561      5515      5517      5518
      5515      5519      5520      5515      5519      5521      5515      5519      5522
      5520      5519      5521      5520      5519      5522      5521      5519      5522
      5519      5522      5523      5519      5522      5553      5523      5522      5553
      5522      5523      5524      5522      5523      5525      5524      5523      5525
      5523      5525      5526      5523      5525      5527      5523      5525      5528
      5526      5525      5527      5526      5525      5528      5527      5525      5528
      5525      5528      5529      5525      5528      5530      5525      5528      5551
      5529      5528      5530      5529      5528      5551      5530      5528      5551
      5528      5530      5531      5528      5530      5532      5528      5530      5540
      5531      5530      5532      5531      5530      5540      5532      5530      5540
      5530      5532      5533      5530      5532      5534      5530      5532      5535
      5533      5532      5534      5533      5532      5535      5534      5532      5535
      5532      5535      5536      5532      5535      5537      5532      5535      5538
      5536      5535      5537      5536      5535      5538      5537      5535      5538
      5535      5538      5539      5535      5538      5540      5535      5538      5564
      5539      5538      5540      5539      5538      5564      5540      5538      5564
      5530      5540      5538      5530      5540      5541      5530      5540      5545
      5538      5540      5541      5538      5540      5545      5541      5540      5545
      5540      5541      5542      5540      5541      5543      5540      5541      5544
      5542      5541      5543      5542      5541      5544      5543      5541      5544
      5540      5545      5546      5540      5545      5547      5540      5545      5548
      5546      5545      5547      5546      5545      5548      5547      5545      5548
      5545      5548      5549      5545      5548      5550      5545      5548      5551
      5549      5548      5550      5549      5548      5551      5550      5548      5551
      5528      5551      5548      5528      5551      5552      5528      5551      5553
      5548      5551      5552      5548      5551      5553      5552      5551      5553
      5522      5553      5551      5522      5553      5554      5522      5553      5558
      5551      5553      5554      5551      5553      5558      5554      5553      5558
      5553      5554      5555      5553      5554      5556      5553      5554      5557
      5555      5554      5556      5555      5554      5557      5556      5554      5557
      5553      5558      5559      5553      5558      5560      5553      5558      5561
      5559      5558      5560      5559      5558      5561      5560      5558      5561
      5515      5561      5558      5515      5561      5562      5515      5561      5563
      5558      5561      5562      5558      5561      5563      5562      5561      5563
      5538      5564      5565      5538      5564      5566      5538      5564      5570
      5565      5564      5566      5565      5564      5570      5566      5564      5570
      5564      5566      5567      5564      5566      5568      5564      5566      5569
      5567      5566      5568      5567      5566      5569      5568      5566      5569
      5564      5570      5571      5564      5570      5572      5564      5570      5573
      5571      5570      5572      5571      5570      5573      5572      5570      5573
      5570      5573      5574      5570      5573      5575      5570      5573      5576
      5574      5573      5575      5574      5573      5576      5575      5573      5576
      5573      5576      5577      5573      5576      5578      5573      5576      5579
      5577      5576      5578      5577      5576      5579      5578      5576      5579
      5576      5579      5580      5576      5579      5581      5576      5579      5585
      5580      5579      5581      5580      5579      5585      5581      5579      5585
      5579      5581      5582      5579      5581      5583      5579      5581      5584
      5582      5581      5583      5582      5581      5584      5583      5581      5584
      5579      5585      5586      5579      5585      5587      5579      5585      5588
      5586      5585      5587      5586      5585      5588      5587      5585      5588
      2270      2269      2273      2270      2269      2277      2270      2269      2281
      2273      2269      2277      2273      2269      2281      2277      2269      2281
      2269      2270      2271      2269      2270      2272      2269      2270      2285
      2271      2270      2272      2271      2270      2285      2272      2270      2285
      2269      2273      2274      2269      2273      2275      2269      2273      2276
      2274      2273      2275      2274      2273      2276      2275      2273      2276
      2269      2277      2278      2269      2277      2279      2269      2277      2280
      2278      2277      2279      2278      2277      2280      2279      2277      2280
      2269      2281      2282      2269      2281      2283      2269      2281      2284
      2282      2281      2283      2282      2281      2284      2283      2281      2284
      2270      2285      2286      2270      2285      2287      2270      2285      2291
      2286      2285      2287      2286      2285      2291      2287      2285      2291
      2289      2288      2290      2289      2288      2291      2289      2288      2292
      2290      2288      2291      2290      2288      2292      2291      2288      2292
      2285      2291      2288      2288      2292      2293      2292      2293      2294
      2292      2293      2295      2292      2293      2296      2294      2293      2295
      2294      2293      2296      2295      2293      2296      2293      2296      2297
      2293      2296      2298      2293      2296      2304      2297      2296      2298
      2297      2296      2304      2298      2296      2304      2296      2298      2299
      2298      2299      2300      2298      2299      2301      2300      2299      2301
      2299      2301      2302      2299      2301      2303      2299      2301      2313
      2302      2301      2303      2302      2301      2313      2303      2301      2313
      2296      2304      2305      2296      2304      2306      2296      2304      2307
      2305      2304      2306      2305      2304      2307      2306      2304      2307
      2304      2307      2308      2307      2308      2309      2307      2308      2310
      2309      2308      2310      2308      2310      2311      2308      2310      2312
      2308      2310      2360      2311      2310      2312      2311      2310      2360
      2312      2310      2360      2301      2313      2314      2301      2313      2315
      2301      2313      2316      2314      2313      2315      2314      2313      2316
      2315      2313      2316      2313      2316      2317      2313      2316      2318
      2313      2316      2319      2317      2316      2318      2317      2316      2319
      2318      2316      2319      2316      2319      2320      2316      2319      2321
      2320      2319      2321      2319      2321      2322      2319      2321      2323
      2322      2321      2323      2321      2323      2324      2321      2323      2325
      2321      2323      2326      2324      2323      2325      2324      2323      2326
      2325      2323      2326      2323      2326      2327      2323      2326      2328
      2327      2326      2328      2326      2328      2329      2326      2328      2330
      2329      2328      2330      2328      2330      2331      2328      2330      2332
      2328      2330      2333      2331      2330      2332      2331      2330      2333
      2332      2330      2333      2330      2333      2334      2330      2333      2335
      2334      2333      2335      2333      2335      2336      2333      2335      2337
      2336      2335      2337      2335      2337      2338      2335      2337      2339
      2335      2337      2340      2338      2337      2339      2338      2337      2340
      2339      2337      2340      2337      2340      2341      2337      2340      2342
      2341      2340      2342      2340      2342      2343      2340      2342      2344
      2343      2342      2344      2342      2344      2345      2342      2344      2346
      2342      2344      2347      2345      2344      2346      2345      2344      2347
      2346      2344      2347      2344      2347      2348      2344      2347      2349
      2344      2347      2350      2348      2347      2349      2348      2347      2350
      2349      2347      2350      2347      2350      2351      2347      2350      2352
      2347      2350      2353      2351      2350      2352      2351      2350      2353
      2352      2350      2353      2350      2353      2354      2350      2353      2355
      2350      2353      2356      2354      2353      2355      2354      2353      2356
      2355      2353      2356      2353      2356      2357      2353      2356      2358
      2353      2356      2359      2357      2356      2358      2357      2356      2359
      2358      2356      2359      2310      2360      2361      2310      2360      2362
      2310      2360      2363      2361      2360      2362      2361      2360      2363
      2362      2360      2363      2360      2363      2364      2360      2363      2365
      2360      2363      2366      2364      2363      2365      2364      2363      2366
      2365      2363      2366      2363      2366      2367      2363      2366      2368
      2363      2366      2369      2367      2366      2368      2367      2366      2369
      2368      2366      2369      2366      2369      2370      2366      2369      2371
      2366      2369      2372      2370      2369      2371      2370      2369      2372
      2371      2369      2372      2369      2372      2373      2369      2372      2374
      2369      2372      2375      2373      2372      2374      2373      2372      2375
      2374      2372      2375      2372      2375      2376      2372      2375      2377
      2372      2375      2378      2376      2375      2377      2376      2375      2378
      2377      2375      2378      2375      2378      2379      2375      2378      2380
      2375      2378      2381      2379      2378      2380      2379      2378      2381
      2380      2378      2381      2378      2381      2382      2378      2381      2383
      2378      2381      2384      2382      2381      2383      2382      2381      2384
      2383      2381      2384      2381      2384      2385      2381      2384      2386
      2381      2384      2387      2385      2384      2386      2385      2384      2387
      2386      2384      2387      2384      2387      2388      2384      2387      2389
      2384      2387      2390      2388      2387      2389      2388      2387      2390
      2389      2387      2390      2387      2390      2391      2387      2390      2392
      2387      2390      2393      2391      2390      2392      2391      2390      2393
      2392      2390      2393      2390      2393      2394      2390      2393      2395
      2390      2393      2396      2394      2393      2395      2394      2393      2396
      2395      2393      2396      2393      2396      2397      2393      2396      2398
      2393      2396      2399      2397      2396      2398      2397      2396      2399
      2398      2396      2399      2396      2399      2400      2396      2399      2401
      2396      2399      2402      2400      2399      2401      2400      2399      2402
      2401      2399      2402      2399      2402      2403      2399      2402      2404
      2399      2402      2405      2403      2402      2404      2403      2402      2405
      2404      2402      2405      2402      2405      2406      2402      2405      2407
      2402      2405      2408      2406      2405      2407      2406      2405      2408
      2407      2405      2408      5590      5589      5591      5590      5589      5593
      5590      5589      5635      5591      5589      5593      5591      5589      5635
      5593      5589      5635      5589      5591      5592      5589      5593      5594
      5589      5593      5595      5589      5593      5596      5594      5593      5595
      5594      5593      5596      5595      5593      5596      5593      5596      5597
      5593      5596      5627      5597      5596      5627      5596      5597      5598
      5596      5597      5599      5598      5597      5599      5597      5599      5600
      5597      5599      5601      5597      5599      5602      5600      5599      5601
      5600      5599      5602      5601      5599      5602      5599      5602      5603
      5599      5602      5604      5599      5602      5625      5603      5602      5604
      5603      5602      5625      5604      5602      5625      5602      5604      5605
      5602      5604      5606      5602      5604      5614      5605      5604      5606
      5605      5604      5614      5606      5604      5614      5604      5606      5607
      5604      5606      5608      5604      5606      5609      5607      5606      5608
      5607      5606      5609      5608      5606      5609      5606      5609      5610
      5606      5609      5611      5606      5609      5612      5610      5609      5611
      5610      5609      5612      5611      5609      5612      5609      5612      5613
      5609      5612      5614      5609      5612      5638      5613      5612      5614
      5613      5612      5638      5614      5612      5638      5604      5614      5612
      5604      5614      5615      5604      5614      5619      5612      5614      5615
      5612      5614      5619      5615      5614      5619      5614      5615      5616
      5614      5615      5617      5614      5615      5618      5616      5615      5617
      5616      5615      5618      5617      5615      5618      5614      5619      5620
      5614      5619      5621      5614      5619      5622      5620      5619      5621
      5620      5619      5622      5621      5619      5622      5619      5622      5623
      5619      5622      5624      5619      5622      5625      5623      5622      5624
      5623      5622      5625      5624      5622      5625      5602      5625      5622
      5602      5625      5626      5602      5625      5627      5622      5625      5626
      5622      5625      5627      5626      5625      5627      5596      5627      5625
      5596      5627      5628      5596      5627      5632      5625      5627      5628
      5625      5627      5632      5628      5627      5632      5627      5628      5629
      5627      5628      5630      5627      5628      5631      5629      5628      5630
      5629      5628      5631      5630      5628      5631      5627      5632      5633
      5627      5632      5634      5627      5632      5635      5633      5632      5634
      5633      5632      5635      5634      5632      5635      5589      5635      5632
      5589      5635      5636      5589      5635      5637      5632      5635      5636
      5632      5635      5637      5636      5635      5637      5612      5638      5639
      5612      5638      5640      5612      5638      5644      5639      5638      5640
      5639      5638      5644      5640      5638      5644      5638      5640      5641
      5638      5640      5642      5638      5640      5643      5641      5640      5642
      5641      5640      5643      5642      5640      5643      5638      5644      5645
      5638      5644      5646      5638      5644      5647      5645      5644      5646
      5645      5644      5647      5646      5644      5647      5644      5647      5648
      5644      5647      5649      5644      5647      5650      5648      5647      5649
      5648      5647      5650      5649      5647      5650      5647      5650      5651
      5647      5650      5652      5647      5650      5653      5651      5650      5652
      5651      5650      5653      5652      5650      5653      5650      5653      5654
      5650      5653      5655      5650      5653      5659      5654      5653      5655
      5654      5653      5659      5655      5653      5659      5653      5655      5656
      5653      5655      5657      5653      5655      5658      5656      5655      5657
      5656      5655      5658      5657      5655      5658      5653      5659      5660
      5653      5659      5661      5653      5659      5662      5660      5659      5661
      5660      5659      5662      5661      5659      5662      5664      5663      5665
      5664      5663      5667      5664      5663      5709      5665      5663      5667
      5665      5663      5709      5667      5663      5709      5663      5665      5666
      5663      5667      5668      5663      5667      5669      5663      5667      5670
      5668      5667      5669      5668      5667      5670      5669      5667      5670
      5667      5670      5671      5667      5670      5701      5671      5670      5701
      5670      5671      5672      5670      5671      5673      5672      5671      5673
      5671      5673      5674      5671      5673      5675      5671      5673      5676
      5674      5673      5675      5674      5673      5676      5675      5673      5676
      5673      5676      5677      5673      5676      5678      5673      5676      5699
      5677      5676      5678      5677      5676      5699      5678      5676      5699
      5676      5678      5679      5676      5678      5680      5676      5678      5688
      5679      5678      5680      5679      5678      5688      5680      5678      5688
      5678      5680      5681      5678      5680      5682      5678      5680      5683
      5681      5680      5682      5681      5680      5683      5682      5680      5683
      5680      5683      5684      5680      5683      5685      5680      5683      5686
      5684      5683      5685      5684      5683      5686      5685      5683      5686
      5683      5686      5687      5683      5686      5688      5683      5686      5712
      5687      5686      5688      5687      5686      5712      5688      5686      5712
      5678      5688      5686      5678      5688      5689      5678      5688      5693
      5686      5688      5689      5686      5688      5693      5689      5688      5693
      5688      5689      5690      5688      5689      5691      5688      5689      5692
      5690      5689      5691      5690      5689      5692      5691      5689      5692
      5688      5693      5694      5688      5693      5695      5688      5693      5696
      5694      5693      5695      5694      5693      5696      5695      5693      5696
      5693      5696      5697      5693      5696      5698      5693      5696      5699
      5697      5696      5698      5697      5696      5699      5698      5696      5699
      5676      5699      5696      5676      5699      5700      5676      5699      5701
      5696      5699      5700      5696      5699      5701      5700      5699      5701
      5670      5701      5699      5670      5701      5702      5670      5701      5706
      5699      5701      5702      5699      5701      5706      5702      5701      5706
      5701      5702      5703      5701      5702      5704      5701      5702      5705
      5703      5702      5704      5703      5702      5705      5704      5702      5705
      5701      5706      5707      5701      5706      5708      5701      5706      5709
      5707      5706      5708      5707      5706      5709      5708      5706      5709
      5663      5709      5706      5663      5709      5710      5663      5709      5711
      5706      5709      5710      5706      5709      5711      5710      5709      5711
      5686      5712      5713      5686      5712      5714      5686      5712      5718
      5713      5712      5714      5713      5712      5718      5714      5712      5718
      5712      5714      5715      5712      5714      5716      5712      5714      5717
      5715      5714      5716      5715      5714      5717      5716      5714      5717
      5712      5718      5719      5712      5718      5720      5712      5718      5721
      5719      5718      5720      5719      5718      5721      5720      5718      5721
      5718      5721      5722      5718      5721      5723      5718      5721      5724
      5722      5721      5723      5722      5721      5724      5723      5721      5724
      5721      5724      5725      5721      5724      5726      5721      5724      5727
      5725      5724      5726      5725      5724      5727      5726      5724      5727
      5724      5727      5728      5724      5727      5729      5724      5727      5733
      5728      5727      5729      5728      5727      5733      5729      5727      5733
      5727      5729      5730      5727      5729      5731      5727      5729      5732
      5730      5729      5731      5730      5729      5732      5731      5729      5732
      5727      5733      5734      5727      5733      5735      5727      5733      5736
      5734      5733      5735      5734      5733      5736      5735      5733      5736
     17970     17969     17971     17970     17969     17972     17970     17969     17973
     17971     17969     17972     17971     17969     17973     17972     17969     17973
     17969     17973     17974     17969     17973     17975     17969     17973     17976
     17974     17973     17975     17974     17973     17976     17975     17973     17976
     17973     17976     17977     17973     17976     17978     17973     17976     17982
     17977     17976     17978     17977     17976     17982     17978     17976     17982
     17980     17979     17981     17980     17979     17982     17980     17979     17983
     17981     17979     17982     17981     17979     17983     17982     17979     17983
     17976     17982     17979     17979     17983     17984     17983     17984     17985
     17983     17984     17986     17983     17984     17987     17985     17984     17986
     17985     17984     17987     17986     17984     17987     17984     17987     17988
     17984     17987     17989     17984     17987     17995     17988     17987     17989
     17988     17987     17995     17989     17987     17995     17987     17989     17990
     17989     17990     17991     17989     17990     17992     17991     17990     17992
     17990     17992     17993     17990     17992     17994     17990     17992     18004
     17993     17992     17994     17993     17992     18004     17994     17992     18004
     17987     17995     17996     17987     17995     17997     17987     17995     17998
     17996     17995     17997     17996     17995     17998     17997     17995     17998
     17995     17998     17999     17998     17999     18000     17998     17999     18001
     18000     17999     18001     17999     18001     18002     17999     18001     18003
     17999     18001     18051     18002     18001     18003     18002     18001     18051
     18003     18001     18051     17992     18004     18005     17992     18004     18006
     17992     18004     18007     18005     18004     18006     18005     18004     18007
     18006     18004     18007     18004     18007     18008     18004     18007     18009
     18004     18007     18010     18008     18007     18009     18008     18007     18010
     18009     18007     18010     18007     18010     18011     18007     18010     18012
     18007     18010     18013     18011     18010     18012     18011     18010     18013
     18012     18010     18013     18010     18013     18014     18010     18013     18015
     18010     18013     18016     18014     18013     18015     18014     18013     18016
     18015     18013     18016     18013     18016     18017     18013     18016     18018
     18013     18016     18019     18017     18016     18018     18017     18016     18019
     18018     18016     18019     18016     18019     18020     18016     18019     18021
     18016     18019     18022     18020     18019     18021     18020     18019     18022
     18021     18019     18022     18019     18022     18023     18019     18022     18024
     18023     18022     18024     18022     18024     18025     18022     18024     18026
     18025     18024     18026     18024     18026     18027     18024     18026     18028
     18024     18026     18029     18027     18026     18028     18027     18026     18029
     18028     18026     18029     18026     18029     18030     18026     18029     18031
     18026     18029     18032     18030     18029     18031     18030     18029     18032
     18031     18029     18032     18029     18032     18033     18029     18032     18034
     18029     18032     18035     18033     18032     18034     18033     18032     18035
     18034     18032     18035     18032     18035     18036     18032     18035     18037
     18032     18035     18038     18036     18035     18037     18036     18035     18038
     18037     18035     18038     18035     18038     18039     18035     18038     18040
     18035     18038     18041     18039     18038     18040     18039     18038     18041
     18040     18038     18041     18038     18041     18042     18038     18041     18043
     18038     18041     18044     18042     18041     18043     18042     18041     18044
     18043     18041     18044     18041     18044     18045     18041     18044     18046
     18041     18044     18047     18045     18044     18046     18045     18044     18047
     18046     18044     18047     18044     18047     18048     18044     18047     18049
     18044     18047     18050     18048     18047     18049     18048     18047     18050
     18049     18047     18050     18001     18051     18052     18001     18051     18053
     18001     18051     18054     18052     18051     18053     18052     18051     18054
     18053     18051     18054     18051     18054     18055     18051     18054     18056
     18051     18054     18057     18055     18054     18056     18055     18054     18057
     18056     18054     18057     18054     18057     18058     18054     18057     18059
     18054     18057     18060     18058     18057     18059     18058     18057     18060
     18059     18057     18060     18057     18060     18061     18057     18060     18062
     18057     18060     18063     18061     18060     18062     18061     18060     18063
     18062     18060     18063     18060     18063     18064     18060     18063     18065
     18060     18063     18066     18064     18063     18065     18064     18063     18066
     18065     18063     18066     18063     18066     18067     18063     18066     18068
     18063     18066     18069     18067     18066     18068     18067     18066     18069
     18068     18066     18069     18066     18069     18070     18066     18069     18071
     18066     18069     18072     18070     18069     18071     18070     18069     18072
     18071     18069     18072     18069     18072     18073     18069     18072     18074
     18069     18072     18075     18073     18072     18074     18073     18072     18075
     18074     18072     18075     18072     18075     18076     18072     18075     18077
     18072     18075     18078     18076     18075     18077     18076     18075     18078
     18077     18075     18078     18075     18078     18079     18075     18078     18080
     18075     18078     18081     18079     18078     18080     18079     18078     18081
     18080     18078     18081     18078     18081     18082     18078     18081     18083
     18078     18081     18084     18082     18081     18083     18082     18081     18084
     18083     18081     18084     18081     18084     18085     18081     18084     18086
     18081     18084     18087     18085     18084     18086     18085     18084     18087
     18086     18084     18087     18084     18087     18088     18084     18087     18089
     18084     18087     18090     18088     18087     18089     18088     18087     18090
     18089     18087     18090     18087     18090     18091     18087     18090     18092
     18087     18090     18093     18091     18090     18092     18091     18090     18093
     18092     18090     18093     18090     18093     18094     18090     18093     18095
     18090     18093     18096     18094     18093     18095     18094     18093     18096
     18095     18093     18096     18093     18096     18097     18093     18096     18098
     18093     18096     18099     18097     18096     18098     18097     18096     18099
     18098     18096     18099      9717      9716      9721      9717      9716      9725
      9717      9716      9729      9721      9716      9725      9721      9716      9729
      9725      9716      9729      9716      9717      9718      9716      9717      9719
      9716      9717      9720      9718      9717      9719      9718      9717      9720
      9719      9717      9720      9716      9721      9722      9716      9721      9723
      9716      9721      9724      9722      9721      9723      9722      9721      9724
      9723      9721      9724      9716      9725      9726      9716      9725      9727
      9716      9725      9728      9726      9725      9727      9726      9725      9728
      9727      9725      9728      9716      9729      9730      9716      9729      9731
      9716      9729      9732      9730      9729      9731      9730      9729      9732
      9731      9729      9732      9729      9732      9733      9729      9732      9734
      9729      9732      9739      9733      9732      9734      9733      9732      9739
      9734      9732      9739      9736      9735      9737      9736      9735      9738
      9736      9735      9739      9737      9735      9738      9737      9735      9739
      9738      9735      9739      9735      9738      9740      9732      9739      9735
      9738      9740      9741      9738      9740      9742      9738      9740      9745
      9741      9740      9742      9741      9740      9745      9742      9740      9745
      9744      9743      9745      9744      9743      9795      9745      9743      9795
      9740      9745      9743      9740      9745      9746      9740      9745      9747
      9743      9745      9746      9743      9745      9747      9746      9745      9747
      9745      9747      9748      9745      9747      9749      9745      9747      9751
      9748      9747      9749      9748      9747      9751      9749      9747      9751
      9747      9749      9750      9747      9751      9752      9747      9751      9753
      9752      9751      9753      9751      9753      9754      9751      9753      9755
      9754      9753      9755      9753      9755      9756      9753      9755      9757
      9753      9755      9758      9756      9755      9757      9756      9755      9758
      9757      9755      9758      9755      9758      9759      9755      9758      9760
      9755      9758      9761      9759      9758      9760      9759      9758      9761
      9760      9758      9761      9758      9761      9762      9758      9761      9763
      9758      9761      9764      9762      9761      9763      9762      9761      9764
      9763      9761      9764      9761      9764      9765      9761      9764      9766
      9761      9764      9767      9765      9764      9766      9765      9764      9767
      9766      9764      9767      9764      9767      9768      9764      9767      9769
      9764      9767      9770      9768      9767      9769      9768      9767      9770
      9769      9767      9770      9767      9770      9771      9767      9770      9772
      9767      9770      9773      9771      9770      9772      9771      9770      9773
      9772      9770      9773      9770      9773      9774      9770      9773      9775
      9770      9773      9776      9774      9773      9775      9774      9773      9776
      9775      9773      9776      9773      9776      9777      9773      9776      9778
      9773      9776      9779      9777      9776      9778      9777      9776      9779
      9778      9776      9779      9776      9779      9780      9776      9779      9781
      9776      9779      9782      9780      9779      9781      9780      9779      9782
      9781      9779      9782      9779      9782      9783      9779      9782      9784
      9779      9782      9785      9783      9782      9784      9783      9782      9785
      9784      9782      9785      9782      9785      9786      9782      9785      9787
      9782      9785      9788      9786      9785      9787      9786      9785      9788
      9787      9785      9788      9785      9788      9789      9785      9788      9790
      9785      9788      9791      9789      9788      9790      9789      9788      9791
      9790      9788      9791      9788      9791      9792      9788      9791      9793
      9788      9791      9794      9792      9791      9793      9792      9791      9794
      9793      9791      9794      9743      9795      9796      9743      9795      9797
      9796      9795      9797      9795      9797      9798      9795      9797      9799
      9795      9797      9800      9798      9797      9799      9798      9797      9800
      9799      9797      9800      9797      9800      9801      9797      9800      9802
      9797      9800      9803      9801      9800      9802      9801      9800      9803
      9802      9800      9803      9800      9803      9804      9800      9803      9805
      9800      9803      9806      9804      9803      9805      9804      9803      9806
      9805      9803      9806      9803      9806      9807      9803      9806      9808
      9803      9806      9809      9807      9806      9808      9807      9806      9809
      9808      9806      9809      9806      9809      9810      9806      9809      9811
      9806      9809      9812      9810      9809      9811      9810      9809      9812
      9811      9809      9812      9809      9812      9813      9809      9812      9814
      9809      9812      9815      9813      9812      9814      9813      9812      9815
      9814      9812      9815      9812      9815      9816      9812      9815      9817
      9812      9815      9818      9816      9815      9817      9816      9815      9818
      9817      9815      9818      9815      9818      9819      9815      9818      9820
      9819      9818      9820      9818      9820      9821      9818      9820      9822
      9821      9820      9822      9820      9822      9823      9820      9822      9824
      9820      9822      9825      9823      9822      9824      9823      9822      9825
      9824      9822      9825      9822      9825      9826      9822      9825      9827
      9822      9825      9828      9826      9825      9827      9826      9825      9828
      9827      9825      9828      9825      9828      9829      9825      9828      9830
      9825      9828      9831      9829      9828      9830      9829      9828      9831
      9830      9828      9831      9828      9831      9832      9828      9831      9833
      9828      9831      9834      9832      9831      9833      9832      9831      9834
      9833      9831      9834      9831      9834      9835      9831      9834      9836
      9831      9834      9837      9835      9834      9836      9835      9834      9837
      9836      9834      9837      9834      9837      9838      9834      9837      9839
      9834      9837      9840      9838      9837      9839      9838      9837      9840
      9839      9837      9840      9837      9840      9841      9837      9840      9842
      9837      9840      9843      9841      9840      9842      9841      9840      9843
      9842      9840      9843      9840      9843      9844      9840      9843      9845
      9840      9843      9846      9844      9843      9845      9844      9843      9846
      9845      9843      9846      4504      4503      4507      4504      4503      4511
      4504      4503      4515      4507      4503      4511      4507      4503      4515
      4511      4503      4515      4503      4504      4505      4503      4504      4506
      4503      4504      4519      4505      4504      4506      4505      4504      4519
      4506      4504      4519      4503      4507      4508      4503      4507      4509
      4503      4507      4510      4508      4507      4509      4508      4507      4510
      4509      4507      4510      4503      4511      4512      4503      4511      4513
      4503      4511      4514      4512      4511      4513      4512      4511      4514
      4513      4511      4514      4503      4515      4516      4503      4515      4517
      4503      4515      4518      4516      4515      4517      4516      4515      4518
      4517      4515      4518      4504      4519      4520      4504      4519      4521
      4504      4519      4525      4520      4519      4521      4520      4519      4525
      4521      4519      4525      4523      4522      4524      4523      4522      4525
      4523      4522      4526      4524      4522      4525      4524      4522      4526
      4525      4522      4526      4519      4525      4522      4522      4526      4527
      4526      4527      4528      4526      4527      4529      4526      4527      4530
      4528      4527      4529      4528      4527      4530      4529      4527      4530
      4527      4530      4531      4527      4530      4532      4527      4530      4538
      4531      4530      4532      4531      4530      4538      4532      4530      4538
      4530      4532      4533      4532      4533      4534      4532      4533      4535
      4534      4533      4535      4533      4535      4536      4533      4535      4537
      4533      4535      4547      4536      4535      4537      4536      4535      4547
      4537      4535      4547      4530      4538      4539      4530      4538      4540
      4530      4538      4541      4539      4538      4540      4539      4538      4541
      4540      4538      4541      4538      4541      4542      4541      4542      4543
      4541      4542      4544      4543      4542      4544      4542      4544      4545
      4542      4544      4546      4542      4544      4594      4545      4544      4546
      4545      4544      4594      4546      4544      4594      4535      4547      4548
      4535      4547      4549      4535      4547      4550      4548      4547      4549
      4548      4547      4550      4549      4547      4550      4547      4550      4551
      4547      4550      4552      4547      4550      4553      4551      4550      4552
      4551      4550      4553      4552      4550      4553      4550      4553      4554
      4550      4553      4555      4550      4553      4556      4554      4553      4555
      4554      4553      4556      4555      4553      4556      4553      4556      4557
      4553      4556      4558      4553      4556      4559      4557      4556      4558
      4557      4556      4559      4558      4556      4559      4556      4559      4560
      4556      4559      4561      4556      4559      4562      4560      4559      4561
      4560      4559      4562      4561      4559      4562      4559      4562      4563
      4559      4562      4564      4559      4562      4565      4563      4562      4564
      4563      4562      4565      4564      4562      4565      4562      4565      4566
      4562      4565      4567      4566      4565      4567      4565      4567      4568
      4565      4567      4569      4568      4567      4569      4567      4569      4570
      4567      4569      4571      4567      4569      4572      4570      4569      4571
      4570      4569      4572      4571      4569      4572      4569      4572      4573
      4569      4572      4574      4569      4572      4575      4573      4572      4574
      4573      4572      4575      4574      4572      4575      4572      4575      4576
      4572      4575      4577      4572      4575      4578      4576      4575      4577
      4576      4575      4578      4577      4575      4578      4575      4578      4579
      4575      4578      4580      4575      4578      4581      4579      4578      4580
      4579      4578      4581      4580      4578      4581      4578      4581      4582
      4578      4581      4583      4578      4581      4584      4582      4581      4583
      4582      4581      4584      4583      4581      4584      4581      4584      4585
      4581      4584      4586      4581      4584      4587      4585      4584      4586
      4585      4584      4587      4586      4584      4587      4584      4587      4588
      4584      4587      4589      4584      4587      4590      4588      4587      4589
      4588      4587      4590      4589      4587      4590      4587      4590      4591
      4587      4590      4592      4587      4590      4593      4591      4590      4592
      4591      4590      4593      4592      4590      4593      4544      4594      4595
      4544      4594      4596      4544      4594      4597      4595      4594      4596
      4595      4594      4597      4596      4594      4597      4594      4597      4598
      4594      4597      4599      4594      4597      4600      4598      4597      4599
      4598      4597      4600      4599      4597      4600      4597      4600      4601
      4597      4600      4602      4597      4600      4603      4601      4600      4602
      4601      4600      4603      4602      4600      4603      4600      4603      4604
      4600      4603      4605      4600      4603      4606      4604      4603      4605
      4604      4603      4606      4605      4603      4606      4603      4606      4607
      4603      4606      4608      4603      4606      4609      4607      4606      4608
      4607      4606      4609      4608      4606      4609      4606      4609      4610
      4606      4609      4611      4606      4609      4612      4610      4609      4611
      4610      4609      4612      4611      4609      4612      4609      4612      4613
      4609      4612      4614      4609      4612      4615      4613      4612      4614
      4613      4612      4615      4614      4612      4615      4612      4615      4616
      4612      4615      4617      4612      4615      4618      4616      4615      4617
      4616      4615      4618      4617      4615      4618      4615      4618      4619
      4615      4618      4620      4615      4618      4621      4619      4618      4620
      4619      4618      4621      4620      4618      4621      4618      4621      4622
      4618      4621      4623      4618      4621      4624      4622      4621      4623
      4622      4621      4624      4623      4621      4624      4621      4624      4625
      4621      4624      4626      4621      4624      4627      4625      4624      4626
      4625      4624      4627      4626      4624      4627      4624      4627      4628
      4624      4627      4629      4624      4627      4630      4628      4627      4629
      4628      4627      4630      4629      4627      4630      4627      4630      4631
      4627      4630      4632      4627      4630      4633      4631      4630      4632
      4631      4630      4633      4632      4630      4633      4630      4633      4634
      4630      4633      4635      4630      4633      4636      4634      4633      4635
      4634      4633      4636      4635      4633      4636      5738      5737      5739
      5738      5737      5741      5738      5737      5783      5739      5737      5741
      5739      5737      5783      5741      5737      5783      5737      5739      5740
      5737      5741      5742      5737      5741      5743      5737      5741      5744
      5742      5741      5743      5742      5741      5744      5743      5741      5744
      5741      5744      5745      5741      5744      5775      5745      5744      5775
      5744      5745      5746      5744      5745      5747      5746      5745      5747
      5745      5747      5748      5745      5747      5749      5745      5747      5750
      5748      5747      5749      5748      5747      5750      5749      5747      5750
      5747      5750      5751      5747      5750      5752      5747      5750      5773
      5751      5750      5752      5751      5750      5773      5752      5750      5773
      5750      5752      5753      5750      5752      5754      5750      5752      5762
      5753      5752      5754      5753      5752      5762      5754      5752      5762
      5752      5754      5755      5752      5754      5756      5752      5754      5757
      5755      5754      5756      5755      5754      5757      5756      5754      5757
      5754      5757      5758      5754      5757      5759      5754      5757      5760
      5758      5757      5759      5758      5757      5760      5759      5757      5760
      5757      5760      5761      5757      5760      5762      5757      5760      5786
      5761      5760      5762      5761      5760      5786      5762      5760      5786
      5752      5762      5760      5752      5762      5763      5752      5762      5767
      5760      5762      5763      5760      5762      5767      5763      5762      5767
      5762      5763      5764      5762      5763      5765      5762      5763      5766
      5764      5763      5765      5764      5763      5766      5765      5763      5766
      5762      5767      5768      5762      5767      5769      5762      5767      5770
      5768      5767      5769      5768      5767      5770      5769      5767      5770
      5767      5770      5771      5767      5770      5772      5767      5770      5773
      5771      5770      5772      5771      5770      5773      5772      5770      5773
      5750      5773      5770      5750      5773      5774      5750      5773      5775
      5770      5773      5774      5770      5773      5775      5774      5773      5775
      5744      5775      5773      5744      5775      5776      5744      5775      5780
      5773      5775      5776      5773      5775      5780      5776      5775      5780
      5775      5776      5777      5775      5776      5778      5775      5776      5779
      5777      5776      5778      5777      5776      5779      5778      5776      5779
      5775      5780      5781      5775      5780      5782      5775      5780      5783
      5781      5780      5782      5781      5780      5783      5782      5780      5783
      5737      5783      5780      5737      5783      5784      5737      5783      5785
      5780      5783      5784      5780      5783      5785      5784      5783      5785
      5760      5786      5787      5760      5786      5788      5760      5786      5792
      5787      5786      5788      5787      5786      5792      5788      5786      5792
      5786      5788      5789      5786      5788      5790      5786      5788      5791
      5789      5788      5790      5789      5788      5791      5790      5788      5791
      5786      5792      5793      5786      5792      5794      5786      5792      5795
      5793      5792      5794      5793      5792      5795      5794      5792      5795
      5792      5795      5796      5792      5795      5797      5792      5795      5798
      5796      5795      5797      5796      5795      5798      5797      5795      5798
      5795      5798      5799      5795      5798      5800      5795      5798      5801
      5799      5798      5800      5799      5798      5801      5800      5798      5801
      5798      5801      5802      5798      5801      5803      5798      5801      5807
      5802      5801      5803      5802      5801      5807      5803      5801      5807
      5801      5803      5804      5801      5803      5805      5801      5803      5806
      5804      5803      5805      5804      5803      5806      5805      5803      5806
      5801      5807      5808      5801      5807      5809      5801      5807      5810
      5808      5807      5809      5808      5807      5810      5809      5807      5810
      5812      5811      5813      5812      5811      5815      5812      5811      5857
      5813      5811      5815      5813      5811      5857      5815      5811      5857
      5811      5813      5814      5811      5815      5816      5811      5815      5817
      5811      5815      5818      5816      5815      5817      5816      5815      5818
      5817      5815      5818      5815      5818      5819      5815      5818      5849
      5819      5818      5849      5818      5819      5820      5818      5819      5821
      5820      5819      5821      5819      5821      5822      5819      5821      5823
      5819      5821      5824      5822      5821      5823      5822      5821      5824
      5823      5821      5824      5821      5824      5825      5821      5824      5826
      5821      5824      5847      5825      5824      5826      5825      5824      5847
      5826      5824      5847      5824      5826      5827      5824      5826      5828
      5824      5826      5836      5827      5826      5828      5827      5826      5836
      5828      5826      5836      5826      5828      5829      5826      5828      5830
      5826      5828      5831      5829      5828      5830      5829      5828      5831
      5830      5828      5831      5828      5831      5832      5828      5831      5833
      5828      5831      5834      5832      5831      5833      5832      5831      5834
      5833      5831      5834      5831      5834      5835      5831      5834      5836
      5831      5834      5860      5835      5834      5836      5835      5834      5860
      5836      5834      5860      5826      5836      5834      5826      5836      5837
      5826      5836      5841      5834      5836      5837      5834      5836      5841
      5837      5836      5841      5836      5837      5838      5836      5837      5839
      5836      5837      5840      5838      5837      5839      5838      5837      5840
      5839      5837      5840      5836      5841      5842      5836      5841      5843
      5836      5841      5844      5842      5841      5843      5842      5841      5844
      5843      5841      5844      5841      5844      5845      5841      5844      5846
      5841      5844      5847      5845      5844      5846      5845      5844      5847
      5846      5844      5847      5824      5847      5844      5824      5847      5848
      5824      5847      5849      5844      5847      5848      5844      5847      5849
      5848      5847      5849      5818      5849      5847      5818      5849      5850
      5818      5849      5854      5847      5849      5850      5847      5849      5854
      5850      5849      5854      5849      5850      5851      5849      5850      5852
      5849      5850      5853      5851      5850      5852      5851      5850      5853
      5852      5850      5853      5849      5854      5855      5849      5854      5856
      5849      5854      5857      5855      5854      5856      5855      5854      5857
      5856      5854      5857      5811      5857      5854      5811      5857      5858
      5811      5857      5859      5854      5857      5858      5854      5857      5859
      5858      5857      5859      5834      5860      5861      5834      5860      5862
      5834      5860      5866      5861      5860      5862      5861      5860      5866
      5862      5860      5866      5860      5862      5863      5860      5862      5864
      5860      5862      5865      5863      5862      5864      5863      5862      5865
      5864      5862      5865      5860      5866      5867      5860      5866      5868
      5860      5866      5869      5867      5866      5868      5867      5866      5869
      5868      5866      5869      5866      5869      5870      5866      5869      5871
      5866      5869      5872      5870      5869      5871      5870      5869      5872
      5871      5869      5872      5869      5872      5873      5869      5872      5874
      5869      5872      5875      5873      5872      5874      5873      5872      5875
      5874      5872      5875      5872      5875      5876      5872      5875      5877
      5872      5875      5881      5876      5875      5877      5876      5875      5881
      5877      5875      5881      5875      5877      5878      5875      5877      5879
      5875      5877      5880      5878      5877      5879      5878      5877      5880
      5879      5877      5880      5875      5881      5882      5875      5881      5883
      5875      5881      5884      5882      5881      5883      5882      5881      5884
      5883      5881      5884      5886      5885      5887      5886      5885      5889
      5886      5885      5931      5887      5885      5889      5887      5885      5931
      5889      5885      5931      5885      5887      5888      5885      5889      5890
      5885      5889      5891      5885      5889      5892      5890      5889      5891
      5890      5889      5892      5891      5889      5892      5889      5892      5893
      5889      5892      5923      5893      5892      5923      5892      5893      5894
      5892      5893      5895      5894      5893      5895      5893      5895      5896
      5893      5895      5897      5893      5895      5898      5896      5895      5897
      5896      5895      5898      5897      5895      5898      5895      5898      5899
      5895      5898      5900      5895      5898      5921      5899      5898      5900
      5899      5898      5921      5900      5898      5921      5898      5900      5901
      5898      5900      5902      5898      5900      5910      5901      5900      5902
      5901      5900      5910      5902      5900      5910      5900      5902      5903
      5900      5902      5904      5900      5902      5905      5903      5902      5904
      5903      5902      5905      5904      5902      5905      5902      5905      5906
      5902      5905      5907      5902      5905      5908      5906      5905      5907
      5906      5905      5908      5907      5905      5908      5905      5908      5909
      5905      5908      5910      5905      5908      5934      5909      5908      5910
      5909      5908      5934      5910      5908      5934      5900      5910      5908
      5900      5910      5911      5900      5910      5915      5908      5910      5911
      5908      5910      5915      5911      5910      5915      5910      5911      5912
      5910      5911      5913      5910      5911      5914      5912      5911      5913
      5912      5911      5914      5913      5911      5914      5910      5915      5916
      5910      5915      5917      5910      5915      5918      5916      5915      5917
      5916      5915      5918      5917      5915      5918      5915      5918      5919
      5915      5918      5920      5915      5918      5921      5919      5918      5920
      5919      5918      5921      5920      5918      5921      5898      5921      5918
      5898      5921      5922      5898      5921      5923      5918      5921      5922
      5918      5921      5923      5922      5921      5923      5892      5923      5921
      5892      5923      5924      5892      5923      5928      5921      5923      5924
      5921      5923      5928      5924      5923      5928      5923      5924      5925
      5923      5924      5926      5923      5924      5927      5925      5924      5926
      5925      5924      5927      5926      5924      5927      5923      5928      5929
      5923      5928      5930      5923      5928      5931      5929      5928      5930
      5929      5928      5931      5930      5928      5931      5885      5931      5928
      5885      5931      5932      5885      5931      5933      5928      5931      5932
      5928      5931      5933      5932      5931      5933      5908      5934      5935
      5908      5934      5936      5908      5934      5940      5935      5934      5936
      5935      5934      5940      5936      5934      5940      5934      5936      5937
      5934      5936      5938      5934      5936      5939      5937      5936      5938
      5937      5936      5939      5938      5936      5939      5934      5940      5941
      5934      5940      5942      5934      5940      5943      5941      5940      5942
      5941      5940      5943      5942      5940      5943      5940      5943      5944
      5940      5943      5945      5940      5943      5946      5944      5943      5945
      5944      5943      5946      5945      5943      5946      5943      5946      5947
      5943      5946      5948      5943      5946      5949      5947      5946      5948
      5947      5946      5949      5948      5946      5949      5946      5949      5950
      5946      5949      5951      5946      5949      5955      5950      5949      5951
      5950      5949      5955      5951      5949      5955      5949      5951      5952
      5949      5951      5953      5949      5951      5954      5952      5951      5953
      5952      5951      5954      5953      5951      5954      5949      5955      5956
      5949      5955      5957      5949      5955      5958      5956      5955      5957
      5956      5955      5958      5957      5955      5958       135       134       136
       135       134       137       135       134       138       136       134       137
       136       134       138       137       134       138       134       138       139
       134       138       140       134       138       143       139       138       140
       139       138       143       140       138       143       138       140       141
       138       140       142       141       140       142       138       143       144
       138       143       145       138       143       149       144       143       145
       144       143       149       145       143       149       147       146       148
       147       146       149       147       146       150       148       146       149
       148       146       150       149       146       150       143       149       146
       146       150       151       150       151       152       150       151       153
       150       151       154       152       151       153       152       151       154
       153       151       154       151       154       155       151       154       156
       151       154       162       155       154       156       155       154       162
       156       154       162       154       156       157       156       157       158
       156       157       159       158       157       159       157       159       160
       157       159       161       157       159       171       160       159       161
       160       159       171       161       159       171       154       162       163
       154       162       164       154       162       165       163       162       164
       163       162       165       164       162       165       162       165       166
       165       166       167       165       166       168       167       166       168
       166       168       169       166       168       170       166       168       218
       169       168       170       169       168       218       170       168       218
       159       171       172       159       171       173       159       171       174
       172       171       173       172       171       174       173       171       174
       171       174       175       171       174       176       171       174       177
       175       174       176       175       174       177       176       174       177
       174       177       178       174       177       179       178       177       179
       177       179       180       177       179       181       180       179       181
       179       181       182       179       181       183       179       181       184
       182       181       183       182       181       184       183       181       184
       181       184       185       181       184       186       185       184       186
       184       186       187       184       186       188       187       186       188
       186       188       189       186       188       190       186       188       191
       189       188       190       189       188       191       190       188       191
       188       191       192       188       191       193       192       191       193
       191       193       194       191       193       195       194       193       195
       193       195       196       193       195       197       193       195       198
       196       195       197       196       195       198       197       195       198
       195       198       199       195       198       200       199       198       200
       198       200       201       198       200       202       201       200       202
       200       202       203       200       202       204       200       202       205
       203       202       204       203       202       205       204       202       205
       202       205       206       202       205       207       202       205       208
       206       205       207       206       205       208       207       205       208
       205       208       209       205       208       210       205       208       211
       209       208       210       209       208       211       210       208       211
       208       211       212       208       211       213       208       211       214
       212       211       213       212       211       214       213       211       214
       211       214       215       211       214       216       211       214       217
       215       214       216       215       214       217       216       214       217
       168       218       219       168       218       220       168       218       221
       219       218       220       219       218       221       220       218       221
       218       221       222       218       221       223       218       221       224
       222       221       223       222       221       224       223       221       224
       221       224       225       221       224       226       221       224       227
       225       224       226       225       224       227       226       224       227
       224       227       228       224       227       229       224       227       230
       228       227       229       228       227       230       229       227       230
       227       230       231       227       230       232       227       230       233
       231       230       232       231       230       233       232       230       233
       230       233       234       230       233       235       230       233       236
       234       233       235       234       233       236       235       233       236
       233       236       237       233       236       238       233       236       239
       237       236       238       237       236       239       238       236       239
       236       239       240       236       239       241       236       239       242
       240       239       241       240       239       242       241       239       242
       239       242       243       239       242       244       239       242       245
       243       242       244       243       242       245       244       242       245
       242       245       246       242       245       247       242       245       248
       246       245       247       246       245       248       247       245       248
       245       248       249       245       248       250       245       248       251
       249       248       250       249       248       251       250       248       251
       248       251       252       248       251       253       248       251       254
       252       251       253       252       251       254       253       251       254
       251       254       255       251       254       256       251       254       257
       255       254       256       255       254       257       256       254       257
       254       257       258       254       257       259       254       257       260
       258       257       259       258       257       260       259       257       260
       257       260       261       257       260       262       257       260       263
       261       260       262       261       260       263       262       260       263
       260       263       264       260       263       265       260       263       266
       264       263       265       264       263       266       265       263       266
      9848      9847      9852      9848      9847      9856      9848      9847      9860
      9852      9847      9856      9852      9847      9860      9856      9847      9860
      9847      9848      9849      9847      9848      9850      9847      9848      9851
      9849      9848      9850      9849      9848      9851      9850      9848      9851
      9847      9852      9853      9847      9852      9854      9847      9852      9855
      9853      9852      9854      9853      9852      9855      9854      9852      9855
      9847      9856      9857      9847      9856      9858      9847      9856      9859
      9857      9856      9858      9857      9856      9859      9858      9856      9859
      9847      9860      9861      9847      9860      9862      9847      9860      9863
      9861      9860      9862      9861      9860      9863      9862      9860      9863
      9860      9863      9864      9860      9863      9865      9860      9863      9870
      9864      9863      9865      9864      9863      9870      9865      9863      9870
      9867      9866      9868      9867      9866      9869      9867      9866      9870
      9868      9866      9869      9868      9866      9870      9869      9866      9870
      9866      9869      9871      9863      9870      9866      9869      9871      9872
      9869      9871      9873      9869      9871      9876      9872      9871      9873
      9872      9871      9876      9873      9871      9876      9875      9874      9876
      9875      9874      9926      9876      9874      9926      9871      9876      9874
      9871      9876      9877      9871      9876      9878      9874      9876      9877
      9874      9876      9878      9877      9876      9878      9876      9878      9879
      9876      9878      9880      9876      9878      9882      9879      9878      9880
      9879      9878      9882      9880      9878      9882      9878      9880      9881
      9878      9882      9883      9878      9882      9884      9883      9882      9884
      9882      9884      9885      9882      9884      9886      9885      9884      9886
      9884      9886      9887      9884      9886      9888      9884      9886      9889
      9887      9886      9888      9887      9886      9889      9888      9886      9889
      9886      9889      9890      9886      9889      9891      9886      9889      9892
      9890      9889      9891      9890      9889      9892      9891      9889      9892
      9889      9892      9893      9889      9892      9894      9889      9892      9895
      9893      9892      9894      9893      9892      9895      9894      9892      9895
      9892      9895      9896      9892      9895      9897      9892      9895      9898
      9896      9895      9897      9896      9895      9898      9897      9895      9898
      9895      9898      9899      9895      9898      9900      9895      9898      9901
      9899      9898      9900      9899      9898      9901      9900      9898      9901
      9898      9901      9902      9898      9901      9903      9898      9901      9904
      9902      9901      9903      9902      9901      9904      9903      9901      9904
      9901      9904      9905      9901      9904      9906      9901      9904      9907
      9905      9904      9906      9905      9904      9907      9906      9904      9907
      9904      9907      9908      9904      9907      9909      9904      9907      9910
      9908      9907      9909      9908      9907      9910      9909      9907      9910
      9907      9910      9911      9907      9910      9912      9907      9910      9913
      9911      9910      9912      9911      9910      9913      9912      9910      9913
      9910      9913      9914      9910      9913      9915      9910      9913      9916
      9914      9913      9915      9914      9913      9916      9915      9913      9916
      9913      9916      9917      9913      9916      9918      9913      9916      9919
      9917      9916      9918      9917      9916      9919      9918      9916      9919
      9916      9919      9920      9916      9919      9921      9916      9919      9922
      9920      9919      9921      9920      9919      9922      9921      9919      9922
      9919      9922      9923      9919      9922      9924      9919      9922      9925
      9923      9922      9924      9923      9922      9925      9924      9922      9925
      9874      9926      9927      9874      9926      9928      9927      9926      9928
      9926      9928      9929      9926      9928      9930      9926      9928      9931
      9929      9928      9930      9929      9928      9931      9930      9928      9931
      9928      9931      9932      9928      9931      9933      9928      9931      9934
      9932      9931      9933      9932      9931      9934      9933      9931      9934
      9931      9934      9935      9931      9934      9936      9931      9934      9937
      9935      9934      9936      9935      9934      9937      9936      9934      9937
      9934      9937      9938      9934      9937      9939      9934      9937      9940
      9938      9937      9939      9938      9937      9940      9939      9937      9940
      9937      9940      9941      9937      9940      9942      9937      9940      9943
      9941      9940      9942      9941      9940      9943      9942      9940      9943
      9940      9943      9944      9940      9943      9945      9940      9943      9946
      9944      9943      9945      9944      9943      9946      9945      9943      9946
      9943      9946      9947      9943      9946      9948      9943      9946      9949
      9947      9946      9948      9947      9946      9949      9948      9946      9949
      9946      9949      9950      9946      9949      9951      9950      9949      9951
      9949      9951      9952      9949      9951      9953      9952      9951      9953
      9951      9953      9954      9951      9953      9955      9951      9953      9956
      9954      9953      9955      9954      9953      9956      9955      9953      9956
      9953      9956      9957      9953      9956      9958      9953      9956      9959
      9957      9956      9958      9957      9956      9959      9958      9956      9959
      9956      9959      9960      9956      9959      9961      9956      9959      9962
      9960      9959      9961      9960      9959      9962      9961      9959      9962
      9959      9962      9963      9959      9962      9964      9959      9962      9965
      9963      9962      9964      9963      9962      9965      9964      9962      9965
      9962      9965      9966      9962      9965      9967      9962      9965      9968
      9966      9965      9967      9966      9965      9968      9967      9965      9968
      9965      9968      9969      9965      9968      9970      9965      9968      9971
      9969      9968      9970      9969      9968      9971      9970      9968      9971
      9968      9971      9972      9968      9971      9973      9968      9971      9974
      9972      9971      9973      9972      9971      9974      9973      9971      9974
      9971      9974      9975      9971      9974      9976      9971      9974      9977
      9975      9974      9976      9975      9974      9977      9976      9974      9977
     19542     19541     19543     19542     19541     19545     19542     19541     19561
     19543     19541     19545     19543     19541     19561     19545     19541     19561
     19541     19543     19544     19541     19545     19546     19541     19545     19547
     19541     19545     19549     19546     19545     19547     19546     19545     19549
     19547     19545     19549     19545     19547     19548     19545     19549     19550
     19545     19549     19551     19545     19549     19553     19550     19549     19551
     19550     19549     19553     19551     19549     19553     19549     19551     19552
     19549     19553     19554     19549     19553     19555     19549     19553     19557
     19554     19553     19555     19554     19553     19557     19555     19553     19557
     19553     19555     19556     19553     19557     19558     19553     19557     19559
     19553     19557     19561     19558     19557     19559     19558     19557     19561
     19559     19557     19561     19557     19559     19560     19541     19561     19557
     19541     19561     19562     19541     19561     19566     19557     19561     19562
     19557     19561     19566     19562     19561     19566     19564     19563     19565
     19564     19563     19566     19564     19563     19567     19565     19563     19566
     19565     19563     19567     19566     19563     19567     19561     19566     19563
     19563     19567     19568     19567     19568     19569     19567     19568     19570
     19567     19568     19571     19569     19568     19570     19569     19568     19571
     19570     19568     19571     19568     19571     19572     19568     19571     19573
     19568     19571     19579     19572     19571     19573     19572     19571     19579
     19573     19571     19579     19571     19573     19574     19573     19574     19575
     19573     19574     19576     19575     19574     19576     19574     19576     19577
     19574     19576     19578     19574     19576     19588     19577     19576     19578
     19577     19576     19588     19578     19576     19588     19571     19579     19580
     19571     19579     19581     19571     19579     19582     19580     19579     19581
     19580     19579     19582     19581     19579     19582     19579     19582     19583
     19582     19583     19584     19582     19583     19585     19584     19583     19585
     19583     19585     19586     19583     19585     19587     19583     19585     19635
     19586     19585     19587     19586     19585     19635     19587     19585     19635
     19576     19588     19589     19576     19588     19590     19576     19588     19591
     19589     19588     19590     19589     19588     19591     19590     19588     19591
     19588     19591     19592     19588     19591     19593     19588     19591     19594
     19592     19591     19593     19592     19591     19594     19593     19591     19594
     19591     19594     19595     19591     19594     19596     19595     19594     19596
     19594     19596     19597     19594     19596     19598     19597     19596     19598
     19596     19598     19599     19596     19598     19600     19596     19598     19601
     19599     19598     19600     19599     19598     19601     19600     19598     19601
     19598     19601     19602     19598     19601     19603     19602     19601     19603
     19601     19603     19604     19601     19603     19605     19604     19603     19605
     19603     19605     19606     19603     19605     19607     19603     19605     19608
     19606     19605     19607     19606     19605     19608     19607     19605     19608
     19605     19608     19609     19605     19608     19610     19609     19608     19610
     19608     19610     19611     19608     19610     19612     19611     19610     19612
     19610     19612     19613     19610     19612     19614     19610     19612     19615
     19613     19612     19614     19613     19612     19615     19614     19612     19615
     19612     19615     19616     19612     19615     19617     19616     19615     19617
     19615     19617     19618     19615     19617     19619     19618     19617     19619
     19617     19619     19620     19617     19619     19621     19617     19619     19622
     19620     19619     19621     19620     19619     19622     19621     19619     19622
     19619     19622     19623     19619     19622     19624     19619     19622     19625
     19623     19622     19624     19623     19622     19625     19624     19622     19625
     19622     19625     19626     19622     19625     19627     19622     19625     19628
     19626     19625     19627     19626     19625     19628     19627     19625     19628
     19625     19628     19629     19625     19628     19630     19625     19628     19631
     19629     19628     19630     19629     19628     19631     19630     19628     19631
     19628     19631     19632     19628     19631     19633     19628     19631     19634
     19632     19631     19633     19632     19631     19634     19633     19631     19634
     19585     19635     19636     19585     19635     19637     19585     19635     19638
     19636     19635     19637     19636     19635     19638     19637     19635     19638
     19635     19638     19639     19635     19638     19640     19635     19638     19641
     19639     19638     19640     19639     19638     19641     19640     19638     19641
     19638     19641     19642     19638     19641     19643     19638     19641     19644
     19642     19641     19643     19642     19641     19644     19643     19641     19644
     19641     19644     19645     19641     19644     19646     19641     19644     19647
     19645     19644     19646     19645     19644     19647     19646     19644     19647
     19644     19647     19648     19644     19647     19649     19644     19647     19650
     19648     19647     19649     19648     19647     19650     19649     19647     19650
     19647     19650     19651     19647     19650     19652     19647     19650     19653
     19651     19650     19652     19651     19650     19653     19652     19650     19653
     19650     19653     19654     19650     19653     19655     19650     19653     19656
     19654     19653     19655     19654     19653     19656     19655     19653     19656
     19653     19656     19657     19653     19656     19658     19653     19656     19659
     19657     19656     19658     19657     19656     19659     19658     19656     19659
     19656     19659     19660     19656     19659     19661     19656     19659     19662
     19660     19659     19661     19660     19659     19662     19661     19659     19662
     19659     19662     19663     19659     19662     19664     19659     19662     19665
     19663     19662     19664     19663     19662     19665     19664     19662     19665
     19662     19665     19666     19662     19665     19667     19662     19665     19668
     19666     19665     19667     19666     19665     19668     19667     19665     19668
     19665     19668     19669     19665     19668     19670     19665     19668     19671
     19669     19668     19670     19669     19668     19671     19670     19668     19671
     19668     19671     19672     19668     19671     19673     19668     19671     19674
     19672     19671     19673     19672     19671     19674     19673     19671     19674
     19671     19674     19675     19671     19674     19676     19671     19674     19677
     19675     19674     19676     19675     19674     19677     19676     19674     19677
     19674     19677     19678     19674     19677     19679     19674     19677     19680
     19678     19677     19679     19678     19677     19680     19679     19677     19680
     19677     19680     19681     19677     19680     19682     19677     19680     19683
     19681     19680     19682     19681     19680     19683     19682     19680     19683
     14433     14432     14434     14433     14432     14435     14433     14432     14436
     14434     14432     14435     14434     14432     14436     14435     14432     14436
     14432     14436     14437     14432     14436     14438     14432     14436     14439
     14437     14436     14438     14437     14436     14439     14438     14436     14439
     14436     14439     14440     14436     14439     14441     14436     14439     14445
     14440     14439     14441     14440     14439     14445     14441     14439     14445
     14443     14442     14444     14443     14442     14445     14443     14442     14446
     14444     14442     14445     14444     14442     14446     14445     14442     14446
     14439     14445     14442     14442     14446     14447     14446     14447     14448
     14446     14447     14449     14446     14447     14450     14448     14447     14449
     14448     14447     14450     14449     14447     14450     14447     14450     14451
     14447     14450     14452     14447     14450     14458     14451     14450     14452
     14451     14450     14458     14452     14450     14458     14450     14452     14453
     14452     14453     14454     14452     14453     14455     14454     14453     14455
     14453     14455     14456     14453     14455     14457     14453     14455     14467
     14456     14455     14457     14456     14455     14467     14457     14455     14467
     14450     14458     14459     14450     14458     14460     14450     14458     14461
     14459     14458     14460     14459     14458     14461     14460     14458     14461
     14458     14461     14462     14461     14462     14463     14461     14462     14464
     14463     14462     14464     14462     14464     14465     14462     14464     14466
     14462     14464     14514     14465     14464     14466     14465     14464     14514
     14466     14464     14514     14455     14467     14468     14455     14467     14469
     14455     14467     14470     14468     14467     14469     14468     14467     14470
     14469     14467     14470     14467     14470     14471     14467     14470     14472
     14467     14470     14473     14471     14470     14472     14471     14470     14473
     14472     14470     14473     14470     14473     14474     14470     14473     14475
     14474     14473     14475     14473     14475     14476     14473     14475     14477
     14476     14475     14477     14475     14477     14478     14475     14477     14479
     14475     14477     14480     14478     14477     14479     14478     14477     14480
     14479     14477     14480     14477     14480     14481     14477     14480     14482
     14481     14480     14482     14480     14482     14483     14480     14482     14484
     14483     14482     14484     14482     14484     14485     14482     14484     14486
     14482     14484     14487     14485     14484     14486     14485     14484     14487
     14486     14484     14487     14484     14487     14488     14484     14487     14489
     14488     14487     14489     14487     14489     14490     14487     14489     14491
     14490     14489     14491     14489     14491     14492     14489     14491     14493
     14489     14491     14494     14492     14491     14493     14492     14491     14494
     14493     14491     14494     14491     14494     14495     14491     14494     14496
     14495     14494     14496     14494     14496     14497     14494     14496     14498
     14497     14496     14498     14496     14498     14499     14496     14498     14500
     14496     14498     14501     14499     14498     14500     14499     14498     14501
     14500     14498     14501     14498     14501     14502     14498     14501     14503
     14498     14501     14504     14502     14501     14503     14502     14501     14504
     14503     14501     14504     14501     14504     14505     14501     14504     14506
     14501     14504     14507     14505     14504     14506     14505     14504     14507
     14506     14504     14507     14504     14507     14508     14504     14507     14509
     14504     14507     14510     14508     14507     14509     14508     14507     14510
     14509     14507     14510     14507     14510     14511     14507     14510     14512
     14507     14510     14513     14511     14510     14512     14511     14510     14513
     14512     14510     14513     14464     14514     14515     14464     14514     14516
     14464     14514     14517     14515     14514     14516     14515     14514     14517
     14516     14514     14517     14514     14517     14518     14514     14517     14519
     14514     14517     14520     14518     14517     14519     14518     14517     14520
     14519     14517     14520     14517     14520     14521     14517     14520     14522
     14517     14520     14523     14521     14520     14522     14521     14520     14523
     14522     14520     14523     14520     14523     14524     14520     14523     14525
     14520     14523     14526     14524     14523     14525     14524     14523     14526
     14525     14523     14526     14523     14526     14527     14523     14526     14528
     14523     14526     14529     14527     14526     14528     14527     14526     14529
     14528     14526     14529     14526     14529     14530     14526     14529     14531
     14526     14529     14532     14530     14529     14531     14530     14529     14532
     14531     14529     14532     14529     14532     14533     14529     14532     14534
     14529     14532     14535     14533     14532     14534     14533     14532     14535
     14534     14532     14535     14532     14535     14536     14532     14535     14537
     14532     14535     14538     14536     14535     14537     14536     14535     14538
     14537     14535     14538     14535     14538     14539     14535     14538     14540
     14535     14538     14541     14539     14538     14540     14539     14538     14541
     14540     14538     14541     14538     14541     14542     14538     14541     14543
     14538     14541     14544     14542     14541     14543     14542     14541     14544
     14543     14541     14544     14541     14544     14545     14541     14544     14546
     14541     14544     14547     14545     14544     14546     14545     14544     14547
     14546     14544     14547     14544     14547     14548     14544     14547     14549
     14544     14547     14550     14548     14547     14549     14548     14547     14550
     14549     14547     14550     14547     14550     14551     14547     14550     14552
     14547     14550     14553     14551     14550     14552     14551     14550     14553
     14552     14550     14553     14550     14553     14554     14550     14553     14555
     14550     14553     14556     14554     14553     14555     14554     14553     14556
     14555     14553     14556     14553     14556     14557     14553     14556     14558
     14553     14556     14559     14557     14556     14558     14557     14556     14559
     14558     14556     14559     14556     14559     14560     14556     14559     14561
     14556     14559     14562     14560     14559     14561     14560     14559     14562
     14561     14559     14562      5960      5959      5961      5960      5959      5963
      5960      5959      6005      5961      5959      5963      5961      5959      6005
      5963      5959      6005      5959      5961      5962      5959      5963      5964
      5959      5963      5965      5959      5963      5966      5964      5963      5965
      5964      5963      5966      5965      5963      5966      5963      5966      5967
      5963      5966      5997      5967      5966      5997      5966      5967      5968
      5966      5967      5969      5968      5967      5969      5967      5969      5970
      5967      5969      5971      5967      5969      5972      5970      5969      5971
      5970      5969      5972      5971      5969      5972      5969      5972      5973
      5969      5972      5974      5969      5972      5995      5973      5972      5974
      5973      5972      5995      5974      5972      5995      5972      5974      5975
      5972      5974      5976      5972      5974      5984      5975      5974      5976
      5975      5974      5984      5976      5974      5984      5974      5976      5977
      5974      5976      5978      5974      5976      5979      5977      5976      5978
      5977      5976      5979      5978      5976      5979      5976      5979      5980
      5976      5979      5981      5976      5979      5982      5980      5979      5981
      5980      5979      5982      5981      5979      5982      5979      5982      5983
      5979      5982      5984      5979      5982      6008      5983      5982      5984
      5983      5982      6008      5984      5982      6008      5974      5984      5982
      5974      5984      5985      5974      5984      5989      5982      5984      5985
      5982      5984      5989      5985      5984      5989      5984      5985      5986
      5984      5985      5987      5984      5985      5988      5986      5985      5987
      5986      5985      5988      5987      5985      5988      5984      5989      5990
      5984      5989      5991      5984      5989      5992      5990      5989      5991
      5990      5989      5992      5991      5989      5992      5989      5992      5993
      5989      5992      5994      5989      5992      5995      5993      5992      5994
      5993      5992      5995      5994      5992      5995      5972      5995      5992
      5972      5995      5996      5972      5995      5997      5992      5995      5996
      5992      5995      5997      5996      5995      5997      5966      5997      5995
      5966      5997      5998      5966      5997      6002      5995      5997      5998
      5995      5997      6002      5998      5997      6002      5997      5998      5999
      5997      5998      6000      5997      5998      6001      5999      5998      6000
      5999      5998      6001      6000      5998      6001      5997      6002      6003
      5997      6002      6004      5997      6002      6005      6003      6002      6004
      6003      6002      6005      6004      6002      6005      5959      6005      6002
      5959      6005      6006      5959      6005      6007      6002      6005      6006
      6002      6005      6007      6006      6005      6007      5982      6008      6009
      5982      6008      6010      5982      6008      6014      6009      6008      6010
      6009      6008      6014      6010      6008      6014      6008      6010      6011
      6008      6010      6012      6008      6010      6013      6011      6010      6012
      6011      6010      6013      6012      6010      6013      6008      6014      6015
      6008      6014      6016      6008      6014      6017      6015      6014      6016
      6015      6014      6017      6016      6014      6017      6014      6017      6018
      6014      6017      6019      6014      6017      6020      6018      6017      6019
      6018      6017      6020      6019      6017      6020      6017      6020      6021
      6017      6020      6022      6017      6020      6023      6021      6020      6022
      6021      6020      6023      6022      6020      6023      6020      6023      6024
      6020      6023      6025      6020      6023      6029      6024      6023      6025
      6024      6023      6029      6025      6023      6029      6023      6025      6026
      6023      6025      6027      6023      6025      6028      6026      6025      6027
      6026      6025      6028      6027      6025      6028      6023      6029      6030
      6023      6029      6031      6023      6029      6032      6030      6029      6031
      6030      6029      6032      6031      6029      6032     14564     14563     14565
     14564     14563     14566     14564     14563     14567     14565     14563     14566
     14565     14563     14567     14566     14563     14567     14563     14567     14568
     14563     14567     14569     14563     14567     14570     14568     14567     14569
     14568     14567     14570     14569     14567     14570     14567     14570     14571
     14567     14570     14572     14567     14570     14576     14571     14570     14572
     14571     14570     14576     14572     14570     14576     14574     14573     14575
     14574     14573     14576     14574     14573     14577     14575     14573     14576
     14575     14573     14577     14576     14573     14577     14570     14576     14573
     14573     14577     14578     14577     14578     14579     14577     14578     14580
     14577     14578     14581     14579     14578     14580     14579     14578     14581
     14580     14578     14581     14578     14581     14582     14578     14581     14583
     14578     14581     14589     14582     14581     14583     14582     14581     14589
     14583     14581     14589     14581     14583     14584     14583     14584     14585
     14583     14584     14586     14585     14584     14586     14584     14586     14587
     14584     14586     14588     14584     14586     14598     14587     14586     14588
     14587     14586     14598     14588     14586     14598     14581     14589     14590
     14581     14589     14591     14581     14589     14592     14590     14589     14591
     14590     14589     14592     14591     14589     14592     14589     14592     14593
     14592     14593     14594     14592     14593     14595     14594     14593     14595
     14593     14595     14596     14593     14595     14597     14593     14595     14645
     14596     14595     14597     14596     14595     14645     14597     14595     14645
     14586     14598     14599     14586     14598     14600     14586     14598     14601
     14599     14598     14600     14599     14598     14601     14600     14598     14601
     14598     14601     14602     14598     14601     14603     14598     14601     14604
     14602     14601     14603     14602     14601     14604     14603     14601     14604
     14601     14604     14605     14601     14604     14606     14605     14604     14606
     14604     14606     14607     14604     14606     14608     14607     14606     14608
     14606     14608     14609     14606     14608     14610     14606     14608     14611
     14609     14608     14610     14609     14608     14611     14610     14608     14611
     14608     14611     14612     14608     14611     14613     14612     14611     14613
     14611     14613     14614     14611     14613     14615     14614     14613     14615
     14613     14615     14616     14613     14615     14617     14613     14615     14618
     14616     14615     14617     14616     14615     14618     14617     14615     14618
     14615     14618     14619     14615     14618     14620     14619     14618     14620
     14618     14620     14621     14618     14620     14622     14621     14620     14622
     14620     14622     14623     14620     14622     14624     14620     14622     14625
     14623     14622     14624     14623     14622     14625     14624     14622     14625
     14622     14625     14626     14622     14625     14627     14626     14625     14627
     14625     14627     14628     14625     14627     14629     14628     14627     14629
     14627     14629     14630     14627     14629     14631     14627     14629     14632
     14630     14629     14631     14630     14629     14632     14631     14629     14632
     14629     14632     14633     14629     14632     14634     14629     14632     14635
     14633     14632     14634     14633     14632     14635     14634     14632     14635
     14632     14635     14636     14632     14635     14637     14632     14635     14638
     14636     14635     14637     14636     14635     14638     14637     14635     14638
     14635     14638     14639     14635     14638     14640     14635     14638     14641
     14639     14638     14640     14639     14638     14641     14640     14638     14641
     14638     14641     14642     14638     14641     14643     14638     14641     14644
     14642     14641     14643     14642     14641     14644     14643     14641     14644
     14595     14645     14646     14595     14645     14647     14595     14645     14648
     14646     14645     14647     14646     14645     14648     14647     14645     14648
     14645     14648     14649     14645     14648     14650     14645     14648     14651
     14649     14648     14650     14649     14648     14651     14650     14648     14651
     14648     14651     14652     14648     14651     14653     14648     14651     14654
     14652     14651     14653     14652     14651     14654     14653     14651     14654
     14651     14654     14655     14651     14654     14656     14651     14654     14657
     14655     14654     14656     14655     14654     14657     14656     14654     14657
     14654     14657     14658     14654     14657     14659     14654     14657     14660
     14658     14657     14659     14658     14657     14660     14659     14657     14660
     14657     14660     14661     14657     14660     14662     14657     14660     14663
     14661     14660     14662     14661     14660     14663     14662     14660     14663
     14660     14663     14664     14660     14663     14665     14660     14663     14666
     14664     14663     14665     14664     14663     14666     14665     14663     14666
     14663     14666     14667     14663     14666     14668     14663     14666     14669
     14667     14666     14668     14667     14666     14669     14668     14666     14669
     14666     14669     14670     14666     14669     14671     14666     14669     14672
     14670     14669     14671     14670     14669     14672     14671     14669     14672
     14669     14672     14673     14669     14672     14674     14669     14672     14675
     14673     14672     14674     14673     14672     14675     14674     14672     14675
     14672     14675     14676     14672     14675     14677     14672     14675     14678
     14676     14675     14677     14676     14675     14678     14677     14675     14678
     14675     14678     14679     14675     14678     14680     14675     14678     14681
     14679     14678     14680     14679     14678     14681     14680     14678     14681
     14678     14681     14682     14678     14681     14683     14678     14681     14684
     14682     14681     14683     14682     14681     14684     14683     14681     14684
     14681     14684     14685     14681     14684     14686     14681     14684     14687
     14685     14684     14686     14685     14684     14687     14686     14684     14687
     14684     14687     14688     14684     14687     14689     14684     14687     14690
     14688     14687     14689     14688     14687     14690     14689     14687     14690
     14687     14690     14691     14687     14690     14692     14687     14690     14693
     14691     14690     14692     14691     14690     14693     14692     14690     14693
     20114     20113     20118     20114     20113     20122     20114     20113     20126
     20118     20113     20122     20118     20113     20126     20122     20113     20126
     20113     20114     20115     20113     20114     20116     20113     20114     20117
     20115     20114     20116     20115     20114     20117     20116     20114     20117
     20113     20118     20119     20113     20118     20120     20113     20118     20121
     20119     20118     20120     20119     20118     20121     20120     20118     20121
     20113     20122     20123     20113     20122     20124     20113     20122     20125
     20123     20122     20124     20123     20122     20125     20124     20122     20125
     20113     20126     20127     20113     20126     20128     20113     20126     20129
     20127     20126     20128     20127     20126     20129     20128     20126     20129
     20126     20129     20130     20126     20129     20131     20126     20129     20135
     20130     20129     20131     20130     20129     20135     20131     20129     20135
     20133     20132     20134     20133     20132     20135     20133     20132     20136
     20134     20132     20135     20134     20132     20136     20135     20132     20136
     20129     20135     20132     20132     20136     20137     20136     20137     20138
     20136     20137     20139     20136     20137     20140     20138     20137     20139
     20138     20137     20140     20139     20137     20140     20137     20140     20141
     20137     20140     20142     20137     20140     20148     20141     20140     20142
     20141     20140     20148     20142     20140     20148     20140     20142     20143
     20142     20143     20144     20142     20143     20145     20144     20143     20145
     20143     20145     20146     20143     20145     20147     20143     20145     20157
     20146     20145     20147     20146     20145     20157     20147     20145     20157
     20140     20148     20149     20140     20148     20150     20140     20148     20151
     20149     20148     20150     20149     20148     20151     20150     20148     20151
     20148     20151     20152     20151     20152     20153     20151     20152     20154
     20153     20152     20154     20152     20154     20155     20152     20154     20156
     20152     20154     20202     20155     20154     20156     20155     20154     20202
     20156     20154     20202     20145     20157     20158     20145     20157     20159
     20145     20157     20160     20158     20157     20159     20158     20157     20160
     20159     20157     20160     20157     20160     20161     20157     20160     20162
     20157     20160     20163     20161     20160     20162     20161     20160     20163
     20162     20160     20163     20160     20163     20164     20160     20163     20165
     20160     20163     20166     20164     20163     20165     20164     20163     20166
     20165     20163     20166     20163     20166     20167     20163     20166     20168
     20163     20166     20169     20167     20166     20168     20167     20166     20169
     20168     20166     20169     20166     20169     20170     20166     20169     20171
     20166     20169     20172     20170     20169     20171     20170     20169     20172
     20171     20169     20172     20169     20172     20173     20169     20172     20174
     20169     20172     20175     20173     20172     20174     20173     20172     20175
     20174     20172     20175     20172     20175     20176     20172     20175     20177
     20176     20175     20177     20175     20177     20178     20175     20177     20179
     20178     20177     20179     20177     20179     20180     20177     20179     20181
     20177     20179     20182     20180     20179     20181     20180     20179     20182
     20181     20179     20182     20179     20182     20183     20179     20182     20184
     20183     20182     20184     20182     20184     20185     20182     20184     20186
     20185     20184     20186     20184     20186     20187     20184     20186     20188
     20184     20186     20189     20187     20186     20188     20187     20186     20189
     20188     20186     20189     20186     20189     20190     20186     20189     20191
     20186     20189     20192     20190     20189     20191     20190     20189     20192
     20191     20189     20192     20189     20192     20193     20189     20192     20194
     20189     20192     20195     20193     20192     20194     20193     20192     20195
     20194     20192     20195     20192     20195     20196     20192     20195     20197
     20192     20195     20198     20196     20195     20197     20196     20195     20198
     20197     20195     20198     20195     20198     20199     20195     20198     20200
     20195     20198     20201     20199     20198     20200     20199     20198     20201
     20200     20198     20201     20154     20202     20203     20154     20202     20204
     20154     20202     20205     20203     20202     20204     20203     20202     20205
     20204     20202     20205     20202     20205     20206     20202     20205     20207
     20202     20205     20208     20206     20205     20207     20206     20205     20208
     20207     20205     20208     20205     20208     20209     20205     20208     20210
     20205     20208     20211     20209     20208     20210     20209     20208     20211
     20210     20208     20211     20208     20211     20212     20208     20211     20213
     20208     20211     20214     20212     20211     20213     20212     20211     20214
     20213     20211     20214     20211     20214     20215     20211     20214     20216
     20211     20214     20217     20215     20214     20216     20215     20214     20217
     20216     20214     20217     20214     20217     20218     20214     20217     20219
     20214     20217     20220     20218     20217     20219     20218     20217     20220
     20219     20217     20220     20217     20220     20221     20217     20220     20222
     20217     20220     20223     20221     20220     20222     20221     20220     20223
     20222     20220     20223     20220     20223     20224     20220     20223     20225
     20220     20223     20226     20224     20223     20225     20224     20223     20226
     20225     20223     20226     20223     20226     20227     20223     20226     20228
     20223     20226     20229     20227     20226     20228     20227     20226     20229
     20228     20226     20229     20226     20229     20230     20226     20229     20231
     20226     20229     20232     20230     20229     20231     20230     20229     20232
     20231     20229     20232     20229     20232     20233     20229     20232     20234
     20229     20232     20235     20233     20232     20234     20233     20232     20235
     20234     20232     20235     20232     20235     20236     20232     20235     20237
     20232     20235     20238     20236     20235     20237     20236     20235     20238
     20237     20235     20238     20235     20238     20239     20235     20238     20240
     20235     20238     20241     20239     20238     20240     20239     20238     20241
     20240     20238     20241     20238     20241     20242     20238     20241     20243
     20238     20241     20244     20242     20241     20243     20242     20241     20244
     20243     20241     20244     20241     20244     20245     20241     20244     20246
     20241     20244     20247     20245     20244     20246     20245     20244     20247
     20246     20244     20247     20244     20247     20248     20244     20247     20249
     20244     20247     20250     20248     20247     20249     20248     20247     20250
     20249     20247     20250      9979      9978      9983      9979      9978      9987
      9979      9978      9991      9983      9978      9987      9983      9978      9991
      9987      9978      9991      9978      9979      9980      9978      9979      9981
      9978      9979      9982      9980      9979      9981      9980      9979      9982
      9981      9979      9982      9978      9983      9984      9978      9983      9985
      9978      9983      9986      9984      9983      9985      9984      9983      9986
      9985      9983      9986      9978      9987      9988      9978      9987      9989
      9978      9987      9990      9988      9987      9989      9988      9987      9990
      9989      9987      9990      9978      9991      9992      9978      9991      9993
      9978      9991      9994      9992      9991      9993      9992      9991      9994
      9993      9991      9994      9991      9994      9995      9991      9994      9996
      9991      9994     10001      9995      9994      9996      9995      9994     10001
      9996      9994     10001      9998      9997      9999      9998      9997     10000
      9998      9997     10001      9999      9997     10000      9999      9997     10001
     10000      9997     10001      9997     10000     10002      9994     10001      9997
     10000     10002     10003     10000     10002     10004     10000     10002     10007
     10003     10002     10004     10003     10002     10007     10004     10002     10007
     10006     10005     10007     10006     10005     10057     10007     10005     10057
     10002     10007     10005     10002     10007     10008     10002     10007     10009
     10005     10007     10008     10005     10007     10009     10008     10007     10009
     10007     10009     10010     10007     10009     10011     10007     10009     10013
     10010     10009     10011     10010     10009     10013     10011     10009     10013
     10009     10011     10012     10009     10013     10014     10009     10013     10015
     10014     10013     10015     10013     10015     10016     10013     10015     10017
     10016     10015     10017     10015     10017     10018     10015     10017     10019
     10015     10017     10020     10018     10017     10019     10018     10017     10020
     10019     10017     10020     10017     10020     10021     10017     10020     10022
     10017     10020     10023     10021     10020     10022     10021     10020     10023
     10022     10020     10023     10020     10023     10024     10020     10023     10025
     10020     10023     10026     10024     10023     10025     10024     10023     10026
     10025     10023     10026     10023     10026     10027     10023     10026     10028
     10023     10026     10029     10027     10026     10028     10027     10026     10029
     10028     10026     10029     10026     10029     10030     10026     10029     10031
     10026     10029     10032     10030     10029     10031     10030     10029     10032
     10031     10029     10032     10029     10032     10033     10029     10032     10034
     10029     10032     10035     10033     10032     10034     10033     10032     10035
     10034     10032     10035     10032     10035     10036     10032     10035     10037
     10032     10035     10038     10036     10035     10037     10036     10035     10038
     10037     10035     10038     10035     10038     10039     10035     10038     10040
     10035     10038     10041     10039     10038     10040     10039     10038     10041
     10040     10038     10041     10038     10041     10042     10038     10041     10043
     10038     10041     10044     10042     10041     10043     10042     10041     10044
     10043     10041     10044     10041     10044     10045     10041     10044     10046
     10041     10044     10047     10045     10044     10046     10045     10044     10047
     10046     10044     10047     10044     10047     10048     10044     10047     10049
     10044     10047     10050     10048     10047     10049     10048     10047     10050
     10049     10047     10050     10047     10050     10051     10047     10050     10052
     10047     10050     10053     10051     10050     10052     10051     10050     10053
     10052     10050     10053     10050     10053     10054     10050     10053     10055
     10050     10053     10056     10054     10053     10055     10054     10053     10056
     10055     10053     10056     10005     10057     10058     10005     10057     10059
     10058     10057     10059     10057     10059     10060     10057     10059     10061
     10057     10059     10062     10060     10059     10061     10060     10059     10062
     10061     10059     10062     10059     10062     10063     10059     10062     10064
     10059     10062     10065     10063     10062     10064     10063     10062     10065
     10064     10062     10065     10062     10065     10066     10062     10065     10067
     10062     10065     10068     10066     10065     10067     10066     10065     10068
     10067     10065     10068     10065     10068     10069     10065     10068     10070
     10065     10068     10071     10069     10068     10070     10069     10068     10071
     10070     10068     10071     10068     10071     10072     10068     10071     10073
     10068     10071     10074     10072     10071     10073     10072     10071     10074
     10073     10071     10074     10071     10074     10075     10071     10074     10076
     10071     10074     10077     10075     10074     10076     10075     10074     10077
     10076     10074     10077     10074     10077     10078     10074     10077     10079
     10074     10077     10080     10078     10077     10079     10078     10077     10080
     10079     10077     10080     10077     10080     10081     10077     10080     10082
     10081     10080     10082     10080     10082     10083     10080     10082     10084
     10083     10082     10084     10082     10084     10085     10082     10084     10086
     10082     10084     10087     10085     10084     10086     10085     10084     10087
     10086     10084     10087     10084     10087     10088     10084     10087     10089
     10084     10087     10090     10088     10087     10089     10088     10087     10090
     10089     10087     10090     10087     10090     10091     10087     10090     10092
     10087     10090     10093     10091     10090     10092     10091     10090     10093
     10092     10090     10093     10090     10093     10094     10090     10093     10095
     10090     10093     10096     10094     10093     10095     10094     10093     10096
     10095     10093     10096     10093     10096     10097     10093     10096     10098
     10093     10096     10099     10097     10096     10098     10097     10096     10099
     10098     10096     10099     10096     10099     10100     10096     10099     10101
     10096     10099     10102     10100     10099     10101     10100     10099     10102
     10101     10099     10102     10099     10102     10103     10099     10102     10104
     10099     10102     10105     10103     10102     10104     10103     10102     10105
     10104     10102     10105     10102     10105     10106     10102     10105     10107
     10102     10105     10108     10106     10105     10107     10106     10105     10108
     10107     10105     10108      6034      6033      6035      6034      6033      6037
      6034      6033      6079      6035      6033      6037      6035      6033      6079
      6037      6033      6079      6033      6035      6036      6033      6037      6038
      6033      6037      6039      6033      6037      6040      6038      6037      6039
      6038      6037      6040      6039      6037      6040      6037      6040      6041
      6037      6040      6071      6041      6040      6071      6040      6041      6042
      6040      6041      6043      6042      6041      6043      6041      6043      6044
      6041      6043      6045      6041      6043      6046      6044      6043      6045
      6044      6043      6046      6045      6043      6046      6043      6046      6047
      6043      6046      6048      6043      6046      6069      6047      6046      6048
      6047      6046      6069      6048      6046      6069      6046      6048      6049
      6046      6048      6050      6046      6048      6058      6049      6048      6050
      6049      6048      6058      6050      6048      6058      6048      6050      6051
      6048      6050      6052      6048      6050      6053      6051      6050      6052
      6051      6050      6053      6052      6050      6053      6050      6053      6054
      6050      6053      6055      6050      6053      6056      6054      6053      6055
      6054      6053      6056      6055      6053      6056      6053      6056      6057
      6053      6056      6058      6053      6056      6082      6057      6056      6058
      6057      6056      6082      6058      6056      6082      6048      6058      6056
      6048      6058      6059      6048      6058      6063      6056      6058      6059
      6056      6058      6063      6059      6058      6063      6058      6059      6060
      6058      6059      6061      6058      6059      6062      6060      6059      6061
      6060      6059      6062      6061      6059      6062      6058      6063      6064
      6058      6063      6065      6058      6063      6066      6064      6063      6065
      6064      6063      6066      6065      6063      6066      6063      6066      6067
      6063      6066      6068      6063      6066      6069      6067      6066      6068
      6067      6066      6069      6068      6066      6069      6046      6069      6066
      6046      6069      6070      6046      6069      6071      6066      6069      6070
      6066      6069      6071      6070      6069      6071      6040      6071      6069
      6040      6071      6072      6040      6071      6076      6069      6071      6072
      6069      6071      6076      6072      6071      6076      6071      6072      6073
      6071      6072      6074      6071      6072      6075      6073      6072      6074
      6073      6072      6075      6074      6072      6075      6071      6076      6077
      6071      6076      6078      6071      6076      6079      6077      6076      6078
      6077      6076      6079      6078      6076      6079      6033      6079      6076
      6033      6079      6080      6033      6079      6081      6076      6079      6080
      6076      6079      6081      6080      6079      6081      6056      6082      6083
      6056      6082      6084      6056      6082      6088      6083      6082      6084
      6083      6082      6088      6084      6082      6088      6082      6084      6085
      6082      6084      6086      6082      6084      6087      6085      6084      6086
      6085      6084      6087      6086      6084      6087      6082      6088      6089
      6082      6088      6090      6082      6088      6091      6089      6088      6090
      6089      6088      6091      6090      6088      6091      6088      6091      6092
      6088      6091      6093      6088      6091      6094      6092      6091      6093
      6092      6091      6094      6093      6091      6094      6091      6094      6095
      6091      6094      6096      6091      6094      6097      6095      6094      6096
      6095      6094      6097      6096      6094      6097      6094      6097      6098
      6094      6097      6099      6094      6097      6103      6098      6097      6099
      6098      6097      6103      6099      6097      6103      6097      6099      6100
      6097      6099      6101      6097      6099      6102      6100      6099      6101
      6100      6099      6102      6101      6099      6102      6097      6103      6104
      6097      6103      6105      6097      6103      6106      6104      6103      6105
      6104      6103      6106      6105      6103      6106     14695     14694     14696
     14695     14694     14697     14695     14694     14698     14696     14694     14697
     14696     14694     14698     14697     14694     14698     14694     14698     14699
     14694     14698     14700     14694     14698     14701     14699     14698     14700
     14699     14698     14701     14700     14698     14701     14698     14701     14702
     14698     14701     14703     14698     14701     14707     14702     14701     14703
     14702     14701     14707     14703     14701     14707     14705     14704     14706
     14705     14704     14707     14705     14704     14708     14706     14704     14707
     14706     14704     14708     14707     14704     14708     14701     14707     14704
     14704     14708     14709     14708     14709     14710     14708     14709     14711
     14708     14709     14712     14710     14709     14711     14710     14709     14712
     14711     14709     14712     14709     14712     14713     14709     14712     14714
     14709     14712     14720     14713     14712     14714     14713     14712     14720
     14714     14712     14720     14712     14714     14715     14714     14715     14716
     14714     14715     14717     14716     14715     14717     14715     14717     14718
     14715     14717     14719     14715     14717     14729     14718     14717     14719
     14718     14717     14729     14719     14717     14729     14712     14720     14721
     14712     14720     14722     14712     14720     14723     14721     14720     14722
     14721     14720     14723     14722     14720     14723     14720     14723     14724
     14723     14724     14725     14723     14724     14726     14725     14724     14726
     14724     14726     14727     14724     14726     14728     14724     14726     14776
     14727     14726     14728     14727     14726     14776     14728     14726     14776
     14717     14729     14730     14717     14729     14731     14717     14729     14732
     14730     14729     14731     14730     14729     14732     14731     14729     14732
     14729     14732     14733     14729     14732     14734     14729     14732     14735
     14733     14732     14734     14733     14732     14735     14734     14732     14735
     14732     14735     14736     14732     14735     14737     14736     14735     14737
     14735     14737     14738     14735     14737     14739     14738     14737     14739
     14737     14739     14740     14737     14739     14741     14737     14739     14742
     14740     14739     14741     14740     14739     14742     14741     14739     14742
     14739     14742     14743     14739     14742     14744     14743     14742     14744
     14742     14744     14745     14742     14744     14746     14745     14744     14746
     14744     14746     14747     14744     14746     14748     14744     14746     14749
     14747     14746     14748     14747     14746     14749     14748     14746     14749
     14746     14749     14750     14746     14749     14751     14750     14749     14751
     14749     14751     14752     14749     14751     14753     14752     14751     14753
     14751     14753     14754     14751     14753     14755     14751     14753     14756
     14754     14753     14755     14754     14753     14756     14755     14753     14756
     14753     14756     14757     14753     14756     14758     14757     14756     14758
     14756     14758     14759     14756     14758     14760     14759     14758     14760
     14758     14760     14761     14758     14760     14762     14758     14760     14763
     14761     14760     14762     14761     14760     14763     14762     14760     14763
     14760     14763     14764     14760     14763     14765     14760     14763     14766
     14764     14763     14765     14764     14763     14766     14765     14763     14766
     14763     14766     14767     14763     14766     14768     14763     14766     14769
     14767     14766     14768     14767     14766     14769     14768     14766     14769
     14766     14769     14770     14766     14769     14771     14766     14769     14772
     14770     14769     14771     14770     14769     14772     14771     14769     14772
     14769     14772     14773     14769     14772     14774     14769     14772     14775
     14773     14772     14774     14773     14772     14775     14774     14772     14775
     14726     14776     14777     14726     14776     14778     14726     14776     14779
     14777     14776     14778     14777     14776     14779     14778     14776     14779
     14776     14779     14780     14776     14779     14781     14776     14779     14782
     14780     14779     14781     14780     14779     14782     14781     14779     14782
     14779     14782     14783     14779     14782     14784     14779     14782     14785
     14783     14782     14784     14783     14782     14785     14784     14782     14785
     14782     14785     14786     14782     14785     14787     14782     14785     14788
     14786     14785     14787     14786     14785     14788     14787     14785     14788
     14785     14788     14789     14785     14788     14790     14785     14788     14791
     14789     14788     14790     14789     14788     14791     14790     14788     14791
     14788     14791     14792     14788     14791     14793     14788     14791     14794
     14792     14791     14793     14792     14791     14794     14793     14791     14794
     14791     14794     14795     14791     14794     14796     14791     14794     14797
     14795     14794     14796     14795     14794     14797     14796     14794     14797
     14794     14797     14798     14794     14797     14799     14794     14797     14800
     14798     14797     14799     14798     14797     14800     14799     14797     14800
     14797     14800     14801     14797     14800     14802     14797     14800     14803
     14801     14800     14802     14801     14800     14803     14802     14800     14803
     14800     14803     14804     14800     14803     14805     14800     14803     14806
     14804     14803     14805     14804     14803     14806     14805     14803     14806
     14803     14806     14807     14803     14806     14808     14803     14806     14809
     14807     14806     14808     14807     14806     14809     14808     14806     14809
     14806     14809     14810     14806     14809     14811     14806     14809     14812
     14810     14809     14811     14810     14809     14812     14811     14809     14812
     14809     14812     14813     14809     14812     14814     14809     14812     14815
     14813     14812     14814     14813     14812     14815     14814     14812     14815
     14812     14815     14816     14812     14815     14817     14812     14815     14818
     14816     14815     14817     14816     14815     14818     14817     14815     14818
     14815     14818     14819     14815     14818     14820     14815     14818     14821
     14819     14818     14820     14819     14818     14821     14820     14818     14821
     14818     14821     14822     14818     14821     14823     14818     14821     14824
     14822     14821     14823     14822     14821     14824     14823     14821     14824
     18101     18100     18102     18101     18100     18103     18101     18100     18104
     18102     18100     18103     18102     18100     18104     18103     18100     18104
     18100     18104     18105     18100     18104     18106     18100     18104     18107
     18105     18104     18106     18105     18104     18107     18106     18104     18107
     18104     18107     18108     18104     18107     18109     18104     18107     18113
     18108     18107     18109     18108     18107     18113     18109     18107     18113
     18111     18110     18112     18111     18110     18113     18111     18110     18114
     18112     18110     18113     18112     18110     18114     18113     18110     18114
     18107     18113     18110     18110     18114     18115     18114     18115     18116
     18114     18115     18117     18114     18115     18118     18116     18115     18117
     18116     18115     18118     18117     18115     18118     18115     18118     18119
     18115     18118     18120     18115     18118     18126     18119     18118     18120
     18119     18118     18126     18120     18118     18126     18118     18120     18121
     18120     18121     18122     18120     18121     18123     18122     18121     18123
     18121     18123     18124     18121     18123     18125     18121     18123     18135
     18124     18123     18125     18124     18123     18135     18125     18123     18135
     18118     18126     18127     18118     18126     18128     18118     18126     18129
     18127     18126     18128     18127     18126     18129     18128     18126     18129
     18126     18129     18130     18129     18130     18131     18129     18130     18132
     18131     18130     18132     18130     18132     18133     18130     18132     18134
     18130     18132     18182     18133     18132     18134     18133     18132     18182
     18134     18132     18182     18123     18135     18136     18123     18135     18137
     18123     18135     18138     18136     18135     18137     18136     18135     18138
     18137     18135     18138     18135     18138     18139     18135     18138     18140
     18135     18138     18141     18139     18138     18140     18139     18138     18141
     18140     18138     18141     18138     18141     18142     18138     18141     18143
     18138     18141     18144     18142     18141     18143     18142     18141     18144
     18143     18141     18144     18141     18144     18145     18141     18144     18146
     18141     18144     18147     18145     18144     18146     18145     18144     18147
     18146     18144     18147     18144     18147     18148     18144     18147     18149
     18144     18147     18150     18148     18147     18149     18148     18147     18150
     18149     18147     18150     18147     18150     18151     18147     18150     18152
     18147     18150     18153     18151     18150     18152     18151     18150     18153
     18152     18150     18153     18150     18153     18154     18150     18153     18155
     18154     18153     18155     18153     18155     18156     18153     18155     18157
     18156     18155     18157     18155     18157     18158     18155     18157     18159
     18155     18157     18160     18158     18157     18159     18158     18157     18160
     18159     18157     18160     18157     18160     18161     18157     18160     18162
     18157     18160     18163     18161     18160     18162     18161     18160     18163
     18162     18160     18163     18160     18163     18164     18160     18163     18165
     18160     18163     18166     18164     18163     18165     18164     18163     18166
     18165     18163     18166     18163     18166     18167     18163     18166     18168
     18163     18166     18169     18167     18166     18168     18167     18166     18169
     18168     18166     18169     18166     18169     18170     18166     18169     18171
     18166     18169     18172     18170     18169     18171     18170     18169     18172
     18171     18169     18172     18169     18172     18173     18169     18172     18174
     18169     18172     18175     18173     18172     18174     18173     18172     18175
     18174     18172     18175     18172     18175     18176     18172     18175     18177
     18172     18175     18178     18176     18175     18177     18176     18175     18178
     18177     18175     18178     18175     18178     18179     18175     18178     18180
     18175     18178     18181     18179     18178     18180     18179     18178     18181
     18180     18178     18181     18132     18182     18183     18132     18182     18184
     18132     18182     18185     18183     18182     18184     18183     18182     18185
     18184     18182     18185     18182     18185     18186     18182     18185     18187
     18182     18185     18188     18186     18185     18187     18186     18185     18188
     18187     18185     18188     18185     18188     18189     18185     18188     18190
     18185     18188     18191     18189     18188     18190     18189     18188     18191
     18190     18188     18191     18188     18191     18192     18188     18191     18193
     18188     18191     18194     18192     18191     18193     18192     18191     18194
     18193     18191     18194     18191     18194     18195     18191     18194     18196
     18191     18194     18197     18195     18194     18196     18195     18194     18197
     18196     18194     18197     18194     18197     18198     18194     18197     18199
     18194     18197     18200     18198     18197     18199     18198     18197     18200
     18199     18197     18200     18197     18200     18201     18197     18200     18202
     18197     18200     18203     18201     18200     18202     18201     18200     18203
     18202     18200     18203     18200     18203     18204     18200     18203     18205
     18200     18203     18206     18204     18203     18205     18204     18203     18206
     18205     18203     18206     18203     18206     18207     18203     18206     18208
     18203     18206     18209     18207     18206     18208     18207     18206     18209
     18208     18206     18209     18206     18209     18210     18206     18209     18211
     18206     18209     18212     18210     18209     18211     18210     18209     18212
     18211     18209     18212     18209     18212     18213     18209     18212     18214
     18209     18212     18215     18213     18212     18214     18213     18212     18215
     18214     18212     18215     18212     18215     18216     18212     18215     18217
     18212     18215     18218     18216     18215     18217     18216     18215     18218
     18217     18215     18218     18215     18218     18219     18215     18218     18220
     18215     18218     18221     18219     18218     18220     18219     18218     18221
     18220     18218     18221     18218     18221     18222     18218     18221     18223
     18218     18221     18224     18222     18221     18223     18222     18221     18224
     18223     18221     18224     18221     18224     18225     18221     18224     18226
     18221     18224     18227     18225     18224     18226     18225     18224     18227
     18226     18224     18227     18224     18227     18228     18224     18227     18229
     18224     18227     18230     18228     18227     18229     18228     18227     18230
     18229     18227     18230     20252     20251     20256     20252     20251     20260
     20252     20251     20264     20256     20251     20260     20256     20251     20264
     20260     20251     20264     20251     20252     20253     20251     20252     20254
     20251     20252     20255     20253     20252     20254     20253     20252     20255
     20254     20252     20255     20251     20256     20257     20251     20256     20258
     20251     20256     20259     20257     20256     20258     20257     20256     20259
     20258     20256     20259     20251     20260     20261     20251     20260     20262
     20251     20260     20263     20261     20260     20262     20261     20260     20263
     20262     20260     20263     20251     20264     20265     20251     20264     20266
     20251     20264     20267     20265     20264     20266     20265     20264     20267
     20266     20264     20267     20264     20267     20268     20264     20267     20269
     20264     20267     20273     20268     20267     20269     20268     20267     20273
     20269     20267     20273     20271     20270     20272     20271     20270     20273
     20271     20270     20274     20272     20270     20273     20272     20270     20274
     20273     20270     20274     20267     20273     20270     20270     20274     20275
     20274     20275     20276     20274     20275     20277     20274     20275     20278
     20276     20275     20277     20276     20275     20278     20277     20275     20278
     20275     20278     20279     20275     20278     20280     20275     20278     20286
     20279     20278     20280     20279     20278     20286     20280     20278     20286
     20278     20280     20281     20280     20281     20282     20280     20281     20283
     20282     20281     20283     20281     20283     20284     20281     20283     20285
     20281     20283     20295     20284     20283     20285     20284     20283     20295
     20285     20283     20295     20278     20286     20287     20278     20286     20288
     20278     20286     20289     20287     20286     20288     20287     20286     20289
     20288     20286     20289     20286     20289     20290     20289     20290     20291
     20289     20290     20292     20291     20290     20292     20290     20292     20293
     20290     20292     20294     20290     20292     20340     20293     20292     20294
     20293     20292     20340     20294     20292     20340     20283     20295     20296
     20283     20295     20297     20283     20295     20298     20296     20295     20297
     20296     20295     20298     20297     20295     20298     20295     20298     20299
     20295     20298     20300     20295     20298     20301     20299     20298     20300
     20299     20298     20301     20300     20298     20301     20298     20301     20302
     20298     20301     20303     20298     20301     20304     20302     20301     20303
     20302     20301     20304     20303     20301     20304     20301     20304     20305
     20301     20304     20306     20301     20304     20307     20305     20304     20306
     20305     20304     20307     20306     20304     20307     20304     20307     20308
     20304     20307     20309     20304     20307     20310     20308     20307     20309
     20308     20307     20310     20309     20307     20310     20307     20310     20311
     20307     20310     20312     20307     20310     20313     20311     20310     20312
     20311     20310     20313     20312     20310     20313     20310     20313     20314
     20310     20313     20315     20314     20313     20315     20313     20315     20316
     20313     20315     20317     20316     20315     20317     20315     20317     20318
     20315     20317     20319     20315     20317     20320     20318     20317     20319
     20318     20317     20320     20319     20317     20320     20317     20320     20321
     20317     20320     20322     20321     20320     20322     20320     20322     20323
     20320     20322     20324     20323     20322     20324     20322     20324     20325
     20322     20324     20326     20322     20324     20327     20325     20324     20326
     20325     20324     20327     20326     20324     20327     20324     20327     20328
     20324     20327     20329     20324     20327     20330     20328     20327     20329
     20328     20327     20330     20329     20327     20330     20327     20330     20331
     20327     20330     20332     20327     20330     20333     20331     20330     20332
     20331     20330     20333     20332     20330     20333     20330     20333     20334
     20330     20333     20335     20330     20333     20336     20334     20333     20335
     20334     20333     20336     20335     20333     20336     20333     20336     20337
     20333     20336     20338     20333     20336     20339     20337     20336     20338
     20337     20336     20339     20338     20336     20339     20292     20340     20341
     20292     20340     20342     20292     20340     20343     20341     20340     20342
     20341     20340     20343     20342     20340     20343     20340     20343     20344
     20340     20343     20345     20340     20343     20346     20344     20343     20345
     20344     20343     20346     20345     20343     20346     20343     20346     20347
     20343     20346     20348     20343     20346     20349     20347     20346     20348
     20347     20346     20349     20348     20346     20349     20346     20349     20350
     20346     20349     20351     20346     20349     20352     20350     20349     20351
     20350     20349     20352     20351     20349     20352     20349     20352     20353
     20349     20352     20354     20349     20352     20355     20353     20352     20354
     20353     20352     20355     20354     20352     20355     20352     20355     20356
     20352     20355     20357     20352     20355     20358     20356     20355     20357
     20356     20355     20358     20357     20355     20358     20355     20358     20359
     20355     20358     20360     20355     20358     20361     20359     20358     20360
     20359     20358     20361     20360     20358     20361     20358     20361     20362
     20358     20361     20363     20358     20361     20364     20362     20361     20363
     20362     20361     20364     20363     20361     20364     20361     20364     20365
     20361     20364     20366     20361     20364     20367     20365     20364     20366
     20365     20364     20367     20366     20364     20367     20364     20367     20368
     20364     20367     20369     20364     20367     20370     20368     20367     20369
     20368     20367     20370     20369     20367     20370     20367     20370     20371
     20367     20370     20372     20367     20370     20373     20371     20370     20372
     20371     20370     20373     20372     20370     20373     20370     20373     20374
     20370     20373     20375     20370     20373     20376     20374     20373     20375
     20374     20373     20376     20375     20373     20376     20373     20376     20377
     20373     20376     20378     20373     20376     20379     20377     20376     20378
     20377     20376     20379     20378     20376     20379     20376     20379     20380
     20376     20379     20381     20376     20379     20382     20380     20379     20381
     20380     20379     20382     20381     20379     20382     20379     20382     20383
     20379     20382     20384     20379     20382     20385     20383     20382     20384
     20383     20382     20385     20384     20382     20385     20382     20385     20386
     20382     20385     20387     20382     20385     20388     20386     20385     20387
     20386     20385     20388     20387     20385     20388     10110     10109     10114
     10110     10109     10118     10110     10109     10122     10114     10109     10118
     10114     10109     10122     10118     10109     10122     10109     10110     10111
     10109     10110     10112     10109     10110     10113     10111     10110     10112
     10111     10110     10113     10112     10110     10113     10109     10114     10115
     10109     10114     10116     10109     10114     10117     10115     10114     10116
     10115     10114     10117     10116     10114     10117     10109     10118     10119
     10109     10118     10120     10109     10118     10121     10119     10118     10120
     10119     10118     10121     10120     10118     10121     10109     10122     10123
     10109     10122     10124     10109     10122     10125     10123     10122     10124
     10123     10122     10125     10124     10122     10125     10122     10125     10126
     10122     10125     10127     10122     10125     10132     10126     10125     10127
     10126     10125     10132     10127     10125     10132     10129     10128     10130
     10129     10128     10131     10129     10128     10132     10130     10128     10131
     10130     10128     10132     10131     10128     10132     10128     10131     10133
     10125     10132     10128     10131     10133     10134     10131     10133     10135
     10131     10133     10138     10134     10133     10135     10134     10133     10138
     10135     10133     10138     10137     10136     10138     10137     10136     10188
     10138     10136     10188     10133     10138     10136     10133     10138     10139
     10133     10138     10140     10136     10138     10139     10136     10138     10140
     10139     10138     10140     10138     10140     10141     10138     10140     10142
     10138     10140     10144     10141     10140     10142     10141     10140     10144
     10142     10140     10144     10140     10142     10143     10140     10144     10145
     10140     10144     10146     10145     10144     10146     10144     10146     10147
     10144     10146     10148     10147     10146     10148     10146     10148     10149
     10146     10148     10150     10146     10148     10151     10149     10148     10150
     10149     10148     10151     10150     10148     10151     10148     10151     10152
     10148     10151     10153     10148     10151     10154     10152     10151     10153
     10152     10151     10154     10153     10151     10154     10151     10154     10155
     10151     10154     10156     10151     10154     10157     10155     10154     10156
     10155     10154     10157     10156     10154     10157     10154     10157     10158
     10154     10157     10159     10154     10157     10160     10158     10157     10159
     10158     10157     10160     10159     10157     10160     10157     10160     10161
     10157     10160     10162     10157     10160     10163     10161     10160     10162
     10161     10160     10163     10162     10160     10163     10160     10163     10164
     10160     10163     10165     10160     10163     10166     10164     10163     10165
     10164     10163     10166     10165     10163     10166     10163     10166     10167
     10163     10166     10168     10163     10166     10169     10167     10166     10168
     10167     10166     10169     10168     10166     10169     10166     10169     10170
     10166     10169     10171     10166     10169     10172     10170     10169     10171
     10170     10169     10172     10171     10169     10172     10169     10172     10173
     10169     10172     10174     10169     10172     10175     10173     10172     10174
     10173     10172     10175     10174     10172     10175     10172     10175     10176
     10172     10175     10177     10172     10175     10178     10176     10175     10177
     10176     10175     10178     10177     10175     10178     10175     10178     10179
     10175     10178     10180     10175     10178     10181     10179     10178     10180
     10179     10178     10181     10180     10178     10181     10178     10181     10182
     10178     10181     10183     10178     10181     10184     10182     10181     10183
     10182     10181     10184     10183     10181     10184     10181     10184     10185
     10181     10184     10186     10181     10184     10187     10185     10184     10186
     10185     10184     10187     10186     10184     10187     10136     10188     10189
     10136     10188     10190     10189     10188     10190     10188     10190     10191
     10188     10190     10192     10188     10190     10193     10191     10190     10192
     10191     10190     10193     10192     10190     10193     10190     10193     10194
     10190     10193     10195     10190     10193     10196     10194     10193     10195
     10194     10193     10196     10195     10193     10196     10193     10196     10197
     10193     10196     10198     10193     10196     10199     10197     10196     10198
     10197     10196     10199     10198     10196     10199     10196     10199     10200
     10196     10199     10201     10196     10199     10202     10200     10199     10201
     10200     10199     10202     10201     10199     10202     10199     10202     10203
     10199     10202     10204     10199     10202     10205     10203     10202     10204
     10203     10202     10205     10204     10202     10205     10202     10205     10206
     10202     10205     10207     10202     10205     10208     10206     10205     10207
     10206     10205     10208     10207     10205     10208     10205     10208     10209
     10205     10208     10210     10205     10208     10211     10209     10208     10210
     10209     10208     10211     10210     10208     10211     10208     10211     10212
     10208     10211     10213     10212     10211     10213     10211     10213     10214
     10211     10213     10215     10214     10213     10215     10213     10215     10216
     10213     10215     10217     10213     10215     10218     10216     10215     10217
     10216     10215     10218     10217     10215     10218     10215     10218     10219
     10215     10218     10220     10215     10218     10221     10219     10218     10220
     10219     10218     10221     10220     10218     10221     10218     10221     10222
     10218     10221     10223     10218     10221     10224     10222     10221     10223
     10222     10221     10224     10223     10221     10224     10221     10224     10225
     10221     10224     10226     10221     10224     10227     10225     10224     10226
     10225     10224     10227     10226     10224     10227     10224     10227     10228
     10224     10227     10229     10224     10227     10230     10228     10227     10229
     10228     10227     10230     10229     10227     10230     10227     10230     10231
     10227     10230     10232     10227     10230     10233     10231     10230     10232
     10231     10230     10233     10232     10230     10233     10230     10233     10234
     10230     10233     10235     10230     10233     10236     10234     10233     10235
     10234     10233     10236     10235     10233     10236     10233     10236     10237
     10233     10236     10238     10233     10236     10239     10237     10236     10238
     10237     10236     10239     10238     10236     10239     10241     10240     10245
     10241     10240     10249     10241     10240     10253     10245     10240     10249
     10245     10240     10253     10249     10240     10253     10240     10241     10242
     10240     10241     10243     10240     10241     10244     10242     10241     10243
     10242     10241     10244     10243     10241     10244     10240     10245     10246
     10240     10245     10247     10240     10245     10248     10246     10245     10247
     10246     10245     10248     10247     10245     10248     10240     10249     10250
     10240     10249     10251     10240     10249     10252     10250     10249     10251
     10250     10249     10252     10251     10249     10252     10240     10253     10254
     10240     10253     10255     10240     10253     10256     10254     10253     10255
     10254     10253     10256     10255     10253     10256     10253     10256     10257
     10253     10256     10258     10253     10256     10263     10257     10256     10258
     10257     10256     10263     10258     10256     10263     10260     10259     10261
     10260     10259     10262     10260     10259     10263     10261     10259     10262
     10261     10259     10263     10262     10259     10263     10259     10262     10264
     10256     10263     10259     10262     10264     10265     10262     10264     10266
     10262     10264     10269     10265     10264     10266     10265     10264     10269
     10266     10264     10269     10268     10267     10269     10268     10267     10319
     10269     10267     10319     10264     10269     10267     10264     10269     10270
     10264     10269     10271     10267     10269     10270     10267     10269     10271
     10270     10269     10271     10269     10271     10272     10269     10271     10273
     10269     10271     10275     10272     10271     10273     10272     10271     10275
     10273     10271     10275     10271     10273     10274     10271     10275     10276
     10271     10275     10277     10276     10275     10277     10275     10277     10278
     10275     10277     10279     10278     10277     10279     10277     10279     10280
     10277     10279     10281     10277     10279     10282     10280     10279     10281
     10280     10279     10282     10281     10279     10282     10279     10282     10283
     10279     10282     10284     10279     10282     10285     10283     10282     10284
     10283     10282     10285     10284     10282     10285     10282     10285     10286
     10282     10285     10287     10282     10285     10288     10286     10285     10287
     10286     10285     10288     10287     10285     10288     10285     10288     10289
     10285     10288     10290     10285     10288     10291     10289     10288     10290
     10289     10288     10291     10290     10288     10291     10288     10291     10292
     10288     10291     10293     10288     10291     10294     10292     10291     10293
     10292     10291     10294     10293     10291     10294     10291     10294     10295
     10291     10294     10296     10291     10294     10297     10295     10294     10296
     10295     10294     10297     10296     10294     10297     10294     10297     10298
     10294     10297     10299     10294     10297     10300     10298     10297     10299
     10298     10297     10300     10299     10297     10300     10297     10300     10301
     10297     10300     10302     10297     10300     10303     10301     10300     10302
     10301     10300     10303     10302     10300     10303     10300     10303     10304
     10300     10303     10305     10300     10303     10306     10304     10303     10305
     10304     10303     10306     10305     10303     10306     10303     10306     10307
     10303     10306     10308     10303     10306     10309     10307     10306     10308
     10307     10306     10309     10308     10306     10309     10306     10309     10310
     10306     10309     10311     10306     10309     10312     10310     10309     10311
     10310     10309     10312     10311     10309     10312     10309     10312     10313
     10309     10312     10314     10309     10312     10315     10313     10312     10314
     10313     10312     10315     10314     10312     10315     10312     10315     10316
     10312     10315     10317     10312     10315     10318     10316     10315     10317
     10316     10315     10318     10317     10315     10318     10267     10319     10320
     10267     10319     10321     10320     10319     10321     10319     10321     10322
     10319     10321     10323     10319     10321     10324     10322     10321     10323
     10322     10321     10324     10323     10321     10324     10321     10324     10325
     10321     10324     10326     10321     10324     10327     10325     10324     10326
     10325     10324     10327     10326     10324     10327     10324     10327     10328
     10324     10327     10329     10324     10327     10330     10328     10327     10329
     10328     10327     10330     10329     10327     10330     10327     10330     10331
     10327     10330     10332     10327     10330     10333     10331     10330     10332
     10331     10330     10333     10332     10330     10333     10330     10333     10334
     10330     10333     10335     10330     10333     10336     10334     10333     10335
     10334     10333     10336     10335     10333     10336     10333     10336     10337
     10333     10336     10338     10333     10336     10339     10337     10336     10338
     10337     10336     10339     10338     10336     10339     10336     10339     10340
     10336     10339     10341     10336     10339     10342     10340     10339     10341
     10340     10339     10342     10341     10339     10342     10339     10342     10343
     10339     10342     10344     10343     10342     10344     10342     10344     10345
     10342     10344     10346     10345     10344     10346     10344     10346     10347
     10344     10346     10348     10344     10346     10349     10347     10346     10348
     10347     10346     10349     10348     10346     10349     10346     10349     10350
     10346     10349     10351     10346     10349     10352     10350     10349     10351
     10350     10349     10352     10351     10349     10352     10349     10352     10353
     10349     10352     10354     10349     10352     10355     10353     10352     10354
     10353     10352     10355     10354     10352     10355     10352     10355     10356
     10352     10355     10357     10352     10355     10358     10356     10355     10357
     10356     10355     10358     10357     10355     10358     10355     10358     10359
     10355     10358     10360     10355     10358     10361     10359     10358     10360
     10359     10358     10361     10360     10358     10361     10358     10361     10362
     10358     10361     10363     10358     10361     10364     10362     10361     10363
     10362     10361     10364     10363     10361     10364     10361     10364     10365
     10361     10364     10366     10361     10364     10367     10365     10364     10366
     10365     10364     10367     10366     10364     10367     10364     10367     10368
     10364     10367     10369     10364     10367     10370     10368     10367     10369
     10368     10367     10370     10369     10367     10370       268       267       269
       268       267       270       268       267       271       269       267       270
       269       267       271       270       267       271       267       271       272
       267       271       273       267       271       276       272       271       273
       272       271       276       273       271       276       271       273       274
       271       273       275       274       273       275       271       276       277
       271       276       278       271       276       282       277       276       278
       277       276       282       278       276       282       280       279       281
       280       279       282       280       279       283       281       279       282
       281       279       283       282       279       283       276       282       279
       279       283       284       283       284       285       283       284       286
       283       284       287       285       284       286       285       284       287
       286       284       287       284       287       288       284       287       289
       284       287       295       288       287       289       288       287       295
       289       287       295       287       289       290       289       290       291
       289       290       292       291       290       292       290       292       293
       290       292       294       290       292       304       293       292       294
       293       292       304       294       292       304       287       295       296
       287       295       297       287       295       298       296       295       297
       296       295       298       297       295       298       295       298       299
       298       299       300       298       299       301       300       299       301
       299       301       302       299       301       303       299       301       351
       302       301       303       302       301       351       303       301       351
       292       304       305       292       304       306       292       304       307
       305       304       306       305       304       307       306       304       307
       304       307       308       304       307       309       304       307       310
       308       307       309       308       307       310       309       307       310
       307       310       311       307       310       312       311       310       312
       310       312       313       310       312       314       313       312       314
       312       314       315       312       314       316       312       314       317
       315       314       316       315       314       317       316       314       317
       314       317       318       314       317       319       318       317       319
       317       319       320       317       319       321       320       319       321
       319       321       322       319       321       323       319       321       324
       322       321       323       322       321       324       323       321       324
       321       324       325       321       324       326       325       324       326
       324       326       327       324       326       328       327       326       328
       326       328       329       326       328       330       326       328       331
       329       328       330       329       328       331       330       328       331
       328       331       332       328       331       333       332       331       333
       331       333       334       331       333       335       334       333       335
       333       335       336       333       335       337       333       335       338
       336       335       337       336       335       338       337       335       338
       335       338       339       335       338       340       335       338       341
       339       338       340       339       338       341       340       338       341
       338       341       342       338       341       343       338       341       344
       342       341       343       342       341       344       343       341       344
       341       344       345       341       344       346       341       344       347
       345       344       346       345       344       347       346       344       347
       344       347       348       344       347       349       344       347       350
       348       347       349       348       347       350       349       347       350
       301       351       352       301       351       353       301       351       354
       352       351       353       352       351       354       353       351       354
       351       354       355       351       354       356       351       354       357
       355       354       356       355       354       357       356       354       357
       354       357       358       354       357       359       354       357       360
       358       357       359       358       357       360       359       357       360
       357       360       361       357       360       362       357       360       363
       361       360       362       361       360       363       362       360       363
       360       363       364       360       363       365       360       363       366
       364       363       365       364       363       366       365       363       366
       363       366       367       363       366       368       363       366       369
       367       366       368       367       366       369       368       366       369
       366       369       370       366       369       371       366       369       372
       370       369       371       370       369       372       371       369       372
       369       372       373       369       372       374       369       372       375
       373       372       374       373       372       375       374       372       375
       372       375       376       372       375       377       372       375       378
       376       375       377       376       375       378       377       375       378
       375       378       379       375       378       380       375       378       381
       379       378       380       379       378       381       380       378       381
       378       381       382       378       381       383       378       381       384
       382       381       383       382       381       384       383       381       384
       381       384       385       381       384       386       381       384       387
       385       384       386       385       384       387       386       384       387
       384       387       388       384       387       389       384       387       390
       388       387       389       388       387       390       389       387       390
       387       390       391       387       390       392       387       390       393
       391       390       392       391       390       393       392       390       393
       390       393       394       390       393       395       390       393       396
       394       393       395       394       393       396       395       393       396
       393       396       397       393       396       398       393       396       399
       397       396       398       397       396       399       398       396       399
     20390     20389     20394     20390     20389     20398     20390     20389     20402
     20394     20389     20398     20394     20389     20402     20398     20389     20402
     20389     20390     20391     20389     20390     20392     20389     20390     20393
     20391     20390     20392     20391     20390     20393     20392     20390     20393
     20389     20394     20395     20389     20394     20396     20389     20394     20397
     20395     20394     20396     20395     20394     20397     20396     20394     20397
     20389     20398     20399     20389     20398     20400     20389     20398     20401
     20399     20398     20400     20399     20398     20401     20400     20398     20401
     20389     20402     20403     20389     20402     20404     20389     20402     20405
     20403     20402     20404     20403     20402     20405     20404     20402     20405
     20402     20405     20406     20402     20405     20407     20402     20405     20411
     20406     20405     20407     20406     20405     20411     20407     20405     20411
     20409     20408     20410     20409     20408     20411     20409     20408     20412
     20410     20408     20411     20410     20408     20412     20411     20408     20412
     20405     20411     20408     20408     20412     20413     20412     20413     20414
     20412     20413     20415     20412     20413     20416     20414     20413     20415
     20414     20413     20416     20415     20413     20416     20413     20416     20417
     20413     20416     20418     20413     20416     20424     20417     20416     20418
     20417     20416     20424     20418     20416     20424     20416     20418     20419
     20418     20419     20420     20418     20419     20421     20420     20419     20421
     20419     20421     20422     20419     20421     20423     20419     20421     20433
     20422     20421     20423     20422     20421     20433     20423     20421     20433
     20416     20424     20425     20416     20424     20426     20416     20424     20427
     20425     20424     20426     20425     20424     20427     20426     20424     20427
     20424     20427     20428     20427     20428     20429     20427     20428     20430
     20429     20428     20430     20428     20430     20431     20428     20430     20432
     20428     20430     20478     20431     20430     20432     20431     20430     20478
     20432     20430     20478     20421     20433     20434     20421     20433     20435
     20421     20433     20436     20434     20433     20435     20434     20433     20436
     20435     20433     20436     20433     20436     20437     20433     20436     20438
     20433     20436     20439     20437     20436     20438     20437     20436     20439
     20438     20436     20439     20436     20439     20440     20436     20439     20441
     20436     20439     20442     20440     20439     20441     20440     20439     20442
     20441     20439     20442     20439     20442     20443     20439     20442     20444
     20439     20442     20445     20443     20442     20444     20443     20442     20445
     20444     20442     20445     20442     20445     20446     20442     20445     20447
     20442     20445     20448     20446     20445     20447     20446     20445     20448
     20447     20445     20448     20445     20448     20449     20445     20448     20450
     20445     20448     20451     20449     20448     20450     20449     20448     20451
     20450     20448     20451     20448     20451     20452     20448     20451     20453
     20452     20451     20453     20451     20453     20454     20451     20453     20455
     20454     20453     20455     20453     20455     20456     20453     20455     20457
     20453     20455     20458     20456     20455     20457     20456     20455     20458
     20457     20455     20458     20455     20458     20459     20455     20458     20460
     20459     20458     20460     20458     20460     20461     20458     20460     20462
     20461     20460     20462     20460     20462     20463     20460     20462     20464
     20460     20462     20465     20463     20462     20464     20463     20462     20465
     20464     20462     20465     20462     20465     20466     20462     20465     20467
     20462     20465     20468     20466     20465     20467     20466     20465     20468
     20467     20465     20468     20465     20468     20469     20465     20468     20470
     20465     20468     20471     20469     20468     20470     20469     20468     20471
     20470     20468     20471     20468     20471     20472     20468     20471     20473
     20468     20471     20474     20472     20471     20473     20472     20471     20474
     20473     20471     20474     20471     20474     20475     20471     20474     20476
     20471     20474     20477     20475     20474     20476     20475     20474     20477
     20476     20474     20477     20430     20478     20479     20430     20478     20480
     20430     20478     20481     20479     20478     20480     20479     20478     20481
     20480     20478     20481     20478     20481     20482     20478     20481     20483
     20478     20481     20484     20482     20481     20483     20482     20481     20484
     20483     20481     20484     20481     20484     20485     20481     20484     20486
     20481     20484     20487     20485     20484     20486     20485     20484     20487
     20486     20484     20487     20484     20487     20488     20484     20487     20489
     20484     20487     20490     20488     20487     20489     20488     20487     20490
     20489     20487     20490     20487     20490     20491     20487     20490     20492
     20487     20490     20493     20491     20490     20492     20491     20490     20493
     20492     20490     20493     20490     20493     20494     20490     20493     20495
     20490     20493     20496     20494     20493     20495     20494     20493     20496
     20495     20493     20496     20493     20496     20497     20493     20496     20498
     20493     20496     20499     20497     20496     20498     20497     20496     20499
     20498     20496     20499     20496     20499     20500     20496     20499     20501
     20496     20499     20502     20500     20499     20501     20500     20499     20502
     20501     20499     20502     20499     20502     20503     20499     20502     20504
     20499     20502     20505     20503     20502     20504     20503     20502     20505
     20504     20502     20505     20502     20505     20506     20502     20505     20507
     20502     20505     20508     20506     20505     20507     20506     20505     20508
     20507     20505     20508     20505     20508     20509     20505     20508     20510
     20505     20508     20511     20509     20508     20510     20509     20508     20511
     20510     20508     20511     20508     20511     20512     20508     20511     20513
     20508     20511     20514     20512     20511     20513     20512     20511     20514
     20513     20511     20514     20511     20514     20515     20511     20514     20516
     20511     20514     20517     20515     20514     20516     20515     20514     20517
     20516     20514     20517     20514     20517     20518     20514     20517     20519
     20514     20517     20520     20518     20517     20519     20518     20517     20520
     20519     20517     20520     20517     20520     20521     20517     20520     20522
     20517     20520     20523     20521     20520     20522     20521     20520     20523
     20522     20520     20523     20520     20523     20524     20520     20523     20525
     20520     20523     20526     20524     20523     20525     20524     20523     20526
     20525     20523     20526     18232     18231     18233     18232     18231     18234
     18232     18231     18235     18233     18231     18234     18233     18231     18235
     18234     18231     18235     18231     18235     18236     18231     18235     18237
     18231     18235     18238     18236     18235     18237     18236     18235     18238
     18237     18235     18238     18235     18238     18239     18235     18238     18240
     18235     18238     18244     18239     18238     18240     18239     18238     18244
     18240     18238     18244     18242     18241     18243     18242     18241     18244
     18242     18241     18245     18243     18241     18244     18243     18241     18245
     18244     18241     18245     18238     18244     18241     18241     18245     18246
     18245     18246     18247     18245     18246     18248     18245     18246     18249
     18247     18246     18248     18247     18246     18249     18248     18246     18249
     18246     18249     18250     18246     18249     18251     18246     18249     18257
     18250     18249     18251     18250     18249     18257     18251     18249     18257
     18249     18251     18252     18251     18252     18253     18251     18252     18254
     18253     18252     18254     18252     18254     18255     18252     18254     18256
     18252     18254     18266     18255     18254     18256     18255     18254     18266
     18256     18254     18266     18249     18257     18258     18249     18257     18259
     18249     18257     18260     18258     18257     18259     18258     18257     18260
     18259     18257     18260     18257     18260     18261     18260     18261     18262
     18260     18261     18263     18262     18261     18263     18261     18263     18264
     18261     18263     18265     18261     18263     18313     18264     18263     18265
     18264     18263     18313     18265     18263     18313     18254     18266     18267
     18254     18266     18268     18254     18266     18269     18267     18266     18268
     18267     18266     18269     18268     18266     18269     18266     18269     18270
     18266     18269     18271     18266     18269     18272     18270     18269     18271
     18270     18269     18272     18271     18269     18272     18269     18272     18273
     18269     18272     18274     18269     18272     18275     18273     18272     18274
     18273     18272     18275     18274     18272     18275     18272     18275     18276
     18272     18275     18277     18272     18275     18278     18276     18275     18277
     18276     18275     18278     18277     18275     18278     18275     18278     18279
     18275     18278     18280     18275     18278     18281     18279     18278     18280
     18279     18278     18281     18280     18278     18281     18278     18281     18282
     18278     18281     18283     18278     18281     18284     18282     18281     18283
     18282     18281     18284     18283     18281     18284     18281     18284     18285
     18281     18284     18286     18285     18284     18286     18284     18286     18287
     18284     18286     18288     18287     18286     18288     18286     18288     18289
     18286     18288     18290     18286     18288     18291     18289     18288     18290
     18289     18288     18291     18290     18288     18291     18288     18291     18292
     18288     18291     18293     18288     18291     18294     18292     18291     18293
     18292     18291     18294     18293     18291     18294     18291     18294     18295
     18291     18294     18296     18291     18294     18297     18295     18294     18296
     18295     18294     18297     18296     18294     18297     18294     18297     18298
     18294     18297     18299     18294     18297     18300     18298     18297     18299
     18298     18297     18300     18299     18297     18300     18297     18300     18301
     18297     18300     18302     18297     18300     18303     18301     18300     18302
     18301     18300     18303     18302     18300     18303     18300     18303     18304
     18300     18303     18305     18300     18303     18306     18304     18303     18305
     18304     18303     18306     18305     18303     18306     18303     18306     18307
     18303     18306     18308     18303     18306     18309     18307     18306     18308
     18307     18306     18309     18308     18306     18309     18306     18309     18310
     18306     18309     18311     18306     18309     18312     18310     18309     18311
     18310     18309     18312     18311     18309     18312     18263     18313     18314
     18263     18313     18315     18263     18313     18316     18314     18313     18315
     18314     18313     18316     18315     18313     18316     18313     18316     18317
     18313     18316     18318     18313     18316     18319     18317     18316     18318
     18317     18316     18319     18318     18316     18319     18316     18319     18320
     18316     18319     18321     18316     18319     18322     18320     18319     18321
     18320     18319     18322     18321     18319     18322     18319     18322     18323
     18319     18322     18324     18319     18322     18325     18323     18322     18324
     18323     18322     18325     18324     18322     18325     18322     18325     18326
     18322     18325     18327     18322     18325     18328     18326     18325     18327
     18326     18325     18328     18327     18325     18328     18325     18328     18329
     18325     18328     18330     18325     18328     18331     18329     18328     18330
     18329     18328     18331     18330     18328     18331     18328     18331     18332
     18328     18331     18333     18328     18331     18334     18332     18331     18333
     18332     18331     18334     18333     18331     18334     18331     18334     18335
     18331     18334     18336     18331     18334     18337     18335     18334     18336
     18335     18334     18337     18336     18334     18337     18334     18337     18338
     18334     18337     18339     18334     18337     18340     18338     18337     18339
     18338     18337     18340     18339     18337     18340     18337     18340     18341
     18337     18340     18342     18337     18340     18343     18341     18340     18342
     18341     18340     18343     18342     18340     18343     18340     18343     18344
     18340     18343     18345     18340     18343     18346     18344     18343     18345
     18344     18343     18346     18345     18343     18346     18343     18346     18347
     18343     18346     18348     18343     18346     18349     18347     18346     18348
     18347     18346     18349     18348     18346     18349     18346     18349     18350
     18346     18349     18351     18346     18349     18352     18350     18349     18351
     18350     18349     18352     18351     18349     18352     18349     18352     18353
     18349     18352     18354     18349     18352     18355     18353     18352     18354
     18353     18352     18355     18354     18352     18355     18352     18355     18356
     18352     18355     18357     18352     18355     18358     18356     18355     18357
     18356     18355     18358     18357     18355     18358     18355     18358     18359
     18355     18358     18360     18355     18358     18361     18359     18358     18360
     18359     18358     18361     18360     18358     18361     19685     19684     19686
     19685     19684     19688     19685     19684     19704     19686     19684     19688
     19686     19684     19704     19688     19684     19704     19684     19686     19687
     19684     19688     19689     19684     19688     19690     19684     19688     19692
     19689     19688     19690     19689     19688     19692     19690     19688     19692
     19688     19690     19691     19688     19692     19693     19688     19692     19694
     19688     19692     19696     19693     19692     19694     19693     19692     19696
     19694     19692     19696     19692     19694     19695     19692     19696     19697
     19692     19696     19698     19692     19696     19700     19697     19696     19698
     19697     19696     19700     19698     19696     19700     19696     19698     19699
     19696     19700     19701     19696     19700     19702     19696     19700     19704
     19701     19700     19702     19701     19700     19704     19702     19700     19704
     19700     19702     19703     19684     19704     19700     19684     19704     19705
     19684     19704     19709     19700     19704     19705     19700     19704     19709
     19705     19704     19709     19707     19706     19708     19707     19706     19709
     19707     19706     19710     19708     19706     19709     19708     19706     19710
     19709     19706     19710     19704     19709     19706     19706     19710     19711
     19710     19711     19712     19710     19711     19713     19710     19711     19714
     19712     19711     19713     19712     19711     19714     19713     19711     19714
     19711     19714     19715     19711     19714     19716     19711     19714     19722
     19715     19714     19716     19715     19714     19722     19716     19714     19722
     19714     19716     19717     19716     19717     19718     19716     19717     19719
     19718     19717     19719     19717     19719     19720     19717     19719     19721
     19717     19719     19731     19720     19719     19721     19720     19719     19731
     19721     19719     19731     19714     19722     19723     19714     19722     19724
     19714     19722     19725     19723     19722     19724     19723     19722     19725
     19724     19722     19725     19722     19725     19726     19725     19726     19727
     19725     19726     19728     19727     19726     19728     19726     19728     19729
     19726     19728     19730     19726     19728     19778     19729     19728     19730
     19729     19728     19778     19730     19728     19778     19719     19731     19732
     19719     19731     19733     19719     19731     19734     19732     19731     19733
     19732     19731     19734     19733     19731     19734     19731     19734     19735
     19731     19734     19736     19731     19734     19737     19735     19734     19736
     19735     19734     19737     19736     19734     19737     19734     19737     19738
     19734     19737     19739     19738     19737     19739     19737     19739     19740
     19737     19739     19741     19740     19739     19741     19739     19741     19742
     19739     19741     19743     19739     19741     19744     19742     19741     19743
     19742     19741     19744     19743     19741     19744     19741     19744     19745
     19741     19744     19746     19745     19744     19746     19744     19746     19747
     19744     19746     19748     19747     19746     19748     19746     19748     19749
     19746     19748     19750     19746     19748     19751     19749     19748     19750
     19749     19748     19751     19750     19748     19751     19748     19751     19752
     19748     19751     19753     19752     19751     19753     19751     19753     19754
     19751     19753     19755     19754     19753     19755     19753     19755     19756
     19753     19755     19757     19753     19755     19758     19756     19755     19757
     19756     19755     19758     19757     19755     19758     19755     19758     19759
     19755     19758     19760     19759     19758     19760     19758     19760     19761
     19758     19760     19762     19761     19760     19762     19760     19762     19763
     19760     19762     19764     19760     19762     19765     19763     19762     19764
     19763     19762     19765     19764     19762     19765     19762     19765     19766
     19762     19765     19767     19762     19765     19768     19766     19765     19767
     19766     19765     19768     19767     19765     19768     19765     19768     19769
     19765     19768     19770     19765     19768     19771     19769     19768     19770
     19769     19768     19771     19770     19768     19771     19768     19771     19772
     19768     19771     19773     19768     19771     19774     19772     19771     19773
     19772     19771     19774     19773     19771     19774     19771     19774     19775
     19771     19774     19776     19771     19774     19777     19775     19774     19776
     19775     19774     19777     19776     19774     19777     19728     19778     19779
     19728     19778     19780     19728     19778     19781     19779     19778     19780
     19779     19778     19781     19780     19778     19781     19778     19781     19782
     19778     19781     19783     19778     19781     19784     19782     19781     19783
     19782     19781     19784     19783     19781     19784     19781     19784     19785
     19781     19784     19786     19781     19784     19787     19785     19784     19786
     19785     19784     19787     19786     19784     19787     19784     19787     19788
     19784     19787     19789     19784     19787     19790     19788     19787     19789
     19788     19787     19790     19789     19787     19790     19787     19790     19791
     19787     19790     19792     19787     19790     19793     19791     19790     19792
     19791     19790     19793     19792     19790     19793     19790     19793     19794
     19790     19793     19795     19790     19793     19796     19794     19793     19795
     19794     19793     19796     19795     19793     19796     19793     19796     19797
     19793     19796     19798     19793     19796     19799     19797     19796     19798
     19797     19796     19799     19798     19796     19799     19796     19799     19800
     19796     19799     19801     19796     19799     19802     19800     19799     19801
     19800     19799     19802     19801     19799     19802     19799     19802     19803
     19799     19802     19804     19799     19802     19805     19803     19802     19804
     19803     19802     19805     19804     19802     19805     19802     19805     19806
     19802     19805     19807     19802     19805     19808     19806     19805     19807
     19806     19805     19808     19807     19805     19808     19805     19808     19809
     19805     19808     19810     19805     19808     19811     19809     19808     19810
     19809     19808     19811     19810     19808     19811     19808     19811     19812
     19808     19811     19813     19808     19811     19814     19812     19811     19813
     19812     19811     19814     19813     19811     19814     19811     19814     19815
     19811     19814     19816     19811     19814     19817     19815     19814     19816
     19815     19814     19817     19816     19814     19817     19814     19817     19818
     19814     19817     19819     19814     19817     19820     19818     19817     19819
     19818     19817     19820     19819     19817     19820     19817     19820     19821
     19817     19820     19822     19817     19820     19823     19821     19820     19822
     19821     19820     19823     19822     19820     19823     19820     19823     19824
     19820     19823     19825     19820     19823     19826     19824     19823     19825
     19824     19823     19826     19825     19823     19826      6108      6107      6109
      6108      6107      6111      6108      6107      6153      6109      6107      6111
      6109      6107      6153      6111      6107      6153      6107      6109      6110
      6107      6111      6112      6107      6111      6113      6107      6111      6114
      6112      6111      6113      6112      6111      6114      6113      6111      6114
      6111      6114      6115      6111      6114      6145      6115      6114      6145
      6114      6115      6116      6114      6115      6117      6116      6115      6117
      6115      6117      6118      6115      6117      6119      6115      6117      6120
      6118      6117      6119      6118      6117      6120      6119      6117      6120
      6117      6120      6121      6117      6120      6122      6117      6120      6143
      6121      6120      6122      6121      6120      6143      6122      6120      6143
      6120      6122      6123      6120      6122      6124      6120      6122      6132
      6123      6122      6124      6123      6122      6132      6124      6122      6132
      6122      6124      6125      6122      6124      6126      6122      6124      6127
      6125      6124      6126      6125      6124      6127      6126      6124      6127
      6124      6127      6128      6124      6127      6129      6124      6127      6130
      6128      6127      6129      6128      6127      6130      6129      6127      6130
      6127      6130      6131      6127      6130      6132      6127      6130      6156
      6131      6130      6132      6131      6130      6156      6132      6130      6156
      6122      6132      6130      6122      6132      6133      6122      6132      6137
      6130      6132      6133      6130      6132      6137      6133      6132      6137
      6132      6133      6134      6132      6133      6135      6132      6133      6136
      6134      6133      6135      6134      6133      6136      6135      6133      6136
      6132      6137      6138      6132      6137      6139      6132      6137      6140
      6138      6137      6139      6138      6137      6140      6139      6137      6140
      6137      6140      6141      6137      6140      6142      6137      6140      6143
      6141      6140      6142      6141      6140      6143      6142      6140      6143
      6120      6143      6140      6120      6143      6144      6120      6143      6145
      6140      6143      6144      6140      6143      6145      6144      6143      6145
      6114      6145      6143      6114      6145      6146      6114      6145      6150
      6143      6145      6146      6143      6145      6150      6146      6145      6150
      6145      6146      6147      6145      6146      6148      6145      6146      6149
      6147      6146      6148      6147      6146      6149      6148      6146      6149
      6145      6150      6151      6145      6150      6152      6145      6150      6153
      6151      6150      6152      6151      6150      6153      6152      6150      6153
      6107      6153      6150      6107      6153      6154      6107      6153      6155
      6150      6153      6154      6150      6153      6155      6154      6153      6155
      6130      6156      6157      6130      6156      6158      6130      6156      6162
      6157      6156      6158      6157      6156      6162      6158      6156      6162
      6156      6158      6159      6156      6158      6160      6156      6158      6161
      6159      6158      6160      6159      6158      6161      6160      6158      6161
      6156      6162      6163      6156      6162      6164      6156      6162      6165
      6163      6162      6164      6163      6162      6165      6164      6162      6165
      6162      6165      6166      6162      6165      6167      6162      6165      6168
      6166      6165      6167      6166      6165      6168      6167      6165      6168
      6165      6168      6169      6165      6168      6170      6165      6168      6171
      6169      6168      6170      6169      6168      6171      6170      6168      6171
      6168      6171      6172      6168      6171      6173      6168      6171      6177
      6172      6171      6173      6172      6171      6177      6173      6171      6177
      6171      6173      6174      6171      6173      6175      6171      6173      6176
      6174      6173      6175      6174      6173      6176      6175      6173      6176
      6171      6177      6178      6171      6177      6179      6171      6177      6180
      6178      6177      6179      6178      6177      6180      6179      6177      6180
     10372     10371     10376     10372     10371     10380     10372     10371     10384
     10376     10371     10380     10376     10371     10384     10380     10371     10384
     10371     10372     10373     10371     10372     10374     10371     10372     10375
     10373     10372     10374     10373     10372     10375     10374     10372     10375
     10371     10376     10377     10371     10376     10378     10371     10376     10379
     10377     10376     10378     10377     10376     10379     10378     10376     10379
     10371     10380     10381     10371     10380     10382     10371     10380     10383
     10381     10380     10382     10381     10380     10383     10382     10380     10383
     10371     10384     10385     10371     10384     10386     10371     10384     10387
     10385     10384     10386     10385     10384     10387     10386     10384     10387
     10384     10387     10388     10384     10387     10389     10384     10387     10394
     10388     10387     10389     10388     10387     10394     10389     10387     10394
     10391     10390     10392     10391     10390     10393     10391     10390     10394
     10392     10390     10393     10392     10390     10394     10393     10390     10394
     10390     10393     10395     10387     10394     10390     10393     10395     10396
     10393     10395     10397     10393     10395     10400     10396     10395     10397
     10396     10395     10400     10397     10395     10400     10399     10398     10400
     10399     10398     10450     10400     10398     10450     10395     10400     10398
     10395     10400     10401     10395     10400     10402     10398     10400     10401
     10398     10400     10402     10401     10400     10402     10400     10402     10403
     10400     10402     10404     10400     10402     10406     10403     10402     10404
     10403     10402     10406     10404     10402     10406     10402     10404     10405
     10402     10406     10407     10402     10406     10408     10407     10406     10408
     10406     10408     10409     10406     10408     10410     10409     10408     10410
     10408     10410     10411     10408     10410     10412     10408     10410     10413
     10411     10410     10412     10411     10410     10413     10412     10410     10413
     10410     10413     10414     10410     10413     10415     10410     10413     10416
     10414     10413     10415     10414     10413     10416     10415     10413     10416
     10413     10416     10417     10413     10416     10418     10413     10416     10419
     10417     10416     10418     10417     10416     10419     10418     10416     10419
     10416     10419     10420     10416     10419     10421     10416     10419     10422
     10420     10419     10421     10420     10419     10422     10421     10419     10422
     10419     10422     10423     10419     10422     10424     10419     10422     10425
     10423     10422     10424     10423     10422     10425     10424     10422     10425
     10422     10425     10426     10422     10425     10427     10422     10425     10428
     10426     10425     10427     10426     10425     10428     10427     10425     10428
     10425     10428     10429     10425     10428     10430     10425     10428     10431
     10429     10428     10430     10429     10428     10431     10430     10428     10431
     10428     10431     10432     10428     10431     10433     10428     10431     10434
     10432     10431     10433     10432     10431     10434     10433     10431     10434
     10431     10434     10435     10431     10434     10436     10431     10434     10437
     10435     10434     10436     10435     10434     10437     10436     10434     10437
     10434     10437     10438     10434     10437     10439     10434     10437     10440
     10438     10437     10439     10438     10437     10440     10439     10437     10440
     10437     10440     10441     10437     10440     10442     10437     10440     10443
     10441     10440     10442     10441     10440     10443     10442     10440     10443
     10440     10443     10444     10440     10443     10445     10440     10443     10446
     10444     10443     10445     10444     10443     10446     10445     10443     10446
     10443     10446     10447     10443     10446     10448     10443     10446     10449
     10447     10446     10448     10447     10446     10449     10448     10446     10449
     10398     10450     10451     10398     10450     10452     10451     10450     10452
     10450     10452     10453     10450     10452     10454     10450     10452     10455
     10453     10452     10454     10453     10452     10455     10454     10452     10455
     10452     10455     10456     10452     10455     10457     10452     10455     10458
     10456     10455     10457     10456     10455     10458     10457     10455     10458
     10455     10458     10459     10455     10458     10460     10455     10458     10461
     10459     10458     10460     10459     10458     10461     10460     10458     10461
     10458     10461     10462     10458     10461     10463     10458     10461     10464
     10462     10461     10463     10462     10461     10464     10463     10461     10464
     10461     10464     10465     10461     10464     10466     10461     10464     10467
     10465     10464     10466     10465     10464     10467     10466     10464     10467
     10464     10467     10468     10464     10467     10469     10464     10467     10470
     10468     10467     10469     10468     10467     10470     10469     10467     10470
     10467     10470     10471     10467     10470     10472     10467     10470     10473
     10471     10470     10472     10471     10470     10473     10472     10470     10473
     10470     10473     10474     10470     10473     10475     10474     10473     10475
     10473     10475     10476     10473     10475     10477     10476     10475     10477
     10475     10477     10478     10475     10477     10479     10475     10477     10480
     10478     10477     10479     10478     10477     10480     10479     10477     10480
     10477     10480     10481     10477     10480     10482     10477     10480     10483
     10481     10480     10482     10481     10480     10483     10482     10480     10483
     10480     10483     10484     10480     10483     10485     10480     10483     10486
     10484     10483     10485     10484     10483     10486     10485     10483     10486
     10483     10486     10487     10483     10486     10488     10483     10486     10489
     10487     10486     10488     10487     10486     10489     10488     10486     10489
     10486     10489     10490     10486     10489     10491     10486     10489     10492
     10490     10489     10491     10490     10489     10492     10491     10489     10492
     10489     10492     10493     10489     10492     10494     10489     10492     10495
     10493     10492     10494     10493     10492     10495     10494     10492     10495
     10492     10495     10496     10492     10495     10497     10492     10495     10498
     10496     10495     10497     10496     10495     10498     10497     10495     10498
     10495     10498     10499     10495     10498     10500     10495     10498     10501
     10499     10498     10500     10499     10498     10501     10500     10498     10501
      6182      6181      6183      6182      6181      6185      6182      6181      6227
      6183      6181      6185      6183      6181      6227      6185      6181      6227
      6181      6183      6184      6181      6185      6186      6181      6185      6187
      6181      6185      6188      6186      6185      6187      6186      6185      6188
      6187      6185      6188      6185      6188      6189      6185      6188      6219
      6189      6188      6219      6188      6189      6190      6188      6189      6191
      6190      6189      6191      6189      6191      6192      6189      6191      6193
      6189      6191      6194      6192      6191      6193      6192      6191      6194
      6193      6191      6194      6191      6194      6195      6191      6194      6196
      6191      6194      6217      6195      6194      6196      6195      6194      6217
      6196      6194      6217      6194      6196      6197      6194      6196      6198
      6194      6196      6206      6197      6196      6198      6197      6196      6206
      6198      6196      6206      6196      6198      6199      6196      6198      6200
      6196      6198      6201      6199      6198      6200      6199      6198      6201
      6200      6198      6201      6198      6201      6202      6198      6201      6203
      6198      6201      6204      6202      6201      6203      6202      6201      6204
      6203      6201      6204      6201      6204      6205      6201      6204      6206
      6201      6204      6230      6205      6204      6206      6205      6204      6230
      6206      6204      6230      6196      6206      6204      6196      6206      6207
      6196      6206      6211      6204      6206      6207      6204      6206      6211
      6207      6206      6211      6206      6207      6208      6206      6207      6209
      6206      6207      6210      6208      6207      6209      6208      6207      6210
      6209      6207      6210      6206      6211      6212      6206      6211      6213
      6206      6211      6214      6212      6211      6213      6212      6211      6214
      6213      6211      6214      6211      6214      6215      6211      6214      6216
      6211      6214      6217      6215      6214      6216      6215      6214      6217
      6216      6214      6217      6194      6217      6214      6194      6217      6218
      6194      6217      6219      6214      6217      6218      6214      6217      6219
      6218      6217      6219      6188      6219      6217      6188      6219      6220
      6188      6219      6224      6217      6219      6220      6217      6219      6224
      6220      6219      6224      6219      6220      6221      6219      6220      6222
      6219      6220      6223      6221      6220      6222      6221      6220      6223
      6222      6220      6223      6219      6224      6225      6219      6224      6226
      6219      6224      6227      6225      6224      6226      6225      6224      6227
      6226      6224      6227      6181      6227      6224      6181      6227      6228
      6181      6227      6229      6224      6227      6228      6224      6227      6229
      6228      6227      6229      6204      6230      6231      6204      6230      6232
      6204      6230      6236      6231      6230      6232      6231      6230      6236
      6232      6230      6236      6230      6232      6233      6230      6232      6234
      6230      6232      6235      6233      6232      6234      6233      6232      6235
      6234      6232      6235      6230      6236      6237      6230      6236      6238
      6230      6236      6239      6237      6236      6238      6237      6236      6239
      6238      6236      6239      6236      6239      6240      6236      6239      6241
      6236      6239      6242      6240      6239      6241      6240      6239      6242
      6241      6239      6242      6239      6242      6243      6239      6242      6244
      6239      6242      6245      6243      6242      6244      6243      6242      6245
      6244      6242      6245      6242      6245      6246      6242      6245      6247
      6242      6245      6251      6246      6245      6247      6246      6245      6251
      6247      6245      6251      6245      6247      6248      6245      6247      6249
      6245      6247      6250      6248      6247      6249      6248      6247      6250
      6249      6247      6250      6245      6251      6252      6245      6251      6253
      6245      6251      6254      6252      6251      6253      6252      6251      6254
      6253      6251      6254     14826     14825     14827     14826     14825     14828
     14826     14825     14829     14827     14825     14828     14827     14825     14829
     14828     14825     14829     14825     14829     14830     14825     14829     14831
     14825     14829     14832     14830     14829     14831     14830     14829     14832
     14831     14829     14832     14829     14832     14833     14829     14832     14834
     14829     14832     14838     14833     14832     14834     14833     14832     14838
     14834     14832     14838     14836     14835     14837     14836     14835     14838
     14836     14835     14839     14837     14835     14838     14837     14835     14839
     14838     14835     14839     14832     14838     14835     14835     14839     14840
     14839     14840     14841     14839     14840     14842     14839     14840     14843
     14841     14840     14842     14841     14840     14843     14842     14840     14843
     14840     14843     14844     14840     14843     14845     14840     14843     14851
     14844     14843     14845     14844     14843     14851     14845     14843     14851
     14843     14845     14846     14845     14846     14847     14845     14846     14848
     14847     14846     14848     14846     14848     14849     14846     14848     14850
     14846     14848     14860     14849     14848     14850     14849     14848     14860
     14850     14848     14860     14843     14851     14852     14843     14851     14853
     14843     14851     14854     14852     14851     14853     14852     14851     14854
     14853     14851     14854     14851     14854     14855     14854     14855     14856
     14854     14855     14857     14856     14855     14857     14855     14857     14858
     14855     14857     14859     14855     14857     14907     14858     14857     14859
     14858     14857     14907     14859     14857     14907     14848     14860     14861
     14848     14860     14862     14848     14860     14863     14861     14860     14862
     14861     14860     14863     14862     14860     14863     14860     14863     14864
     14860     14863     14865     14860     14863     14866     14864     14863     14865
     14864     14863     14866     14865     14863     14866     14863     14866     14867
     14863     14866     14868     14867     14866     14868     14866     14868     14869
     14866     14868     14870     14869     14868     14870     14868     14870     14871
     14868     14870     14872     14868     14870     14873     14871     14870     14872
     14871     14870     14873     14872     14870     14873     14870     14873     14874
     14870     14873     14875     14874     14873     14875     14873     14875     14876
     14873     14875     14877     14876     14875     14877     14875     14877     14878
     14875     14877     14879     14875     14877     14880     14878     14877     14879
     14878     14877     14880     14879     14877     14880     14877     14880     14881
     14877     14880     14882     14881     14880     14882     14880     14882     14883
     14880     14882     14884     14883     14882     14884     14882     14884     14885
     14882     14884     14886     14882     14884     14887     14885     14884     14886
     14885     14884     14887     14886     14884     14887     14884     14887     14888
     14884     14887     14889     14888     14887     14889     14887     14889     14890
     14887     14889     14891     14890     14889     14891     14889     14891     14892
     14889     14891     14893     14889     14891     14894     14892     14891     14893
     14892     14891     14894     14893     14891     14894     14891     14894     14895
     14891     14894     14896     14891     14894     14897     14895     14894     14896
     14895     14894     14897     14896     14894     14897     14894     14897     14898
     14894     14897     14899     14894     14897     14900     14898     14897     14899
     14898     14897     14900     14899     14897     14900     14897     14900     14901
     14897     14900     14902     14897     14900     14903     14901     14900     14902
     14901     14900     14903     14902     14900     14903     14900     14903     14904
     14900     14903     14905     14900     14903     14906     14904     14903     14905
     14904     14903     14906     14905     14903     14906     14857     14907     14908
     14857     14907     14909     14857     14907     14910     14908     14907     14909
     14908     14907     14910     14909     14907     14910     14907     14910     14911
     14907     14910     14912     14907     14910     14913     14911     14910     14912
     14911     14910     14913     14912     14910     14913     14910     14913     14914
     14910     14913     14915     14910     14913     14916     14914     14913     14915
     14914     14913     14916     14915     14913     14916     14913     14916     14917
     14913     14916     14918     14913     14916     14919     14917     14916     14918
     14917     14916     14919     14918     14916     14919     14916     14919     14920
     14916     14919     14921     14916     14919     14922     14920     14919     14921
     14920     14919     14922     14921     14919     14922     14919     14922     14923
     14919     14922     14924     14919     14922     14925     14923     14922     14924
     14923     14922     14925     14924     14922     14925     14922     14925     14926
     14922     14925     14927     14922     14925     14928     14926     14925     14927
     14926     14925     14928     14927     14925     14928     14925     14928     14929
     14925     14928     14930     14925     14928     14931     14929     14928     14930
     14929     14928     14931     14930     14928     14931     14928     14931     14932
     14928     14931     14933     14928     14931     14934     14932     14931     14933
     14932     14931     14934     14933     14931     14934     14931     14934     14935
     14931     14934     14936     14931     14934     14937     14935     14934     14936
     14935     14934     14937     14936     14934     14937     14934     14937     14938
     14934     14937     14939     14934     14937     14940     14938     14937     14939
     14938     14937     14940     14939     14937     14940     14937     14940     14941
     14937     14940     14942     14937     14940     14943     14941     14940     14942
     14941     14940     14943     14942     14940     14943     14940     14943     14944
     14940     14943     14945     14940     14943     14946     14944     14943     14945
     14944     14943     14946     14945     14943     14946     14943     14946     14947
     14943     14946     14948     14943     14946     14949     14947     14946     14948
     14947     14946     14949     14948     14946     14949     14946     14949     14950
     14946     14949     14951     14946     14949     14952     14950     14949     14951
     14950     14949     14952     14951     14949     14952     14949     14952     14953
     14949     14952     14954     14949     14952     14955     14953     14952     14954
     14953     14952     14955     14954     14952     14955      6256      6255      6257
      6256      6255      6259      6256      6255      6301      6257      6255      6259
      6257      6255      6301      6259      6255      6301      6255      6257      6258
      6255      6259      6260      6255      6259      6261      6255      6259      6262
      6260      6259      6261      6260      6259      6262      6261      6259      6262
      6259      6262      6263      6259      6262      6293      6263      6262      6293
      6262      6263      6264      6262      6263      6265      6264      6263      6265
      6263      6265      6266      6263      6265      6267      6263      6265      6268
      6266      6265      6267      6266      6265      6268      6267      6265      6268
      6265      6268      6269      6265      6268      6270      6265      6268      6291
      6269      6268      6270      6269      6268      6291      6270      6268      6291
      6268      6270      6271      6268      6270      6272      6268      6270      6280
      6271      6270      6272      6271      6270      6280      6272      6270      6280
      6270      6272      6273      6270      6272      6274      6270      6272      6275
      6273      6272      6274      6273      6272      6275      6274      6272      6275
      6272      6275      6276      6272      6275      6277      6272      6275      6278
      6276      6275      6277      6276      6275      6278      6277      6275      6278
      6275      6278      6279      6275      6278      6280      6275      6278      6304
      6279      6278      6280      6279      6278      6304      6280      6278      6304
      6270      6280      6278      6270      6280      6281      6270      6280      6285
      6278      6280      6281      6278      6280      6285      6281      6280      6285
      6280      6281      6282      6280      6281      6283      6280      6281      6284
      6282      6281      6283      6282      6281      6284      6283      6281      6284
      6280      6285      6286      6280      6285      6287      6280      6285      6288
      6286      6285      6287      6286      6285      6288      6287      6285      6288
      6285      6288      6289      6285      6288      6290      6285      6288      6291
      6289      6288      6290      6289      6288      6291      6290      6288      6291
      6268      6291      6288      6268      6291      6292      6268      6291      6293
      6288      6291      6292      6288      6291      6293      6292      6291      6293
      6262      6293      6291      6262      6293      6294      6262      6293      6298
      6291      6293      6294      6291      6293      6298      6294      6293      6298
      6293      6294      6295      6293      6294      6296      6293      6294      6297
      6295      6294      6296      6295      6294      6297      6296      6294      6297
      6293      6298      6299      6293      6298      6300      6293      6298      6301
      6299      6298      6300      6299      6298      6301      6300      6298      6301
      6255      6301      6298      6255      6301      6302      6255      6301      6303
      6298      6301      6302      6298      6301      6303      6302      6301      6303
      6278      6304      6305      6278      6304      6306      6278      6304      6310
      6305      6304      6306      6305      6304      6310      6306      6304      6310
      6304      6306      6307      6304      6306      6308      6304      6306      6309
      6307      6306      6308      6307      6306      6309      6308      6306      6309
      6304      6310      6311      6304      6310      6312      6304      6310      6313
      6311      6310      6312      6311      6310      6313      6312      6310      6313
      6310      6313      6314      6310      6313      6315      6310      6313      6316
      6314      6313      6315      6314      6313      6316      6315      6313      6316
      6313      6316      6317      6313      6316      6318      6313      6316      6319
      6317      6316      6318      6317      6316      6319      6318      6316      6319
      6316      6319      6320      6316      6319      6321      6316      6319      6325
      6320      6319      6321      6320      6319      6325      6321      6319      6325
      6319      6321      6322      6319      6321      6323      6319      6321      6324
      6322      6321      6323      6322      6321      6324      6323      6321      6324
      6319      6325      6326      6319      6325      6327      6319      6325      6328
      6326      6325      6327      6326      6325      6328      6327      6325      6328
      6330      6329      6331      6330      6329      6333      6330      6329      6375
      6331      6329      6333      6331      6329      6375      6333      6329      6375
      6329      6331      6332      6329      6333      6334      6329      6333      6335
      6329      6333      6336      6334      6333      6335      6334      6333      6336
      6335      6333      6336      6333      6336      6337      6333      6336      6367
      6337      6336      6367      6336      6337      6338      6336      6337      6339
      6338      6337      6339      6337      6339      6340      6337      6339      6341
      6337      6339      6342      6340      6339      6341      6340      6339      6342
      6341      6339      6342      6339      6342      6343      6339      6342      6344
      6339      6342      6365      6343      6342      6344      6343      6342      6365
      6344      6342      6365      6342      6344      6345      6342      6344      6346
      6342      6344      6354      6345      6344      6346      6345      6344      6354
      6346      6344      6354      6344      6346      6347      6344      6346      6348
      6344      6346      6349      6347      6346      6348      6347      6346      6349
      6348      6346      6349      6346      6349      6350      6346      6349      6351
      6346      6349      6352      6350      6349      6351      6350      6349      6352
      6351      6349      6352      6349      6352      6353      6349      6352      6354
      6349      6352      6378      6353      6352      6354      6353      6352      6378
      6354      6352      6378      6344      6354      6352      6344      6354      6355
      6344      6354      6359      6352      6354      6355      6352      6354      6359
      6355      6354      6359      6354      6355      6356      6354      6355      6357
      6354      6355      6358      6356      6355      6357      6356      6355      6358
      6357      6355      6358      6354      6359      6360      6354      6359      6361
      6354      6359      6362      6360      6359      6361      6360      6359      6362
      6361      6359      6362      6359      6362      6363      6359      6362      6364
      6359      6362      6365      6363      6362      6364      6363      6362      6365
      6364      6362      6365      6342      6365      6362      6342      6365      6366
      6342      6365      6367      6362      6365      6366      6362      6365      6367
      6366      6365      6367      6336      6367      6365      6336      6367      6368
      6336      6367      6372      6365      6367      6368      6365      6367      6372
      6368      6367      6372      6367      6368      6369      6367      6368      6370
      6367      6368      6371      6369      6368      6370      6369      6368      6371
      6370      6368      6371      6367      6372      6373      6367      6372      6374
      6367      6372      6375      6373      6372      6374      6373      6372      6375
      6374      6372      6375      6329      6375      6372      6329      6375      6376
      6329      6375      6377      6372      6375      6376      6372      6375      6377
      6376      6375      6377      6352      6378      6379      6352      6378      6380
      6352      6378      6384      6379      6378      6380      6379      6378      6384
      6380      6378      6384      6378      6380      6381      6378      6380      6382
      6378      6380      6383      6381      6380      6382      6381      6380      6383
      6382      6380      6383      6378      6384      6385      6378      6384      6386
      6378      6384      6387      6385      6384      6386      6385      6384      6387
      6386      6384      6387      6384      6387      6388      6384      6387      6389
      6384      6387      6390      6388      6387      6389      6388      6387      6390
      6389      6387      6390      6387      6390      6391      6387      6390      6392
      6387      6390      6393      6391      6390      6392      6391      6390      6393
      6392      6390      6393      6390      6393      6394      6390      6393      6395
      6390      6393      6399      6394      6393      6395      6394      6393      6399
      6395      6393      6399      6393      6395      6396      6393      6395      6397
      6393      6395      6398      6396      6395      6397      6396      6395      6398
      6397      6395      6398      6393      6399      6400      6393      6399      6401
      6393      6399      6402      6400      6399      6401      6400      6399      6402
      6401      6399      6402     18363     18362     18364     18363     18362     18365
     18363     18362     18366     18364     18362     18365     18364     18362     18366
     18365     18362     18366     18362     18366     18367     18362     18366     18368
     18362     18366     18369     18367     18366     18368     18367     18366     18369
     18368     18366     18369     18366     18369     18370     18366     18369     18371
     18366     18369     18375     18370     18369     18371     18370     18369     18375
     18371     18369     18375     18373     18372     18374     18373     18372     18375
     18373     18372     18376     18374     18372     18375     18374     18372     18376
     18375     18372     18376     18369     18375     18372     18372     18376     18377
     18376     18377     18378     18376     18377     18379     18376     18377     18380
     18378     18377     18379     18378     18377     18380     18379     18377     18380
     18377     18380     18381     18377     18380     18382     18377     18380     18388
     18381     18380     18382     18381     18380     18388     18382     18380     18388
     18380     18382     18383     18382     18383     18384     18382     18383     18385
     18384     18383     18385     18383     18385     18386     18383     18385     18387
     18383     18385     18397     18386     18385     18387     18386     18385     18397
     18387     18385     18397     18380     18388     18389     18380     18388     18390
     18380     18388     18391     18389     18388     18390     18389     18388     18391
     18390     18388     18391     18388     18391     18392     18391     18392     18393
     18391     18392     18394     18393     18392     18394     18392     18394     18395
     18392     18394     18396     18392     18394     18444     18395     18394     18396
     18395     18394     18444     18396     18394     18444     18385     18397     18398
     18385     18397     18399     18385     18397     18400     18398     18397     18399
     18398     18397     18400     18399     18397     18400     18397     18400     18401
     18397     18400     18402     18397     18400     18403     18401     18400     18402
     18401     18400     18403     18402     18400     18403     18400     18403     18404
     18400     18403     18405     18400     18403     18406     18404     18403     18405
     18404     18403     18406     18405     18403     18406     18403     18406     18407
     18403     18406     18408     18403     18406     18409     18407     18406     18408
     18407     18406     18409     18408     18406     18409     18406     18409     18410
     18406     18409     18411     18406     18409     18412     18410     18409     18411
     18410     18409     18412     18411     18409     18412     18409     18412     18413
     18409     18412     18414     18409     18412     18415     18413     18412     18414
     18413     18412     18415     18414     18412     18415     18412     18415     18416
     18412     18415     18417     18416     18415     18417     18415     18417     18418
     18415     18417     18419     18418     18417     18419     18417     18419     18420
     18417     18419     18421     18417     18419     18422     18420     18419     18421
     18420     18419     18422     18421     18419     18422     18419     18422     18423
     18419     18422     18424     18419     18422     18425     18423     18422     18424
     18423     18422     18425     18424     18422     18425     18422     18425     18426
     18422     18425     18427     18422     18425     18428     18426     18425     18427
     18426     18425     18428     18427     18425     18428     18425     18428     18429
     18425     18428     18430     18425     18428     18431     18429     18428     18430
     18429     18428     18431     18430     18428     18431     18428     18431     18432
     18428     18431     18433     18428     18431     18434     18432     18431     18433
     18432     18431     18434     18433     18431     18434     18431     18434     18435
     18431     18434     18436     18431     18434     18437     18435     18434     18436
     18435     18434     18437     18436     18434     18437     18434     18437     18438
     18434     18437     18439     18434     18437     18440     18438     18437     18439
     18438     18437     18440     18439     18437     18440     18437     18440     18441
     18437     18440     18442     18437     18440     18443     18441     18440     18442
     18441     18440     18443     18442     18440     18443     18394     18444     18445
     18394     18444     18446     18394     18444     18447     18445     18444     18446
     18445     18444     18447     18446     18444     18447     18444     18447     18448
     18444     18447     18449     18444     18447     18450     18448     18447     18449
     18448     18447     18450     18449     18447     18450     18447     18450     18451
     18447     18450     18452     18447     18450     18453     18451     18450     18452
     18451     18450     18453     18452     18450     18453     18450     18453     18454
     18450     18453     18455     18450     18453     18456     18454     18453     18455
     18454     18453     18456     18455     18453     18456     18453     18456     18457
     18453     18456     18458     18453     18456     18459     18457     18456     18458
     18457     18456     18459     18458     18456     18459     18456     18459     18460
     18456     18459     18461     18456     18459     18462     18460     18459     18461
     18460     18459     18462     18461     18459     18462     18459     18462     18463
     18459     18462     18464     18459     18462     18465     18463     18462     18464
     18463     18462     18465     18464     18462     18465     18462     18465     18466
     18462     18465     18467     18462     18465     18468     18466     18465     18467
     18466     18465     18468     18467     18465     18468     18465     18468     18469
     18465     18468     18470     18465     18468     18471     18469     18468     18470
     18469     18468     18471     18470     18468     18471     18468     18471     18472
     18468     18471     18473     18468     18471     18474     18472     18471     18473
     18472     18471     18474     18473     18471     18474     18471     18474     18475
     18471     18474     18476     18471     18474     18477     18475     18474     18476
     18475     18474     18477     18476     18474     18477     18474     18477     18478
     18474     18477     18479     18474     18477     18480     18478     18477     18479
     18478     18477     18480     18479     18477     18480     18477     18480     18481
     18477     18480     18482     18477     18480     18483     18481     18480     18482
     18481     18480     18483     18482     18480     18483     18480     18483     18484
     18480     18483     18485     18480     18483     18486     18484     18483     18485
     18484     18483     18486     18485     18483     18486     18483     18486     18487
     18483     18486     18488     18483     18486     18489     18487     18486     18488
     18487     18486     18489     18488     18486     18489     18486     18489     18490
     18486     18489     18491     18486     18489     18492     18490     18489     18491
     18490     18489     18492     18491     18489     18492     20528     20527     20532
     20528     20527     20536     20528     20527     20540     20532     20527     20536
     20532     20527     20540     20536     20527     20540     20527     20528     20529
     20527     20528     20530     20527     20528     20531     20529     20528     20530
     20529     20528     20531     20530     20528     20531     20527     20532     20533
     20527     20532     20534     20527     20532     20535     20533     20532     20534
     20533     20532     20535     20534     20532     20535     20527     20536     20537
     20527     20536     20538     20527     20536     20539     20537     20536     20538
     20537     20536     20539     20538     20536     20539     20527     20540     20541
     20527     20540     20542     20527     20540     20543     20541     20540     20542
     20541     20540     20543     20542     20540     20543     20540     20543     20544
     20540     20543     20545     20540     20543     20549     20544     20543     20545
     20544     20543     20549     20545     20543     20549     20547     20546     20548
     20547     20546     20549     20547     20546     20550     20548     20546     20549
     20548     20546     20550     20549     20546     20550     20543     20549     20546
     20546     20550     20551     20550     20551     20552     20550     20551     20553
     20550     20551     20554     20552     20551     20553     20552     20551     20554
     20553     20551     20554     20551     20554     20555     20551     20554     20556
     20551     20554     20562     20555     20554     20556     20555     20554     20562
     20556     20554     20562     20554     20556     20557     20556     20557     20558
     20556     20557     20559     20558     20557     20559     20557     20559     20560
     20557     20559     20561     20557     20559     20571     20560     20559     20561
     20560     20559     20571     20561     20559     20571     20554     20562     20563
     20554     20562     20564     20554     20562     20565     20563     20562     20564
     20563     20562     20565     20564     20562     20565     20562     20565     20566
     20565     20566     20567     20565     20566     20568     20567     20566     20568
     20566     20568     20569     20566     20568     20570     20566     20568     20616
     20569     20568     20570     20569     20568     20616     20570     20568     20616
     20559     20571     20572     20559     20571     20573     20559     20571     20574
     20572     20571     20573     20572     20571     20574     20573     20571     20574
     20571     20574     20575     20571     20574     20576     20571     20574     20577
     20575     20574     20576     20575     20574     20577     20576     20574     20577
     20574     20577     20578     20574     20577     20579     20574     20577     20580
     20578     20577     20579     20578     20577     20580     20579     20577     20580
     20577     20580     20581     20577     20580     20582     20577     20580     20583
     20581     20580     20582     20581     20580     20583     20582     20580     20583
     20580     20583     20584     20580     20583     20585     20580     20583     20586
     20584     20583     20585     20584     20583     20586     20585     20583     20586
     20583     20586     20587     20583     20586     20588     20583     20586     20589
     20587     20586     20588     20587     20586     20589     20588     20586     20589
     20586     20589     20590     20586     20589     20591     20590     20589     20591
     20589     20591     20592     20589     20591     20593     20592     20591     20593
     20591     20593     20594     20591     20593     20595     20591     20593     20596
     20594     20593     20595     20594     20593     20596     20595     20593     20596
     20593     20596     20597     20593     20596     20598     20597     20596     20598
     20596     20598     20599     20596     20598     20600     20599     20598     20600
     20598     20600     20601     20598     20600     20602     20598     20600     20603
     20601     20600     20602     20601     20600     20603     20602     20600     20603
     20600     20603     20604     20600     20603     20605     20600     20603     20606
     20604     20603     20605     20604     20603     20606     20605     20603     20606
     20603     20606     20607     20603     20606     20608     20603     20606     20609
     20607     20606     20608     20607     20606     20609     20608     20606     20609
     20606     20609     20610     20606     20609     20611     20606     20609     20612
     20610     20609     20611     20610     20609     20612     20611     20609     20612
     20609     20612     20613     20609     20612     20614     20609     20612     20615
     20613     20612     20614     20613     20612     20615     20614     20612     20615
     20568     20616     20617     20568     20616     20618     20568     20616     20619
     20617     20616     20618     20617     20616     20619     20618     20616     20619
     20616     20619     20620     20616     20619     20621     20616     20619     20622
     20620     20619     20621     20620     20619     20622     20621     20619     20622
     20619     20622     20623     20619     20622     20624     20619     20622     20625
     20623     20622     20624     20623     20622     20625     20624     20622     20625
     20622     20625     20626     20622     20625     20627     20622     20625     20628
     20626     20625     20627     20626     20625     20628     20627     20625     20628
     20625     20628     20629     20625     20628     20630     20625     20628     20631
     20629     20628     20630     20629     20628     20631     20630     20628     20631
     20628     20631     20632     20628     20631     20633     20628     20631     20634
     20632     20631     20633     20632     20631     20634     20633     20631     20634
     20631     20634     20635     20631     20634     20636     20631     20634     20637
     20635     20634     20636     20635     20634     20637     20636     20634     20637
     20634     20637     20638     20634     20637     20639     20634     20637     20640
     20638     20637     20639     20638     20637     20640     20639     20637     20640
     20637     20640     20641     20637     20640     20642     20637     20640     20643
     20641     20640     20642     20641     20640     20643     20642     20640     20643
     20640     20643     20644     20640     20643     20645     20640     20643     20646
     20644     20643     20645     20644     20643     20646     20645     20643     20646
     20643     20646     20647     20643     20646     20648     20643     20646     20649
     20647     20646     20648     20647     20646     20649     20648     20646     20649
     20646     20649     20650     20646     20649     20651     20646     20649     20652
     20650     20649     20651     20650     20649     20652     20651     20649     20652
     20649     20652     20653     20649     20652     20654     20649     20652     20655
     20653     20652     20654     20653     20652     20655     20654     20652     20655
     20652     20655     20656     20652     20655     20657     20652     20655     20658
     20656     20655     20657     20656     20655     20658     20657     20655     20658
     20655     20658     20659     20655     20658     20660     20655     20658     20661
     20659     20658     20660     20659     20658     20661     20660     20658     20661
     20658     20661     20662     20658     20661     20663     20658     20661     20664
     20662     20661     20663     20662     20661     20664     20663     20661     20664
     18494     18493     18495     18494     18493     18496     18494     18493     18497
     18495     18493     18496     18495     18493     18497     18496     18493     18497
     18493     18497     18498     18493     18497     18499     18493     18497     18500
     18498     18497     18499     18498     18497     18500     18499     18497     18500
     18497     18500     18501     18497     18500     18502     18497     18500     18506
     18501     18500     18502     18501     18500     18506     18502     18500     18506
     18504     18503     18505     18504     18503     18506     18504     18503     18507
     18505     18503     18506     18505     18503     18507     18506     18503     18507
     18500     18506     18503     18503     18507     18508     18507     18508     18509
     18507     18508     18510     18507     18508     18511     18509     18508     18510
     18509     18508     18511     18510     18508     18511     18508     18511     18512
     18508     18511     18513     18508     18511     18519     18512     18511     18513
     18512     18511     18519     18513     18511     18519     18511     18513     18514
     18513     18514     18515     18513     18514     18516     18515     18514     18516
     18514     18516     18517     18514     18516     18518     18514     18516     18528
     18517     18516     18518     18517     18516     18528     18518     18516     18528
     18511     18519     18520     18511     18519     18521     18511     18519     18522
     18520     18519     18521     18520     18519     18522     18521     18519     18522
     18519     18522     18523     18522     18523     18524     18522     18523     18525
     18524     18523     18525     18523     18525     18526     18523     18525     18527
     18523     18525     18575     18526     18525     18527     18526     18525     18575
     18527     18525     18575     18516     18528     18529     18516     18528     18530
     18516     18528     18531     18529     18528     18530     18529     18528     18531
     18530     18528     18531     18528     18531     18532     18528     18531     18533
     18528     18531     18534     18532     18531     18533     18532     18531     18534
     18533     18531     18534     18531     18534     18535     18531     18534     18536
     18531     18534     18537     18535     18534     18536     18535     18534     18537
     18536     18534     18537     18534     18537     18538     18534     18537     18539
     18534     18537     18540     18538     18537     18539     18538     18537     18540
     18539     18537     18540     18537     18540     18541     18537     18540     18542
     18537     18540     18543     18541     18540     18542     18541     18540     18543
     18542     18540     18543     18540     18543     18544     18540     18543     18545
     18540     18543     18546     18544     18543     18545     18544     18543     18546
     18545     18543     18546     18543     18546     18547     18543     18546     18548
     18547     18546     18548     18546     18548     18549     18546     18548     18550
     18549     18548     18550     18548     18550     18551     18548     18550     18552
     18548     18550     18553     18551     18550     18552     18551     18550     18553
     18552     18550     18553     18550     18553     18554     18550     18553     18555
     18550     18553     18556     18554     18553     18555     18554     18553     18556
     18555     18553     18556     18553     18556     18557     18553     18556     18558
     18553     18556     18559     18557     18556     18558     18557     18556     18559
     18558     18556     18559     18556     18559     18560     18556     18559     18561
     18556     18559     18562     18560     18559     18561     18560     18559     18562
     18561     18559     18562     18559     18562     18563     18559     18562     18564
     18559     18562     18565     18563     18562     18564     18563     18562     18565
     18564     18562     18565     18562     18565     18566     18562     18565     18567
     18562     18565     18568     18566     18565     18567     18566     18565     18568
     18567     18565     18568     18565     18568     18569     18565     18568     18570
     18565     18568     18571     18569     18568     18570     18569     18568     18571
     18570     18568     18571     18568     18571     18572     18568     18571     18573
     18568     18571     18574     18572     18571     18573     18572     18571     18574
     18573     18571     18574     18525     18575     18576     18525     18575     18577
     18525     18575     18578     18576     18575     18577     18576     18575     18578
     18577     18575     18578     18575     18578     18579     18575     18578     18580
     18575     18578     18581     18579     18578     18580     18579     18578     18581
     18580     18578     18581     18578     18581     18582     18578     18581     18583
     18578     18581     18584     18582     18581     18583     18582     18581     18584
     18583     18581     18584     18581     18584     18585     18581     18584     18586
     18581     18584     18587     18585     18584     18586     18585     18584     18587
     18586     18584     18587     18584     18587     18588     18584     18587     18589
     18584     18587     18590     18588     18587     18589     18588     18587     18590
     18589     18587     18590     18587     18590     18591     18587     18590     18592
     18587     18590     18593     18591     18590     18592     18591     18590     18593
     18592     18590     18593     18590     18593     18594     18590     18593     18595
     18590     18593     18596     18594     18593     18595     18594     18593     18596
     18595     18593     18596     18593     18596     18597     18593     18596     18598
     18593     18596     18599     18597     18596     18598     18597     18596     18599
     18598     18596     18599     18596     18599     18600     18596     18599     18601
     18596     18599     18602     18600     18599     18601     18600     18599     18602
     18601     18599     18602     18599     18602     18603     18599     18602     18604
     18599     18602     18605     18603     18602     18604     18603     18602     18605
     18604     18602     18605     18602     18605     18606     18602     18605     18607
     18602     18605     18608     18606     18605     18607     18606     18605     18608
     18607     18605     18608     18605     18608     18609     18605     18608     18610
     18605     18608     18611     18609     18608     18610     18609     18608     18611
     18610     18608     18611     18608     18611     18612     18608     18611     18613
     18608     18611     18614     18612     18611     18613     18612     18611     18614
     18613     18611     18614     18611     18614     18615     18611     18614     18616
     18611     18614     18617     18615     18614     18616     18615     18614     18617
     18616     18614     18617     18614     18617     18618     18614     18617     18619
     18614     18617     18620     18618     18617     18619     18618     18617     18620
     18619     18617     18620     18617     18620     18621     18617     18620     18622
     18617     18620     18623     18621     18620     18622     18621     18620     18623
     18622     18620     18623      4638      4637      4641      4638      4637      4645
      4638      4637      4649      4641      4637      4645      4641      4637      4649
      4645      4637      4649      4637      4638      4639      4637      4638      4640
      4637      4638      4653      4639      4638      4640      4639      4638      4653
      4640      4638      4653      4637      4641      4642      4637      4641      4643
      4637      4641      4644      4642      4641      4643      4642      4641      4644
      4643      4641      4644      4637      4645      4646      4637      4645      4647
      4637      4645      4648      4646      4645      4647      4646      4645      4648
      4647      4645      4648      4637      4649      4650      4637      4649      4651
      4637      4649      4652      4650      4649      4651      4650      4649      4652
      4651      4649      4652      4638      4653      4654      4638      4653      4655
      4638      4653      4659      4654      4653      4655      4654      4653      4659
      4655      4653      4659      4657      4656      4658      4657      4656      4659
      4657      4656      4660      4658      4656      4659      4658      4656      4660
      4659      4656      4660      4653      4659      4656      4656      4660      4661
      4660      4661      4662      4660      4661      4663      4660      4661      4664
      4662      4661      4663      4662      4661      4664      4663      4661      4664
      4661      4664      4665      4661      4664      4666      4661      4664      4672
      4665      4664      4666      4665      4664      4672      4666      4664      4672
      4664      4666      4667      4666      4667      4668      4666      4667      4669
      4668      4667      4669      4667      4669      4670      4667      4669      4671
      4667      4669      4681      4670      4669      4671      4670      4669      4681
      4671      4669      4681      4664      4672      4673      4664      4672      4674
      4664      4672      4675      4673      4672      4674      4673      4672      4675
      4674      4672      4675      4672      4675      4676      4675      4676      4677
      4675      4676      4678      4677      4676      4678      4676      4678      4679
      4676      4678      4680      4676      4678      4728      4679      4678      4680
      4679      4678      4728      4680      4678      4728      4669      4681      4682
      4669      4681      4683      4669      4681      4684      4682      4681      4683
      4682      4681      4684      4683      4681      4684      4681      4684      4685
      4681      4684      4686      4681      4684      4687      4685      4684      4686
      4685      4684      4687      4686      4684      4687      4684      4687      4688
      4684      4687      4689      4684      4687      4690      4688      4687      4689
      4688      4687      4690      4689      4687      4690      4687      4690      4691
      4687      4690      4692      4687      4690      4693      4691      4690      4692
      4691      4690      4693      4692      4690      4693      4690      4693      4694
      4690      4693      4695      4690      4693      4696      4694      4693      4695
      4694      4693      4696      4695      4693      4696      4693      4696      4697
      4693      4696      4698      4693      4696      4699      4697      4696      4698
      4697      4696      4699      4698      4696      4699      4696      4699      4700
      4696      4699      4701      4700      4699      4701      4699      4701      4702
      4699      4701      4703      4702      4701      4703      4701      4703      4704
      4701      4703      4705      4701      4703      4706      4704      4703      4705
      4704      4703      4706      4705      4703      4706      4703      4706      4707
      4703      4706      4708      4703      4706      4709      4707      4706      4708
      4707      4706      4709      4708      4706      4709      4706      4709      4710
      4706      4709      4711      4706      4709      4712      4710      4709      4711
      4710      4709      4712      4711      4709      4712      4709      4712      4713
      4709      4712      4714      4709      4712      4715      4713      4712      4714
      4713      4712      4715      4714      4712      4715      4712      4715      4716
      4712      4715      4717      4712      4715      4718      4716      4715      4717
      4716      4715      4718      4717      4715      4718      4715      4718      4719
      4715      4718      4720      4715      4718      4721      4719      4718      4720
      4719      4718      4721      4720      4718      4721      4718      4721      4722
      4718      4721      4723      4718      4721      4724      4722      4721      4723
      4722      4721      4724      4723      4721      4724      4721      4724      4725
      4721      4724      4726      4721      4724      4727      4725      4724      4726
      4725      4724      4727      4726      4724      4727      4678      4728      4729
      4678      4728      4730      4678      4728      4731      4729      4728      4730
      4729      4728      4731      4730      4728      4731      4728      4731      4732
      4728      4731      4733      4728      4731      4734      4732      4731      4733
      4732      4731      4734      4733      4731      4734      4731      4734      4735
      4731      4734      4736      4731      4734      4737      4735      4734      4736
      4735      4734      4737      4736      4734      4737      4734      4737      4738
      4734      4737      4739      4734      4737      4740      4738      4737      4739
      4738      4737      4740      4739      4737      4740      4737      4740      4741
      4737      4740      4742      4737      4740      4743      4741      4740      4742
      4741      4740      4743      4742      4740      4743      4740      4743      4744
      4740      4743      4745      4740      4743      4746      4744      4743      4745
      4744      4743      4746      4745      4743      4746      4743      4746      4747
      4743      4746      4748      4743      4746      4749      4747      4746      4748
      4747      4746      4749      4748      4746      4749      4746      4749      4750
      4746      4749      4751      4746      4749      4752      4750      4749      4751
      4750      4749      4752      4751      4749      4752      4749      4752      4753
      4749      4752      4754      4749      4752      4755      4753      4752      4754
      4753      4752      4755      4754      4752      4755      4752      4755      4756
      4752      4755      4757      4752      4755      4758      4756      4755      4757
      4756      4755      4758      4757      4755      4758      4755      4758      4759
      4755      4758      4760      4755      4758      4761      4759      4758      4760
      4759      4758      4761      4760      4758      4761      4758      4761      4762
      4758      4761      4763      4758      4761      4764      4762      4761      4763
      4762      4761      4764      4763      4761      4764      4761      4764      4765
      4761      4764      4766      4761      4764      4767      4765      4764      4766
      4765      4764      4767      4766      4764      4767      4764      4767      4768
      4764      4767      4769      4764      4767      4770      4768      4767      4769
      4768      4767      4770      4769      4767      4770     10503     10502     10507
     10503     10502     10511     10503     10502     10515     10507     10502     10511
     10507     10502     10515     10511     10502     10515     10502     10503     10504
     10502     10503     10505     10502     10503     10506     10504     10503     10505
     10504     10503     10506     10505     10503     10506     10502     10507     10508
     10502     10507     10509     10502     10507     10510     10508     10507     10509
     10508     10507     10510     10509     10507     10510     10502     10511     10512
     10502     10511     10513     10502     10511     10514     10512     10511     10513
     10512     10511     10514     10513     10511     10514     10502     10515     10516
     10502     10515     10517     10502     10515     10518     10516     10515     10517
     10516     10515     10518     10517     10515     10518     10515     10518     10519
     10515     10518     10520     10515     10518     10525     10519     10518     10520
     10519     10518     10525     10520     10518     10525     10522     10521     10523
     10522     10521     10524     10522     10521     10525     10523     10521     10524
     10523     10521     10525     10524     10521     10525     10521     10524     10526
     10518     10525     10521     10524     10526     10527     10524     10526     10528
     10524     10526     10531     10527     10526     10528     10527     10526     10531
     10528     10526     10531     10530     10529     10531     10530     10529     10581
     10531     10529     10581     10526     10531     10529     10526     10531     10532
     10526     10531     10533     10529     10531     10532     10529     10531     10533
     10532     10531     10533     10531     10533     10534     10531     10533     10535
     10531     10533     10537     10534     10533     10535     10534     10533     10537
     10535     10533     10537     10533     10535     10536     10533     10537     10538
     10533     10537     10539     10538     10537     10539     10537     10539     10540
     10537     10539     10541     10540     10539     10541     10539     10541     10542
     10539     10541     10543     10539     10541     10544     10542     10541     10543
     10542     10541     10544     10543     10541     10544     10541     10544     10545
     10541     10544     10546     10541     10544     10547     10545     10544     10546
     10545     10544     10547     10546     10544     10547     10544     10547     10548
     10544     10547     10549     10544     10547     10550     10548     10547     10549
     10548     10547     10550     10549     10547     10550     10547     10550     10551
     10547     10550     10552     10547     10550     10553     10551     10550     10552
     10551     10550     10553     10552     10550     10553     10550     10553     10554
     10550     10553     10555     10550     10553     10556     10554     10553     10555
     10554     10553     10556     10555     10553     10556     10553     10556     10557
     10553     10556     10558     10553     10556     10559     10557     10556     10558
     10557     10556     10559     10558     10556     10559     10556     10559     10560
     10556     10559     10561     10556     10559     10562     10560     10559     10561
     10560     10559     10562     10561     10559     10562     10559     10562     10563
     10559     10562     10564     10559     10562     10565     10563     10562     10564
     10563     10562     10565     10564     10562     10565     10562     10565     10566
     10562     10565     10567     10562     10565     10568     10566     10565     10567
     10566     10565     10568     10567     10565     10568     10565     10568     10569
     10565     10568     10570     10565     10568     10571     10569     10568     10570
     10569     10568     10571     10570     10568     10571     10568     10571     10572
     10568     10571     10573     10568     10571     10574     10572     10571     10573
     10572     10571     10574     10573     10571     10574     10571     10574     10575
     10571     10574     10576     10571     10574     10577     10575     10574     10576
     10575     10574     10577     10576     10574     10577     10574     10577     10578
     10574     10577     10579     10574     10577     10580     10578     10577     10579
     10578     10577     10580     10579     10577     10580     10529     10581     10582
     10529     10581     10583     10582     10581     10583     10581     10583     10584
     10581     10583     10585     10581     10583     10586     10584     10583     10585
     10584     10583     10586     10585     10583     10586     10583     10586     10587
     10583     10586     10588     10583     10586     10589     10587     10586     10588
     10587     10586     10589     10588     10586     10589     10586     10589     10590
     10586     10589     10591     10586     10589     10592     10590     10589     10591
     10590     10589     10592     10591     10589     10592     10589     10592     10593
     10589     10592     10594     10589     10592     10595     10593     10592     10594
     10593     10592     10595     10594     10592     10595     10592     10595     10596
     10592     10595     10597     10592     10595     10598     10596     10595     10597
     10596     10595     10598     10597     10595     10598     10595     10598     10599
     10595     10598     10600     10595     10598     10601     10599     10598     10600
     10599     10598     10601     10600     10598     10601     10598     10601     10602
     10598     10601     10603     10598     10601     10604     10602     10601     10603
     10602     10601     10604     10603     10601     10604     10601     10604     10605
     10601     10604     10606     10605     10604     10606     10604     10606     10607
     10604     10606     10608     10607     10606     10608     10606     10608     10609
     10606     10608     10610     10606     10608     10611     10609     10608     10610
     10609     10608     10611     10610     10608     10611     10608     10611     10612
     10608     10611     10613     10608     10611     10614     10612     10611     10613
     10612     10611     10614     10613     10611     10614     10611     10614     10615
     10611     10614     10616     10611     10614     10617     10615     10614     10616
     10615     10614     10617     10616     10614     10617     10614     10617     10618
     10614     10617     10619     10614     10617     10620     10618     10617     10619
     10618     10617     10620     10619     10617     10620     10617     10620     10621
     10617     10620     10622     10617     10620     10623     10621     10620     10622
     10621     10620     10623     10622     10620     10623     10620     10623     10624
     10620     10623     10625     10620     10623     10626     10624     10623     10625
     10624     10623     10626     10625     10623     10626     10623     10626     10627
     10623     10626     10628     10623     10626     10629     10627     10626     10628
     10627     10626     10629     10628     10626     10629     10626     10629     10630
     10626     10629     10631     10626     10629     10632     10630     10629     10631
     10630     10629     10632     10631     10629     10632     10634     10633     10638
     10634     10633     10642     10634     10633     10646     10638     10633     10642
     10638     10633     10646     10642     10633     10646     10633     10634     10635
     10633     10634     10636     10633     10634     10637     10635     10634     10636
     10635     10634     10637     10636     10634     10637     10633     10638     10639
     10633     10638     10640     10633     10638     10641     10639     10638     10640
     10639     10638     10641     10640     10638     10641     10633     10642     10643
     10633     10642     10644     10633     10642     10645     10643     10642     10644
     10643     10642     10645     10644     10642     10645     10633     10646     10647
     10633     10646     10648     10633     10646     10649     10647     10646     10648
     10647     10646     10649     10648     10646     10649     10646     10649     10650
     10646     10649     10651     10646     10649     10656     10650     10649     10651
     10650     10649     10656     10651     10649     10656     10653     10652     10654
     10653     10652     10655     10653     10652     10656     10654     10652     10655
     10654     10652     10656     10655     10652     10656     10652     10655     10657
     10649     10656     10652     10655     10657     10658     10655     10657     10659
     10655     10657     10662     10658     10657     10659     10658     10657     10662
     10659     10657     10662     10661     10660     10662     10661     10660     10712
     10662     10660     10712     10657     10662     10660     10657     10662     10663
     10657     10662     10664     10660     10662     10663     10660     10662     10664
     10663     10662     10664     10662     10664     10665     10662     10664     10666
     10662     10664     10668     10665     10664     10666     10665     10664     10668
     10666     10664     10668     10664     10666     10667     10664     10668     10669
     10664     10668     10670     10669     10668     10670     10668     10670     10671
     10668     10670     10672     10671     10670     10672     10670     10672     10673
     10670     10672     10674     10670     10672     10675     10673     10672     10674
     10673     10672     10675     10674     10672     10675     10672     10675     10676
     10672     10675     10677     10672     10675     10678     10676     10675     10677
     10676     10675     10678     10677     10675     10678     10675     10678     10679
     10675     10678     10680     10675     10678     10681     10679     10678     10680
     10679     10678     10681     10680     10678     10681     10678     10681     10682
     10678     10681     10683     10678     10681     10684     10682     10681     10683
     10682     10681     10684     10683     10681     10684     10681     10684     10685
     10681     10684     10686     10681     10684     10687     10685     10684     10686
     10685     10684     10687     10686     10684     10687     10684     10687     10688
     10684     10687     10689     10684     10687     10690     10688     10687     10689
     10688     10687     10690     10689     10687     10690     10687     10690     10691
     10687     10690     10692     10687     10690     10693     10691     10690     10692
     10691     10690     10693     10692     10690     10693     10690     10693     10694
     10690     10693     10695     10690     10693     10696     10694     10693     10695
     10694     10693     10696     10695     10693     10696     10693     10696     10697
     10693     10696     10698     10693     10696     10699     10697     10696     10698
     10697     10696     10699     10698     10696     10699     10696     10699     10700
     10696     10699     10701     10696     10699     10702     10700     10699     10701
     10700     10699     10702     10701     10699     10702     10699     10702     10703
     10699     10702     10704     10699     10702     10705     10703     10702     10704
     10703     10702     10705     10704     10702     10705     10702     10705     10706
     10702     10705     10707     10702     10705     10708     10706     10705     10707
     10706     10705     10708     10707     10705     10708     10705     10708     10709
     10705     10708     10710     10705     10708     10711     10709     10708     10710
     10709     10708     10711     10710     10708     10711     10660     10712     10713
     10660     10712     10714     10713     10712     10714     10712     10714     10715
     10712     10714     10716     10712     10714     10717     10715     10714     10716
     10715     10714     10717     10716     10714     10717     10714     10717     10718
     10714     10717     10719     10714     10717     10720     10718     10717     10719
     10718     10717     10720     10719     10717     10720     10717     10720     10721
     10717     10720     10722     10717     10720     10723     10721     10720     10722
     10721     10720     10723     10722     10720     10723     10720     10723     10724
     10720     10723     10725     10720     10723     10726     10724     10723     10725
     10724     10723     10726     10725     10723     10726     10723     10726     10727
     10723     10726     10728     10723     10726     10729     10727     10726     10728
     10727     10726     10729     10728     10726     10729     10726     10729     10730
     10726     10729     10731     10726     10729     10732     10730     10729     10731
     10730     10729     10732     10731     10729     10732     10729     10732     10733
     10729     10732     10734     10729     10732     10735     10733     10732     10734
     10733     10732     10735     10734     10732     10735     10732     10735     10736
     10732     10735     10737     10736     10735     10737     10735     10737     10738
     10735     10737     10739     10738     10737     10739     10737     10739     10740
     10737     10739     10741     10737     10739     10742     10740     10739     10741
     10740     10739     10742     10741     10739     10742     10739     10742     10743
     10739     10742     10744     10739     10742     10745     10743     10742     10744
     10743     10742     10745     10744     10742     10745     10742     10745     10746
     10742     10745     10747     10742     10745     10748     10746     10745     10747
     10746     10745     10748     10747     10745     10748     10745     10748     10749
     10745     10748     10750     10745     10748     10751     10749     10748     10750
     10749     10748     10751     10750     10748     10751     10748     10751     10752
     10748     10751     10753     10748     10751     10754     10752     10751     10753
     10752     10751     10754     10753     10751     10754     10751     10754     10755
     10751     10754     10756     10751     10754     10757     10755     10754     10756
     10755     10754     10757     10756     10754     10757     10754     10757     10758
     10754     10757     10759     10754     10757     10760     10758     10757     10759
     10758     10757     10760     10759     10757     10760     10757     10760     10761
     10757     10760     10762     10757     10760     10763     10761     10760     10762
     10761     10760     10763     10762     10760     10763      6404      6403      6405
      6404      6403      6407      6404      6403      6449      6405      6403      6407
      6405      6403      6449      6407      6403      6449      6403      6405      6406
      6403      6407      6408      6403      6407      6409      6403      6407      6410
      6408      6407      6409      6408      6407      6410      6409      6407      6410
      6407      6410      6411      6407      6410      6441      6411      6410      6441
      6410      6411      6412      6410      6411      6413      6412      6411      6413
      6411      6413      6414      6411      6413      6415      6411      6413      6416
      6414      6413      6415      6414      6413      6416      6415      6413      6416
      6413      6416      6417      6413      6416      6418      6413      6416      6439
      6417      6416      6418      6417      6416      6439      6418      6416      6439
      6416      6418      6419      6416      6418      6420      6416      6418      6428
      6419      6418      6420      6419      6418      6428      6420      6418      6428
      6418      6420      6421      6418      6420      6422      6418      6420      6423
      6421      6420      6422      6421      6420      6423      6422      6420      6423
      6420      6423      6424      6420      6423      6425      6420      6423      6426
      6424      6423      6425      6424      6423      6426      6425      6423      6426
      6423      6426      6427      6423      6426      6428      6423      6426      6452
      6427      6426      6428      6427      6426      6452      6428      6426      6452
      6418      6428      6426      6418      6428      6429      6418      6428      6433
      6426      6428      6429      6426      6428      6433      6429      6428      6433
      6428      6429      6430      6428      6429      6431      6428      6429      6432
      6430      6429      6431      6430      6429      6432      6431      6429      6432
      6428      6433      6434      6428      6433      6435      6428      6433      6436
      6434      6433      6435      6434      6433      6436      6435      6433      6436
      6433      6436      6437      6433      6436      6438      6433      6436      6439
      6437      6436      6438      6437      6436      6439      6438      6436      6439
      6416      6439      6436      6416      6439      6440      6416      6439      6441
      6436      6439      6440      6436      6439      6441      6440      6439      6441
      6410      6441      6439      6410      6441      6442      6410      6441      6446
      6439      6441      6442      6439      6441      6446      6442      6441      6446
      6441      6442      6443      6441      6442      6444      6441      6442      6445
      6443      6442      6444      6443      6442      6445      6444      6442      6445
      6441      6446      6447      6441      6446      6448      6441      6446      6449
      6447      6446      6448      6447      6446      6449      6448      6446      6449
      6403      6449      6446      6403      6449      6450      6403      6449      6451
      6446      6449      6450      6446      6449      6451      6450      6449      6451
      6426      6452      6453      6426      6452      6454      6426      6452      6458
      6453      6452      6454      6453      6452      6458      6454      6452      6458
      6452      6454      6455      6452      6454      6456      6452      6454      6457
      6455      6454      6456      6455      6454      6457      6456      6454      6457
      6452      6458      6459      6452      6458      6460      6452      6458      6461
      6459      6458      6460      6459      6458      6461      6460      6458      6461
      6458      6461      6462      6458      6461      6463      6458      6461      6464
      6462      6461      6463      6462      6461      6464      6463      6461      6464
      6461      6464      6465      6461      6464      6466      6461      6464      6467
      6465      6464      6466      6465      6464      6467      6466      6464      6467
      6464      6467      6468      6464      6467      6469      6464      6467      6473
      6468      6467      6469      6468      6467      6473      6469      6467      6473
      6467      6469      6470      6467      6469      6471      6467      6469      6472
      6470      6469      6471      6470      6469      6472      6471      6469      6472
      6467      6473      6474      6467      6473      6475      6467      6473      6476
      6474      6473      6475      6474      6473      6476      6475      6473      6476
      6478      6477      6479      6478      6477      6481      6478      6477      6523
      6479      6477      6481      6479      6477      6523      6481      6477      6523
      6477      6479      6480      6477      6481      6482      6477      6481      6483
      6477      6481      6484      6482      6481      6483      6482      6481      6484
      6483      6481      6484      6481      6484      6485      6481      6484      6515
      6485      6484      6515      6484      6485      6486      6484      6485      6487
      6486      6485      6487      6485      6487      6488      6485      6487      6489
      6485      6487      6490      6488      6487      6489      6488      6487      6490
      6489      6487      6490      6487      6490      6491      6487      6490      6492
      6487      6490      6513      6491      6490      6492      6491      6490      6513
      6492      6490      6513      6490      6492      6493      6490      6492      6494
      6490      6492      6502      6493      6492      6494      6493      6492      6502
      6494      6492      6502      6492      6494      6495      6492      6494      6496
      6492      6494      6497      6495      6494      6496      6495      6494      6497
      6496      6494      6497      6494      6497      6498      6494      6497      6499
      6494      6497      6500      6498      6497      6499      6498      6497      6500
      6499      6497      6500      6497      6500      6501      6497      6500      6502
      6497      6500      6526      6501      6500      6502      6501      6500      6526
      6502      6500      6526      6492      6502      6500      6492      6502      6503
      6492      6502      6507      6500      6502      6503      6500      6502      6507
      6503      6502      6507      6502      6503      6504      6502      6503      6505
      6502      6503      6506      6504      6503      6505      6504      6503      6506
      6505      6503      6506      6502      6507      6508      6502      6507      6509
      6502      6507      6510      6508      6507      6509      6508      6507      6510
      6509      6507      6510      6507      6510      6511      6507      6510      6512
      6507      6510      6513      6511      6510      6512      6511      6510      6513
      6512      6510      6513      6490      6513      6510      6490      6513      6514
      6490      6513      6515      6510      6513      6514      6510      6513      6515
      6514      6513      6515      6484      6515      6513      6484      6515      6516
      6484      6515      6520      6513      6515      6516      6513      6515      6520
      6516      6515      6520      6515      6516      6517      6515      6516      6518
      6515      6516      6519      6517      6516      6518      6517      6516      6519
      6518      6516      6519      6515      6520      6521      6515      6520      6522
      6515      6520      6523      6521      6520      6522      6521      6520      6523
      6522      6520      6523      6477      6523      6520      6477      6523      6524
      6477      6523      6525      6520      6523      6524      6520      6523      6525
      6524      6523      6525      6500      6526      6527      6500      6526      6528
      6500      6526      6532      6527      6526      6528      6527      6526      6532
      6528      6526      6532      6526      6528      6529      6526      6528      6530
      6526      6528      6531      6529      6528      6530      6529      6528      6531
      6530      6528      6531      6526      6532      6533      6526      6532      6534
      6526      6532      6535      6533      6532      6534      6533      6532      6535
      6534      6532      6535      6532      6535      6536      6532      6535      6537
      6532      6535      6538      6536      6535      6537      6536      6535      6538
      6537      6535      6538      6535      6538      6539      6535      6538      6540
      6535      6538      6541      6539      6538      6540      6539      6538      6541
      6540      6538      6541      6538      6541      6542      6538      6541      6543
      6538      6541      6547      6542      6541      6543      6542      6541      6547
      6543      6541      6547      6541      6543      6544      6541      6543      6545
      6541      6543      6546      6544      6543      6545      6544      6543      6546
      6545      6543      6546      6541      6547      6548      6541      6547      6549
      6541      6547      6550      6548      6547      6549      6548      6547      6550
      6549      6547      6550      6552      6551      6553      6552      6551      6555
      6552      6551      6597      6553      6551      6555      6553      6551      6597
      6555      6551      6597      6551      6553      6554      6551      6555      6556
      6551      6555      6557      6551      6555      6558      6556      6555      6557
      6556      6555      6558      6557      6555      6558      6555      6558      6559
      6555      6558      6589      6559      6558      6589      6558      6559      6560
      6558      6559      6561      6560      6559      6561      6559      6561      6562
      6559      6561      6563      6559      6561      6564      6562      6561      6563
      6562      6561      6564      6563      6561      6564      6561      6564      6565
      6561      6564      6566      6561      6564      6587      6565      6564      6566
      6565      6564      6587      6566      6564      6587      6564      6566      6567
      6564      6566      6568      6564      6566      6576      6567      6566      6568
      6567      6566      6576      6568      6566      6576      6566      6568      6569
      6566      6568      6570      6566      6568      6571      6569      6568      6570
      6569      6568      6571      6570      6568      6571      6568      6571      6572
      6568      6571      6573      6568      6571      6574      6572      6571      6573
      6572      6571      6574      6573      6571      6574      6571      6574      6575
      6571      6574      6576      6571      6574      6600      6575      6574      6576
      6575      6574      6600      6576      6574      6600      6566      6576      6574
      6566      6576      6577      6566      6576      6581      6574      6576      6577
      6574      6576      6581      6577      6576      6581      6576      6577      6578
      6576      6577      6579      6576      6577      6580      6578      6577      6579
      6578      6577      6580      6579      6577      6580      6576      6581      6582
      6576      6581      6583      6576      6581      6584      6582      6581      6583
      6582      6581      6584      6583      6581      6584      6581      6584      6585
      6581      6584      6586      6581      6584      6587      6585      6584      6586
      6585      6584      6587      6586      6584      6587      6564      6587      6584
      6564      6587      6588      6564      6587      6589      6584      6587      6588
      6584      6587      6589      6588      6587      6589      6558      6589      6587
      6558      6589      6590      6558      6589      6594      6587      6589      6590
      6587      6589      6594      6590      6589      6594      6589      6590      6591
      6589      6590      6592      6589      6590      6593      6591      6590      6592
      6591      6590      6593      6592      6590      6593      6589      6594      6595
      6589      6594      6596      6589      6594      6597      6595      6594      6596
      6595      6594      6597      6596      6594      6597      6551      6597      6594
      6551      6597      6598      6551      6597      6599      6594      6597      6598
      6594      6597      6599      6598      6597      6599      6574      6600      6601
      6574      6600      6602      6574      6600      6606      6601      6600      6602
      6601      6600      6606      6602      6600      6606      6600      6602      6603
      6600      6602      6604      6600      6602      6605      6603      6602      6604
      6603      6602      6605      6604      6602      6605      6600      6606      6607
      6600      6606      6608      6600      6606      6609      6607      6606      6608
      6607      6606      6609      6608      6606      6609      6606      6609      6610
      6606      6609      6611      6606      6609      6612      6610      6609      6611
      6610      6609      6612      6611      6609      6612      6609      6612      6613
      6609      6612      6614      6609      6612      6615      6613      6612      6614
      6613      6612      6615      6614      6612      6615      6612      6615      6616
      6612      6615      6617      6612      6615      6621      6616      6615      6617
      6616      6615      6621      6617      6615      6621      6615      6617      6618
      6615      6617      6619      6615      6617      6620      6618      6617      6619
      6618      6617      6620      6619      6617      6620      6615      6621      6622
      6615      6621      6623      6615      6621      6624      6622      6621      6623
      6622      6621      6624      6623      6621      6624      6626      6625      6627
      6626      6625      6629      6626      6625      6671      6627      6625      6629
      6627      6625      6671      6629      6625      6671      6625      6627      6628
      6625      6629      6630      6625      6629      6631      6625      6629      6632
      6630      6629      6631      6630      6629      6632      6631      6629      6632
      6629      6632      6633      6629      6632      6663      6633      6632      6663
      6632      6633      6634      6632      6633      6635      6634      6633      6635
      6633      6635      6636      6633      6635      6637      6633      6635      6638
      6636      6635      6637      6636      6635      6638      6637      6635      6638
      6635      6638      6639      6635      6638      6640      6635      6638      6661
      6639      6638      6640      6639      6638      6661      6640      6638      6661
      6638      6640      6641      6638      6640      6642      6638      6640      6650
      6641      6640      6642      6641      6640      6650      6642      6640      6650
      6640      6642      6643      6640      6642      6644      6640      6642      6645
      6643      6642      6644      6643      6642      6645      6644      6642      6645
      6642      6645      6646      6642      6645      6647      6642      6645      6648
      6646      6645      6647      6646      6645      6648      6647      6645      6648
      6645      6648      6649      6645      6648      6650      6645      6648      6674
      6649      6648      6650      6649      6648      6674      6650      6648      6674
      6640      6650      6648      6640      6650      6651      6640      6650      6655
      6648      6650      6651      6648      6650      6655      6651      6650      6655
      6650      6651      6652      6650      6651      6653      6650      6651      6654
      6652      6651      6653      6652      6651      6654      6653      6651      6654
      6650      6655      6656      6650      6655      6657      6650      6655      6658
      6656      6655      6657      6656      6655      6658      6657      6655      6658
      6655      6658      6659      6655      6658      6660      6655      6658      6661
      6659      6658      6660      6659      6658      6661      6660      6658      6661
      6638      6661      6658      6638      6661      6662      6638      6661      6663
      6658      6661      6662      6658      6661      6663      6662      6661      6663
      6632      6663      6661      6632      6663      6664      6632      6663      6668
      6661      6663      6664      6661      6663      6668      6664      6663      6668
      6663      6664      6665      6663      6664      6666      6663      6664      6667
      6665      6664      6666      6665      6664      6667      6666      6664      6667
      6663      6668      6669      6663      6668      6670      6663      6668      6671
      6669      6668      6670      6669      6668      6671      6670      6668      6671
      6625      6671      6668      6625      6671      6672      6625      6671      6673
      6668      6671      6672      6668      6671      6673      6672      6671      6673
      6648      6674      6675      6648      6674      6676      6648      6674      6680
      6675      6674      6676      6675      6674      6680      6676      6674      6680
      6674      6676      6677      6674      6676      6678      6674      6676      6679
      6677      6676      6678      6677      6676      6679      6678      6676      6679
      6674      6680      6681      6674      6680      6682      6674      6680      6683
      6681      6680      6682      6681      6680      6683      6682      6680      6683
      6680      6683      6684      6680      6683      6685      6680      6683      6686
      6684      6683      6685      6684      6683      6686      6685      6683      6686
      6683      6686      6687      6683      6686      6688      6683      6686      6689
      6687      6686      6688      6687      6686      6689      6688      6686      6689
      6686      6689      6690      6686      6689      6691      6686      6689      6695
      6690      6689      6691      6690      6689      6695      6691      6689      6695
      6689      6691      6692      6689      6691      6693      6689      6691      6694
      6692      6691      6693      6692      6691      6694      6693      6691      6694
      6689      6695      6696      6689      6695      6697      6689      6695      6698
      6696      6695      6697      6696      6695      6698      6697      6695      6698
     14957     14956     14958     14957     14956     14959     14957     14956     14960
     14958     14956     14959     14958     14956     14960     14959     14956     14960
     14956     14960     14961     14956     14960     14962     14956     14960     14963
     14961     14960     14962     14961     14960     14963     14962     14960     14963
     14960     14963     14964     14960     14963     14965     14960     14963     14969
     14964     14963     14965     14964     14963     14969     14965     14963     14969
     14967     14966     14968     14967     14966     14969     14967     14966     14970
     14968     14966     14969     14968     14966     14970     14969     14966     14970
     14963     14969     14966     14966     14970     14971     14970     14971     14972
     14970     14971     14973     14970     14971     14974     14972     14971     14973
     14972     14971     14974     14973     14971     14974     14971     14974     14975
     14971     14974     14976     14971     14974     14982     14975     14974     14976
     14975     14974     14982     14976     14974     14982     14974     14976     14977
     14976     14977     14978     14976     14977     14979     14978     14977     14979
     14977     14979     14980     14977     14979     14981     14977     14979     14991
     14980     14979     14981     14980     14979     14991     14981     14979     14991
     14974     14982     14983     14974     14982     14984     14974     14982     14985
     14983     14982     14984     14983     14982     14985     14984     14982     14985
     14982     14985     14986     14985     14986     14987     14985     14986     14988
     14987     14986     14988     14986     14988     14989     14986     14988     14990
     14986     14988     15038     14989     14988     14990     14989     14988     15038
     14990     14988     15038     14979     14991     14992     14979     14991     14993
     14979     14991     14994     14992     14991     14993     14992     14991     14994
     14993     14991     14994     14991     14994     14995     14991     14994     14996
     14991     14994     14997     14995     14994     14996     14995     14994     14997
     14996     14994     14997     14994     14997     14998     14994     14997     14999
     14998     14997     14999     14997     14999     15000     14997     14999     15001
     15000     14999     15001     14999     15001     15002     14999     15001     15003
     14999     15001     15004     15002     15001     15003     15002     15001     15004
     15003     15001     15004     15001     15004     15005     15001     15004     15006
     15005     15004     15006     15004     15006     15007     15004     15006     15008
     15007     15006     15008     15006     15008     15009     15006     15008     15010
     15006     15008     15011     15009     15008     15010     15009     15008     15011
     15010     15008     15011     15008     15011     15012     15008     15011     15013
     15012     15011     15013     15011     15013     15014     15011     15013     15015
     15014     15013     15015     15013     15015     15016     15013     15015     15017
     15013     15015     15018     15016     15015     15017     15016     15015     15018
     15017     15015     15018     15015     15018     15019     15015     15018     15020
     15019     15018     15020     15018     15020     15021     15018     15020     15022
     15021     15020     15022     15020     15022     15023     15020     15022     15024
     15020     15022     15025     15023     15022     15024     15023     15022     15025
     15024     15022     15025     15022     15025     15026     15022     15025     15027
     15022     15025     15028     15026     15025     15027     15026     15025     15028
     15027     15025     15028     15025     15028     15029     15025     15028     15030
     15025     15028     15031     15029     15028     15030     15029     15028     15031
     15030     15028     15031     15028     15031     15032     15028     15031     15033
     15028     15031     15034     15032     15031     15033     15032     15031     15034
     15033     15031     15034     15031     15034     15035     15031     15034     15036
     15031     15034     15037     15035     15034     15036     15035     15034     15037
     15036     15034     15037     14988     15038     15039     14988     15038     15040
     14988     15038     15041     15039     15038     15040     15039     15038     15041
     15040     15038     15041     15038     15041     15042     15038     15041     15043
     15038     15041     15044     15042     15041     15043     15042     15041     15044
     15043     15041     15044     15041     15044     15045     15041     15044     15046
     15041     15044     15047     15045     15044     15046     15045     15044     15047
     15046     15044     15047     15044     15047     15048     15044     15047     15049
     15044     15047     15050     15048     15047     15049     15048     15047     15050
     15049     15047     15050     15047     15050     15051     15047     15050     15052
     15047     15050     15053     15051     15050     15052     15051     15050     15053
     15052     15050     15053     15050     15053     15054     15050     15053     15055
     15050     15053     15056     15054     15053     15055     15054     15053     15056
     15055     15053     15056     15053     15056     15057     15053     15056     15058
     15053     15056     15059     15057     15056     15058     15057     15056     15059
     15058     15056     15059     15056     15059     15060     15056     15059     15061
     15056     15059     15062     15060     15059     15061     15060     15059     15062
     15061     15059     15062     15059     15062     15063     15059     15062     15064
     15059     15062     15065     15063     15062     15064     15063     15062     15065
     15064     15062     15065     15062     15065     15066     15062     15065     15067
     15062     15065     15068     15066     15065     15067     15066     15065     15068
     15067     15065     15068     15065     15068     15069     15065     15068     15070
     15065     15068     15071     15069     15068     15070     15069     15068     15071
     15070     15068     15071     15068     15071     15072     15068     15071     15073
     15068     15071     15074     15072     15071     15073     15072     15071     15074
     15073     15071     15074     15071     15074     15075     15071     15074     15076
     15071     15074     15077     15075     15074     15076     15075     15074     15077
     15076     15074     15077     15074     15077     15078     15074     15077     15079
     15074     15077     15080     15078     15077     15079     15078     15077     15080
     15079     15077     15080     15077     15080     15081     15077     15080     15082
     15077     15080     15083     15081     15080     15082     15081     15080     15083
     15082     15080     15083     15080     15083     15084     15080     15083     15085
     15080     15083     15086     15084     15083     15085     15084     15083     15086
     15085     15083     15086      6700      6699      6701      6700      6699      6703
      6700      6699      6745      6701      6699      6703      6701      6699      6745
      6703      6699      6745      6699      6701      6702      6699      6703      6704
      6699      6703      6705      6699      6703      6706      6704      6703      6705
      6704      6703      6706      6705      6703      6706      6703      6706      6707
      6703      6706      6737      6707      6706      6737      6706      6707      6708
      6706      6707      6709      6708      6707      6709      6707      6709      6710
      6707      6709      6711      6707      6709      6712      6710      6709      6711
      6710      6709      6712      6711      6709      6712      6709      6712      6713
      6709      6712      6714      6709      6712      6735      6713      6712      6714
      6713      6712      6735      6714      6712      6735      6712      6714      6715
      6712      6714      6716      6712      6714      6724      6715      6714      6716
      6715      6714      6724      6716      6714      6724      6714      6716      6717
      6714      6716      6718      6714      6716      6719      6717      6716      6718
      6717      6716      6719      6718      6716      6719      6716      6719      6720
      6716      6719      6721      6716      6719      6722      6720      6719      6721
      6720      6719      6722      6721      6719      6722      6719      6722      6723
      6719      6722      6724      6719      6722      6748      6723      6722      6724
      6723      6722      6748      6724      6722      6748      6714      6724      6722
      6714      6724      6725      6714      6724      6729      6722      6724      6725
      6722      6724      6729      6725      6724      6729      6724      6725      6726
      6724      6725      6727      6724      6725      6728      6726      6725      6727
      6726      6725      6728      6727      6725      6728      6724      6729      6730
      6724      6729      6731      6724      6729      6732      6730      6729      6731
      6730      6729      6732      6731      6729      6732      6729      6732      6733
      6729      6732      6734      6729      6732      6735      6733      6732      6734
      6733      6732      6735      6734      6732      6735      6712      6735      6732
      6712      6735      6736      6712      6735      6737      6732      6735      6736
      6732      6735      6737      6736      6735      6737      6706      6737      6735
      6706      6737      6738      6706      6737      6742      6735      6737      6738
      6735      6737      6742      6738      6737      6742      6737      6738      6739
      6737      6738      6740      6737      6738      6741      6739      6738      6740
      6739      6738      6741      6740      6738      6741      6737      6742      6743
      6737      6742      6744      6737      6742      6745      6743      6742      6744
      6743      6742      6745      6744      6742      6745      6699      6745      6742
      6699      6745      6746      6699      6745      6747      6742      6745      6746
      6742      6745      6747      6746      6745      6747      6722      6748      6749
      6722      6748      6750      6722      6748      6754      6749      6748      6750
      6749      6748      6754      6750      6748      6754      6748      6750      6751
      6748      6750      6752      6748      6750      6753      6751      6750      6752
      6751      6750      6753      6752      6750      6753      6748      6754      6755
      6748      6754      6756      6748      6754      6757      6755      6754      6756
      6755      6754      6757      6756      6754      6757      6754      6757      6758
      6754      6757      6759      6754      6757      6760      6758      6757      6759
      6758      6757      6760      6759      6757      6760      6757      6760      6761
      6757      6760      6762      6757      6760      6763      6761      6760      6762
      6761      6760      6763      6762      6760      6763      6760      6763      6764
      6760      6763      6765      6760      6763      6769      6764      6763      6765
      6764      6763      6769      6765      6763      6769      6763      6765      6766
      6763      6765      6767      6763      6765      6768      6766      6765      6767
      6766      6765      6768      6767      6765      6768      6763      6769      6770
      6763      6769      6771      6763      6769      6772      6770      6769      6771
      6770      6769      6772      6771      6769      6772       401       400       402
       401       400       403       401       400       404       402       400       403
       402       400       404       403       400       404       400       404       405
       400       404       406       400       404       409       405       404       406
       405       404       409       406       404       409       404       406       407
       404       406       408       407       406       408       404       409       410
       404       409       411       404       409       415       410       409       411
       410       409       415       411       409       415       413       412       414
       413       412       415       413       412       416       414       412       415
       414       412       416       415       412       416       409       415       412
       412       416       417       416       417       418       416       417       419
       416       417       420       418       417       419       418       417       420
       419       417       420       417       420       421       417       420       422
       417       420       428       421       420       422       421       420       428
       422       420       428       420       422       423       422       423       424
       422       423       425       424       423       425       423       425       426
       423       425       427       423       425       437       426       425       427
       426       425       437       427       425       437       420       428       429
       420       428       430       420       428       431       429       428       430
       429       428       431       430       428       431       428       431       432
       431       432       433       431       432       434       433       432       434
       432       434       435       432       434       436       432       434       484
       435       434       436       435       434       484       436       434       484
       425       437       438       425       437       439       425       437       440
       438       437       439       438       437       440       439       437       440
       437       440       441       437       440       442       437       440       443
       441       440       442       441       440       443       442       440       443
       440       443       444       440       443       445       444       443       445
       443       445       446       443       445       447       446       445       447
       445       447       448       445       447       449       445       447       450
       448       447       449       448       447       450       449       447       450
       447       450       451       447       450       452       451       450       452
       450       452       453       450       452       454       453       452       454
       452       454       455       452       454       456       452       454       457
       455       454       456       455       454       457       456       454       457
       454       457       458       454       457       459       458       457       459
       457       459       460       457       459       461       460       459       461
       459       461       462       459       461       463       459       461       464
       462       461       463       462       461       464       463       461       464
       461       464       465       461       464       466       465       464       466
       464       466       467       464       466       468       467       466       468
       466       468       469       466       468       470       466       468       471
       469       468       470       469       468       471       470       468       471
       468       471       472       468       471       473       468       471       474
       472       471       473       472       471       474       473       471       474
       471       474       475       471       474       476       471       474       477
       475       474       476       475       474       477       476       474       477
       474       477       478       474       477       479       474       477       480
       478       477       479       478       477       480       479       477       480
       477       480       481       477       480       482       477       480       483
       481       480       482       481       480       483       482       480       483
       434       484       485       434       484       486       434       484       487
       485       484       486       485       484       487       486       484       487
       484       487       488       484       487       489       484       487       490
       488       487       489       488       487       490       489       487       490
       487       490       491       487       490       492       487       490       493
       491       490       492       491       490       493       492       490       493
       490       493       494       490       493       495       490       493       496
       494       493       495       494       493       496       495       493       496
       493       496       497       493       496       498       493       496       499
       497       496       498       497       496       499       498       496       499
       496       499       500       496       499       501       496       499       502
       500       499       501       500       499       502       501       499       502
       499       502       503       499       502       504       499       502       505
       503       502       504       503       502       505       504       502       505
       502       505       506       502       505       507       502       505       508
       506       505       507       506       505       508       507       505       508
       505       508       509       505       508       510       505       508       511
       509       508       510       509       508       511       510       508       511
       508       511       512       508       511       513       508       511       514
       512       511       513       512       511       514       513       511       514
       511       514       515       511       514       516       511       514       517
       515       514       516       515       514       517       516       514       517
       514       517       518       514       517       519       514       517       520
       518       517       519       518       517       520       519       517       520
       517       520       521       517       520       522       517       520       523
       521       520       522       521       520       523       522       520       523
       520       523       524       520       523       525       520       523       526
       524       523       525       524       523       526       525       523       526
       523       526       527       523       526       528       523       526       529
       527       526       528       527       526       529       528       526       529
       526       529       530       526       529       531       526       529       532
       530       529       531       530       529       532       531       529       532
      6774      6773      6775      6774      6773      6777      6774      6773      6819
      6775      6773      6777      6775      6773      6819      6777      6773      6819
      6773      6775      6776      6773      6777      6778      6773      6777      6779
      6773      6777      6780      6778      6777      6779      6778      6777      6780
      6779      6777      6780      6777      6780      6781      6777      6780      6811
      6781      6780      6811      6780      6781      6782      6780      6781      6783
      6782      6781      6783      6781      6783      6784      6781      6783      6785
      6781      6783      6786      6784      6783      6785      6784      6783      6786
      6785      6783      6786      6783      6786      6787      6783      6786      6788
      6783      6786      6809      6787      6786      6788      6787      6786      6809
      6788      6786      6809      6786      6788      6789      6786      6788      6790
      6786      6788      6798      6789      6788      6790      6789      6788      6798
      6790      6788      6798      6788      6790      6791      6788      6790      6792
      6788      6790      6793      6791      6790      6792      6791      6790      6793
      6792      6790      6793      6790      6793      6794      6790      6793      6795
      6790      6793      6796      6794      6793      6795      6794      6793      6796
      6795      6793      6796      6793      6796      6797      6793      6796      6798
      6793      6796      6822      6797      6796      6798      6797      6796      6822
      6798      6796      6822      6788      6798      6796      6788      6798      6799
      6788      6798      6803      6796      6798      6799      6796      6798      6803
      6799      6798      6803      6798      6799      6800      6798      6799      6801
      6798      6799      6802      6800      6799      6801      6800      6799      6802
      6801      6799      6802      6798      6803      6804      6798      6803      6805
      6798      6803      6806      6804      6803      6805      6804      6803      6806
      6805      6803      6806      6803      6806      6807      6803      6806      6808
      6803      6806      6809      6807      6806      6808      6807      6806      6809
      6808      6806      6809      6786      6809      6806      6786      6809      6810
      6786      6809      6811      6806      6809      6810      6806      6809      6811
      6810      6809      6811      6780      6811      6809      6780      6811      6812
      6780      6811      6816      6809      6811      6812      6809      6811      6816
      6812      6811      6816      6811      6812      6813      6811      6812      6814
      6811      6812      6815      6813      6812      6814      6813      6812      6815
      6814      6812      6815      6811      6816      6817      6811      6816      6818
      6811      6816      6819      6817      6816      6818      6817      6816      6819
      6818      6816      6819      6773      6819      6816      6773      6819      6820
      6773      6819      6821      6816      6819      6820      6816      6819      6821
      6820      6819      6821      6796      6822      6823      6796      6822      6824
      6796      6822      6828      6823      6822      6824      6823      6822      6828
      6824      6822      6828      6822      6824      6825      6822      6824      6826
      6822      6824      6827      6825      6824      6826      6825      6824      6827
      6826      6824      6827      6822      6828      6829      6822      6828      6830
      6822      6828      6831      6829      6828      6830      6829      6828      6831
      6830      6828      6831      6828      6831      6832      6828      6831      6833
      6828      6831      6834      6832      6831      6833      6832      6831      6834
      6833      6831      6834      6831      6834      6835      6831      6834      6836
      6831      6834      6837      6835      6834      6836      6835      6834      6837
      6836      6834      6837      6834      6837      6838      6834      6837      6839
      6834      6837      6843      6838      6837      6839      6838      6837      6843
      6839      6837      6843      6837      6839      6840      6837      6839      6841
      6837      6839      6842      6840      6839      6841      6840      6839      6842
      6841      6839      6842      6837      6843      6844      6837      6843      6845
      6837      6843      6846      6844      6843      6845      6844      6843      6846
      6845      6843      6846      6848      6847      6849      6848      6847      6851
      6848      6847      6893      6849      6847      6851      6849      6847      6893
      6851      6847      6893      6847      6849      6850      6847      6851      6852
      6847      6851      6853      6847      6851      6854      6852      6851      6853
      6852      6851      6854      6853      6851      6854      6851      6854      6855
      6851      6854      6885      6855      6854      6885      6854      6855      6856
      6854      6855      6857      6856      6855      6857      6855      6857      6858
      6855      6857      6859      6855      6857      6860      6858      6857      6859
      6858      6857      6860      6859      6857      6860      6857      6860      6861
      6857      6860      6862      6857      6860      6883      6861      6860      6862
      6861      6860      6883      6862      6860      6883      6860      6862      6863
      6860      6862      6864      6860      6862      6872      6863      6862      6864
      6863      6862      6872      6864      6862      6872      6862      6864      6865
      6862      6864      6866      6862      6864      6867      6865      6864      6866
      6865      6864      6867      6866      6864      6867      6864      6867      6868
      6864      6867      6869      6864      6867      6870      6868      6867      6869
      6868      6867      6870      6869      6867      6870      6867      6870      6871
      6867      6870      6872      6867      6870      6896      6871      6870      6872
      6871      6870      6896      6872      6870      6896      6862      6872      6870
      6862      6872      6873      6862      6872      6877      6870      6872      6873
      6870      6872      6877      6873      6872      6877      6872      6873      6874
      6872      6873      6875      6872      6873      6876      6874      6873      6875
      6874      6873      6876      6875      6873      6876      6872      6877      6878
      6872      6877      6879      6872      6877      6880      6878      6877      6879
      6878      6877      6880      6879      6877      6880      6877      6880      6881
      6877      6880      6882      6877      6880      6883      6881      6880      6882
      6881      6880      6883      6882      6880      6883      6860      6883      6880
      6860      6883      6884      6860      6883      6885      6880      6883      6884
      6880      6883      6885      6884      6883      6885      6854      6885      6883
      6854      6885      6886      6854      6885      6890      6883      6885      6886
      6883      6885      6890      6886      6885      6890      6885      6886      6887
      6885      6886      6888      6885      6886      6889      6887      6886      6888
      6887      6886      6889      6888      6886      6889      6885      6890      6891
      6885      6890      6892      6885      6890      6893      6891      6890      6892
      6891      6890      6893      6892      6890      6893      6847      6893      6890
      6847      6893      6894      6847      6893      6895      6890      6893      6894
      6890      6893      6895      6894      6893      6895      6870      6896      6897
      6870      6896      6898      6870      6896      6902      6897      6896      6898
      6897      6896      6902      6898      6896      6902      6896      6898      6899
      6896      6898      6900      6896      6898      6901      6899      6898      6900
      6899      6898      6901      6900      6898      6901      6896      6902      6903
      6896      6902      6904      6896      6902      6905      6903      6902      6904
      6903      6902      6905      6904      6902      6905      6902      6905      6906
      6902      6905      6907      6902      6905      6908      6906      6905      6907
      6906      6905      6908      6907      6905      6908      6905      6908      6909
      6905      6908      6910      6905      6908      6911      6909      6908      6910
      6909      6908      6911      6910      6908      6911      6908      6911      6912
      6908      6911      6913      6908      6911      6917      6912      6911      6913
      6912      6911      6917      6913      6911      6917      6911      6913      6914
      6911      6913      6915      6911      6913      6916      6914      6913      6915
      6914      6913      6916      6915      6913      6916      6911      6917      6918
      6911      6917      6919      6911      6917      6920      6918      6917      6919
      6918      6917      6920      6919      6917      6920     15088     15087     15089
     15088     15087     15090     15088     15087     15091     15089     15087     15090
     15089     15087     15091     15090     15087     15091     15087     15091     15092
     15087     15091     15093     15087     15091     15094     15092     15091     15093
     15092     15091     15094     15093     15091     15094     15091     15094     15095
     15091     15094     15096     15091     15094     15100     15095     15094     15096
     15095     15094     15100     15096     15094     15100     15098     15097     15099
     15098     15097     15100     15098     15097     15101     15099     15097     15100
     15099     15097     15101     15100     15097     15101     15094     15100     15097
     15097     15101     15102     15101     15102     15103     15101     15102     15104
     15101     15102     15105     15103     15102     15104     15103     15102     15105
     15104     15102     15105     15102     15105     15106     15102     15105     15107
     15102     15105     15113     15106     15105     15107     15106     15105     15113
     15107     15105     15113     15105     15107     15108     15107     15108     15109
     15107     15108     15110     15109     15108     15110     15108     15110     15111
     15108     15110     15112     15108     15110     15122     15111     15110     15112
     15111     15110     15122     15112     15110     15122     15105     15113     15114
     15105     15113     15115     15105     15113     15116     15114     15113     15115
     15114     15113     15116     15115     15113     15116     15113     15116     15117
     15116     15117     15118     15116     15117     15119     15118     15117     15119
     15117     15119     15120     15117     15119     15121     15117     15119     15169
     15120     15119     15121     15120     15119     15169     15121     15119     15169
     15110     15122     15123     15110     15122     15124     15110     15122     15125
     15123     15122     15124     15123     15122     15125     15124     15122     15125
     15122     15125     15126     15122     15125     15127     15122     15125     15128
     15126     15125     15127     15126     15125     15128     15127     15125     15128
     15125     15128     15129     15125     15128     15130     15129     15128     15130
     15128     15130     15131     15128     15130     15132     15131     15130     15132
     15130     15132     15133     15130     15132     15134     15130     15132     15135
     15133     15132     15134     15133     15132     15135     15134     15132     15135
     15132     15135     15136     15132     15135     15137     15136     15135     15137
     15135     15137     15138     15135     15137     15139     15138     15137     15139
     15137     15139     15140     15137     15139     15141     15137     15139     15142
     15140     15139     15141     15140     15139     15142     15141     15139     15142
     15139     15142     15143     15139     15142     15144     15143     15142     15144
     15142     15144     15145     15142     15144     15146     15145     15144     15146
     15144     15146     15147     15144     15146     15148     15144     15146     15149
     15147     15146     15148     15147     15146     15149     15148     15146     15149
     15146     15149     15150     15146     15149     15151     15150     15149     15151
     15149     15151     15152     15149     15151     15153     15152     15151     15153
     15151     15153     15154     15151     15153     15155     15151     15153     15156
     15154     15153     15155     15154     15153     15156     15155     15153     15156
     15153     15156     15157     15153     15156     15158     15153     15156     15159
     15157     15156     15158     15157     15156     15159     15158     15156     15159
     15156     15159     15160     15156     15159     15161     15156     15159     15162
     15160     15159     15161     15160     15159     15162     15161     15159     15162
     15159     15162     15163     15159     15162     15164     15159     15162     15165
     15163     15162     15164     15163     15162     15165     15164     15162     15165
     15162     15165     15166     15162     15165     15167     15162     15165     15168
     15166     15165     15167     15166     15165     15168     15167     15165     15168
     15119     15169     15170     15119     15169     15171     15119     15169     15172
     15170     15169     15171     15170     15169     15172     15171     15169     15172
     15169     15172     15173     15169     15172     15174     15169     15172     15175
     15173     15172     15174     15173     15172     15175     15174     15172     15175
     15172     15175     15176     15172     15175     15177     15172     15175     15178
     15176     15175     15177     15176     15175     15178     15177     15175     15178
     15175     15178     15179     15175     15178     15180     15175     15178     15181
     15179     15178     15180     15179     15178     15181     15180     15178     15181
     15178     15181     15182     15178     15181     15183     15178     15181     15184
     15182     15181     15183     15182     15181     15184     15183     15181     15184
     15181     15184     15185     15181     15184     15186     15181     15184     15187
     15185     15184     15186     15185     15184     15187     15186     15184     15187
     15184     15187     15188     15184     15187     15189     15184     15187     15190
     15188     15187     15189     15188     15187     15190     15189     15187     15190
     15187     15190     15191     15187     15190     15192     15187     15190     15193
     15191     15190     15192     15191     15190     15193     15192     15190     15193
     15190     15193     15194     15190     15193     15195     15190     15193     15196
     15194     15193     15195     15194     15193     15196     15195     15193     15196
     15193     15196     15197     15193     15196     15198     15193     15196     15199
     15197     15196     15198     15197     15196     15199     15198     15196     15199
     15196     15199     15200     15196     15199     15201     15196     15199     15202
     15200     15199     15201     15200     15199     15202     15201     15199     15202
     15199     15202     15203     15199     15202     15204     15199     15202     15205
     15203     15202     15204     15203     15202     15205     15204     15202     15205
     15202     15205     15206     15202     15205     15207     15202     15205     15208
     15206     15205     15207     15206     15205     15208     15207     15205     15208
     15205     15208     15209     15205     15208     15210     15205     15208     15211
     15209     15208     15210     15209     15208     15211     15210     15208     15211
     15208     15211     15212     15208     15211     15213     15208     15211     15214
     15212     15211     15213     15212     15211     15214     15213     15211     15214
     15211     15214     15215     15211     15214     15216     15211     15214     15217
     15215     15214     15216     15215     15214     15217     15216     15214     15217
     15219     15218     15220     15219     15218     15221     15219     15218     15222
     15220     15218     15221     15220     15218     15222     15221     15218     15222
     15218     15222     15223     15218     15222     15224     15218     15222     15225
     15223     15222     15224     15223     15222     15225     15224     15222     15225
     15222     15225     15226     15222     15225     15227     15222     15225     15231
     15226     15225     15227     15226     15225     15231     15227     15225     15231
     15229     15228     15230     15229     15228     15231     15229     15228     15232
     15230     15228     15231     15230     15228     15232     15231     15228     15232
     15225     15231     15228     15228     15232     15233     15232     15233     15234
     15232     15233     15235     15232     15233     15236     15234     15233     15235
     15234     15233     15236     15235     15233     15236     15233     15236     15237
     15233     15236     15238     15233     15236     15244     15237     15236     15238
     15237     15236     15244     15238     15236     15244     15236     15238     15239
     15238     15239     15240     15238     15239     15241     15240     15239     15241
     15239     15241     15242     15239     15241     15243     15239     15241     15253
     15242     15241     15243     15242     15241     15253     15243     15241     15253
     15236     15244     15245     15236     15244     15246     15236     15244     15247
     15245     15244     15246     15245     15244     15247     15246     15244     15247
     15244     15247     15248     15247     15248     15249     15247     15248     15250
     15249     15248     15250     15248     15250     15251     15248     15250     15252
     15248     15250     15300     15251     15250     15252     15251     15250     15300
     15252     15250     15300     15241     15253     15254     15241     15253     15255
     15241     15253     15256     15254     15253     15255     15254     15253     15256
     15255     15253     15256     15253     15256     15257     15253     15256     15258
     15253     15256     15259     15257     15256     15258     15257     15256     15259
     15258     15256     15259     15256     15259     15260     15256     15259     15261
     15260     15259     15261     15259     15261     15262     15259     15261     15263
     15262     15261     15263     15261     15263     15264     15261     15263     15265
     15261     15263     15266     15264     15263     15265     15264     15263     15266
     15265     15263     15266     15263     15266     15267     15263     15266     15268
     15267     15266     15268     15266     15268     15269     15266     15268     15270
     15269     15268     15270     15268     15270     15271     15268     15270     15272
     15268     15270     15273     15271     15270     15272     15271     15270     15273
     15272     15270     15273     15270     15273     15274     15270     15273     15275
     15274     15273     15275     15273     15275     15276     15273     15275     15277
     15276     15275     15277     15275     15277     15278     15275     15277     15279
     15275     15277     15280     15278     15277     15279     15278     15277     15280
     15279     15277     15280     15277     15280     15281     15277     15280     15282
     15281     15280     15282     15280     15282     15283     15280     15282     15284
     15283     15282     15284     15282     15284     15285     15282     15284     15286
     15282     15284     15287     15285     15284     15286     15285     15284     15287
     15286     15284     15287     15284     15287     15288     15284     15287     15289
     15284     15287     15290     15288     15287     15289     15288     15287     15290
     15289     15287     15290     15287     15290     15291     15287     15290     15292
     15287     15290     15293     15291     15290     15292     15291     15290     15293
     15292     15290     15293     15290     15293     15294     15290     15293     15295
     15290     15293     15296     15294     15293     15295     15294     15293     15296
     15295     15293     15296     15293     15296     15297     15293     15296     15298
     15293     15296     15299     15297     15296     15298     15297     15296     15299
     15298     15296     15299     15250     15300     15301     15250     15300     15302
     15250     15300     15303     15301     15300     15302     15301     15300     15303
     15302     15300     15303     15300     15303     15304     15300     15303     15305
     15300     15303     15306     15304     15303     15305     15304     15303     15306
     15305     15303     15306     15303     15306     15307     15303     15306     15308
     15303     15306     15309     15307     15306     15308     15307     15306     15309
     15308     15306     15309     15306     15309     15310     15306     15309     15311
     15306     15309     15312     15310     15309     15311     15310     15309     15312
     15311     15309     15312     15309     15312     15313     15309     15312     15314
     15309     15312     15315     15313     15312     15314     15313     15312     15315
     15314     15312     15315     15312     15315     15316     15312     15315     15317
     15312     15315     15318     15316     15315     15317     15316     15315     15318
     15317     15315     15318     15315     15318     15319     15315     15318     15320
     15315     15318     15321     15319     15318     15320     15319     15318     15321
     15320     15318     15321     15318     15321     15322     15318     15321     15323
     15318     15321     15324     15322     15321     15323     15322     15321     15324
     15323     15321     15324     15321     15324     15325     15321     15324     15326
     15321     15324     15327     15325     15324     15326     15325     15324     15327
     15326     15324     15327     15324     15327     15328     15324     15327     15329
     15324     15327     15330     15328     15327     15329     15328     15327     15330
     15329     15327     15330     15327     15330     15331     15327     15330     15332
     15327     15330     15333     15331     15330     15332     15331     15330     15333
     15332     15330     15333     15330     15333     15334     15330     15333     15335
     15330     15333     15336     15334     15333     15335     15334     15333     15336
     15335     15333     15336     15333     15336     15337     15333     15336     15338
     15333     15336     15339     15337     15336     15338     15337     15336     15339
     15338     15336     15339     15336     15339     15340     15336     15339     15341
     15336     15339     15342     15340     15339     15341     15340     15339     15342
     15341     15339     15342     15339     15342     15343     15339     15342     15344
     15339     15342     15345     15343     15342     15344     15343     15342     15345
     15344     15342     15345     15342     15345     15346     15342     15345     15347
     15342     15345     15348     15346     15345     15347     15346     15345     15348
     15347     15345     15348     10765     10764     10769     10765     10764     10773
     10765     10764     10777     10769     10764     10773     10769     10764     10777
     10773     10764     10777     10764     10765     10766     10764     10765     10767
     10764     10765     10768     10766     10765     10767     10766     10765     10768
     10767     10765     10768     10764     10769     10770     10764     10769     10771
     10764     10769     10772     10770     10769     10771     10770     10769     10772
     10771     10769     10772     10764     10773     10774     10764     10773     10775
     10764     10773     10776     10774     10773     10775     10774     10773     10776
     10775     10773     10776     10764     10777     10778     10764     10777     10779
     10764     10777     10780     10778     10777     10779     10778     10777     10780
     10779     10777     10780     10777     10780     10781     10777     10780     10782
     10777     10780     10787     10781     10780     10782     10781     10780     10787
     10782     10780     10787     10784     10783     10785     10784     10783     10786
     10784     10783     10787     10785     10783     10786     10785     10783     10787
     10786     10783     10787     10783     10786     10788     10780     10787     10783
     10786     10788     10789     10786     10788     10790     10786     10788     10793
     10789     10788     10790     10789     10788     10793     10790     10788     10793
     10792     10791     10793     10792     10791     10843     10793     10791     10843
     10788     10793     10791     10788     10793     10794     10788     10793     10795
     10791     10793     10794     10791     10793     10795     10794     10793     10795
     10793     10795     10796     10793     10795     10797     10793     10795     10799
     10796     10795     10797     10796     10795     10799     10797     10795     10799
     10795     10797     10798     10795     10799     10800     10795     10799     10801
     10800     10799     10801     10799     10801     10802     10799     10801     10803
     10802     10801     10803     10801     10803     10804     10801     10803     10805
     10801     10803     10806     10804     10803     10805     10804     10803     10806
     10805     10803     10806     10803     10806     10807     10803     10806     10808
     10803     10806     10809     10807     10806     10808     10807     10806     10809
     10808     10806     10809     10806     10809     10810     10806     10809     10811
     10806     10809     10812     10810     10809     10811     10810     10809     10812
     10811     10809     10812     10809     10812     10813     10809     10812     10814
     10809     10812     10815     10813     10812     10814     10813     10812     10815
     10814     10812     10815     10812     10815     10816     10812     10815     10817
     10812     10815     10818     10816     10815     10817     10816     10815     10818
     10817     10815     10818     10815     10818     10819     10815     10818     10820
     10815     10818     10821     10819     10818     10820     10819     10818     10821
     10820     10818     10821     10818     10821     10822     10818     10821     10823
     10818     10821     10824     10822     10821     10823     10822     10821     10824
     10823     10821     10824     10821     10824     10825     10821     10824     10826
     10821     10824     10827     10825     10824     10826     10825     10824     10827
     10826     10824     10827     10824     10827     10828     10824     10827     10829
     10824     10827     10830     10828     10827     10829     10828     10827     10830
     10829     10827     10830     10827     10830     10831     10827     10830     10832
     10827     10830     10833     10831     10830     10832     10831     10830     10833
     10832     10830     10833     10830     10833     10834     10830     10833     10835
     10830     10833     10836     10834     10833     10835     10834     10833     10836
     10835     10833     10836     10833     10836     10837     10833     10836     10838
     10833     10836     10839     10837     10836     10838     10837     10836     10839
     10838     10836     10839     10836     10839     10840     10836     10839     10841
     10836     10839     10842     10840     10839     10841     10840     10839     10842
     10841     10839     10842     10791     10843     10844     10791     10843     10845
     10844     10843     10845     10843     10845     10846     10843     10845     10847
     10843     10845     10848     10846     10845     10847     10846     10845     10848
     10847     10845     10848     10845     10848     10849     10845     10848     10850
     10845     10848     10851     10849     10848     10850     10849     10848     10851
     10850     10848     10851     10848     10851     10852     10848     10851     10853
     10848     10851     10854     10852     10851     10853     10852     10851     10854
     10853     10851     10854     10851     10854     10855     10851     10854     10856
     10851     10854     10857     10855     10854     10856     10855     10854     10857
     10856     10854     10857     10854     10857     10858     10854     10857     10859
     10854     10857     10860     10858     10857     10859     10858     10857     10860
     10859     10857     10860     10857     10860     10861     10857     10860     10862
     10857     10860     10863     10861     10860     10862     10861     10860     10863
     10862     10860     10863     10860     10863     10864     10860     10863     10865
     10860     10863     10866     10864     10863     10865     10864     10863     10866
     10865     10863     10866     10863     10866     10867     10863     10866     10868
     10867     10866     10868     10866     10868     10869     10866     10868     10870
     10869     10868     10870     10868     10870     10871     10868     10870     10872
     10868     10870     10873     10871     10870     10872     10871     10870     10873
     10872     10870     10873     10870     10873     10874     10870     10873     10875
     10870     10873     10876     10874     10873     10875     10874     10873     10876
     10875     10873     10876     10873     10876     10877     10873     10876     10878
     10873     10876     10879     10877     10876     10878     10877     10876     10879
     10878     10876     10879     10876     10879     10880     10876     10879     10881
     10876     10879     10882     10880     10879     10881     10880     10879     10882
     10881     10879     10882     10879     10882     10883     10879     10882     10884
     10879     10882     10885     10883     10882     10884     10883     10882     10885
     10884     10882     10885     10882     10885     10886     10882     10885     10887
     10882     10885     10888     10886     10885     10887     10886     10885     10888
     10887     10885     10888     10885     10888     10889     10885     10888     10890
     10885     10888     10891     10889     10888     10890     10889     10888     10891
     10890     10888     10891     10888     10891     10892     10888     10891     10893
     10888     10891     10894     10892     10891     10893     10892     10891     10894
     10893     10891     10894     20666     20665     20670     20666     20665     20674
     20666     20665     20678     20670     20665     20674     20670     20665     20678
     20674     20665     20678     20665     20666     20667     20665     20666     20668
     20665     20666     20669     20667     20666     20668     20667     20666     20669
     20668     20666     20669     20665     20670     20671     20665     20670     20672
     20665     20670     20673     20671     20670     20672     20671     20670     20673
     20672     20670     20673     20665     20674     20675     20665     20674     20676
     20665     20674     20677     20675     20674     20676     20675     20674     20677
     20676     20674     20677     20665     20678     20679     20665     20678     20680
     20665     20678     20681     20679     20678     20680     20679     20678     20681
     20680     20678     20681     20678     20681     20682     20678     20681     20683
     20678     20681     20687     20682     20681     20683     20682     20681     20687
     20683     20681     20687     20685     20684     20686     20685     20684     20687
     20685     20684     20688     20686     20684     20687     20686     20684     20688
     20687     20684     20688     20681     20687     20684     20684     20688     20689
     20688     20689     20690     20688     20689     20691     20688     20689     20692
     20690     20689     20691     20690     20689     20692     20691     20689     20692
     20689     20692     20693     20689     20692     20694     20689     20692     20700
     20693     20692     20694     20693     20692     20700     20694     20692     20700
     20692     20694     20695     20694     20695     20696     20694     20695     20697
     20696     20695     20697     20695     20697     20698     20695     20697     20699
     20695     20697     20709     20698     20697     20699     20698     20697     20709
     20699     20697     20709     20692     20700     20701     20692     20700     20702
     20692     20700     20703     20701     20700     20702     20701     20700     20703
     20702     20700     20703     20700     20703     20704     20703     20704     20705
     20703     20704     20706     20705     20704     20706     20704     20706     20707
     20704     20706     20708     20704     20706     20754     20707     20706     20708
     20707     20706     20754     20708     20706     20754     20697     20709     20710
     20697     20709     20711     20697     20709     20712     20710     20709     20711
     20710     20709     20712     20711     20709     20712     20709     20712     20713
     20709     20712     20714     20709     20712     20715     20713     20712     20714
     20713     20712     20715     20714     20712     20715     20712     20715     20716
     20712     20715     20717     20712     20715     20718     20716     20715     20717
     20716     20715     20718     20717     20715     20718     20715     20718     20719
     20715     20718     20720     20715     20718     20721     20719     20718     20720
     20719     20718     20721     20720     20718     20721     20718     20721     20722
     20718     20721     20723     20718     20721     20724     20722     20721     20723
     20722     20721     20724     20723     20721     20724     20721     20724     20725
     20721     20724     20726     20721     20724     20727     20725     20724     20726
     20725     20724     20727     20726     20724     20727     20724     20727     20728
     20724     20727     20729     20728     20727     20729     20727     20729     20730
     20727     20729     20731     20730     20729     20731     20729     20731     20732
     20729     20731     20733     20729     20731     20734     20732     20731     20733
     20732     20731     20734     20733     20731     20734     20731     20734     20735
     20731     20734     20736     20735     20734     20736     20734     20736     20737
     20734     20736     20738     20737     20736     20738     20736     20738     20739
     20736     20738     20740     20736     20738     20741     20739     20738     20740
     20739     20738     20741     20740     20738     20741     20738     20741     20742
     20738     20741     20743     20738     20741     20744     20742     20741     20743
     20742     20741     20744     20743     20741     20744     20741     20744     20745
     20741     20744     20746     20741     20744     20747     20745     20744     20746
     20745     20744     20747     20746     20744     20747     20744     20747     20748
     20744     20747     20749     20744     20747     20750     20748     20747     20749
     20748     20747     20750     20749     20747     20750     20747     20750     20751
     20747     20750     20752     20747     20750     20753     20751     20750     20752
     20751     20750     20753     20752     20750     20753     20706     20754     20755
     20706     20754     20756     20706     20754     20757     20755     20754     20756
     20755     20754     20757     20756     20754     20757     20754     20757     20758
     20754     20757     20759     20754     20757     20760     20758     20757     20759
     20758     20757     20760     20759     20757     20760     20757     20760     20761
     20757     20760     20762     20757     20760     20763     20761     20760     20762
     20761     20760     20763     20762     20760     20763     20760     20763     20764
     20760     20763     20765     20760     20763     20766     20764     20763     20765
     20764     20763     20766     20765     20763     20766     20763     20766     20767
     20763     20766     20768     20763     20766     20769     20767     20766     20768
     20767     20766     20769     20768     20766     20769     20766     20769     20770
     20766     20769     20771     20766     20769     20772     20770     20769     20771
     20770     20769     20772     20771     20769     20772     20769     20772     20773
     20769     20772     20774     20769     20772     20775     20773     20772     20774
     20773     20772     20775     20774     20772     20775     20772     20775     20776
     20772     20775     20777     20772     20775     20778     20776     20775     20777
     20776     20775     20778     20777     20775     20778     20775     20778     20779
     20775     20778     20780     20775     20778     20781     20779     20778     20780
     20779     20778     20781     20780     20778     20781     20778     20781     20782
     20778     20781     20783     20778     20781     20784     20782     20781     20783
     20782     20781     20784     20783     20781     20784     20781     20784     20785
     20781     20784     20786     20781     20784     20787     20785     20784     20786
     20785     20784     20787     20786     20784     20787     20784     20787     20788
     20784     20787     20789     20784     20787     20790     20788     20787     20789
     20788     20787     20790     20789     20787     20790     20787     20790     20791
     20787     20790     20792     20787     20790     20793     20791     20790     20792
     20791     20790     20793     20792     20790     20793     20790     20793     20794
     20790     20793     20795     20790     20793     20796     20794     20793     20795
     20794     20793     20796     20795     20793     20796     20793     20796     20797
     20793     20796     20798     20793     20796     20799     20797     20796     20798
     20797     20796     20799     20798     20796     20799     20796     20799     20800
     20796     20799     20801     20796     20799     20802     20800     20799     20801
     20800     20799     20802     20801     20799     20802      2410      2409      2413
      2410      2409      2417      2410      2409      2421      2413      2409      2417
      2413      2409      2421      2417      2409      2421      2409      2410      2411
      2409      2410      2412      2409      2410      2425      2411      2410      2412
      2411      2410      2425      2412      2410      2425      2409      2413      2414
      2409      2413      2415      2409      2413      2416      2414      2413      2415
      2414      2413      2416      2415      2413      2416      2409      2417      2418
      2409      2417      2419      2409      2417      2420      2418      2417      2419
      2418      2417      2420      2419      2417      2420      2409      2421      2422
      2409      2421      2423      2409      2421      2424      2422      2421      2423
      2422      2421      2424      2423      2421      2424      2410      2425      2426
      2410      2425      2427      2410      2425      2431      2426      2425      2427
      2426      2425      2431      2427      2425      2431      2429      2428      2430
      2429      2428      2431      2429      2428      2432      2430      2428      2431
      2430      2428      2432      2431      2428      2432      2425      2431      2428
      2428      2432      2433      2432      2433      2434      2432      2433      2435
      2432      2433      2436      2434      2433      2435      2434      2433      2436
      2435      2433      2436      2433      2436      2437      2433      2436      2438
      2433      2436      2444      2437      2436      2438      2437      2436      2444
      2438      2436      2444      2436      2438      2439      2438      2439      2440
      2438      2439      2441      2440      2439      2441      2439      2441      2442
      2439      2441      2443      2439      2441      2453      2442      2441      2443
      2442      2441      2453      2443      2441      2453      2436      2444      2445
      2436      2444      2446      2436      2444      2447      2445      2444      2446
      2445      2444      2447      2446      2444      2447      2444      2447      2448
      2447      2448      2449      2447      2448      2450      2449      2448      2450
      2448      2450      2451      2448      2450      2452      2448      2450      2500
      2451      2450      2452      2451      2450      2500      2452      2450      2500
      2441      2453      2454      2441      2453      2455      2441      2453      2456
      2454      2453      2455      2454      2453      2456      2455      2453      2456
      2453      2456      2457      2453      2456      2458      2453      2456      2459
      2457      2456      2458      2457      2456      2459      2458      2456      2459
      2456      2459      2460      2456      2459      2461      2460      2459      2461
      2459      2461      2462      2459      2461      2463      2462      2461      2463
      2461      2463      2464      2461      2463      2465      2461      2463      2466
      2464      2463      2465      2464      2463      2466      2465      2463      2466
      2463      2466      2467      2463      2466      2468      2467      2466      2468
      2466      2468      2469      2466      2468      2470      2469      2468      2470
      2468      2470      2471      2468      2470      2472      2468      2470      2473
      2471      2470      2472      2471      2470      2473      2472      2470      2473
      2470      2473      2474      2470      2473      2475      2474      2473      2475
      2473      2475      2476      2473      2475      2477      2476      2475      2477
      2475      2477      2478      2475      2477      2479      2475      2477      2480
      2478      2477      2479      2478      2477      2480      2479      2477      2480
      2477      2480      2481      2477      2480      2482      2481      2480      2482
      2480      2482      2483      2480      2482      2484      2483      2482      2484
      2482      2484      2485      2482      2484      2486      2482      2484      2487
      2485      2484      2486      2485      2484      2487      2486      2484      2487
      2484      2487      2488      2484      2487      2489      2484      2487      2490
      2488      2487      2489      2488      2487      2490      2489      2487      2490
      2487      2490      2491      2487      2490      2492      2487      2490      2493
      2491      2490      2492      2491      2490      2493      2492      2490      2493
      2490      2493      2494      2490      2493      2495      2490      2493      2496
      2494      2493      2495      2494      2493      2496      2495      2493      2496
      2493      2496      2497      2493      2496      2498      2493      2496      2499
      2497      2496      2498      2497      2496      2499      2498      2496      2499
      2450      2500      2501      2450      2500      2502      2450      2500      2503
      2501      2500      2502      2501      2500      2503      2502      2500      2503
      2500      2503      2504      2500      2503      2505      2500      2503      2506
      2504      2503      2505      2504      2503      2506      2505      2503      2506
      2503      2506      2507      2503      2506      2508      2503      2506      2509
      2507      2506      2508      2507      2506      2509      2508      2506      2509
      2506      2509      2510      2506      2509      2511      2506      2509      2512
      2510      2509      2511      2510      2509      2512      2511      2509      2512
      2509      2512      2513      2509      2512      2514      2509      2512      2515
      2513      2512      2514      2513      2512      2515      2514      2512      2515
      2512      2515      2516      2512      2515      2517      2512      2515      2518
      2516      2515      2517      2516      2515      2518      2517      2515      2518
      2515      2518      2519      2515      2518      2520      2515      2518      2521
      2519      2518      2520      2519      2518      2521      2520      2518      2521
      2518      2521      2522      2518      2521      2523      2518      2521      2524
      2522      2521      2523      2522      2521      2524      2523      2521      2524
      2521      2524      2525      2521      2524      2526      2521      2524      2527
      2525      2524      2526      2525      2524      2527      2526      2524      2527
      2524      2527      2528      2524      2527      2529      2524      2527      2530
      2528      2527      2529      2528      2527      2530      2529      2527      2530
      2527      2530      2531      2527      2530      2532      2527      2530      2533
      2531      2530      2532      2531      2530      2533      2532      2530      2533
      2530      2533      2534      2530      2533      2535      2530      2533      2536
      2534      2533      2535      2534      2533      2536      2535      2533      2536
      2533      2536      2537      2533      2536      2538      2533      2536      2539
      2537      2536      2538      2537      2536      2539      2538      2536      2539
      2536      2539      2540      2536      2539      2541      2536      2539      2542
      2540      2539      2541      2540      2539      2542      2541      2539      2542
      2539      2542      2543      2539      2542      2544      2539      2542      2545
      2543      2542      2544      2543      2542      2545      2544      2542      2545
      2542      2545      2546      2542      2545      2547      2542      2545      2548
      2546      2545      2547      2546      2545      2548      2547      2545      2548
     15350     15349     15351     15350     15349     15352     15350     15349     15353
     15351     15349     15352     15351     15349     15353     15352     15349     15353
     15349     15353     15354     15349     15353     15355     15349     15353     15356
     15354     15353     15355     15354     15353     15356     15355     15353     15356
     15353     15356     15357     15353     15356     15358     15353     15356     15362
     15357     15356     15358     15357     15356     15362     15358     15356     15362
     15360     15359     15361     15360     15359     15362     15360     15359     15363
     15361     15359     15362     15361     15359     15363     15362     15359     15363
     15356     15362     15359     15359     15363     15364     15363     15364     15365
     15363     15364     15366     15363     15364     15367     15365     15364     15366
     15365     15364     15367     15366     15364     15367     15364     15367     15368
     15364     15367     15369     15364     15367     15375     15368     15367     15369
     15368     15367     15375     15369     15367     15375     15367     15369     15370
     15369     15370     15371     15369     15370     15372     15371     15370     15372
     15370     15372     15373     15370     15372     15374     15370     15372     15384
     15373     15372     15374     15373     15372     15384     15374     15372     15384
     15367     15375     15376     15367     15375     15377     15367     15375     15378
     15376     15375     15377     15376     15375     15378     15377     15375     15378
     15375     15378     15379     15378     15379     15380     15378     15379     15381
     15380     15379     15381     15379     15381     15382     15379     15381     15383
     15379     15381     15431     15382     15381     15383     15382     15381     15431
     15383     15381     15431     15372     15384     15385     15372     15384     15386
     15372     15384     15387     15385     15384     15386     15385     15384     15387
     15386     15384     15387     15384     15387     15388     15384     15387     15389
     15384     15387     15390     15388     15387     15389     15388     15387     15390
     15389     15387     15390     15387     15390     15391     15387     15390     15392
     15391     15390     15392     15390     15392     15393     15390     15392     15394
     15393     15392     15394     15392     15394     15395     15392     15394     15396
     15392     15394     15397     15395     15394     15396     15395     15394     15397
     15396     15394     15397     15394     15397     15398     15394     15397     15399
     15398     15397     15399     15397     15399     15400     15397     15399     15401
     15400     15399     15401     15399     15401     15402     15399     15401     15403
     15399     15401     15404     15402     15401     15403     15402     15401     15404
     15403     15401     15404     15401     15404     15405     15401     15404     15406
     15405     15404     15406     15404     15406     15407     15404     15406     15408
     15407     15406     15408     15406     15408     15409     15406     15408     15410
     15406     15408     15411     15409     15408     15410     15409     15408     15411
     15410     15408     15411     15408     15411     15412     15408     15411     15413
     15412     15411     15413     15411     15413     15414     15411     15413     15415
     15414     15413     15415     15413     15415     15416     15413     15415     15417
     15413     15415     15418     15416     15415     15417     15416     15415     15418
     15417     15415     15418     15415     15418     15419     15415     15418     15420
     15415     15418     15421     15419     15418     15420     15419     15418     15421
     15420     15418     15421     15418     15421     15422     15418     15421     15423
     15418     15421     15424     15422     15421     15423     15422     15421     15424
     15423     15421     15424     15421     15424     15425     15421     15424     15426
     15421     15424     15427     15425     15424     15426     15425     15424     15427
     15426     15424     15427     15424     15427     15428     15424     15427     15429
     15424     15427     15430     15428     15427     15429     15428     15427     15430
     15429     15427     15430     15381     15431     15432     15381     15431     15433
     15381     15431     15434     15432     15431     15433     15432     15431     15434
     15433     15431     15434     15431     15434     15435     15431     15434     15436
     15431     15434     15437     15435     15434     15436     15435     15434     15437
     15436     15434     15437     15434     15437     15438     15434     15437     15439
     15434     15437     15440     15438     15437     15439     15438     15437     15440
     15439     15437     15440     15437     15440     15441     15437     15440     15442
     15437     15440     15443     15441     15440     15442     15441     15440     15443
     15442     15440     15443     15440     15443     15444     15440     15443     15445
     15440     15443     15446     15444     15443     15445     15444     15443     15446
     15445     15443     15446     15443     15446     15447     15443     15446     15448
     15443     15446     15449     15447     15446     15448     15447     15446     15449
     15448     15446     15449     15446     15449     15450     15446     15449     15451
     15446     15449     15452     15450     15449     15451     15450     15449     15452
     15451     15449     15452     15449     15452     15453     15449     15452     15454
     15449     15452     15455     15453     15452     15454     15453     15452     15455
     15454     15452     15455     15452     15455     15456     15452     15455     15457
     15452     15455     15458     15456     15455     15457     15456     15455     15458
     15457     15455     15458     15455     15458     15459     15455     15458     15460
     15455     15458     15461     15459     15458     15460     15459     15458     15461
     15460     15458     15461     15458     15461     15462     15458     15461     15463
     15458     15461     15464     15462     15461     15463     15462     15461     15464
     15463     15461     15464     15461     15464     15465     15461     15464     15466
     15461     15464     15467     15465     15464     15466     15465     15464     15467
     15466     15464     15467     15464     15467     15468     15464     15467     15469
     15464     15467     15470     15468     15467     15469     15468     15467     15470
     15469     15467     15470     15467     15470     15471     15467     15470     15472
     15467     15470     15473     15471     15470     15472     15471     15470     15473
     15472     15470     15473     15470     15473     15474     15470     15473     15475
     15470     15473     15476     15474     15473     15475     15474     15473     15476
     15475     15473     15476     15473     15476     15477     15473     15476     15478
     15473     15476     15479     15477     15476     15478     15477     15476     15479
     15478     15476     15479     15481     15480     15482     15481     15480     15483
     15481     15480     15484     15482     15480     15483     15482     15480     15484
     15483     15480     15484     15480     15484     15485     15480     15484     15486
     15480     15484     15487     15485     15484     15486     15485     15484     15487
     15486     15484     15487     15484     15487     15488     15484     15487     15489
     15484     15487     15493     15488     15487     15489     15488     15487     15493
     15489     15487     15493     15491     15490     15492     15491     15490     15493
     15491     15490     15494     15492     15490     15493     15492     15490     15494
     15493     15490     15494     15487     15493     15490     15490     15494     15495
     15494     15495     15496     15494     15495     15497     15494     15495     15498
     15496     15495     15497     15496     15495     15498     15497     15495     15498
     15495     15498     15499     15495     15498     15500     15495     15498     15506
     15499     15498     15500     15499     15498     15506     15500     15498     15506
     15498     15500     15501     15500     15501     15502     15500     15501     15503
     15502     15501     15503     15501     15503     15504     15501     15503     15505
     15501     15503     15515     15504     15503     15505     15504     15503     15515
     15505     15503     15515     15498     15506     15507     15498     15506     15508
     15498     15506     15509     15507     15506     15508     15507     15506     15509
     15508     15506     15509     15506     15509     15510     15509     15510     15511
     15509     15510     15512     15511     15510     15512     15510     15512     15513
     15510     15512     15514     15510     15512     15562     15513     15512     15514
     15513     15512     15562     15514     15512     15562     15503     15515     15516
     15503     15515     15517     15503     15515     15518     15516     15515     15517
     15516     15515     15518     15517     15515     15518     15515     15518     15519
     15515     15518     15520     15515     15518     15521     15519     15518     15520
     15519     15518     15521     15520     15518     15521     15518     15521     15522
     15518     15521     15523     15522     15521     15523     15521     15523     15524
     15521     15523     15525     15524     15523     15525     15523     15525     15526
     15523     15525     15527     15523     15525     15528     15526     15525     15527
     15526     15525     15528     15527     15525     15528     15525     15528     15529
     15525     15528     15530     15529     15528     15530     15528     15530     15531
     15528     15530     15532     15531     15530     15532     15530     15532     15533
     15530     15532     15534     15530     15532     15535     15533     15532     15534
     15533     15532     15535     15534     15532     15535     15532     15535     15536
     15532     15535     15537     15536     15535     15537     15535     15537     15538
     15535     15537     15539     15538     15537     15539     15537     15539     15540
     15537     15539     15541     15537     15539     15542     15540     15539     15541
     15540     15539     15542     15541     15539     15542     15539     15542     15543
     15539     15542     15544     15543     15542     15544     15542     15544     15545
     15542     15544     15546     15545     15544     15546     15544     15546     15547
     15544     15546     15548     15544     15546     15549     15547     15546     15548
     15547     15546     15549     15548     15546     15549     15546     15549     15550
     15546     15549     15551     15546     15549     15552     15550     15549     15551
     15550     15549     15552     15551     15549     15552     15549     15552     15553
     15549     15552     15554     15549     15552     15555     15553     15552     15554
     15553     15552     15555     15554     15552     15555     15552     15555     15556
     15552     15555     15557     15552     15555     15558     15556     15555     15557
     15556     15555     15558     15557     15555     15558     15555     15558     15559
     15555     15558     15560     15555     15558     15561     15559     15558     15560
     15559     15558     15561     15560     15558     15561     15512     15562     15563
     15512     15562     15564     15512     15562     15565     15563     15562     15564
     15563     15562     15565     15564     15562     15565     15562     15565     15566
     15562     15565     15567     15562     15565     15568     15566     15565     15567
     15566     15565     15568     15567     15565     15568     15565     15568     15569
     15565     15568     15570     15565     15568     15571     15569     15568     15570
     15569     15568     15571     15570     15568     15571     15568     15571     15572
     15568     15571     15573     15568     15571     15574     15572     15571     15573
     15572     15571     15574     15573     15571     15574     15571     15574     15575
     15571     15574     15576     15571     15574     15577     15575     15574     15576
     15575     15574     15577     15576     15574     15577     15574     15577     15578
     15574     15577     15579     15574     15577     15580     15578     15577     15579
     15578     15577     15580     15579     15577     15580     15577     15580     15581
     15577     15580     15582     15577     15580     15583     15581     15580     15582
     15581     15580     15583     15582     15580     15583     15580     15583     15584
     15580     15583     15585     15580     15583     15586     15584     15583     15585
     15584     15583     15586     15585     15583     15586     15583     15586     15587
     15583     15586     15588     15583     15586     15589     15587     15586     15588
     15587     15586     15589     15588     15586     15589     15586     15589     15590
     15586     15589     15591     15586     15589     15592     15590     15589     15591
     15590     15589     15592     15591     15589     15592     15589     15592     15593
     15589     15592     15594     15589     15592     15595     15593     15592     15594
     15593     15592     15595     15594     15592     15595     15592     15595     15596
     15592     15595     15597     15592     15595     15598     15596     15595     15597
     15596     15595     15598     15597     15595     15598     15595     15598     15599
     15595     15598     15600     15595     15598     15601     15599     15598     15600
     15599     15598     15601     15600     15598     15601     15598     15601     15602
     15598     15601     15603     15598     15601     15604     15602     15601     15603
     15602     15601     15604     15603     15601     15604     15601     15604     15605
     15601     15604     15606     15601     15604     15607     15605     15604     15606
     15605     15604     15607     15606     15604     15607     15604     15607     15608
     15604     15607     15609     15604     15607     15610     15608     15607     15609
     15608     15607     15610     15609     15607     15610     10896     10895     10900
     10896     10895     10904     10896     10895     10908     10900     10895     10904
     10900     10895     10908     10904     10895     10908     10895     10896     10897
     10895     10896     10898     10895     10896     10899     10897     10896     10898
     10897     10896     10899     10898     10896     10899     10895     10900     10901
     10895     10900     10902     10895     10900     10903     10901     10900     10902
     10901     10900     10903     10902     10900     10903     10895     10904     10905
     10895     10904     10906     10895     10904     10907     10905     10904     10906
     10905     10904     10907     10906     10904     10907     10895     10908     10909
     10895     10908     10910     10895     10908     10911     10909     10908     10910
     10909     10908     10911     10910     10908     10911     10908     10911     10912
     10908     10911     10913     10908     10911     10918     10912     10911     10913
     10912     10911     10918     10913     10911     10918     10915     10914     10916
     10915     10914     10917     10915     10914     10918     10916     10914     10917
     10916     10914     10918     10917     10914     10918     10914     10917     10919
     10911     10918     10914     10917     10919     10920     10917     10919     10921
     10917     10919     10924     10920     10919     10921     10920     10919     10924
     10921     10919     10924     10923     10922     10924     10923     10922     10974
     10924     10922     10974     10919     10924     10922     10919     10924     10925
     10919     10924     10926     10922     10924     10925     10922     10924     10926
     10925     10924     10926     10924     10926     10927     10924     10926     10928
     10924     10926     10930     10927     10926     10928     10927     10926     10930
     10928     10926     10930     10926     10928     10929     10926     10930     10931
     10926     10930     10932     10931     10930     10932     10930     10932     10933
     10930     10932     10934     10933     10932     10934     10932     10934     10935
     10932     10934     10936     10932     10934     10937     10935     10934     10936
     10935     10934     10937     10936     10934     10937     10934     10937     10938
     10934     10937     10939     10934     10937     10940     10938     10937     10939
     10938     10937     10940     10939     10937     10940     10937     10940     10941
     10937     10940     10942     10937     10940     10943     10941     10940     10942
     10941     10940     10943     10942     10940     10943     10940     10943     10944
     10940     10943     10945     10940     10943     10946     10944     10943     10945
     10944     10943     10946     10945     10943     10946     10943     10946     10947
     10943     10946     10948     10943     10946     10949     10947     10946     10948
     10947     10946     10949     10948     10946     10949     10946     10949     10950
     10946     10949     10951     10946     10949     10952     10950     10949     10951
     10950     10949     10952     10951     10949     10952     10949     10952     10953
     10949     10952     10954     10949     10952     10955     10953     10952     10954
     10953     10952     10955     10954     10952     10955     10952     10955     10956
     10952     10955     10957     10952     10955     10958     10956     10955     10957
     10956     10955     10958     10957     10955     10958     10955     10958     10959
     10955     10958     10960     10955     10958     10961     10959     10958     10960
     10959     10958     10961     10960     10958     10961     10958     10961     10962
     10958     10961     10963     10958     10961     10964     10962     10961     10963
     10962     10961     10964     10963     10961     10964     10961     10964     10965
     10961     10964     10966     10961     10964     10967     10965     10964     10966
     10965     10964     10967     10966     10964     10967     10964     10967     10968
     10964     10967     10969     10964     10967     10970     10968     10967     10969
     10968     10967     10970     10969     10967     10970     10967     10970     10971
     10967     10970     10972     10967     10970     10973     10971     10970     10972
     10971     10970     10973     10972     10970     10973     10922     10974     10975
     10922     10974     10976     10975     10974     10976     10974     10976     10977
     10974     10976     10978     10974     10976     10979     10977     10976     10978
     10977     10976     10979     10978     10976     10979     10976     10979     10980
     10976     10979     10981     10976     10979     10982     10980     10979     10981
     10980     10979     10982     10981     10979     10982     10979     10982     10983
     10979     10982     10984     10979     10982     10985     10983     10982     10984
     10983     10982     10985     10984     10982     10985     10982     10985     10986
     10982     10985     10987     10982     10985     10988     10986     10985     10987
     10986     10985     10988     10987     10985     10988     10985     10988     10989
     10985     10988     10990     10985     10988     10991     10989     10988     10990
     10989     10988     10991     10990     10988     10991     10988     10991     10992
     10988     10991     10993     10988     10991     10994     10992     10991     10993
     10992     10991     10994     10993     10991     10994     10991     10994     10995
     10991     10994     10996     10991     10994     10997     10995     10994     10996
     10995     10994     10997     10996     10994     10997     10994     10997     10998
     10994     10997     10999     10998     10997     10999     10997     10999     11000
     10997     10999     11001     11000     10999     11001     10999     11001     11002
     10999     11001     11003     10999     11001     11004     11002     11001     11003
     11002     11001     11004     11003     11001     11004     11001     11004     11005
     11001     11004     11006     11001     11004     11007     11005     11004     11006
     11005     11004     11007     11006     11004     11007     11004     11007     11008
     11004     11007     11009     11004     11007     11010     11008     11007     11009
     11008     11007     11010     11009     11007     11010     11007     11010     11011
     11007     11010     11012     11007     11010     11013     11011     11010     11012
     11011     11010     11013     11012     11010     11013     11010     11013     11014
     11010     11013     11015     11010     11013     11016     11014     11013     11015
     11014     11013     11016     11015     11013     11016     11013     11016     11017
     11013     11016     11018     11013     11016     11019     11017     11016     11018
     11017     11016     11019     11018     11016     11019     11016     11019     11020
     11016     11019     11021     11016     11019     11022     11020     11019     11021
     11020     11019     11022     11021     11019     11022     11019     11022     11023
     11019     11022     11024     11019     11022     11025     11023     11022     11024
     11023     11022     11025     11024     11022     11025      6922      6921      6923
      6922      6921      6925      6922      6921      6967      6923      6921      6925
      6923      6921      6967      6925      6921      6967      6921      6923      6924
      6921      6925      6926      6921      6925      6927      6921      6925      6928
      6926      6925      6927      6926      6925      6928      6927      6925      6928
      6925      6928      6929      6925      6928      6959      6929      6928      6959
      6928      6929      6930      6928      6929      6931      6930      6929      6931
      6929      6931      6932      6929      6931      6933      6929      6931      6934
      6932      6931      6933      6932      6931      6934      6933      6931      6934
      6931      6934      6935      6931      6934      6936      6931      6934      6957
      6935      6934      6936      6935      6934      6957      6936      6934      6957
      6934      6936      6937      6934      6936      6938      6934      6936      6946
      6937      6936      6938      6937      6936      6946      6938      6936      6946
      6936      6938      6939      6936      6938      6940      6936      6938      6941
      6939      6938      6940      6939      6938      6941      6940      6938      6941
      6938      6941      6942      6938      6941      6943      6938      6941      6944
      6942      6941      6943      6942      6941      6944      6943      6941      6944
      6941      6944      6945      6941      6944      6946      6941      6944      6970
      6945      6944      6946      6945      6944      6970      6946      6944      6970
      6936      6946      6944      6936      6946      6947      6936      6946      6951
      6944      6946      6947      6944      6946      6951      6947      6946      6951
      6946      6947      6948      6946      6947      6949      6946      6947      6950
      6948      6947      6949      6948      6947      6950      6949      6947      6950
      6946      6951      6952      6946      6951      6953      6946      6951      6954
      6952      6951      6953      6952      6951      6954      6953      6951      6954
      6951      6954      6955      6951      6954      6956      6951      6954      6957
      6955      6954      6956      6955      6954      6957      6956      6954      6957
      6934      6957      6954      6934      6957      6958      6934      6957      6959
      6954      6957      6958      6954      6957      6959      6958      6957      6959
      6928      6959      6957      6928      6959      6960      6928      6959      6964
      6957      6959      6960      6957      6959      6964      6960      6959      6964
      6959      6960      6961      6959      6960      6962      6959      6960      6963
      6961      6960      6962      6961      6960      6963      6962      6960      6963
      6959      6964      6965      6959      6964      6966      6959      6964      6967
      6965      6964      6966      6965      6964      6967      6966      6964      6967
      6921      6967      6964      6921      6967      6968      6921      6967      6969
      6964      6967      6968      6964      6967      6969      6968      6967      6969
      6944      6970      6971      6944      6970      6972      6944      6970      6976
      6971      6970      6972      6971      6970      6976      6972      6970      6976
      6970      6972      6973      6970      6972      6974      6970      6972      6975
      6973      6972      6974      6973      6972      6975      6974      6972      6975
      6970      6976      6977      6970      6976      6978      6970      6976      6979
      6977      6976      6978      6977      6976      6979      6978      6976      6979
      6976      6979      6980      6976      6979      6981      6976      6979      6982
      6980      6979      6981      6980      6979      6982      6981      6979      6982
      6979      6982      6983      6979      6982      6984      6979      6982      6985
      6983      6982      6984      6983      6982      6985      6984      6982      6985
      6982      6985      6986      6982      6985      6987      6982      6985      6991
      6986      6985      6987      6986      6985      6991      6987      6985      6991
      6985      6987      6988      6985      6987      6989      6985      6987      6990
      6988      6987      6989      6988      6987      6990      6989      6987      6990
      6985      6991      6992      6985      6991      6993      6985      6991      6994
      6992      6991      6993      6992      6991      6994      6993      6991      6994
      6996      6995      6997      6996      6995      6999      6996      6995      7041
      6997      6995      6999      6997      6995      7041      6999      6995      7041
      6995      6997      6998      6995      6999      7000      6995      6999      7001
      6995      6999      7002      7000      6999      7001      7000      6999      7002
      7001      6999      7002      6999      7002      7003      6999      7002      7033
      7003      7002      7033      7002      7003      7004      7002      7003      7005
      7004      7003      7005      7003      7005      7006      7003      7005      7007
      7003      7005      7008      7006      7005      7007      7006      7005      7008
      7007      7005      7008      7005      7008      7009      7005      7008      7010
      7005      7008      7031      7009      7008      7010      7009      7008      7031
      7010      7008      7031      7008      7010      7011      7008      7010      7012
      7008      7010      7020      7011      7010      7012      7011      7010      7020
      7012      7010      7020      7010      7012      7013      7010      7012      7014
      7010      7012      7015      7013      7012      7014      7013      7012      7015
      7014      7012      7015      7012      7015      7016      7012      7015      7017
      7012      7015      7018      7016      7015      7017      7016      7015      7018
      7017      7015      7018      7015      7018      7019      7015      7018      7020
      7015      7018      7044      7019      7018      7020      7019      7018      7044
      7020      7018      7044      7010      7020      7018      7010      7020      7021
      7010      7020      7025      7018      7020      7021      7018      7020      7025
      7021      7020      7025      7020      7021      7022      7020      7021      7023
      7020      7021      7024      7022      7021      7023      7022      7021      7024
      7023      7021      7024      7020      7025      7026      7020      7025      7027
      7020      7025      7028      7026      7025      7027      7026      7025      7028
      7027      7025      7028      7025      7028      7029      7025      7028      7030
      7025      7028      7031      7029      7028      7030      7029      7028      7031
      7030      7028      7031      7008      7031      7028      7008      7031      7032
      7008      7031      7033      7028      7031      7032      7028      7031      7033
      7032      7031      7033      7002      7033      7031      7002      7033      7034
      7002      7033      7038      7031      7033      7034      7031      7033      7038
      7034      7033      7038      7033      7034      7035      7033      7034      7036
      7033      7034      7037      7035      7034      7036      7035      7034      7037
      7036      7034      7037      7033      7038      7039      7033      7038      7040
      7033      7038      7041      7039      7038      7040      7039      7038      7041
      7040      7038      7041      6995      7041      7038      6995      7041      7042
      6995      7041      7043      7038      7041      7042      7038      7041      7043
      7042      7041      7043      7018      7044      7045      7018      7044      7046
      7018      7044      7050      7045      7044      7046      7045      7044      7050
      7046      7044      7050      7044      7046      7047      7044      7046      7048
      7044      7046      7049      7047      7046      7048      7047      7046      7049
      7048      7046      7049      7044      7050      7051      7044      7050      7052
      7044      7050      7053      7051      7050      7052      7051      7050      7053
      7052      7050      7053      7050      7053      7054      7050      7053      7055
      7050      7053      7056      7054      7053      7055      7054      7053      7056
      7055      7053      7056      7053      7056      7057      7053      7056      7058
      7053      7056      7059      7057      7056      7058      7057      7056      7059
      7058      7056      7059      7056      7059      7060      7056      7059      7061
      7056      7059      7065      7060      7059      7061      7060      7059      7065
      7061      7059      7065      7059      7061      7062      7059      7061      7063
      7059      7061      7064      7062      7061      7063      7062      7061      7064
      7063      7061      7064      7059      7065      7066      7059      7065      7067
      7059      7065      7068      7066      7065      7067      7066      7065      7068
      7067      7065      7068       534       533       535       534       533       536
       534       533       537       535       533       536       535       533       537
       536       533       537       533       537       538       533       537       539
       533       537       542       538       537       539       538       537       542
       539       537       542       537       539       540       537       539       541
       540       539       541       537       542       543       537       542       544
       537       542       548       543       542       544       543       542       548
       544       542       548       546       545       547       546       545       548
       546       545       549       547       545       548       547       545       549
       548       545       549       542       548       545       545       549       550
       549       550       551       549       550       552       549       550       553
       551       550       552       551       550       553       552       550       553
       550       553       554       550       553       555       550       553       561
       554       553       555       554       553       561       555       553       561
       553       555       556       555       556       557       555       556       558
       557       556       558       556       558       559       556       558       560
       556       558       570       559       558       560       559       558       570
       560       558       570       553       561       562       553       561       563
       553       561       564       562       561       563       562       561       564
       563       561       564       561       564       565       564       565       566
       564       565       567       566       565       567       565       567       568
       565       567       569       565       567       617       568       567       569
       568       567       617       569       567       617       558       570       571
       558       570       572       558       570       573       571       570       572
       571       570       573       572       570       573       570       573       574
       570       573       575       570       573       576       574       573       575
       574       573       576       575       573       576       573       576       577
       573       576       578       577       576       578       576       578       579
       576       578       580       579       578       580       578       580       581
       578       580       582       578       580       583       581       580       582
       581       580       583       582       580       583       580       583       584
       580       583       585       584       583       585       583       585       586
       583       585       587       586       585       587       585       587       588
       585       587       589       585       587       590       588       587       589
       588       587       590       589       587       590       587       590       591
       587       590       592       591       590       592       590       592       593
       590       592       594       593       592       594       592       594       595
       592       594       596       592       594       597       595       594       596
       595       594       597       596       594       597       594       597       598
       594       597       599       598       597       599       597       599       600
       597       599       601       600       599       601       599       601       602
       599       601       603       599       601       604       602       601       603
       602       601       604       603       601       604       601       604       605
       601       604       606       601       604       607       605       604       606
       605       604       607       606       604       607       604       607       608
       604       607       609       604       607       610       608       607       609
       608       607       610       609       607       610       607       610       611
       607       610       612       607       610       613       611       610       612
       611       610       613       612       610       613       610       613       614
       610       613       615       610       613       616       614       613       615
       614       613       616       615       613       616       567       617       618
       567       617       619       567       617       620       618       617       619
       618       617       620       619       617       620       617       620       621
       617       620       622       617       620       623       621       620       622
       621       620       623       622       620       623       620       623       624
       620       623       625       620       623       626       624       623       625
       624       623       626       625       623       626       623       626       627
       623       626       628       623       626       629       627       626       628
       627       626       629       628       626       629       626       629       630
       626       629       631       626       629       632       630       629       631
       630       629       632       631       629       632       629       632       633
       629       632       634       629       632       635       633       632       634
       633       632       635       634       632       635       632       635       636
       632       635       637       632       635       638       636       635       637
       636       635       638       637       635       638       635       638       639
       635       638       640       635       638       641       639       638       640
       639       638       641       640       638       641       638       641       642
       638       641       643       638       641       644       642       641       643
       642       641       644       643       641       644       641       644       645
       641       644       646       641       644       647       645       644       646
       645       644       647       646       644       647       644       647       648
       644       647       649       644       647       650       648       647       649
       648       647       650       649       647       650       647       650       651
       647       650       652       647       650       653       651       650       652
       651       650       653       652       650       653       650       653       654
       650       653       655       650       653       656       654       653       655
       654       653       656       655       653       656       653       656       657
       653       656       658       653       656       659       657       656       658
       657       656       659       658       656       659       656       659       660
       656       659       661       656       659       662       660       659       661
       660       659       662       661       659       662       659       662       663
       659       662       664       659       662       665       663       662       664
       663       662       665       664       662       665      7070      7069      7071
      7070      7069      7073      7070      7069      7115      7071      7069      7073
      7071      7069      7115      7073      7069      7115      7069      7071      7072
      7069      7073      7074      7069      7073      7075      7069      7073      7076
      7074      7073      7075      7074      7073      7076      7075      7073      7076
      7073      7076      7077      7073      7076      7107      7077      7076      7107
      7076      7077      7078      7076      7077      7079      7078      7077      7079
      7077      7079      7080      7077      7079      7081      7077      7079      7082
      7080      7079      7081      7080      7079      7082      7081      7079      7082
      7079      7082      7083      7079      7082      7084      7079      7082      7105
      7083      7082      7084      7083      7082      7105      7084      7082      7105
      7082      7084      7085      7082      7084      7086      7082      7084      7094
      7085      7084      7086      7085      7084      7094      7086      7084      7094
      7084      7086      7087      7084      7086      7088      7084      7086      7089
      7087      7086      7088      7087      7086      7089      7088      7086      7089
      7086      7089      7090      7086      7089      7091      7086      7089      7092
      7090      7089      7091      7090      7089      7092      7091      7089      7092
      7089      7092      7093      7089      7092      7094      7089      7092      7118
      7093      7092      7094      7093      7092      7118      7094      7092      7118
      7084      7094      7092      7084      7094      7095      7084      7094      7099
      7092      7094      7095      7092      7094      7099      7095      7094      7099
      7094      7095      7096      7094      7095      7097      7094      7095      7098
      7096      7095      7097      7096      7095      7098      7097      7095      7098
      7094      7099      7100      7094      7099      7101      7094      7099      7102
      7100      7099      7101      7100      7099      7102      7101      7099      7102
      7099      7102      7103      7099      7102      7104      7099      7102      7105
      7103      7102      7104      7103      7102      7105      7104      7102      7105
      7082      7105      7102      7082      7105      7106      7082      7105      7107
      7102      7105      7106      7102      7105      7107      7106      7105      7107
      7076      7107      7105      7076      7107      7108      7076      7107      7112
      7105      7107      7108      7105      7107      7112      7108      7107      7112
      7107      7108      7109      7107      7108      7110      7107      7108      7111
      7109      7108      7110      7109      7108      7111      7110      7108      7111
      7107      7112      7113      7107      7112      7114      7107      7112      7115
      7113      7112      7114      7113      7112      7115      7114      7112      7115
      7069      7115      7112      7069      7115      7116      7069      7115      7117
      7112      7115      7116      7112      7115      7117      7116      7115      7117
      7092      7118      7119      7092      7118      7120      7092      7118      7124
      7119      7118      7120      7119      7118      7124      7120      7118      7124
      7118      7120      7121      7118      7120      7122      7118      7120      7123
      7121      7120      7122      7121      7120      7123      7122      7120      7123
      7118      7124      7125      7118      7124      7126      7118      7124      7127
      7125      7124      7126      7125      7124      7127      7126      7124      7127
      7124      7127      7128      7124      7127      7129      7124      7127      7130
      7128      7127      7129      7128      7127      7130      7129      7127      7130
      7127      7130      7131      7127      7130      7132      7127      7130      7133
      7131      7130      7132      7131      7130      7133      7132      7130      7133
      7130      7133      7134      7130      7133      7135      7130      7133      7139
      7134      7133      7135      7134      7133      7139      7135      7133      7139
      7133      7135      7136      7133      7135      7137      7133      7135      7138
      7136      7135      7137      7136      7135      7138      7137      7135      7138
      7133      7139      7140      7133      7139      7141      7133      7139      7142
      7140      7139      7141      7140      7139      7142      7141      7139      7142
     11027     11026     11031     11027     11026     11035     11027     11026     11039
     11031     11026     11035     11031     11026     11039     11035     11026     11039
     11026     11027     11028     11026     11027     11029     11026     11027     11030
     11028     11027     11029     11028     11027     11030     11029     11027     11030
     11026     11031     11032     11026     11031     11033     11026     11031     11034
     11032     11031     11033     11032     11031     11034     11033     11031     11034
     11026     11035     11036     11026     11035     11037     11026     11035     11038
     11036     11035     11037     11036     11035     11038     11037     11035     11038
     11026     11039     11040     11026     11039     11041     11026     11039     11042
     11040     11039     11041     11040     11039     11042     11041     11039     11042
     11039     11042     11043     11039     11042     11044     11039     11042     11049
     11043     11042     11044     11043     11042     11049     11044     11042     11049
     11046     11045     11047     11046     11045     11048     11046     11045     11049
     11047     11045     11048     11047     11045     11049     11048     11045     11049
     11045     11048     11050     11042     11049     11045     11048     11050     11051
     11048     11050     11052     11048     11050     11055     11051     11050     11052
     11051     11050     11055     11052     11050     11055     11054     11053     11055
     11054     11053     11105     11055     11053     11105     11050     11055     11053
     11050     11055     11056     11050     11055     11057     11053     11055     11056
     11053     11055     11057     11056     11055     11057     11055     11057     11058
     11055     11057     11059     11055     11057     11061     11058     11057     11059
     11058     11057     11061     11059     11057     11061     11057     11059     11060
     11057     11061     11062     11057     11061     11063     11062     11061     11063
     11061     11063     11064     11061     11063     11065     11064     11063     11065
     11063     11065     11066     11063     11065     11067     11063     11065     11068
     11066     11065     11067     11066     11065     11068     11067     11065     11068
     11065     11068     11069     11065     11068     11070     11065     11068     11071
     11069     11068     11070     11069     11068     11071     11070     11068     11071
     11068     11071     11072     11068     11071     11073     11068     11071     11074
     11072     11071     11073     11072     11071     11074     11073     11071     11074
     11071     11074     11075     11071     11074     11076     11071     11074     11077
     11075     11074     11076     11075     11074     11077     11076     11074     11077
     11074     11077     11078     11074     11077     11079     11074     11077     11080
     11078     11077     11079     11078     11077     11080     11079     11077     11080
     11077     11080     11081     11077     11080     11082     11077     11080     11083
     11081     11080     11082     11081     11080     11083     11082     11080     11083
     11080     11083     11084     11080     11083     11085     11080     11083     11086
     11084     11083     11085     11084     11083     11086     11085     11083     11086
     11083     11086     11087     11083     11086     11088     11083     11086     11089
     11087     11086     11088     11087     11086     11089     11088     11086     11089
     11086     11089     11090     11086     11089     11091     11086     11089     11092
     11090     11089     11091     11090     11089     11092     11091     11089     11092
     11089     11092     11093     11089     11092     11094     11089     11092     11095
     11093     11092     11094     11093     11092     11095     11094     11092     11095
     11092     11095     11096     11092     11095     11097     11092     11095     11098
     11096     11095     11097     11096     11095     11098     11097     11095     11098
     11095     11098     11099     11095     11098     11100     11095     11098     11101
     11099     11098     11100     11099     11098     11101     11100     11098     11101
     11098     11101     11102     11098     11101     11103     11098     11101     11104
     11102     11101     11103     11102     11101     11104     11103     11101     11104
     11053     11105     11106     11053     11105     11107     11106     11105     11107
     11105     11107     11108     11105     11107     11109     11105     11107     11110
     11108     11107     11109     11108     11107     11110     11109     11107     11110
     11107     11110     11111     11107     11110     11112     11107     11110     11113
     11111     11110     11112     11111     11110     11113     11112     11110     11113
     11110     11113     11114     11110     11113     11115     11110     11113     11116
     11114     11113     11115     11114     11113     11116     11115     11113     11116
     11113     11116     11117     11113     11116     11118     11113     11116     11119
     11117     11116     11118     11117     11116     11119     11118     11116     11119
     11116     11119     11120     11116     11119     11121     11116     11119     11122
     11120     11119     11121     11120     11119     11122     11121     11119     11122
     11119     11122     11123     11119     11122     11124     11119     11122     11125
     11123     11122     11124     11123     11122     11125     11124     11122     11125
     11122     11125     11126     11122     11125     11127     11122     11125     11128
     11126     11125     11127     11126     11125     11128     11127     11125     11128
     11125     11128     11129     11125     11128     11130     11129     11128     11130
     11128     11130     11131     11128     11130     11132     11131     11130     11132
     11130     11132     11133     11130     11132     11134     11130     11132     11135
     11133     11132     11134     11133     11132     11135     11134     11132     11135
     11132     11135     11136     11132     11135     11137     11132     11135     11138
     11136     11135     11137     11136     11135     11138     11137     11135     11138
     11135     11138     11139     11135     11138     11140     11135     11138     11141
     11139     11138     11140     11139     11138     11141     11140     11138     11141
     11138     11141     11142     11138     11141     11143     11138     11141     11144
     11142     11141     11143     11142     11141     11144     11143     11141     11144
     11141     11144     11145     11141     11144     11146     11141     11144     11147
     11145     11144     11146     11145     11144     11147     11146     11144     11147
     11144     11147     11148     11144     11147     11149     11144     11147     11150
     11148     11147     11149     11148     11147     11150     11149     11147     11150
     11147     11150     11151     11147     11150     11152     11147     11150     11153
     11151     11150     11152     11151     11150     11153     11152     11150     11153
     11150     11153     11154     11150     11153     11155     11150     11153     11156
     11154     11153     11155     11154     11153     11156     11155     11153     11156
     15612     15611     15613     15612     15611     15614     15612     15611     15615
     15613     15611     15614     15613     15611     15615     15614     15611     15615
     15611     15615     15616     15611     15615     15617     15611     15615     15618
     15616     15615     15617     15616     15615     15618     15617     15615     15618
     15615     15618     15619     15615     15618     15620     15615     15618     15624
     15619     15618     15620     15619     15618     15624     15620     15618     15624
     15622     15621     15623     15622     15621     15624     15622     15621     15625
     15623     15621     15624     15623     15621     15625     15624     15621     15625
     15618     15624     15621     15621     15625     15626     15625     15626     15627
     15625     15626     15628     15625     15626     15629     15627     15626     15628
     15627     15626     15629     15628     15626     15629     15626     15629     15630
     15626     15629     15631     15626     15629     15637     15630     15629     15631
     15630     15629     15637     15631     15629     15637     15629     15631     15632
     15631     15632     15633     15631     15632     15634     15633     15632     15634
     15632     15634     15635     15632     15634     15636     15632     15634     15646
     15635     15634     15636     15635     15634     15646     15636     15634     15646
     15629     15637     15638     15629     15637     15639     15629     15637     15640
     15638     15637     15639     15638     15637     15640     15639     15637     15640
     15637     15640     15641     15640     15641     15642     15640     15641     15643
     15642     15641     15643     15641     15643     15644     15641     15643     15645
     15641     15643     15693     15644     15643     15645     15644     15643     15693
     15645     15643     15693     15634     15646     15647     15634     15646     15648
     15634     15646     15649     15647     15646     15648     15647     15646     15649
     15648     15646     15649     15646     15649     15650     15646     15649     15651
     15646     15649     15652     15650     15649     15651     15650     15649     15652
     15651     15649     15652     15649     15652     15653     15649     15652     15654
     15653     15652     15654     15652     15654     15655     15652     15654     15656
     15655     15654     15656     15654     15656     15657     15654     15656     15658
     15654     15656     15659     15657     15656     15658     15657     15656     15659
     15658     15656     15659     15656     15659     15660     15656     15659     15661
     15660     15659     15661     15659     15661     15662     15659     15661     15663
     15662     15661     15663     15661     15663     15664     15661     15663     15665
     15661     15663     15666     15664     15663     15665     15664     15663     15666
     15665     15663     15666     15663     15666     15667     15663     15666     15668
     15667     15666     15668     15666     15668     15669     15666     15668     15670
     15669     15668     15670     15668     15670     15671     15668     15670     15672
     15668     15670     15673     15671     15670     15672     15671     15670     15673
     15672     15670     15673     15670     15673     15674     15670     15673     15675
     15674     15673     15675     15673     15675     15676     15673     15675     15677
     15676     15675     15677     15675     15677     15678     15675     15677     15679
     15675     15677     15680     15678     15677     15679     15678     15677     15680
     15679     15677     15680     15677     15680     15681     15677     15680     15682
     15677     15680     15683     15681     15680     15682     15681     15680     15683
     15682     15680     15683     15680     15683     15684     15680     15683     15685
     15680     15683     15686     15684     15683     15685     15684     15683     15686
     15685     15683     15686     15683     15686     15687     15683     15686     15688
     15683     15686     15689     15687     15686     15688     15687     15686     15689
     15688     15686     15689     15686     15689     15690     15686     15689     15691
     15686     15689     15692     15690     15689     15691     15690     15689     15692
     15691     15689     15692     15643     15693     15694     15643     15693     15695
     15643     15693     15696     15694     15693     15695     15694     15693     15696
     15695     15693     15696     15693     15696     15697     15693     15696     15698
     15693     15696     15699     15697     15696     15698     15697     15696     15699
     15698     15696     15699     15696     15699     15700     15696     15699     15701
     15696     15699     15702     15700     15699     15701     15700     15699     15702
     15701     15699     15702     15699     15702     15703     15699     15702     15704
     15699     15702     15705     15703     15702     15704     15703     15702     15705
     15704     15702     15705     15702     15705     15706     15702     15705     15707
     15702     15705     15708     15706     15705     15707     15706     15705     15708
     15707     15705     15708     15705     15708     15709     15705     15708     15710
     15705     15708     15711     15709     15708     15710     15709     15708     15711
     15710     15708     15711     15708     15711     15712     15708     15711     15713
     15708     15711     15714     15712     15711     15713     15712     15711     15714
     15713     15711     15714     15711     15714     15715     15711     15714     15716
     15711     15714     15717     15715     15714     15716     15715     15714     15717
     15716     15714     15717     15714     15717     15718     15714     15717     15719
     15714     15717     15720     15718     15717     15719     15718     15717     15720
     15719     15717     15720     15717     15720     15721     15717     15720     15722
     15717     15720     15723     15721     15720     15722     15721     15720     15723
     15722     15720     15723     15720     15723     15724     15720     15723     15725
     15720     15723     15726     15724     15723     15725     15724     15723     15726
     15725     15723     15726     15723     15726     15727     15723     15726     15728
     15723     15726     15729     15727     15726     15728     15727     15726     15729
     15728     15726     15729     15726     15729     15730     15726     15729     15731
     15726     15729     15732     15730     15729     15731     15730     15729     15732
     15731     15729     15732     15729     15732     15733     15729     15732     15734
     15729     15732     15735     15733     15732     15734     15733     15732     15735
     15734     15732     15735     15732     15735     15736     15732     15735     15737
     15732     15735     15738     15736     15735     15737     15736     15735     15738
     15737     15735     15738     15735     15738     15739     15735     15738     15740
     15735     15738     15741     15739     15738     15740     15739     15738     15741
     15740     15738     15741      7144      7143      7145      7144      7143      7147
      7144      7143      7189      7145      7143      7147      7145      7143      7189
      7147      7143      7189      7143      7145      7146      7143      7147      7148
      7143      7147      7149      7143      7147      7150      7148      7147      7149
      7148      7147      7150      7149      7147      7150      7147      7150      7151
      7147      7150      7181      7151      7150      7181      7150      7151      7152
      7150      7151      7153      7152      7151      7153      7151      7153      7154
      7151      7153      7155      7151      7153      7156      7154      7153      7155
      7154      7153      7156      7155      7153      7156      7153      7156      7157
      7153      7156      7158      7153      7156      7179      7157      7156      7158
      7157      7156      7179      7158      7156      7179      7156      7158      7159
      7156      7158      7160      7156      7158      7168      7159      7158      7160
      7159      7158      7168      7160      7158      7168      7158      7160      7161
      7158      7160      7162      7158      7160      7163      7161      7160      7162
      7161      7160      7163      7162      7160      7163      7160      7163      7164
      7160      7163      7165      7160      7163      7166      7164      7163      7165
      7164      7163      7166      7165      7163      7166      7163      7166      7167
      7163      7166      7168      7163      7166      7192      7167      7166      7168
      7167      7166      7192      7168      7166      7192      7158      7168      7166
      7158      7168      7169      7158      7168      7173      7166      7168      7169
      7166      7168      7173      7169      7168      7173      7168      7169      7170
      7168      7169      7171      7168      7169      7172      7170      7169      7171
      7170      7169      7172      7171      7169      7172      7168      7173      7174
      7168      7173      7175      7168      7173      7176      7174      7173      7175
      7174      7173      7176      7175      7173      7176      7173      7176      7177
      7173      7176      7178      7173      7176      7179      7177      7176      7178
      7177      7176      7179      7178      7176      7179      7156      7179      7176
      7156      7179      7180      7156      7179      7181      7176      7179      7180
      7176      7179      7181      7180      7179      7181      7150      7181      7179
      7150      7181      7182      7150      7181      7186      7179      7181      7182
      7179      7181      7186      7182      7181      7186      7181      7182      7183
      7181      7182      7184      7181      7182      7185      7183      7182      7184
      7183      7182      7185      7184      7182      7185      7181      7186      7187
      7181      7186      7188      7181      7186      7189      7187      7186      7188
      7187      7186      7189      7188      7186      7189      7143      7189      7186
      7143      7189      7190      7143      7189      7191      7186      7189      7190
      7186      7189      7191      7190      7189      7191      7166      7192      7193
      7166      7192      7194      7166      7192      7198      7193      7192      7194
      7193      7192      7198      7194      7192      7198      7192      7194      7195
      7192      7194      7196      7192      7194      7197      7195      7194      7196
      7195      7194      7197      7196      7194      7197      7192      7198      7199
      7192      7198      7200      7192      7198      7201      7199      7198      7200
      7199      7198      7201      7200      7198      7201      7198      7201      7202
      7198      7201      7203      7198      7201      7204      7202      7201      7203
      7202      7201      7204      7203      7201      7204      7201      7204      7205
      7201      7204      7206      7201      7204      7207      7205      7204      7206
      7205      7204      7207      7206      7204      7207      7204      7207      7208
      7204      7207      7209      7204      7207      7213      7208      7207      7209
      7208      7207      7213      7209      7207      7213      7207      7209      7210
      7207      7209      7211      7207      7209      7212      7210      7209      7211
      7210      7209      7212      7211      7209      7212      7207      7213      7214
      7207      7213      7215      7207      7213      7216      7214      7213      7215
      7214      7213      7216      7215      7213      7216      2550      2549      2553
      2550      2549      2557      2550      2549      2561      2553      2549      2557
      2553      2549      2561      2557      2549      2561      2549      2550      2551
      2549      2550      2552      2549      2550      2565      2551      2550      2552
      2551      2550      2565      2552      2550      2565      2549      2553      2554
      2549      2553      2555      2549      2553      2556      2554      2553      2555
      2554      2553      2556      2555      2553      2556      2549      2557      2558
      2549      2557      2559      2549      2557      2560      2558      2557      2559
      2558      2557      2560      2559      2557      2560      2549      2561      2562
      2549      2561      2563      2549      2561      2564      2562      2561      2563
      2562      2561      2564      2563      2561      2564      2550      2565      2566
      2550      2565      2567      2550      2565      2571      2566      2565      2567
      2566      2565      2571      2567      2565      2571      2569      2568      2570
      2569      2568      2571      2569      2568      2572      2570      2568      2571
      2570      2568      2572      2571      2568      2572      2565      2571      2568
      2568      2572      2573      2572      2573      2574      2572      2573      2575
      2572      2573      2576      2574      2573      2575      2574      2573      2576
      2575      2573      2576      2573      2576      2577      2573      2576      2578
      2573      2576      2584      2577      2576      2578      2577      2576      2584
      2578      2576      2584      2576      2578      2579      2578      2579      2580
      2578      2579      2581      2580      2579      2581      2579      2581      2582
      2579      2581      2583      2579      2581      2593      2582      2581      2583
      2582      2581      2593      2583      2581      2593      2576      2584      2585
      2576      2584      2586      2576      2584      2587      2585      2584      2586
      2585      2584      2587      2586      2584      2587      2584      2587      2588
      2587      2588      2589      2587      2588      2590      2589      2588      2590
      2588      2590      2591      2588      2590      2592      2588      2590      2640
      2591      2590      2592      2591      2590      2640      2592      2590      2640
      2581      2593      2594      2581      2593      2595      2581      2593      2596
      2594      2593      2595      2594      2593      2596      2595      2593      2596
      2593      2596      2597      2593      2596      2598      2593      2596      2599
      2597      2596      2598      2597      2596      2599      2598      2596      2599
      2596      2599      2600      2596      2599      2601      2600      2599      2601
      2599      2601      2602      2599      2601      2603      2602      2601      2603
      2601      2603      2604      2601      2603      2605      2601      2603      2606
      2604      2603      2605      2604      2603      2606      2605      2603      2606
      2603      2606      2607      2603      2606      2608      2607      2606      2608
      2606      2608      2609      2606      2608      2610      2609      2608      2610
      2608      2610      2611      2608      2610      2612      2608      2610      2613
      2611      2610      2612      2611      2610      2613      2612      2610      2613
      2610      2613      2614      2610      2613      2615      2614      2613      2615
      2613      2615      2616      2613      2615      2617      2616      2615      2617
      2615      2617      2618      2615      2617      2619      2615      2617      2620
      2618      2617      2619      2618      2617      2620      2619      2617      2620
      2617      2620      2621      2617      2620      2622      2621      2620      2622
      2620      2622      2623      2620      2622      2624      2623      2622      2624
      2622      2624      2625      2622      2624      2626      2622      2624      2627
      2625      2624      2626      2625      2624      2627      2626      2624      2627
      2624      2627      2628      2624      2627      2629      2624      2627      2630
      2628      2627      2629      2628      2627      2630      2629      2627      2630
      2627      2630      2631      2627      2630      2632      2627      2630      2633
      2631      2630      2632      2631      2630      2633      2632      2630      2633
      2630      2633      2634      2630      2633      2635      2630      2633      2636
      2634      2633      2635      2634      2633      2636      2635      2633      2636
      2633      2636      2637      2633      2636      2638      2633      2636      2639
      2637      2636      2638      2637      2636      2639      2638      2636      2639
      2590      2640      2641      2590      2640      2642      2590      2640      2643
      2641      2640      2642      2641      2640      2643      2642      2640      2643
      2640      2643      2644      2640      2643      2645      2640      2643      2646
      2644      2643      2645      2644      2643      2646      2645      2643      2646
      2643      2646      2647      2643      2646      2648      2643      2646      2649
      2647      2646      2648      2647      2646      2649      2648      2646      2649
      2646      2649      2650      2646      2649      2651      2646      2649      2652
      2650      2649      2651      2650      2649      2652      2651      2649      2652
      2649      2652      2653      2649      2652      2654      2649      2652      2655
      2653      2652      2654      2653      2652      2655      2654      2652      2655
      2652      2655      2656      2652      2655      2657      2652      2655      2658
      2656      2655      2657      2656      2655      2658      2657      2655      2658
      2655      2658      2659      2655      2658      2660      2655      2658      2661
      2659      2658      2660      2659      2658      2661      2660      2658      2661
      2658      2661      2662      2658      2661      2663      2658      2661      2664
      2662      2661      2663      2662      2661      2664      2663      2661      2664
      2661      2664      2665      2661      2664      2666      2661      2664      2667
      2665      2664      2666      2665      2664      2667      2666      2664      2667
      2664      2667      2668      2664      2667      2669      2664      2667      2670
      2668      2667      2669      2668      2667      2670      2669      2667      2670
      2667      2670      2671      2667      2670      2672      2667      2670      2673
      2671      2670      2672      2671      2670      2673      2672      2670      2673
      2670      2673      2674      2670      2673      2675      2670      2673      2676
      2674      2673      2675      2674      2673      2676      2675      2673      2676
      2673      2676      2677      2673      2676      2678      2673      2676      2679
      2677      2676      2678      2677      2676      2679      2678      2676      2679
      2676      2679      2680      2676      2679      2681      2676      2679      2682
      2680      2679      2681      2680      2679      2682      2681      2679      2682
      2679      2682      2683      2679      2682      2684      2679      2682      2685
      2683      2682      2684      2683      2682      2685      2684      2682      2685
      2682      2685      2686      2682      2685      2687      2682      2685      2688
      2686      2685      2687      2686      2685      2688      2687      2685      2688
     11158     11157     11162     11158     11157     11166     11158     11157     11170
     11162     11157     11166     11162     11157     11170     11166     11157     11170
     11157     11158     11159     11157     11158     11160     11157     11158     11161
     11159     11158     11160     11159     11158     11161     11160     11158     11161
     11157     11162     11163     11157     11162     11164     11157     11162     11165
     11163     11162     11164     11163     11162     11165     11164     11162     11165
     11157     11166     11167     11157     11166     11168     11157     11166     11169
     11167     11166     11168     11167     11166     11169     11168     11166     11169
     11157     11170     11171     11157     11170     11172     11157     11170     11173
     11171     11170     11172     11171     11170     11173     11172     11170     11173
     11170     11173     11174     11170     11173     11175     11170     11173     11180
     11174     11173     11175     11174     11173     11180     11175     11173     11180
     11177     11176     11178     11177     11176     11179     11177     11176     11180
     11178     11176     11179     11178     11176     11180     11179     11176     11180
     11176     11179     11181     11173     11180     11176     11179     11181     11182
     11179     11181     11183     11179     11181     11186     11182     11181     11183
     11182     11181     11186     11183     11181     11186     11185     11184     11186
     11185     11184     11236     11186     11184     11236     11181     11186     11184
     11181     11186     11187     11181     11186     11188     11184     11186     11187
     11184     11186     11188     11187     11186     11188     11186     11188     11189
     11186     11188     11190     11186     11188     11192     11189     11188     11190
     11189     11188     11192     11190     11188     11192     11188     11190     11191
     11188     11192     11193     11188     11192     11194     11193     11192     11194
     11192     11194     11195     11192     11194     11196     11195     11194     11196
     11194     11196     11197     11194     11196     11198     11194     11196     11199
     11197     11196     11198     11197     11196     11199     11198     11196     11199
     11196     11199     11200     11196     11199     11201     11196     11199     11202
     11200     11199     11201     11200     11199     11202     11201     11199     11202
     11199     11202     11203     11199     11202     11204     11199     11202     11205
     11203     11202     11204     11203     11202     11205     11204     11202     11205
     11202     11205     11206     11202     11205     11207     11202     11205     11208
     11206     11205     11207     11206     11205     11208     11207     11205     11208
     11205     11208     11209     11205     11208     11210     11205     11208     11211
     11209     11208     11210     11209     11208     11211     11210     11208     11211
     11208     11211     11212     11208     11211     11213     11208     11211     11214
     11212     11211     11213     11212     11211     11214     11213     11211     11214
     11211     11214     11215     11211     11214     11216     11211     11214     11217
     11215     11214     11216     11215     11214     11217     11216     11214     11217
     11214     11217     11218     11214     11217     11219     11214     11217     11220
     11218     11217     11219     11218     11217     11220     11219     11217     11220
     11217     11220     11221     11217     11220     11222     11217     11220     11223
     11221     11220     11222     11221     11220     11223     11222     11220     11223
     11220     11223     11224     11220     11223     11225     11220     11223     11226
     11224     11223     11225     11224     11223     11226     11225     11223     11226
     11223     11226     11227     11223     11226     11228     11223     11226     11229
     11227     11226     11228     11227     11226     11229     11228     11226     11229
     11226     11229     11230     11226     11229     11231     11226     11229     11232
     11230     11229     11231     11230     11229     11232     11231     11229     11232
     11229     11232     11233     11229     11232     11234     11229     11232     11235
     11233     11232     11234     11233     11232     11235     11234     11232     11235
     11184     11236     11237     11184     11236     11238     11237     11236     11238
     11236     11238     11239     11236     11238     11240     11236     11238     11241
     11239     11238     11240     11239     11238     11241     11240     11238     11241
     11238     11241     11242     11238     11241     11243     11238     11241     11244
     11242     11241     11243     11242     11241     11244     11243     11241     11244
     11241     11244     11245     11241     11244     11246     11241     11244     11247
     11245     11244     11246     11245     11244     11247     11246     11244     11247
     11244     11247     11248     11244     11247     11249     11244     11247     11250
     11248     11247     11249     11248     11247     11250     11249     11247     11250
     11247     11250     11251     11247     11250     11252     11247     11250     11253
     11251     11250     11252     11251     11250     11253     11252     11250     11253
     11250     11253     11254     11250     11253     11255     11250     11253     11256
     11254     11253     11255     11254     11253     11256     11255     11253     11256
     11253     11256     11257     11253     11256     11258     11253     11256     11259
     11257     11256     11258     11257     11256     11259     11258     11256     11259
     11256     11259     11260     11256     11259     11261     11260     11259     11261
     11259     11261     11262     11259     11261     11263     11262     11261     11263
     11261     11263     11264     11261     11263     11265     11261     11263     11266
     11264     11263     11265     11264     11263     11266     11265     11263     11266
     11263     11266     11267     11263     11266     11268     11263     11266     11269
     11267     11266     11268     11267     11266     11269     11268     11266     11269
     11266     11269     11270     11266     11269     11271     11266     11269     11272
     11270     11269     11271     11270     11269     11272     11271     11269     11272
     11269     11272     11273     11269     11272     11274     11269     11272     11275
     11273     11272     11274     11273     11272     11275     11274     11272     11275
     11272     11275     11276     11272     11275     11277     11272     11275     11278
     11276     11275     11277     11276     11275     11278     11277     11275     11278
     11275     11278     11279     11275     11278     11280     11275     11278     11281
     11279     11278     11280     11279     11278     11281     11280     11278     11281
     11278     11281     11282     11278     11281     11283     11278     11281     11284
     11282     11281     11283     11282     11281     11284     11283     11281     11284
     11281     11284     11285     11281     11284     11286     11281     11284     11287
     11285     11284     11286     11285     11284     11287     11286     11284     11287
     11289     11288     11293     11289     11288     11297     11289     11288     11301
     11293     11288     11297     11293     11288     11301     11297     11288     11301
     11288     11289     11290     11288     11289     11291     11288     11289     11292
     11290     11289     11291     11290     11289     11292     11291     11289     11292
     11288     11293     11294     11288     11293     11295     11288     11293     11296
     11294     11293     11295     11294     11293     11296     11295     11293     11296
     11288     11297     11298     11288     11297     11299     11288     11297     11300
     11298     11297     11299     11298     11297     11300     11299     11297     11300
     11288     11301     11302     11288     11301     11303     11288     11301     11304
     11302     11301     11303     11302     11301     11304     11303     11301     11304
     11301     11304     11305     11301     11304     11306     11301     11304     11311
     11305     11304     11306     11305     11304     11311     11306     11304     11311
     11308     11307     11309     11308     11307     11310     11308     11307     11311
     11309     11307     11310     11309     11307     11311     11310     11307     11311
     11307     11310     11312     11304     11311     11307     11310     11312     11313
     11310     11312     11314     11310     11312     11317     11313     11312     11314
     11313     11312     11317     11314     11312     11317     11316     11315     11317
     11316     11315     11367     11317     11315     11367     11312     11317     11315
     11312     11317     11318     11312     11317     11319     11315     11317     11318
     11315     11317     11319     11318     11317     11319     11317     11319     11320
     11317     11319     11321     11317     11319     11323     11320     11319     11321
     11320     11319     11323     11321     11319     11323     11319     11321     11322
     11319     11323     11324     11319     11323     11325     11324     11323     11325
     11323     11325     11326     11323     11325     11327     11326     11325     11327
     11325     11327     11328     11325     11327     11329     11325     11327     11330
     11328     11327     11329     11328     11327     11330     11329     11327     11330
     11327     11330     11331     11327     11330     11332     11327     11330     11333
     11331     11330     11332     11331     11330     11333     11332     11330     11333
     11330     11333     11334     11330     11333     11335     11330     11333     11336
     11334     11333     11335     11334     11333     11336     11335     11333     11336
     11333     11336     11337     11333     11336     11338     11333     11336     11339
     11337     11336     11338     11337     11336     11339     11338     11336     11339
     11336     11339     11340     11336     11339     11341     11336     11339     11342
     11340     11339     11341     11340     11339     11342     11341     11339     11342
     11339     11342     11343     11339     11342     11344     11339     11342     11345
     11343     11342     11344     11343     11342     11345     11344     11342     11345
     11342     11345     11346     11342     11345     11347     11342     11345     11348
     11346     11345     11347     11346     11345     11348     11347     11345     11348
     11345     11348     11349     11345     11348     11350     11345     11348     11351
     11349     11348     11350     11349     11348     11351     11350     11348     11351
     11348     11351     11352     11348     11351     11353     11348     11351     11354
     11352     11351     11353     11352     11351     11354     11353     11351     11354
     11351     11354     11355     11351     11354     11356     11351     11354     11357
     11355     11354     11356     11355     11354     11357     11356     11354     11357
     11354     11357     11358     11354     11357     11359     11354     11357     11360
     11358     11357     11359     11358     11357     11360     11359     11357     11360
     11357     11360     11361     11357     11360     11362     11357     11360     11363
     11361     11360     11362     11361     11360     11363     11362     11360     11363
     11360     11363     11364     11360     11363     11365     11360     11363     11366
     11364     11363     11365     11364     11363     11366     11365     11363     11366
     11315     11367     11368     11315     11367     11369     11368     11367     11369
     11367     11369     11370     11367     11369     11371     11367     11369     11372
     11370     11369     11371     11370     11369     11372     11371     11369     11372
     11369     11372     11373     11369     11372     11374     11369     11372     11375
     11373     11372     11374     11373     11372     11375     11374     11372     11375
     11372     11375     11376     11372     11375     11377     11372     11375     11378
     11376     11375     11377     11376     11375     11378     11377     11375     11378
     11375     11378     11379     11375     11378     11380     11375     11378     11381
     11379     11378     11380     11379     11378     11381     11380     11378     11381
     11378     11381     11382     11378     11381     11383     11378     11381     11384
     11382     11381     11383     11382     11381     11384     11383     11381     11384
     11381     11384     11385     11381     11384     11386     11381     11384     11387
     11385     11384     11386     11385     11384     11387     11386     11384     11387
     11384     11387     11388     11384     11387     11389     11384     11387     11390
     11388     11387     11389     11388     11387     11390     11389     11387     11390
     11387     11390     11391     11387     11390     11392     11391     11390     11392
     11390     11392     11393     11390     11392     11394     11393     11392     11394
     11392     11394     11395     11392     11394     11396     11392     11394     11397
     11395     11394     11396     11395     11394     11397     11396     11394     11397
     11394     11397     11398     11394     11397     11399     11394     11397     11400
     11398     11397     11399     11398     11397     11400     11399     11397     11400
     11397     11400     11401     11397     11400     11402     11397     11400     11403
     11401     11400     11402     11401     11400     11403     11402     11400     11403
     11400     11403     11404     11400     11403     11405     11400     11403     11406
     11404     11403     11405     11404     11403     11406     11405     11403     11406
     11403     11406     11407     11403     11406     11408     11403     11406     11409
     11407     11406     11408     11407     11406     11409     11408     11406     11409
     11406     11409     11410     11406     11409     11411     11406     11409     11412
     11410     11409     11411     11410     11409     11412     11411     11409     11412
     11409     11412     11413     11409     11412     11414     11409     11412     11415
     11413     11412     11414     11413     11412     11415     11414     11412     11415
     11412     11415     11416     11412     11415     11417     11412     11415     11418
     11416     11415     11417     11416     11415     11418     11417     11415     11418
     11420     11419     11424     11420     11419     11428     11420     11419     11432
     11424     11419     11428     11424     11419     11432     11428     11419     11432
     11419     11420     11421     11419     11420     11422     11419     11420     11423
     11421     11420     11422     11421     11420     11423     11422     11420     11423
     11419     11424     11425     11419     11424     11426     11419     11424     11427
     11425     11424     11426     11425     11424     11427     11426     11424     11427
     11419     11428     11429     11419     11428     11430     11419     11428     11431
     11429     11428     11430     11429     11428     11431     11430     11428     11431
     11419     11432     11433     11419     11432     11434     11419     11432     11435
     11433     11432     11434     11433     11432     11435     11434     11432     11435
     11432     11435     11436     11432     11435     11437     11432     11435     11442
     11436     11435     11437     11436     11435     11442     11437     11435     11442
     11439     11438     11440     11439     11438     11441     11439     11438     11442
     11440     11438     11441     11440     11438     11442     11441     11438     11442
     11438     11441     11443     11435     11442     11438     11441     11443     11444
     11441     11443     11445     11441     11443     11448     11444     11443     11445
     11444     11443     11448     11445     11443     11448     11447     11446     11448
     11447     11446     11498     11448     11446     11498     11443     11448     11446
     11443     11448     11449     11443     11448     11450     11446     11448     11449
     11446     11448     11450     11449     11448     11450     11448     11450     11451
     11448     11450     11452     11448     11450     11454     11451     11450     11452
     11451     11450     11454     11452     11450     11454     11450     11452     11453
     11450     11454     11455     11450     11454     11456     11455     11454     11456
     11454     11456     11457     11454     11456     11458     11457     11456     11458
     11456     11458     11459     11456     11458     11460     11456     11458     11461
     11459     11458     11460     11459     11458     11461     11460     11458     11461
     11458     11461     11462     11458     11461     11463     11458     11461     11464
     11462     11461     11463     11462     11461     11464     11463     11461     11464
     11461     11464     11465     11461     11464     11466     11461     11464     11467
     11465     11464     11466     11465     11464     11467     11466     11464     11467
     11464     11467     11468     11464     11467     11469     11464     11467     11470
     11468     11467     11469     11468     11467     11470     11469     11467     11470
     11467     11470     11471     11467     11470     11472     11467     11470     11473
     11471     11470     11472     11471     11470     11473     11472     11470     11473
     11470     11473     11474     11470     11473     11475     11470     11473     11476
     11474     11473     11475     11474     11473     11476     11475     11473     11476
     11473     11476     11477     11473     11476     11478     11473     11476     11479
     11477     11476     11478     11477     11476     11479     11478     11476     11479
     11476     11479     11480     11476     11479     11481     11476     11479     11482
     11480     11479     11481     11480     11479     11482     11481     11479     11482
     11479     11482     11483     11479     11482     11484     11479     11482     11485
     11483     11482     11484     11483     11482     11485     11484     11482     11485
     11482     11485     11486     11482     11485     11487     11482     11485     11488
     11486     11485     11487     11486     11485     11488     11487     11485     11488
     11485     11488     11489     11485     11488     11490     11485     11488     11491
     11489     11488     11490     11489     11488     11491     11490     11488     11491
     11488     11491     11492     11488     11491     11493     11488     11491     11494
     11492     11491     11493     11492     11491     11494     11493     11491     11494
     11491     11494     11495     11491     11494     11496     11491     11494     11497
     11495     11494     11496     11495     11494     11497     11496     11494     11497
     11446     11498     11499     11446     11498     11500     11499     11498     11500
     11498     11500     11501     11498     11500     11502     11498     11500     11503
     11501     11500     11502     11501     11500     11503     11502     11500     11503
     11500     11503     11504     11500     11503     11505     11500     11503     11506
     11504     11503     11505     11504     11503     11506     11505     11503     11506
     11503     11506     11507     11503     11506     11508     11503     11506     11509
     11507     11506     11508     11507     11506     11509     11508     11506     11509
     11506     11509     11510     11506     11509     11511     11506     11509     11512
     11510     11509     11511     11510     11509     11512     11511     11509     11512
     11509     11512     11513     11509     11512     11514     11509     11512     11515
     11513     11512     11514     11513     11512     11515     11514     11512     11515
     11512     11515     11516     11512     11515     11517     11512     11515     11518
     11516     11515     11517     11516     11515     11518     11517     11515     11518
     11515     11518     11519     11515     11518     11520     11515     11518     11521
     11519     11518     11520     11519     11518     11521     11520     11518     11521
     11518     11521     11522     11518     11521     11523     11522     11521     11523
     11521     11523     11524     11521     11523     11525     11524     11523     11525
     11523     11525     11526     11523     11525     11527     11523     11525     11528
     11526     11525     11527     11526     11525     11528     11527     11525     11528
     11525     11528     11529     11525     11528     11530     11525     11528     11531
     11529     11528     11530     11529     11528     11531     11530     11528     11531
     11528     11531     11532     11528     11531     11533     11528     11531     11534
     11532     11531     11533     11532     11531     11534     11533     11531     11534
     11531     11534     11535     11531     11534     11536     11531     11534     11537
     11535     11534     11536     11535     11534     11537     11536     11534     11537
     11534     11537     11538     11534     11537     11539     11534     11537     11540
     11538     11537     11539     11538     11537     11540     11539     11537     11540
     11537     11540     11541     11537     11540     11542     11537     11540     11543
     11541     11540     11542     11541     11540     11543     11542     11540     11543
     11540     11543     11544     11540     11543     11545     11540     11543     11546
     11544     11543     11545     11544     11543     11546     11545     11543     11546
     11543     11546     11547     11543     11546     11548     11543     11546     11549
     11547     11546     11548     11547     11546     11549     11548     11546     11549
      2690      2689      2693      2690      2689      2697      2690      2689      2701
      2693      2689      2697      2693      2689      2701      2697      2689      2701
      2689      2690      2691      2689      2690      2692      2689      2690      2705
      2691      2690      2692      2691      2690      2705      2692      2690      2705
      2689      2693      2694      2689      2693      2695      2689      2693      2696
      2694      2693      2695      2694      2693      2696      2695      2693      2696
      2689      2697      2698      2689      2697      2699      2689      2697      2700
      2698      2697      2699      2698      2697      2700      2699      2697      2700
      2689      2701      2702      2689      2701      2703      2689      2701      2704
      2702      2701      2703      2702      2701      2704      2703      2701      2704
      2690      2705      2706      2690      2705      2707      2690      2705      2711
      2706      2705      2707      2706      2705      2711      2707      2705      2711
      2709      2708      2710      2709      2708      2711      2709      2708      2712
      2710      2708      2711      2710      2708      2712      2711      2708      2712
      2705      2711      2708      2708      2712      2713      2712      2713      2714
      2712      2713      2715      2712      2713      2716      2714      2713      2715
      2714      2713      2716      2715      2713      2716      2713      2716      2717
      2713      2716      2718      2713      2716      2724      2717      2716      2718
      2717      2716      2724      2718      2716      2724      2716      2718      2719
      2718      2719      2720      2718      2719      2721      2720      2719      2721
      2719      2721      2722      2719      2721      2723      2719      2721      2733
      2722      2721      2723      2722      2721      2733      2723      2721      2733
      2716      2724      2725      2716      2724      2726      2716      2724      2727
      2725      2724      2726      2725      2724      2727      2726      2724      2727
      2724      2727      2728      2727      2728      2729      2727      2728      2730
      2729      2728      2730      2728      2730      2731      2728      2730      2732
      2728      2730      2780      2731      2730      2732      2731      2730      2780
      2732      2730      2780      2721      2733      2734      2721      2733      2735
      2721      2733      2736      2734      2733      2735      2734      2733      2736
      2735      2733      2736      2733      2736      2737      2733      2736      2738
      2733      2736      2739      2737      2736      2738      2737      2736      2739
      2738      2736      2739      2736      2739      2740      2736      2739      2741
      2740      2739      2741      2739      2741      2742      2739      2741      2743
      2742      2741      2743      2741      2743      2744      2741      2743      2745
      2741      2743      2746      2744      2743      2745      2744      2743      2746
      2745      2743      2746      2743      2746      2747      2743      2746      2748
      2747      2746      2748      2746      2748      2749      2746      2748      2750
      2749      2748      2750      2748      2750      2751      2748      2750      2752
      2748      2750      2753      2751      2750      2752      2751      2750      2753
      2752      2750      2753      2750      2753      2754      2750      2753      2755
      2754      2753      2755      2753      2755      2756      2753      2755      2757
      2756      2755      2757      2755      2757      2758      2755      2757      2759
      2755      2757      2760      2758      2757      2759      2758      2757      2760
      2759      2757      2760      2757      2760      2761      2757      2760      2762
      2761      2760      2762      2760      2762      2763      2760      2762      2764
      2763      2762      2764      2762      2764      2765      2762      2764      2766
      2762      2764      2767      2765      2764      2766      2765      2764      2767
      2766      2764      2767      2764      2767      2768      2764      2767      2769
      2764      2767      2770      2768      2767      2769      2768      2767      2770
      2769      2767      2770      2767      2770      2771      2767      2770      2772
      2767      2770      2773      2771      2770      2772      2771      2770      2773
      2772      2770      2773      2770      2773      2774      2770      2773      2775
      2770      2773      2776      2774      2773      2775      2774      2773      2776
      2775      2773      2776      2773      2776      2777      2773      2776      2778
      2773      2776      2779      2777      2776      2778      2777      2776      2779
      2778      2776      2779      2730      2780      2781      2730      2780      2782
      2730      2780      2783      2781      2780      2782      2781      2780      2783
      2782      2780      2783      2780      2783      2784      2780      2783      2785
      2780      2783      2786      2784      2783      2785      2784      2783      2786
      2785      2783      2786      2783      2786      2787      2783      2786      2788
      2783      2786      2789      2787      2786      2788      2787      2786      2789
      2788      2786      2789      2786      2789      2790      2786      2789      2791
      2786      2789      2792      2790      2789      2791      2790      2789      2792
      2791      2789      2792      2789      2792      2793      2789      2792      2794
      2789      2792      2795      2793      2792      2794      2793      2792      2795
      2794      2792      2795      2792      2795      2796      2792      2795      2797
      2792      2795      2798      2796      2795      2797      2796      2795      2798
      2797      2795      2798      2795      2798      2799      2795      2798      2800
      2795      2798      2801      2799      2798      2800      2799      2798      2801
      2800      2798      2801      2798      2801      2802      2798      2801      2803
      2798      2801      2804      2802      2801      2803      2802      2801      2804
      2803      2801      2804      2801      2804      2805      2801      2804      2806
      2801      2804      2807      2805      2804      2806      2805      2804      2807
      2806      2804      2807      2804      2807      2808      2804      2807      2809
      2804      2807      2810      2808      2807      2809      2808      2807      2810
      2809      2807      2810      2807      2810      2811      2807      2810      2812
      2807      2810      2813      2811      2810      2812      2811      2810      2813
      2812      2810      2813      2810      2813      2814      2810      2813      2815
      2810      2813      2816      2814      2813      2815      2814      2813      2816
      2815      2813      2816      2813      2816      2817      2813      2816      2818
      2813      2816      2819      2817      2816      2818      2817      2816      2819
      2818      2816      2819      2816      2819      2820      2816      2819      2821
      2816      2819      2822      2820      2819      2821      2820      2819      2822
      2821      2819      2822      2819      2822      2823      2819      2822      2824
      2819      2822      2825      2823      2822      2824      2823      2822      2825
      2824      2822      2825      2822      2825      2826      2822      2825      2827
      2822      2825      2828      2826      2825      2827      2826      2825      2828
      2827      2825      2828       667       666       668       667       666       669
       667       666       670       668       666       669       668       666       670
       669       666       670       666       670       671       666       670       672
       666       670       675       671       670       672       671       670       675
       672       670       675       670       672       673       670       672       674
       673       672       674       670       675       676       670       675       677
       670       675       681       676       675       677       676       675       681
       677       675       681       679       678       680       679       678       681
       679       678       682       680       678       681       680       678       682
       681       678       682       675       681       678       678       682       683
       682       683       684       682       683       685       682       683       686
       684       683       685       684       683       686       685       683       686
       683       686       687       683       686       688       683       686       694
       687       686       688       687       686       694       688       686       694
       686       688       689       688       689       690       688       689       691
       690       689       691       689       691       692       689       691       693
       689       691       703       692       691       693       692       691       703
       693       691       703       686       694       695       686       694       696
       686       694       697       695       694       696       695       694       697
       696       694       697       694       697       698       697       698       699
       697       698       700       699       698       700       698       700       701
       698       700       702       698       700       750       701       700       702
       701       700       750       702       700       750       691       703       704
       691       703       705       691       703       706       704       703       705
       704       703       706       705       703       706       703       706       707
       703       706       708       703       706       709       707       706       708
       707       706       709       708       706       709       706       709       710
       706       709       711       710       709       711       709       711       712
       709       711       713       712       711       713       711       713       714
       711       713       715       711       713       716       714       713       715
       714       713       716       715       713       716       713       716       717
       713       716       718       717       716       718       716       718       719
       716       718       720       719       718       720       718       720       721
       718       720       722       718       720       723       721       720       722
       721       720       723       722       720       723       720       723       724
       720       723       725       724       723       725       723       725       726
       723       725       727       726       725       727       725       727       728
       725       727       729       725       727       730       728       727       729
       728       727       730       729       727       730       727       730       731
       727       730       732       731       730       732       730       732       733
       730       732       734       733       732       734       732       734       735
       732       734       736       732       734       737       735       734       736
       735       734       737       736       734       737       734       737       738
       734       737       739       734       737       740       738       737       739
       738       737       740       739       737       740       737       740       741
       737       740       742       737       740       743       741       740       742
       741       740       743       742       740       743       740       743       744
       740       743       745       740       743       746       744       743       745
       744       743       746       745       743       746       743       746       747
       743       746       748       743       746       749       747       746       748
       747       746       749       748       746       749       700       750       751
       700       750       752       700       750       753       751       750       752
       751       750       753       752       750       753       750       753       754
       750       753       755       750       753       756       754       753       755
       754       753       756       755       753       756       753       756       757
       753       756       758       753       756       759       757       756       758
       757       756       759       758       756       759       756       759       760
       756       759       761       756       759       762       760       759       761
       760       759       762       761       759       762       759       762       763
       759       762       764       759       762       765       763       762       764
       763       762       765       764       762       765       762       765       766
       762       765       767       762       765       768       766       765       767
       766       765       768       767       765       768       765       768       769
       765       768       770       765       768       771       769       768       770
       769       768       771       770       768       771       768       771       772
       768       771       773       768       771       774       772       771       773
       772       771       774       773       771       774       771       774       775
       771       774       776       771       774       777       775       774       776
       775       774       777       776       774       777       774       777       778
       774       777       779       774       777       780       778       777       779
       778       777       780       779       777       780       777       780       781
       777       780       782       777       780       783       781       780       782
       781       780       783       782       780       783       780       783       784
       780       783       785       780       783       786       784       783       785
       784       783       786       785       783       786       783       786       787
       783       786       788       783       786       789       787       786       788
       787       786       789       788       786       789       786       789       790
       786       789       791       786       789       792       790       789       791
       790       789       792       791       789       792       789       792       793
       789       792       794       789       792       795       793       792       794
       793       792       795       794       792       795       792       795       796
       792       795       797       792       795       798       796       795       797
       796       795       798       797       795       798     11551     11550     11555
     11551     11550     11559     11551     11550     11563     11555     11550     11559
     11555     11550     11563     11559     11550     11563     11550     11551     11552
     11550     11551     11553     11550     11551     11554     11552     11551     11553
     11552     11551     11554     11553     11551     11554     11550     11555     11556
     11550     11555     11557     11550     11555     11558     11556     11555     11557
     11556     11555     11558     11557     11555     11558     11550     11559     11560
     11550     11559     11561     11550     11559     11562     11560     11559     11561
     11560     11559     11562     11561     11559     11562     11550     11563     11564
     11550     11563     11565     11550     11563     11566     11564     11563     11565
     11564     11563     11566     11565     11563     11566     11563     11566     11567
     11563     11566     11568     11563     11566     11573     11567     11566     11568
     11567     11566     11573     11568     11566     11573     11570     11569     11571
     11570     11569     11572     11570     11569     11573     11571     11569     11572
     11571     11569     11573     11572     11569     11573     11569     11572     11574
     11566     11573     11569     11572     11574     11575     11572     11574     11576
     11572     11574     11579     11575     11574     11576     11575     11574     11579
     11576     11574     11579     11578     11577     11579     11578     11577     11629
     11579     11577     11629     11574     11579     11577     11574     11579     11580
     11574     11579     11581     11577     11579     11580     11577     11579     11581
     11580     11579     11581     11579     11581     11582     11579     11581     11583
     11579     11581     11585     11582     11581     11583     11582     11581     11585
     11583     11581     11585     11581     11583     11584     11581     11585     11586
     11581     11585     11587     11586     11585     11587     11585     11587     11588
     11585     11587     11589     11588     11587     11589     11587     11589     11590
     11587     11589     11591     11587     11589     11592     11590     11589     11591
     11590     11589     11592     11591     11589     11592     11589     11592     11593
     11589     11592     11594     11589     11592     11595     11593     11592     11594
     11593     11592     11595     11594     11592     11595     11592     11595     11596
     11592     11595     11597     11592     11595     11598     11596     11595     11597
     11596     11595     11598     11597     11595     11598     11595     11598     11599
     11595     11598     11600     11595     11598     11601     11599     11598     11600
     11599     11598     11601     11600     11598     11601     11598     11601     11602
     11598     11601     11603     11598     11601     11604     11602     11601     11603
     11602     11601     11604     11603     11601     11604     11601     11604     11605
     11601     11604     11606     11601     11604     11607     11605     11604     11606
     11605     11604     11607     11606     11604     11607     11604     11607     11608
     11604     11607     11609     11604     11607     11610     11608     11607     11609
     11608     11607     11610     11609     11607     11610     11607     11610     11611
     11607     11610     11612     11607     11610     11613     11611     11610     11612
     11611     11610     11613     11612     11610     11613     11610     11613     11614
     11610     11613     11615     11610     11613     11616     11614     11613     11615
     11614     11613     11616     11615     11613     11616     11613     11616     11617
     11613     11616     11618     11613     11616     11619     11617     11616     11618
     11617     11616     11619     11618     11616     11619     11616     11619     11620
     11616     11619     11621     11616     11619     11622     11620     11619     11621
     11620     11619     11622     11621     11619     11622     11619     11622     11623
     11619     11622     11624     11619     11622     11625     11623     11622     11624
     11623     11622     11625     11624     11622     11625     11622     11625     11626
     11622     11625     11627     11622     11625     11628     11626     11625     11627
     11626     11625     11628     11627     11625     11628     11577     11629     11630
     11577     11629     11631     11630     11629     11631     11629     11631     11632
     11629     11631     11633     11629     11631     11634     11632     11631     11633
     11632     11631     11634     11633     11631     11634     11631     11634     11635
     11631     11634     11636     11631     11634     11637     11635     11634     11636
     11635     11634     11637     11636     11634     11637     11634     11637     11638
     11634     11637     11639     11634     11637     11640     11638     11637     11639
     11638     11637     11640     11639     11637     11640     11637     11640     11641
     11637     11640     11642     11637     11640     11643     11641     11640     11642
     11641     11640     11643     11642     11640     11643     11640     11643     11644
     11640     11643     11645     11640     11643     11646     11644     11643     11645
     11644     11643     11646     11645     11643     11646     11643     11646     11647
     11643     11646     11648     11643     11646     11649     11647     11646     11648
     11647     11646     11649     11648     11646     11649     11646     11649     11650
     11646     11649     11651     11646     11649     11652     11650     11649     11651
     11650     11649     11652     11651     11649     11652     11649     11652     11653
     11649     11652     11654     11653     11652     11654     11652     11654     11655
     11652     11654     11656     11655     11654     11656     11654     11656     11657
     11654     11656     11658     11654     11656     11659     11657     11656     11658
     11657     11656     11659     11658     11656     11659     11656     11659     11660
     11656     11659     11661     11656     11659     11662     11660     11659     11661
     11660     11659     11662     11661     11659     11662     11659     11662     11663
     11659     11662     11664     11659     11662     11665     11663     11662     11664
     11663     11662     11665     11664     11662     11665     11662     11665     11666
     11662     11665     11667     11662     11665     11668     11666     11665     11667
     11666     11665     11668     11667     11665     11668     11665     11668     11669
     11665     11668     11670     11665     11668     11671     11669     11668     11670
     11669     11668     11671     11670     11668     11671     11668     11671     11672
     11668     11671     11673     11668     11671     11674     11672     11671     11673
     11672     11671     11674     11673     11671     11674     11671     11674     11675
     11671     11674     11676     11671     11674     11677     11675     11674     11676
     11675     11674     11677     11676     11674     11677     11674     11677     11678
     11674     11677     11679     11674     11677     11680     11678     11677     11679
     11678     11677     11680     11679     11677     11680     15743     15742     15744
     15743     15742     15745     15743     15742     15746     15744     15742     15745
     15744     15742     15746     15745     15742     15746     15742     15746     15747
     15742     15746     15748     15742     15746     15749     15747     15746     15748
     15747     15746     15749     15748     15746     15749     15746     15749     15750
     15746     15749     15751     15746     15749     15755     15750     15749     15751
     15750     15749     15755     15751     15749     15755     15753     15752     15754
     15753     15752     15755     15753     15752     15756     15754     15752     15755
     15754     15752     15756     15755     15752     15756     15749     15755     15752
     15752     15756     15757     15756     15757     15758     15756     15757     15759
     15756     15757     15760     15758     15757     15759     15758     15757     15760
     15759     15757     15760     15757     15760     15761     15757     15760     15762
     15757     15760     15768     15761     15760     15762     15761     15760     15768
     15762     15760     15768     15760     15762     15763     15762     15763     15764
     15762     15763     15765     15764     15763     15765     15763     15765     15766
     15763     15765     15767     15763     15765     15777     15766     15765     15767
     15766     15765     15777     15767     15765     15777     15760     15768     15769
     15760     15768     15770     15760     15768     15771     15769     15768     15770
     15769     15768     15771     15770     15768     15771     15768     15771     15772
     15771     15772     15773     15771     15772     15774     15773     15772     15774
     15772     15774     15775     15772     15774     15776     15772     15774     15824
     15775     15774     15776     15775     15774     15824     15776     15774     15824
     15765     15777     15778     15765     15777     15779     15765     15777     15780
     15778     15777     15779     15778     15777     15780     15779     15777     15780
     15777     15780     15781     15777     15780     15782     15777     15780     15783
     15781     15780     15782     15781     15780     15783     15782     15780     15783
     15780     15783     15784     15780     15783     15785     15784     15783     15785
     15783     15785     15786     15783     15785     15787     15786     15785     15787
     15785     15787     15788     15785     15787     15789     15785     15787     15790
     15788     15787     15789     15788     15787     15790     15789     15787     15790
     15787     15790     15791     15787     15790     15792     15791     15790     15792
     15790     15792     15793     15790     15792     15794     15793     15792     15794
     15792     15794     15795     15792     15794     15796     15792     15794     15797
     15795     15794     15796     15795     15794     15797     15796     15794     15797
     15794     15797     15798     15794     15797     15799     15798     15797     15799
     15797     15799     15800     15797     15799     15801     15800     15799     15801
     15799     15801     15802     15799     15801     15803     15799     15801     15804
     15802     15801     15803     15802     15801     15804     15803     15801     15804
     15801     15804     15805     15801     15804     15806     15805     15804     15806
     15804     15806     15807     15804     15806     15808     15807     15806     15808
     15806     15808     15809     15806     15808     15810     15806     15808     15811
     15809     15808     15810     15809     15808     15811     15810     15808     15811
     15808     15811     15812     15808     15811     15813     15808     15811     15814
     15812     15811     15813     15812     15811     15814     15813     15811     15814
     15811     15814     15815     15811     15814     15816     15811     15814     15817
     15815     15814     15816     15815     15814     15817     15816     15814     15817
     15814     15817     15818     15814     15817     15819     15814     15817     15820
     15818     15817     15819     15818     15817     15820     15819     15817     15820
     15817     15820     15821     15817     15820     15822     15817     15820     15823
     15821     15820     15822     15821     15820     15823     15822     15820     15823
     15774     15824     15825     15774     15824     15826     15774     15824     15827
     15825     15824     15826     15825     15824     15827     15826     15824     15827
     15824     15827     15828     15824     15827     15829     15824     15827     15830
     15828     15827     15829     15828     15827     15830     15829     15827     15830
     15827     15830     15831     15827     15830     15832     15827     15830     15833
     15831     15830     15832     15831     15830     15833     15832     15830     15833
     15830     15833     15834     15830     15833     15835     15830     15833     15836
     15834     15833     15835     15834     15833     15836     15835     15833     15836
     15833     15836     15837     15833     15836     15838     15833     15836     15839
     15837     15836     15838     15837     15836     15839     15838     15836     15839
     15836     15839     15840     15836     15839     15841     15836     15839     15842
     15840     15839     15841     15840     15839     15842     15841     15839     15842
     15839     15842     15843     15839     15842     15844     15839     15842     15845
     15843     15842     15844     15843     15842     15845     15844     15842     15845
     15842     15845     15846     15842     15845     15847     15842     15845     15848
     15846     15845     15847     15846     15845     15848     15847     15845     15848
     15845     15848     15849     15845     15848     15850     15845     15848     15851
     15849     15848     15850     15849     15848     15851     15850     15848     15851
     15848     15851     15852     15848     15851     15853     15848     15851     15854
     15852     15851     15853     15852     15851     15854     15853     15851     15854
     15851     15854     15855     15851     15854     15856     15851     15854     15857
     15855     15854     15856     15855     15854     15857     15856     15854     15857
     15854     15857     15858     15854     15857     15859     15854     15857     15860
     15858     15857     15859     15858     15857     15860     15859     15857     15860
     15857     15860     15861     15857     15860     15862     15857     15860     15863
     15861     15860     15862     15861     15860     15863     15862     15860     15863
     15860     15863     15864     15860     15863     15865     15860     15863     15866
     15864     15863     15865     15864     15863     15866     15865     15863     15866
     15863     15866     15867     15863     15866     15868     15863     15866     15869
     15867     15866     15868     15867     15866     15869     15868     15866     15869
     15866     15869     15870     15866     15869     15871     15866     15869     15872
     15870     15869     15871     15870     15869     15872     15871     15869     15872
      7218      7217      7219      7218      7217      7221      7218      7217      7263
      7219      7217      7221      7219      7217      7263      7221      7217      7263
      7217      7219      7220      7217      7221      7222      7217      7221      7223
      7217      7221      7224      7222      7221      7223      7222      7221      7224
      7223      7221      7224      7221      7224      7225      7221      7224      7255
      7225      7224      7255      7224      7225      7226      7224      7225      7227
      7226      7225      7227      7225      7227      7228      7225      7227      7229
      7225      7227      7230      7228      7227      7229      7228      7227      7230
      7229      7227      7230      7227      7230      7231      7227      7230      7232
      7227      7230      7253      7231      7230      7232      7231      7230      7253
      7232      7230      7253      7230      7232      7233      7230      7232      7234
      7230      7232      7242      7233      7232      7234      7233      7232      7242
      7234      7232      7242      7232      7234      7235      7232      7234      7236
      7232      7234      7237      7235      7234      7236      7235      7234      7237
      7236      7234      7237      7234      7237      7238      7234      7237      7239
      7234      7237      7240      7238      7237      7239      7238      7237      7240
      7239      7237      7240      7237      7240      7241      7237      7240      7242
      7237      7240      7266      7241      7240      7242      7241      7240      7266
      7242      7240      7266      7232      7242      7240      7232      7242      7243
      7232      7242      7247      7240      7242      7243      7240      7242      7247
      7243      7242      7247      7242      7243      7244      7242      7243      7245
      7242      7243      7246      7244      7243      7245      7244      7243      7246
      7245      7243      7246      7242      7247      7248      7242      7247      7249
      7242      7247      7250      7248      7247      7249      7248      7247      7250
      7249      7247      7250      7247      7250      7251      7247      7250      7252
      7247      7250      7253      7251      7250      7252      7251      7250      7253
      7252      7250      7253      7230      7253      7250      7230      7253      7254
      7230      7253      7255      7250      7253      7254      7250      7253      7255
      7254      7253      7255      7224      7255      7253      7224      7255      7256
      7224      7255      7260      7253      7255      7256      7253      7255      7260
      7256      7255      7260      7255      7256      7257      7255      7256      7258
      7255      7256      7259      7257      7256      7258      7257      7256      7259
      7258      7256      7259      7255      7260      7261      7255      7260      7262
      7255      7260      7263      7261      7260      7262      7261      7260      7263
      7262      7260      7263      7217      7263      7260      7217      7263      7264
      7217      7263      7265      7260      7263      7264      7260      7263      7265
      7264      7263      7265      7240      7266      7267      7240      7266      7268
      7240      7266      7272      7267      7266      7268      7267      7266      7272
      7268      7266      7272      7266      7268      7269      7266      7268      7270
      7266      7268      7271      7269      7268      7270      7269      7268      7271
      7270      7268      7271      7266      7272      7273      7266      7272      7274
      7266      7272      7275      7273      7272      7274      7273      7272      7275
      7274      7272      7275      7272      7275      7276      7272      7275      7277
      7272      7275      7278      7276      7275      7277      7276      7275      7278
      7277      7275      7278      7275      7278      7279      7275      7278      7280
      7275      7278      7281      7279      7278      7280      7279      7278      7281
      7280      7278      7281      7278      7281      7282      7278      7281      7283
      7278      7281      7287      7282      7281      7283      7282      7281      7287
      7283      7281      7287      7281      7283      7284      7281      7283      7285
      7281      7283      7286      7284      7283      7285      7284      7283      7286
      7285      7283      7286      7281      7287      7288      7281      7287      7289
      7281      7287      7290      7288      7287      7289      7288      7287      7290
      7289      7287      7290     15874     15873     15875     15874     15873     15876
     15874     15873     15877     15875     15873     15876     15875     15873     15877
     15876     15873     15877     15873     15877     15878     15873     15877     15879
     15873     15877     15880     15878     15877     15879     15878     15877     15880
     15879     15877     15880     15877     15880     15881     15877     15880     15882
     15877     15880     15886     15881     15880     15882     15881     15880     15886
     15882     15880     15886     15884     15883     15885     15884     15883     15886
     15884     15883     15887     15885     15883     15886     15885     15883     15887
     15886     15883     15887     15880     15886     15883     15883     15887     15888
     15887     15888     15889     15887     15888     15890     15887     15888     15891
     15889     15888     15890     15889     15888     15891     15890     15888     15891
     15888     15891     15892     15888     15891     15893     15888     15891     15899
     15892     15891     15893     15892     15891     15899     15893     15891     15899
     15891     15893     15894     15893     15894     15895     15893     15894     15896
     15895     15894     15896     15894     15896     15897     15894     15896     15898
     15894     15896     15908     15897     15896     15898     15897     15896     15908
     15898     15896     15908     15891     15899     15900     15891     15899     15901
     15891     15899     15902     15900     15899     15901     15900     15899     15902
     15901     15899     15902     15899     15902     15903     15902     15903     15904
     15902     15903     15905     15904     15903     15905     15903     15905     15906
     15903     15905     15907     15903     15905     15955     15906     15905     15907
     15906     15905     15955     15907     15905     15955     15896     15908     15909
     15896     15908     15910     15896     15908     15911     15909     15908     15910
     15909     15908     15911     15910     15908     15911     15908     15911     15912
     15908     15911     15913     15908     15911     15914     15912     15911     15913
     15912     15911     15914     15913     15911     15914     15911     15914     15915
     15911     15914     15916     15915     15914     15916     15914     15916     15917
     15914     15916     15918     15917     15916     15918     15916     15918     15919
     15916     15918     15920     15916     15918     15921     15919     15918     15920
     15919     15918     15921     15920     15918     15921     15918     15921     15922
     15918     15921     15923     15922     15921     15923     15921     15923     15924
     15921     15923     15925     15924     15923     15925     15923     15925     15926
     15923     15925     15927     15923     15925     15928     15926     15925     15927
     15926     15925     15928     15927     15925     15928     15925     15928     15929
     15925     15928     15930     15929     15928     15930     15928     15930     15931
     15928     15930     15932     15931     15930     15932     15930     15932     15933
     15930     15932     15934     15930     15932     15935     15933     15932     15934
     15933     15932     15935     15934     15932     15935     15932     15935     15936
     15932     15935     15937     15936     15935     15937     15935     15937     15938
     15935     15937     15939     15938     15937     15939     15937     15939     15940
     15937     15939     15941     15937     15939     15942     15940     15939     15941
     15940     15939     15942     15941     15939     15942     15939     15942     15943
     15939     15942     15944     15939     15942     15945     15943     15942     15944
     15943     15942     15945     15944     15942     15945     15942     15945     15946
     15942     15945     15947     15942     15945     15948     15946     15945     15947
     15946     15945     15948     15947     15945     15948     15945     15948     15949
     15945     15948     15950     15945     15948     15951     15949     15948     15950
     15949     15948     15951     15950     15948     15951     15948     15951     15952
     15948     15951     15953     15948     15951     15954     15952     15951     15953
     15952     15951     15954     15953     15951     15954     15905     15955     15956
     15905     15955     15957     15905     15955     15958     15956     15955     15957
     15956     15955     15958     15957     15955     15958     15955     15958     15959
     15955     15958     15960     15955     15958     15961     15959     15958     15960
     15959     15958     15961     15960     15958     15961     15958     15961     15962
     15958     15961     15963     15958     15961     15964     15962     15961     15963
     15962     15961     15964     15963     15961     15964     15961     15964     15965
     15961     15964     15966     15961     15964     15967     15965     15964     15966
     15965     15964     15967     15966     15964     15967     15964     15967     15968
     15964     15967     15969     15964     15967     15970     15968     15967     15969
     15968     15967     15970     15969     15967     15970     15967     15970     15971
     15967     15970     15972     15967     15970     15973     15971     15970     15972
     15971     15970     15973     15972     15970     15973     15970     15973     15974
     15970     15973     15975     15970     15973     15976     15974     15973     15975
     15974     15973     15976     15975     15973     15976     15973     15976     15977
     15973     15976     15978     15973     15976     15979     15977     15976     15978
     15977     15976     15979     15978     15976     15979     15976     15979     15980
     15976     15979     15981     15976     15979     15982     15980     15979     15981
     15980     15979     15982     15981     15979     15982     15979     15982     15983
     15979     15982     15984     15979     15982     15985     15983     15982     15984
     15983     15982     15985     15984     15982     15985     15982     15985     15986
     15982     15985     15987     15982     15985     15988     15986     15985     15987
     15986     15985     15988     15987     15985     15988     15985     15988     15989
     15985     15988     15990     15985     15988     15991     15989     15988     15990
     15989     15988     15991     15990     15988     15991     15988     15991     15992
     15988     15991     15993     15988     15991     15994     15992     15991     15993
     15992     15991     15994     15993     15991     15994     15991     15994     15995
     15991     15994     15996     15991     15994     15997     15995     15994     15996
     15995     15994     15997     15996     15994     15997     15994     15997     15998
     15994     15997     15999     15994     15997     16000     15998     15997     15999
     15998     15997     16000     15999     15997     16000     15997     16000     16001
     15997     16000     16002     15997     16000     16003     16001     16000     16002
     16001     16000     16003     16002     16000     16003      2830      2829      2833
      2830      2829      2837      2830      2829      2841      2833      2829      2837
      2833      2829      2841      2837      2829      2841      2829      2830      2831
      2829      2830      2832      2829      2830      2845      2831      2830      2832
      2831      2830      2845      2832      2830      2845      2829      2833      2834
      2829      2833      2835      2829      2833      2836      2834      2833      2835
      2834      2833      2836      2835      2833      2836      2829      2837      2838
      2829      2837      2839      2829      2837      2840      2838      2837      2839
      2838      2837      2840      2839      2837      2840      2829      2841      2842
      2829      2841      2843      2829      2841      2844      2842      2841      2843
      2842      2841      2844      2843      2841      2844      2830      2845      2846
      2830      2845      2847      2830      2845      2851      2846      2845      2847
      2846      2845      2851      2847      2845      2851      2849      2848      2850
      2849      2848      2851      2849      2848      2852      2850      2848      2851
      2850      2848      2852      2851      2848      2852      2845      2851      2848
      2848      2852      2853      2852      2853      2854      2852      2853      2855
      2852      2853      2856      2854      2853      2855      2854      2853      2856
      2855      2853      2856      2853      2856      2857      2853      2856      2858
      2853      2856      2864      2857      2856      2858      2857      2856      2864
      2858      2856      2864      2856      2858      2859      2858      2859      2860
      2858      2859      2861      2860      2859      2861      2859      2861      2862
      2859      2861      2863      2859      2861      2873      2862      2861      2863
      2862      2861      2873      2863      2861      2873      2856      2864      2865
      2856      2864      2866      2856      2864      2867      2865      2864      2866
      2865      2864      2867      2866      2864      2867      2864      2867      2868
      2867      2868      2869      2867      2868      2870      2869      2868      2870
      2868      2870      2871      2868      2870      2872      2868      2870      2920
      2871      2870      2872      2871      2870      2920      2872      2870      2920
      2861      2873      2874      2861      2873      2875      2861      2873      2876
      2874      2873      2875      2874      2873      2876      2875      2873      2876
      2873      2876      2877      2873      2876      2878      2873      2876      2879
      2877      2876      2878      2877      2876      2879      2878      2876      2879
      2876      2879      2880      2876      2879      2881      2880      2879      2881
      2879      2881      2882      2879      2881      2883      2882      2881      2883
      2881      2883      2884      2881      2883      2885      2881      2883      2886
      2884      2883      2885      2884      2883      2886      2885      2883      2886
      2883      2886      2887      2883      2886      2888      2887      2886      2888
      2886      2888      2889      2886      2888      2890      2889      2888      2890
      2888      2890      2891      2888      2890      2892      2888      2890      2893
      2891      2890      2892      2891      2890      2893      2892      2890      2893
      2890      2893      2894      2890      2893      2895      2894      2893      2895
      2893      2895      2896      2893      2895      2897      2896      2895      2897
      2895      2897      2898      2895      2897      2899      2895      2897      2900
      2898      2897      2899      2898      2897      2900      2899      2897      2900
      2897      2900      2901      2897      2900      2902      2901      2900      2902
      2900      2902      2903      2900      2902      2904      2903      2902      2904
      2902      2904      2905      2902      2904      2906      2902      2904      2907
      2905      2904      2906      2905      2904      2907      2906      2904      2907
      2904      2907      2908      2904      2907      2909      2904      2907      2910
      2908      2907      2909      2908      2907      2910      2909      2907      2910
      2907      2910      2911      2907      2910      2912      2907      2910      2913
      2911      2910      2912      2911      2910      2913      2912      2910      2913
      2910      2913      2914      2910      2913      2915      2910      2913      2916
      2914      2913      2915      2914      2913      2916      2915      2913      2916
      2913      2916      2917      2913      2916      2918      2913      2916      2919
      2917      2916      2918      2917      2916      2919      2918      2916      2919
      2870      2920      2921      2870      2920      2922      2870      2920      2923
      2921      2920      2922      2921      2920      2923      2922      2920      2923
      2920      2923      2924      2920      2923      2925      2920      2923      2926
      2924      2923      2925      2924      2923      2926      2925      2923      2926
      2923      2926      2927      2923      2926      2928      2923      2926      2929
      2927      2926      2928      2927      2926      2929      2928      2926      2929
      2926      2929      2930      2926      2929      2931      2926      2929      2932
      2930      2929      2931      2930      2929      2932      2931      2929      2932
      2929      2932      2933      2929      2932      2934      2929      2932      2935
      2933      2932      2934      2933      2932      2935      2934      2932      2935
      2932      2935      2936      2932      2935      2937      2932      2935      2938
      2936      2935      2937      2936      2935      2938      2937      2935      2938
      2935      2938      2939      2935      2938      2940      2935      2938      2941
      2939      2938      2940      2939      2938      2941      2940      2938      2941
      2938      2941      2942      2938      2941      2943      2938      2941      2944
      2942      2941      2943      2942      2941      2944      2943      2941      2944
      2941      2944      2945      2941      2944      2946      2941      2944      2947
      2945      2944      2946      2945      2944      2947      2946      2944      2947
      2944      2947      2948      2944      2947      2949      2944      2947      2950
      2948      2947      2949      2948      2947      2950      2949      2947      2950
      2947      2950      2951      2947      2950      2952      2947      2950      2953
      2951      2950      2952      2951      2950      2953      2952      2950      2953
      2950      2953      2954      2950      2953      2955      2950      2953      2956
      2954      2953      2955      2954      2953      2956      2955      2953      2956
      2953      2956      2957      2953      2956      2958      2953      2956      2959
      2957      2956      2958      2957      2956      2959      2958      2956      2959
      2956      2959      2960      2956      2959      2961      2956      2959      2962
      2960      2959      2961      2960      2959      2962      2961      2959      2962
      2959      2962      2963      2959      2962      2964      2959      2962      2965
      2963      2962      2964      2963      2962      2965      2964      2962      2965
      2962      2965      2966      2962      2965      2967      2962      2965      2968
      2966      2965      2967      2966      2965      2968      2967      2965      2968
       800       799       801       800       799       802       800       799       803
       801       799       802       801       799       803       802       799       803
       799       803       804       799       803       805       799       803       808
       804       803       805       804       803       808       805       803       808
       803       805       806       803       805       807       806       805       807
       803       808       809       803       808       810       803       808       814
       809       808       810       809       808       814       810       808       814
       812       811       813       812       811       814       812       811       815
       813       811       814       813       811       815       814       811       815
       808       814       811       811       815       816       815       816       817
       815       816       818       815       816       819       817       816       818
       817       816       819       818       816       819       816       819       820
       816       819       821       816       819       827       820       819       821
       820       819       827       821       819       827       819       821       822
       821       822       823       821       822       824       823       822       824
       822       824       825       822       824       826       822       824       836
       825       824       826       825       824       836       826       824       836
       819       827       828       819       827       829       819       827       830
       828       827       829       828       827       830       829       827       830
       827       830       831       830       831       832       830       831       833
       832       831       833       831       833       834       831       833       835
       831       833       883       834       833       835       834       833       883
       835       833       883       824       836       837       824       836       838
       824       836       839       837       836       838       837       836       839
       838       836       839       836       839       840       836       839       841
       836       839       842       840       839       841       840       839       842
       841       839       842       839       842       843       839       842       844
       843       842       844       842       844       845       842       844       846
       845       844       846       844       846       847       844       846       848
       844       846       849       847       846       848       847       846       849
       848       846       849       846       849       850       846       849       851
       850       849       851       849       851       852       849       851       853
       852       851       853       851       853       854       851       853       855
       851       853       856       854       853       855       854       853       856
       855       853       856       853       856       857       853       856       858
       857       856       858       856       858       859       856       858       860
       859       858       860       858       860       861       858       860       862
       858       860       863       861       860       862       861       860       863
       862       860       863       860       863       864       860       863       865
       864       863       865       863       865       866       863       865       867
       866       865       867       865       867       868       865       867       869
       865       867       870       868       867       869       868       867       870
       869       867       870       867       870       871       867       870       872
       867       870       873       871       870       872       871       870       873
       872       870       873       870       873       874       870       873       875
       870       873       876       874       873       875       874       873       876
       875       873       876       873       876       877       873       876       878
       873       876       879       877       876       878       877       876       879
       878       876       879       876       879       880       876       879       881
       876       879       882       880       879       881       880       879       882
       881       879       882       833       883       884       833       883       885
       833       883       886       884       883       885       884       883       886
       885       883       886       883       886       887       883       886       888
       883       886       889       887       886       888       887       886       889
       888       886       889       886       889       890       886       889       891
       886       889       892       890       889       891       890       889       892
       891       889       892       889       892       893       889       892       894
       889       892       895       893       892       894       893       892       895
       894       892       895       892       895       896       892       895       897
       892       895       898       896       895       897       896       895       898
       897       895       898       895       898       899       895       898       900
       895       898       901       899       898       900       899       898       901
       900       898       901       898       901       902       898       901       903
       898       901       904       902       901       903       902       901       904
       903       901       904       901       904       905       901       904       906
       901       904       907       905       904       906       905       904       907
       906       904       907       904       907       908       904       907       909
       904       907       910       908       907       909       908       907       910
       909       907       910       907       910       911       907       910       912
       907       910       913       911       910       912       911       910       913
       912       910       913       910       913       914       910       913       915
       910       913       916       914       913       915       914       913       916
       915       913       916       913       916       917       913       916       918
       913       916       919       917       916       918       917       916       919
       918       916       919       916       919       920       916       919       921
       916       919       922       920       919       921       920       919       922
       921       919       922       919       922       923       919       922       924
       919       922       925       923       922       924       923       922       925
       924       922       925       922       925       926       922       925       927
       922       925       928       926       925       927       926       925       928
       927       925       928       925       928       929       925       928       930
       925       928       931       929       928       930       929       928       931
       930       928       931      7292      7291      7293      7292      7291      7295
      7292      7291      7337      7293      7291      7295      7293      7291      7337
      7295      7291      7337      7291      7293      7294      7291      7295      7296
      7291      7295      7297      7291      7295      7298      7296      7295      7297
      7296      7295      7298      7297      7295      7298      7295      7298      7299
      7295      7298      7329      7299      7298      7329      7298      7299      7300
      7298      7299      7301      7300      7299      7301      7299      7301      7302
      7299      7301      7303      7299      7301      7304      7302      7301      7303
      7302      7301      7304      7303      7301      7304      7301      7304      7305
      7301      7304      7306      7301      7304      7327      7305      7304      7306
      7305      7304      7327      7306      7304      7327      7304      7306      7307
      7304      7306      7308      7304      7306      7316      7307      7306      7308
      7307      7306      7316      7308      7306      7316      7306      7308      7309
      7306      7308      7310      7306      7308      7311      7309      7308      7310
      7309      7308      7311      7310      7308      7311      7308      7311      7312
      7308      7311      7313      7308      7311      7314      7312      7311      7313
      7312      7311      7314      7313      7311      7314      7311      7314      7315
      7311      7314      7316      7311      7314      7340      7315      7314      7316
      7315      7314      7340      7316      7314      7340      7306      7316      7314
      7306      7316      7317      7306      7316      7321      7314      7316      7317
      7314      7316      7321      7317      7316      7321      7316      7317      7318
      7316      7317      7319      7316      7317      7320      7318      7317      7319
      7318      7317      7320      7319      7317      7320      7316      7321      7322
      7316      7321      7323      7316      7321      7324      7322      7321      7323
      7322      7321      7324      7323      7321      7324      7321      7324      7325
      7321      7324      7326      7321      7324      7327      7325      7324      7326
      7325      7324      7327      7326      7324      7327      7304      7327      7324
      7304      7327      7328      7304      7327      7329      7324      7327      7328
      7324      7327      7329      7328      7327      7329      7298      7329      7327
      7298      7329      7330      7298      7329      7334      7327      7329      7330
      7327      7329      7334      7330      7329      7334      7329      7330      7331
      7329      7330      7332      7329      7330      7333      7331      7330      7332
      7331      7330      7333      7332      7330      7333      7329      7334      7335
      7329      7334      7336      7329      7334      7337      7335      7334      7336
      7335      7334      7337      7336      7334      7337      7291      7337      7334
      7291      7337      7338      7291      7337      7339      7334      7337      7338
      7334      7337      7339      7338      7337      7339      7314      7340      7341
      7314      7340      7342      7314      7340      7346      7341      7340      7342
      7341      7340      7346      7342      7340      7346      7340      7342      7343
      7340      7342      7344      7340      7342      7345      7343      7342      7344
      7343      7342      7345      7344      7342      7345      7340      7346      7347
      7340      7346      7348      7340      7346      7349      7347      7346      7348
      7347      7346      7349      7348      7346      7349      7346      7349      7350
      7346      7349      7351      7346      7349      7352      7350      7349      7351
      7350      7349      7352      7351      7349      7352      7349      7352      7353
      7349      7352      7354      7349      7352      7355      7353      7352      7354
      7353      7352      7355      7354      7352      7355      7352      7355      7356
      7352      7355      7357      7352      7355      7361      7356      7355      7357
      7356      7355      7361      7357      7355      7361      7355      7357      7358
      7355      7357      7359      7355      7357      7360      7358      7357      7359
      7358      7357      7360      7359      7357      7360      7355      7361      7362
      7355      7361      7363      7355      7361      7364      7362      7361      7363
      7362      7361      7364      7363      7361      7364     11682     11681     11686
     11682     11681     11690     11682     11681     11694     11686     11681     11690
     11686     11681     11694     11690     11681     11694     11681     11682     11683
     11681     11682     11684     11681     11682     11685     11683     11682     11684
     11683     11682     11685     11684     11682     11685     11681     11686     11687
     11681     11686     11688     11681     11686     11689     11687     11686     11688
     11687     11686     11689     11688     11686     11689     11681     11690     11691
     11681     11690     11692     11681     11690     11693     11691     11690     11692
     11691     11690     11693     11692     11690     11693     11681     11694     11695
     11681     11694     11696     11681     11694     11697     11695     11694     11696
     11695     11694     11697     11696     11694     11697     11694     11697     11698
     11694     11697     11699     11694     11697     11704     11698     11697     11699
     11698     11697     11704     11699     11697     11704     11701     11700     11702
     11701     11700     11703     11701     11700     11704     11702     11700     11703
     11702     11700     11704     11703     11700     11704     11700     11703     11705
     11697     11704     11700     11703     11705     11706     11703     11705     11707
     11703     11705     11710     11706     11705     11707     11706     11705     11710
     11707     11705     11710     11709     11708     11710     11709     11708     11760
     11710     11708     11760     11705     11710     11708     11705     11710     11711
     11705     11710     11712     11708     11710     11711     11708     11710     11712
     11711     11710     11712     11710     11712     11713     11710     11712     11714
     11710     11712     11716     11713     11712     11714     11713     11712     11716
     11714     11712     11716     11712     11714     11715     11712     11716     11717
     11712     11716     11718     11717     11716     11718     11716     11718     11719
     11716     11718     11720     11719     11718     11720     11718     11720     11721
     11718     11720     11722     11718     11720     11723     11721     11720     11722
     11721     11720     11723     11722     11720     11723     11720     11723     11724
     11720     11723     11725     11720     11723     11726     11724     11723     11725
     11724     11723     11726     11725     11723     11726     11723     11726     11727
     11723     11726     11728     11723     11726     11729     11727     11726     11728
     11727     11726     11729     11728     11726     11729     11726     11729     11730
     11726     11729     11731     11726     11729     11732     11730     11729     11731
     11730     11729     11732     11731     11729     11732     11729     11732     11733
     11729     11732     11734     11729     11732     11735     11733     11732     11734
     11733     11732     11735     11734     11732     11735     11732     11735     11736
     11732     11735     11737     11732     11735     11738     11736     11735     11737
     11736     11735     11738     11737     11735     11738     11735     11738     11739
     11735     11738     11740     11735     11738     11741     11739     11738     11740
     11739     11738     11741     11740     11738     11741     11738     11741     11742
     11738     11741     11743     11738     11741     11744     11742     11741     11743
     11742     11741     11744     11743     11741     11744     11741     11744     11745
     11741     11744     11746     11741     11744     11747     11745     11744     11746
     11745     11744     11747     11746     11744     11747     11744     11747     11748
     11744     11747     11749     11744     11747     11750     11748     11747     11749
     11748     11747     11750     11749     11747     11750     11747     11750     11751
     11747     11750     11752     11747     11750     11753     11751     11750     11752
     11751     11750     11753     11752     11750     11753     11750     11753     11754
     11750     11753     11755     11750     11753     11756     11754     11753     11755
     11754     11753     11756     11755     11753     11756     11753     11756     11757
     11753     11756     11758     11753     11756     11759     11757     11756     11758
     11757     11756     11759     11758     11756     11759     11708     11760     11761
     11708     11760     11762     11761     11760     11762     11760     11762     11763
     11760     11762     11764     11760     11762     11765     11763     11762     11764
     11763     11762     11765     11764     11762     11765     11762     11765     11766
     11762     11765     11767     11762     11765     11768     11766     11765     11767
     11766     11765     11768     11767     11765     11768     11765     11768     11769
     11765     11768     11770     11765     11768     11771     11769     11768     11770
     11769     11768     11771     11770     11768     11771     11768     11771     11772
     11768     11771     11773     11768     11771     11774     11772     11771     11773
     11772     11771     11774     11773     11771     11774     11771     11774     11775
     11771     11774     11776     11771     11774     11777     11775     11774     11776
     11775     11774     11777     11776     11774     11777     11774     11777     11778
     11774     11777     11779     11774     11777     11780     11778     11777     11779
     11778     11777     11780     11779     11777     11780     11777     11780     11781
     11777     11780     11782     11777     11780     11783     11781     11780     11782
     11781     11780     11783     11782     11780     11783     11780     11783     11784
     11780     11783     11785     11784     11783     11785     11783     11785     11786
     11783     11785     11787     11786     11785     11787     11785     11787     11788
     11785     11787     11789     11785     11787     11790     11788     11787     11789
     11788     11787     11790     11789     11787     11790     11787     11790     11791
     11787     11790     11792     11787     11790     11793     11791     11790     11792
     11791     11790     11793     11792     11790     11793     11790     11793     11794
     11790     11793     11795     11790     11793     11796     11794     11793     11795
     11794     11793     11796     11795     11793     11796     11793     11796     11797
     11793     11796     11798     11793     11796     11799     11797     11796     11798
     11797     11796     11799     11798     11796     11799     11796     11799     11800
     11796     11799     11801     11796     11799     11802     11800     11799     11801
     11800     11799     11802     11801     11799     11802     11799     11802     11803
     11799     11802     11804     11799     11802     11805     11803     11802     11804
     11803     11802     11805     11804     11802     11805     11802     11805     11806
     11802     11805     11807     11802     11805     11808     11806     11805     11807
     11806     11805     11808     11807     11805     11808     11805     11808     11809
     11805     11808     11810     11805     11808     11811     11809     11808     11810
     11809     11808     11811     11810     11808     11811       933       932       934
       933       932       935       933       932       936       934       932       935
       934       932       936       935       932       936       932       936       937
       932       936       938       932       936       941       937       936       938
       937       936       941       938       936       941       936       938       939
       936       938       940       939       938       940       936       941       942
       936       941       943       936       941       947       942       941       943
       942       941       947       943       941       947       945       944       946
       945       944       947       945       944       948       946       944       947
       946       944       948       947       944       948       941       947       944
       944       948       949       948       949       950       948       949       951
       948       949       952       950       949       951       950       949       952
       951       949       952       949       952       953       949       952       954
       949       952       960       953       952       954       953       952       960
       954       952       960       952       954       955       954       955       956
       954       955       957       956       955       957       955       957       958
       955       957       959       955       957       969       958       957       959
       958       957       969       959       957       969       952       960       961
       952       960       962       952       960       963       961       960       962
       961       960       963       962       960       963       960       963       964
       963       964       965       963       964       966       965       964       966
       964       966       967       964       966       968       964       966      1016
       967       966       968       967       966      1016       968       966      1016
       957       969       970       957       969       971       957       969       972
       970       969       971       970       969       972       971       969       972
       969       972       973       969       972       974       969       972       975
       973       972       974       973       972       975       974       972       975
       972       975       976       972       975       977       976       975       977
       975       977       978       975       977       979       978       977       979
       977       979       980       977       979       981       977       979       982
       980       979       981       980       979       982       981       979       982
       979       982       983       979       982       984       983       982       984
       982       984       985       982       984       986       985       984       986
       984       986       987       984       986       988       984       986       989
       987       986       988       987       986       989       988       986       989
       986       989       990       986       989       991       990       989       991
       989       991       992       989       991       993       992       991       993
       991       993       994       991       993       995       991       993       996
       994       993       995       994       993       996       995       993       996
       993       996       997       993       996       998       997       996       998
       996       998       999       996       998      1000       999       998      1000
       998      1000      1001       998      1000      1002       998      1000      1003
      1001      1000      1002      1001      1000      1003      1002      1000      1003
      1000      1003      1004      1000      1003      1005      1000      1003      1006
      1004      1003      1005      1004      1003      1006      1005      1003      1006
      1003      1006      1007      1003      1006      1008      1003      1006      1009
      1007      1006      1008      1007      1006      1009      1008      1006      1009
      1006      1009      1010      1006      1009      1011      1006      1009      1012
      1010      1009      1011      1010      1009      1012      1011      1009      1012
      1009      1012      1013      1009      1012      1014      1009      1012      1015
      1013      1012      1014      1013      1012      1015      1014      1012      1015
       966      1016      1017       966      1016      1018       966      1016      1019
      1017      1016      1018      1017      1016      1019      1018      1016      1019
      1016      1019      1020      1016      1019      1021      1016      1019      1022
      1020      1019      1021      1020      1019      1022      1021      1019      1022
      1019      1022      1023      1019      1022      1024      1019      1022      1025
      1023      1022      1024      1023      1022      1025      1024      1022      1025
      1022      1025      1026      1022      1025      1027      1022      1025      1028
      1026      1025      1027      1026      1025      1028      1027      1025      1028
      1025      1028      1029      1025      1028      1030      1025      1028      1031
      1029      1028      1030      1029      1028      1031      1030      1028      1031
      1028      1031      1032      1028      1031      1033      1028      1031      1034
      1032      1031      1033      1032      1031      1034      1033      1031      1034
      1031      1034      1035      1031      1034      1036      1031      1034      1037
      1035      1034      1036      1035      1034      1037      1036      1034      1037
      1034      1037      1038      1034      1037      1039      1034      1037      1040
      1038      1037      1039      1038      1037      1040      1039      1037      1040
      1037      1040      1041      1037      1040      1042      1037      1040      1043
      1041      1040      1042      1041      1040      1043      1042      1040      1043
      1040      1043      1044      1040      1043      1045      1040      1043      1046
      1044      1043      1045      1044      1043      1046      1045      1043      1046
      1043      1046      1047      1043      1046      1048      1043      1046      1049
      1047      1046      1048      1047      1046      1049      1048      1046      1049
      1046      1049      1050      1046      1049      1051      1046      1049      1052
      1050      1049      1051      1050      1049      1052      1051      1049      1052
      1049      1052      1053      1049      1052      1054      1049      1052      1055
      1053      1052      1054      1053      1052      1055      1054      1052      1055
      1052      1055      1056      1052      1055      1057      1052      1055      1058
      1056      1055      1057      1056      1055      1058      1057      1055      1058
      1055      1058      1059      1055      1058      1060      1055      1058      1061
      1059      1058      1060      1059      1058      1061      1060      1058      1061
      1058      1061      1062      1058      1061      1063      1058      1061      1064
      1062      1061      1063      1062      1061      1064      1063      1061      1064
      2970      2969      2973      2970      2969      2977      2970      2969      2981
      2973      2969      2977      2973      2969      2981      2977      2969      2981
      2969      2970      2971      2969      2970      2972      2969      2970      2985
      2971      2970      2972      2971      2970      2985      2972      2970      2985
      2969      2973      2974      2969      2973      2975      2969      2973      2976
      2974      2973      2975      2974      2973      2976      2975      2973      2976
      2969      2977      2978      2969      2977      2979      2969      2977      2980
      2978      2977      2979      2978      2977      2980      2979      2977      2980
      2969      2981      2982      2969      2981      2983      2969      2981      2984
      2982      2981      2983      2982      2981      2984      2983      2981      2984
      2970      2985      2986      2970      2985      2987      2970      2985      2991
      2986      2985      2987      2986      2985      2991      2987      2985      2991
      2989      2988      2990      2989      2988      2991      2989      2988      2992
      2990      2988      2991      2990      2988      2992      2991      2988      2992
      2985      2991      2988      2988      2992      2993      2992      2993      2994
      2992      2993      2995      2992      2993      2996      2994      2993      2995
      2994      2993      2996      2995      2993      2996      2993      2996      2997
      2993      2996      2998      2993      2996      3004      2997      2996      2998
      2997      2996      3004      2998      2996      3004      2996      2998      2999
      2998      2999      3000      2998      2999      3001      3000      2999      3001
      2999      3001      3002      2999      3001      3003      2999      3001      3013
      3002      3001      3003      3002      3001      3013      3003      3001      3013
      2996      3004      3005      2996      3004      3006      2996      3004      3007
      3005      3004      3006      3005      3004      3007      3006      3004      3007
      3004      3007      3008      3007      3008      3009      3007      3008      3010
      3009      3008      3010      3008      3010      3011      3008      3010      3012
      3008      3010      3060      3011      3010      3012      3011      3010      3060
      3012      3010      3060      3001      3013      3014      3001      3013      3015
      3001      3013      3016      3014      3013      3015      3014      3013      3016
      3015      3013      3016      3013      3016      3017      3013      3016      3018
      3013      3016      3019      3017      3016      3018      3017      3016      3019
      3018      3016      3019      3016      3019      3020      3016      3019      3021
      3020      3019      3021      3019      3021      3022      3019      3021      3023
      3022      3021      3023      3021      3023      3024      3021      3023      3025
      3021      3023      3026      3024      3023      3025      3024      3023      3026
      3025      3023      3026      3023      3026      3027      3023      3026      3028
      3027      3026      3028      3026      3028      3029      3026      3028      3030
      3029      3028      3030      3028      3030      3031      3028      3030      3032
      3028      3030      3033      3031      3030      3032      3031      3030      3033
      3032      3030      3033      3030      3033      3034      3030      3033      3035
      3034      3033      3035      3033      3035      3036      3033      3035      3037
      3036      3035      3037      3035      3037      3038      3035      3037      3039
      3035      3037      3040      3038      3037      3039      3038      3037      3040
      3039      3037      3040      3037      3040      3041      3037      3040      3042
      3041      3040      3042      3040      3042      3043      3040      3042      3044
      3043      3042      3044      3042      3044      3045      3042      3044      3046
      3042      3044      3047      3045      3044      3046      3045      3044      3047
      3046      3044      3047      3044      3047      3048      3044      3047      3049
      3044      3047      3050      3048      3047      3049      3048      3047      3050
      3049      3047      3050      3047      3050      3051      3047      3050      3052
      3047      3050      3053      3051      3050      3052      3051      3050      3053
      3052      3050      3053      3050      3053      3054      3050      3053      3055
      3050      3053      3056      3054      3053      3055      3054      3053      3056
      3055      3053      3056      3053      3056      3057      3053      3056      3058
      3053      3056      3059      3057      3056      3058      3057      3056      3059
      3058      3056      3059      3010      3060      3061      3010      3060      3062
      3010      3060      3063      3061      3060      3062      3061      3060      3063
      3062      3060      3063      3060      3063      3064      3060      3063      3065
      3060      3063      3066      3064      3063      3065      3064      3063      3066
      3065      3063      3066      3063      3066      3067      3063      3066      3068
      3063      3066      3069      3067      3066      3068      3067      3066      3069
      3068      3066      3069      3066      3069      3070      3066      3069      3071
      3066      3069      3072      3070      3069      3071      3070      3069      3072
      3071      3069      3072      3069      3072      3073      3069      3072      3074
      3069      3072      3075      3073      3072      3074      3073      3072      3075
      3074      3072      3075      3072      3075      3076      3072      3075      3077
      3072      3075      3078      3076      3075      3077      3076      3075      3078
      3077      3075      3078      3075      3078      3079      3075      3078      3080
      3075      3078      3081      3079      3078      3080      3079      3078      3081
      3080      3078      3081      3078      3081      3082      3078      3081      3083
      3078      3081      3084      3082      3081      3083      3082      3081      3084
      3083      3081      3084      3081      3084      3085      3081      3084      3086
      3081      3084      3087      3085      3084      3086      3085      3084      3087
      3086      3084      3087      3084      3087      3088      3084      3087      3089
      3084      3087      3090      3088      3087      3089      3088      3087      3090
      3089      3087      3090      3087      3090      3091      3087      3090      3092
      3087      3090      3093      3091      3090      3092      3091      3090      3093
      3092      3090      3093      3090      3093      3094      3090      3093      3095
      3090      3093      3096      3094      3093      3095      3094      3093      3096
      3095      3093      3096      3093      3096      3097      3093      3096      3098
      3093      3096      3099      3097      3096      3098      3097      3096      3099
      3098      3096      3099      3096      3099      3100      3096      3099      3101
      3096      3099      3102      3100      3099      3101      3100      3099      3102
      3101      3099      3102      3099      3102      3103      3099      3102      3104
      3099      3102      3105      3103      3102      3104      3103      3102      3105
      3104      3102      3105      3102      3105      3106      3102      3105      3107
      3102      3105      3108      3106      3105      3107      3106      3105      3108
      3107      3105      3108      7366      7365      7367      7366      7365      7369
      7366      7365      7411      7367      7365      7369      7367      7365      7411
      7369      7365      7411      7365      7367      7368      7365      7369      7370
      7365      7369      7371      7365      7369      7372      7370      7369      7371
      7370      7369      7372      7371      7369      7372      7369      7372      7373
      7369      7372      7403      7373      7372      7403      7372      7373      7374
      7372      7373      7375      7374      7373      7375      7373      7375      7376
      7373      7375      7377      7373      7375      7378      7376      7375      7377
      7376      7375      7378      7377      7375      7378      7375      7378      7379
      7375      7378      7380      7375      7378      7401      7379      7378      7380
      7379      7378      7401      7380      7378      7401      7378      7380      7381
      7378      7380      7382      7378      7380      7390      7381      7380      7382
      7381      7380      7390      7382      7380      7390      7380      7382      7383
      7380      7382      7384      7380      7382      7385      7383      7382      7384
      7383      7382      7385      7384      7382      7385      7382      7385      7386
      7382      7385      7387      7382      7385      7388      7386      7385      7387
      7386      7385      7388      7387      7385      7388      7385      7388      7389
      7385      7388      7390      7385      7388      7414      7389      7388      7390
      7389      7388      7414      7390      7388      7414      7380      7390      7388
      7380      7390      7391      7380      7390      7395      7388      7390      7391
      7388      7390      7395      7391      7390      7395      7390      7391      7392
      7390      7391      7393      7390      7391      7394      7392      7391      7393
      7392      7391      7394      7393      7391      7394      7390      7395      7396
      7390      7395      7397      7390      7395      7398      7396      7395      7397
      7396      7395      7398      7397      7395      7398      7395      7398      7399
      7395      7398      7400      7395      7398      7401      7399      7398      7400
      7399      7398      7401      7400      7398      7401      7378      7401      7398
      7378      7401      7402      7378      7401      7403      7398      7401      7402
      7398      7401      7403      7402      7401      7403      7372      7403      7401
      7372      7403      7404      7372      7403      7408      7401      7403      7404
      7401      7403      7408      7404      7403      7408      7403      7404      7405
      7403      7404      7406      7403      7404      7407      7405      7404      7406
      7405      7404      7407      7406      7404      7407      7403      7408      7409
      7403      7408      7410      7403      7408      7411      7409      7408      7410
      7409      7408      7411      7410      7408      7411      7365      7411      7408
      7365      7411      7412      7365      7411      7413      7408      7411      7412
      7408      7411      7413      7412      7411      7413      7388      7414      7415
      7388      7414      7416      7388      7414      7420      7415      7414      7416
      7415      7414      7420      7416      7414      7420      7414      7416      7417
      7414      7416      7418      7414      7416      7419      7417      7416      7418
      7417      7416      7419      7418      7416      7419      7414      7420      7421
      7414      7420      7422      7414      7420      7423      7421      7420      7422
      7421      7420      7423      7422      7420      7423      7420      7423      7424
      7420      7423      7425      7420      7423      7426      7424      7423      7425
      7424      7423      7426      7425      7423      7426      7423      7426      7427
      7423      7426      7428      7423      7426      7429      7427      7426      7428
      7427      7426      7429      7428      7426      7429      7426      7429      7430
      7426      7429      7431      7426      7429      7435      7430      7429      7431
      7430      7429      7435      7431      7429      7435      7429      7431      7432
      7429      7431      7433      7429      7431      7434      7432      7431      7433
      7432      7431      7434      7433      7431      7434      7429      7435      7436
      7429      7435      7437      7429      7435      7438      7436      7435      7437
      7436      7435      7438      7437      7435      7438     20804     20803     20808
     20804     20803     20812     20804     20803     20816     20808     20803     20812
     20808     20803     20816     20812     20803     20816     20803     20804     20805
     20803     20804     20806     20803     20804     20807     20805     20804     20806
     20805     20804     20807     20806     20804     20807     20803     20808     20809
     20803     20808     20810     20803     20808     20811     20809     20808     20810
     20809     20808     20811     20810     20808     20811     20803     20812     20813
     20803     20812     20814     20803     20812     20815     20813     20812     20814
     20813     20812     20815     20814     20812     20815     20803     20816     20817
     20803     20816     20818     20803     20816     20819     20817     20816     20818
     20817     20816     20819     20818     20816     20819     20816     20819     20820
     20816     20819     20821     20816     20819     20825     20820     20819     20821
     20820     20819     20825     20821     20819     20825     20823     20822     20824
     20823     20822     20825     20823     20822     20826     20824     20822     20825
     20824     20822     20826     20825     20822     20826     20819     20825     20822
     20822     20826     20827     20826     20827     20828     20826     20827     20829
     20826     20827     20830     20828     20827     20829     20828     20827     20830
     20829     20827     20830     20827     20830     20831     20827     20830     20832
     20827     20830     20838     20831     20830     20832     20831     20830     20838
     20832     20830     20838     20830     20832     20833     20832     20833     20834
     20832     20833     20835     20834     20833     20835     20833     20835     20836
     20833     20835     20837     20833     20835     20847     20836     20835     20837
     20836     20835     20847     20837     20835     20847     20830     20838     20839
     20830     20838     20840     20830     20838     20841     20839     20838     20840
     20839     20838     20841     20840     20838     20841     20838     20841     20842
     20841     20842     20843     20841     20842     20844     20843     20842     20844
     20842     20844     20845     20842     20844     20846     20842     20844     20892
     20845     20844     20846     20845     20844     20892     20846     20844     20892
     20835     20847     20848     20835     20847     20849     20835     20847     20850
     20848     20847     20849     20848     20847     20850     20849     20847     20850
     20847     20850     20851     20847     20850     20852     20847     20850     20853
     20851     20850     20852     20851     20850     20853     20852     20850     20853
     20850     20853     20854     20850     20853     20855     20850     20853     20856
     20854     20853     20855     20854     20853     20856     20855     20853     20856
     20853     20856     20857     20853     20856     20858     20853     20856     20859
     20857     20856     20858     20857     20856     20859     20858     20856     20859
     20856     20859     20860     20856     20859     20861     20856     20859     20862
     20860     20859     20861     20860     20859     20862     20861     20859     20862
     20859     20862     20863     20859     20862     20864     20859     20862     20865
     20863     20862     20864     20863     20862     20865     20864     20862     20865
     20862     20865     20866     20862     20865     20867     20866     20865     20867
     20865     20867     20868     20865     20867     20869     20868     20867     20869
     20867     20869     20870     20867     20869     20871     20867     20869     20872
     20870     20869     20871     20870     20869     20872     20871     20869     20872
     20869     20872     20873     20869     20872     20874     20873     20872     20874
     20872     20874     20875     20872     20874     20876     20875     20874     20876
     20874     20876     20877     20874     20876     20878     20874     20876     20879
     20877     20876     20878     20877     20876     20879     20878     20876     20879
     20876     20879     20880     20876     20879     20881     20876     20879     20882
     20880     20879     20881     20880     20879     20882     20881     20879     20882
     20879     20882     20883     20879     20882     20884     20879     20882     20885
     20883     20882     20884     20883     20882     20885     20884     20882     20885
     20882     20885     20886     20882     20885     20887     20882     20885     20888
     20886     20885     20887     20886     20885     20888     20887     20885     20888
     20885     20888     20889     20885     20888     20890     20885     20888     20891
     20889     20888     20890     20889     20888     20891     20890     20888     20891
     20844     20892     20893     20844     20892     20894     20844     20892     20895
     20893     20892     20894     20893     20892     20895     20894     20892     20895
     20892     20895     20896     20892     20895     20897     20892     20895     20898
     20896     20895     20897     20896     20895     20898     20897     20895     20898
     20895     20898     20899     20895     20898     20900     20895     20898     20901
     20899     20898     20900     20899     20898     20901     20900     20898     20901
     20898     20901     20902     20898     20901     20903     20898     20901     20904
     20902     20901     20903     20902     20901     20904     20903     20901     20904
     20901     20904     20905     20901     20904     20906     20901     20904     20907
     20905     20904     20906     20905     20904     20907     20906     20904     20907
     20904     20907     20908     20904     20907     20909     20904     20907     20910
     20908     20907     20909     20908     20907     20910     20909     20907     20910
     20907     20910     20911     20907     20910     20912     20907     20910     20913
     20911     20910     20912     20911     20910     20913     20912     20910     20913
     20910     20913     20914     20910     20913     20915     20910     20913     20916
     20914     20913     20915     20914     20913     20916     20915     20913     20916
     20913     20916     20917     20913     20916     20918     20913     20916     20919
     20917     20916     20918     20917     20916     20919     20918     20916     20919
     20916     20919     20920     20916     20919     20921     20916     20919     20922
     20920     20919     20921     20920     20919     20922     20921     20919     20922
     20919     20922     20923     20919     20922     20924     20919     20922     20925
     20923     20922     20924     20923     20922     20925     20924     20922     20925
     20922     20925     20926     20922     20925     20927     20922     20925     20928
     20926     20925     20927     20926     20925     20928     20927     20925     20928
     20925     20928     20929     20925     20928     20930     20925     20928     20931
     20929     20928     20930     20929     20928     20931     20930     20928     20931
     20928     20931     20932     20928     20931     20933     20928     20931     20934
     20932     20931     20933     20932     20931     20934     20933     20931     20934
     20931     20934     20935     20931     20934     20936     20931     20934     20937
     20935     20934     20936     20935     20934     20937     20936     20934     20937
     20934     20937     20938     20934     20937     20939     20934     20937     20940
     20938     20937     20939     20938     20937     20940     20939     20937     20940
     20942     20941     20946     20942     20941     20950     20942     20941     20954
     20946     20941     20950     20946     20941     20954     20950     20941     20954
     20941     20942     20943     20941     20942     20944     20941     20942     20945
     20943     20942     20944     20943     20942     20945     20944     20942     20945
     20941     20946     20947     20941     20946     20948     20941     20946     20949
     20947     20946     20948     20947     20946     20949     20948     20946     20949
     20941     20950     20951     20941     20950     20952     20941     20950     20953
     20951     20950     20952     20951     20950     20953     20952     20950     20953
     20941     20954     20955     20941     20954     20956     20941     20954     20957
     20955     20954     20956     20955     20954     20957     20956     20954     20957
     20954     20957     20958     20954     20957     20959     20954     20957     20963
     20958     20957     20959     20958     20957     20963     20959     20957     20963
     20961     20960     20962     20961     20960     20963     20961     20960     20964
     20962     20960     20963     20962     20960     20964     20963     20960     20964
     20957     20963     20960     20960     20964     20965     20964     20965     20966
     20964     20965     20967     20964     20965     20968     20966     20965     20967
     20966     20965     20968     20967     20965     20968     20965     20968     20969
     20965     20968     20970     20965     20968     20976     20969     20968     20970
     20969     20968     20976     20970     20968     20976     20968     20970     20971
     20970     20971     20972     20970     20971     20973     20972     20971     20973
     20971     20973     20974     20971     20973     20975     20971     20973     20985
     20974     20973     20975     20974     20973     20985     20975     20973     20985
     20968     20976     20977     20968     20976     20978     20968     20976     20979
     20977     20976     20978     20977     20976     20979     20978     20976     20979
     20976     20979     20980     20979     20980     20981     20979     20980     20982
     20981     20980     20982     20980     20982     20983     20980     20982     20984
     20980     20982     21030     20983     20982     20984     20983     20982     21030
     20984     20982     21030     20973     20985     20986     20973     20985     20987
     20973     20985     20988     20986     20985     20987     20986     20985     20988
     20987     20985     20988     20985     20988     20989     20985     20988     20990
     20985     20988     20991     20989     20988     20990     20989     20988     20991
     20990     20988     20991     20988     20991     20992     20988     20991     20993
     20988     20991     20994     20992     20991     20993     20992     20991     20994
     20993     20991     20994     20991     20994     20995     20991     20994     20996
     20991     20994     20997     20995     20994     20996     20995     20994     20997
     20996     20994     20997     20994     20997     20998     20994     20997     20999
     20994     20997     21000     20998     20997     20999     20998     20997     21000
     20999     20997     21000     20997     21000     21001     20997     21000     21002
     20997     21000     21003     21001     21000     21002     21001     21000     21003
     21002     21000     21003     21000     21003     21004     21000     21003     21005
     21004     21003     21005     21003     21005     21006     21003     21005     21007
     21006     21005     21007     21005     21007     21008     21005     21007     21009
     21005     21007     21010     21008     21007     21009     21008     21007     21010
     21009     21007     21010     21007     21010     21011     21007     21010     21012
     21011     21010     21012     21010     21012     21013     21010     21012     21014
     21013     21012     21014     21012     21014     21015     21012     21014     21016
     21012     21014     21017     21015     21014     21016     21015     21014     21017
     21016     21014     21017     21014     21017     21018     21014     21017     21019
     21014     21017     21020     21018     21017     21019     21018     21017     21020
     21019     21017     21020     21017     21020     21021     21017     21020     21022
     21017     21020     21023     21021     21020     21022     21021     21020     21023
     21022     21020     21023     21020     21023     21024     21020     21023     21025
     21020     21023     21026     21024     21023     21025     21024     21023     21026
     21025     21023     21026     21023     21026     21027     21023     21026     21028
     21023     21026     21029     21027     21026     21028     21027     21026     21029
     21028     21026     21029     20982     21030     21031     20982     21030     21032
     20982     21030     21033     21031     21030     21032     21031     21030     21033
     21032     21030     21033     21030     21033     21034     21030     21033     21035
     21030     21033     21036     21034     21033     21035     21034     21033     21036
     21035     21033     21036     21033     21036     21037     21033     21036     21038
     21033     21036     21039     21037     21036     21038     21037     21036     21039
     21038     21036     21039     21036     21039     21040     21036     21039     21041
     21036     21039     21042     21040     21039     21041     21040     21039     21042
     21041     21039     21042     21039     21042     21043     21039     21042     21044
     21039     21042     21045     21043     21042     21044     21043     21042     21045
     21044     21042     21045     21042     21045     21046     21042     21045     21047
     21042     21045     21048     21046     21045     21047     21046     21045     21048
     21047     21045     21048     21045     21048     21049     21045     21048     21050
     21045     21048     21051     21049     21048     21050     21049     21048     21051
     21050     21048     21051     21048     21051     21052     21048     21051     21053
     21048     21051     21054     21052     21051     21053     21052     21051     21054
     21053     21051     21054     21051     21054     21055     21051     21054     21056
     21051     21054     21057     21055     21054     21056     21055     21054     21057
     21056     21054     21057     21054     21057     21058     21054     21057     21059
     21054     21057     21060     21058     21057     21059     21058     21057     21060
     21059     21057     21060     21057     21060     21061     21057     21060     21062
     21057     21060     21063     21061     21060     21062     21061     21060     21063
     21062     21060     21063     21060     21063     21064     21060     21063     21065
     21060     21063     21066     21064     21063     21065     21064     21063     21066
     21065     21063     21066     21063     21066     21067     21063     21066     21068
     21063     21066     21069     21067     21066     21068     21067     21066     21069
     21068     21066     21069     21066     21069     21070     21066     21069     21071
     21066     21069     21072     21070     21069     21071     21070     21069     21072
     21071     21069     21072     21069     21072     21073     21069     21072     21074
     21069     21072     21075     21073     21072     21074     21073     21072     21075
     21074     21072     21075     21072     21075     21076     21072     21075     21077
     21072     21075     21078     21076     21075     21077     21076     21075     21078
     21077     21075     21078      4772      4771      4775      4772      4771      4779
      4772      4771      4783      4775      4771      4779      4775      4771      4783
      4779      4771      4783      4771      4772      4773      4771      4772      4774
      4771      4772      4787      4773      4772      4774      4773      4772      4787
      4774      4772      4787      4771      4775      4776      4771      4775      4777
      4771      4775      4778      4776      4775      4777      4776      4775      4778
      4777      4775      4778      4771      4779      4780      4771      4779      4781
      4771      4779      4782      4780      4779      4781      4780      4779      4782
      4781      4779      4782      4771      4783      4784      4771      4783      4785
      4771      4783      4786      4784      4783      4785      4784      4783      4786
      4785      4783      4786      4772      4787      4788      4772      4787      4789
      4772      4787      4793      4788      4787      4789      4788      4787      4793
      4789      4787      4793      4791      4790      4792      4791      4790      4793
      4791      4790      4794      4792      4790      4793      4792      4790      4794
      4793      4790      4794      4787      4793      4790      4790      4794      4795
      4794      4795      4796      4794      4795      4797      4794      4795      4798
      4796      4795      4797      4796      4795      4798      4797      4795      4798
      4795      4798      4799      4795      4798      4800      4795      4798      4806
      4799      4798      4800      4799      4798      4806      4800      4798      4806
      4798      4800      4801      4800      4801      4802      4800      4801      4803
      4802      4801      4803      4801      4803      4804      4801      4803      4805
      4801      4803      4815      4804      4803      4805      4804      4803      4815
      4805      4803      4815      4798      4806      4807      4798      4806      4808
      4798      4806      4809      4807      4806      4808      4807      4806      4809
      4808      4806      4809      4806      4809      4810      4809      4810      4811
      4809      4810      4812      4811      4810      4812      4810      4812      4813
      4810      4812      4814      4810      4812      4862      4813      4812      4814
      4813      4812      4862      4814      4812      4862      4803      4815      4816
      4803      4815      4817      4803      4815      4818      4816      4815      4817
      4816      4815      4818      4817      4815      4818      4815      4818      4819
      4815      4818      4820      4815      4818      4821      4819      4818      4820
      4819      4818      4821      4820      4818      4821      4818      4821      4822
      4818      4821      4823      4818      4821      4824      4822      4821      4823
      4822      4821      4824      4823      4821      4824      4821      4824      4825
      4821      4824      4826      4821      4824      4827      4825      4824      4826
      4825      4824      4827      4826      4824      4827      4824      4827      4828
      4824      4827      4829      4824      4827      4830      4828      4827      4829
      4828      4827      4830      4829      4827      4830      4827      4830      4831
      4827      4830      4832      4827      4830      4833      4831      4830      4832
      4831      4830      4833      4832      4830      4833      4830      4833      4834
      4830      4833      4835      4834      4833      4835      4833      4835      4836
      4833      4835      4837      4836      4835      4837      4835      4837      4838
      4835      4837      4839      4835      4837      4840      4838      4837      4839
      4838      4837      4840      4839      4837      4840      4837      4840      4841
      4837      4840      4842      4837      4840      4843      4841      4840      4842
      4841      4840      4843      4842      4840      4843      4840      4843      4844
      4840      4843      4845      4840      4843      4846      4844      4843      4845
      4844      4843      4846      4845      4843      4846      4843      4846      4847
      4843      4846      4848      4843      4846      4849      4847      4846      4848
      4847      4846      4849      4848      4846      4849      4846      4849      4850
      4846      4849      4851      4846      4849      4852      4850      4849      4851
      4850      4849      4852      4851      4849      4852      4849      4852      4853
      4849      4852      4854      4849      4852      4855      4853      4852      4854
      4853      4852      4855      4854      4852      4855      4852      4855      4856
      4852      4855      4857      4852      4855      4858      4856      4855      4857
      4856      4855      4858      4857      4855      4858      4855      4858      4859
      4855      4858      4860      4855      4858      4861      4859      4858      4860
      4859      4858      4861      4860      4858      4861      4812      4862      4863
      4812      4862      4864      4812      4862      4865      4863      4862      4864
      4863      4862      4865      4864      4862      4865      4862      4865      4866
      4862      4865      4867      4862      4865      4868      4866      4865      4867
      4866      4865      4868      4867      4865      4868      4865      4868      4869
      4865      4868      4870      4865      4868      4871      4869      4868      4870
      4869      4868      4871      4870      4868      4871      4868      4871      4872
      4868      4871      4873      4868      4871      4874      4872      4871      4873
      4872      4871      4874      4873      4871      4874      4871      4874      4875
      4871      4874      4876      4871      4874      4877      4875      4874      4876
      4875      4874      4877      4876      4874      4877      4874      4877      4878
      4874      4877      4879      4874      4877      4880      4878      4877      4879
      4878      4877      4880      4879      4877      4880      4877      4880      4881
      4877      4880      4882      4877      4880      4883      4881      4880      4882
      4881      4880      4883      4882      4880      4883      4880      4883      4884
      4880      4883      4885      4880      4883      4886      4884      4883      4885
      4884      4883      4886      4885      4883      4886      4883      4886      4887
      4883      4886      4888      4883      4886      4889      4887      4886      4888
      4887      4886      4889      4888      4886      4889      4886      4889      4890
      4886      4889      4891      4886      4889      4892      4890      4889      4891
      4890      4889      4892      4891      4889      4892      4889      4892      4893
      4889      4892      4894      4889      4892      4895      4893      4892      4894
      4893      4892      4895      4894      4892      4895      4892      4895      4896
      4892      4895      4897      4892      4895      4898      4896      4895      4897
      4896      4895      4898      4897      4895      4898      4895      4898      4899
      4895      4898      4900      4895      4898      4901      4899      4898      4900
      4899      4898      4901      4900      4898      4901      4898      4901      4902
      4898      4901      4903      4898      4901      4904      4902      4901      4903
      4902      4901      4904      4903      4901      4904      7440      7439      7441
      7440      7439      7443      7440      7439      7485      7441      7439      7443
      7441      7439      7485      7443      7439      7485      7439      7441      7442
      7439      7443      7444      7439      7443      7445      7439      7443      7446
      7444      7443      7445      7444      7443      7446      7445      7443      7446
      7443      7446      7447      7443      7446      7477      7447      7446      7477
      7446      7447      7448      7446      7447      7449      7448      7447      7449
      7447      7449      7450      7447      7449      7451      7447      7449      7452
      7450      7449      7451      7450      7449      7452      7451      7449      7452
      7449      7452      7453      7449      7452      7454      7449      7452      7475
      7453      7452      7454      7453      7452      7475      7454      7452      7475
      7452      7454      7455      7452      7454      7456      7452      7454      7464
      7455      7454      7456      7455      7454      7464      7456      7454      7464
      7454      7456      7457      7454      7456      7458      7454      7456      7459
      7457      7456      7458      7457      7456      7459      7458      7456      7459
      7456      7459      7460      7456      7459      7461      7456      7459      7462
      7460      7459      7461      7460      7459      7462      7461      7459      7462
      7459      7462      7463      7459      7462      7464      7459      7462      7488
      7463      7462      7464      7463      7462      7488      7464      7462      7488
      7454      7464      7462      7454      7464      7465      7454      7464      7469
      7462      7464      7465      7462      7464      7469      7465      7464      7469
      7464      7465      7466      7464      7465      7467      7464      7465      7468
      7466      7465      7467      7466      7465      7468      7467      7465      7468
      7464      7469      7470      7464      7469      7471      7464      7469      7472
      7470      7469      7471      7470      7469      7472      7471      7469      7472
      7469      7472      7473      7469      7472      7474      7469      7472      7475
      7473      7472      7474      7473      7472      7475      7474      7472      7475
      7452      7475      7472      7452      7475      7476      7452      7475      7477
      7472      7475      7476      7472      7475      7477      7476      7475      7477
      7446      7477      7475      7446      7477      7478      7446      7477      7482
      7475      7477      7478      7475      7477      7482      7478      7477      7482
      7477      7478      7479      7477      7478      7480      7477      7478      7481
      7479      7478      7480      7479      7478      7481      7480      7478      7481
      7477      7482      7483      7477      7482      7484      7477      7482      7485
      7483      7482      7484      7483      7482      7485      7484      7482      7485
      7439      7485      7482      7439      7485      7486      7439      7485      7487
      7482      7485      7486      7482      7485      7487      7486      7485      7487
      7462      7488      7489      7462      7488      7490      7462      7488      7494
      7489      7488      7490      7489      7488      7494      7490      7488      7494
      7488      7490      7491      7488      7490      7492      7488      7490      7493
      7491      7490      7492      7491      7490      7493      7492      7490      7493
      7488      7494      7495      7488      7494      7496      7488      7494      7497
      7495      7494      7496      7495      7494      7497      7496      7494      7497
      7494      7497      7498      7494      7497      7499      7494      7497      7500
      7498      7497      7499      7498      7497      7500      7499      7497      7500
      7497      7500      7501      7497      7500      7502      7497      7500      7503
      7501      7500      7502      7501      7500      7503      7502      7500      7503
      7500      7503      7504      7500      7503      7505      7500      7503      7509
      7504      7503      7505      7504      7503      7509      7505      7503      7509
      7503      7505      7506      7503      7505      7507      7503      7505      7508
      7506      7505      7507      7506      7505      7508      7507      7505      7508
      7503      7509      7510      7503      7509      7511      7503      7509      7512
      7510      7509      7511      7510      7509      7512      7511      7509      7512
     18625     18624     18626     18625     18624     18627     18625     18624     18628
     18626     18624     18627     18626     18624     18628     18627     18624     18628
     18624     18628     18629     18624     18628     18630     18624     18628     18631
     18629     18628     18630     18629     18628     18631     18630     18628     18631
     18628     18631     18632     18628     18631     18633     18628     18631     18637
     18632     18631     18633     18632     18631     18637     18633     18631     18637
     18635     18634     18636     18635     18634     18637     18635     18634     18638
     18636     18634     18637     18636     18634     18638     18637     18634     18638
     18631     18637     18634     18634     18638     18639     18638     18639     18640
     18638     18639     18641     18638     18639     18642     18640     18639     18641
     18640     18639     18642     18641     18639     18642     18639     18642     18643
     18639     18642     18644     18639     18642     18650     18643     18642     18644
     18643     18642     18650     18644     18642     18650     18642     18644     18645
     18644     18645     18646     18644     18645     18647     18646     18645     18647
     18645     18647     18648     18645     18647     18649     18645     18647     18659
     18648     18647     18649     18648     18647     18659     18649     18647     18659
     18642     18650     18651     18642     18650     18652     18642     18650     18653
     18651     18650     18652     18651     18650     18653     18652     18650     18653
     18650     18653     18654     18653     18654     18655     18653     18654     18656
     18655     18654     18656     18654     18656     18657     18654     18656     18658
     18654     18656     18706     18657     18656     18658     18657     18656     18706
     18658     18656     18706     18647     18659     18660     18647     18659     18661
     18647     18659     18662     18660     18659     18661     18660     18659     18662
     18661     18659     18662     18659     18662     18663     18659     18662     18664
     18659     18662     18665     18663     18662     18664     18663     18662     18665
     18664     18662     18665     18662     18665     18666     18662     18665     18667
     18662     18665     18668     18666     18665     18667     18666     18665     18668
     18667     18665     18668     18665     18668     18669     18665     18668     18670
     18665     18668     18671     18669     18668     18670     18669     18668     18671
     18670     18668     18671     18668     18671     18672     18668     18671     18673
     18668     18671     18674     18672     18671     18673     18672     18671     18674
     18673     18671     18674     18671     18674     18675     18671     18674     18676
     18671     18674     18677     18675     18674     18676     18675     18674     18677
     18676     18674     18677     18674     18677     18678     18674     18677     18679
     18678     18677     18679     18677     18679     18680     18677     18679     18681
     18680     18679     18681     18679     18681     18682     18679     18681     18683
     18679     18681     18684     18682     18681     18683     18682     18681     18684
     18683     18681     18684     18681     18684     18685     18681     18684     18686
     18681     18684     18687     18685     18684     18686     18685     18684     18687
     18686     18684     18687     18684     18687     18688     18684     18687     18689
     18684     18687     18690     18688     18687     18689     18688     18687     18690
     18689     18687     18690     18687     18690     18691     18687     18690     18692
     18687     18690     18693     18691     18690     18692     18691     18690     18693
     18692     18690     18693     18690     18693     18694     18690     18693     18695
     18690     18693     18696     18694     18693     18695     18694     18693     18696
     18695     18693     18696     18693     18696     18697     18693     18696     18698
     18693     18696     18699     18697     18696     18698     18697     18696     18699
     18698     18696     18699     18696     18699     18700     18696     18699     18701
     18696     18699     18702     18700     18699     18701     18700     18699     18702
     18701     18699     18702     18699     18702     18703     18699     18702     18704
     18699     18702     18705     18703     18702     18704     18703     18702     18705
     18704     18702     18705     18656     18706     18707     18656     18706     18708
     18656     18706     18709     18707     18706     18708     18707     18706     18709
     18708     18706     18709     18706     18709     18710     18706     18709     18711
     18706     18709     18712     18710     18709     18711     18710     18709     18712
     18711     18709     18712     18709     18712     18713     18709     18712     18714
     18709     18712     18715     18713     18712     18714     18713     18712     18715
     18714     18712     18715     18712     18715     18716     18712     18715     18717
     18712     18715     18718     18716     18715     18717     18716     18715     18718
     18717     18715     18718     18715     18718     18719     18715     18718     18720
     18715     18718     18721     18719     18718     18720     18719     18718     18721
     18720     18718     18721     18718     18721     18722     18718     18721     18723
     18718     18721     18724     18722     18721     18723     18722     18721     18724
     18723     18721     18724     18721     18724     18725     18721     18724     18726
     18721     18724     18727     18725     18724     18726     18725     18724     18727
     18726     18724     18727     18724     18727     18728     18724     18727     18729
     18724     18727     18730     18728     18727     18729     18728     18727     18730
     18729     18727     18730     18727     18730     18731     18727     18730     18732
     18727     18730     18733     18731     18730     18732     18731     18730     18733
     18732     18730     18733     18730     18733     18734     18730     18733     18735
     18730     18733     18736     18734     18733     18735     18734     18733     18736
     18735     18733     18736     18733     18736     18737     18733     18736     18738
     18733     18736     18739     18737     18736     18738     18737     18736     18739
     18738     18736     18739     18736     18739     18740     18736     18739     18741
     18736     18739     18742     18740     18739     18741     18740     18739     18742
     18741     18739     18742     18739     18742     18743     18739     18742     18744
     18739     18742     18745     18743     18742     18744     18743     18742     18745
     18744     18742     18745     18742     18745     18746     18742     18745     18747
     18742     18745     18748     18746     18745     18747     18746     18745     18748
     18747     18745     18748     18745     18748     18749     18745     18748     18750
     18745     18748     18751     18749     18748     18750     18749     18748     18751
     18750     18748     18751     18748     18751     18752     18748     18751     18753
     18748     18751     18754     18752     18751     18753     18752     18751     18754
     18753     18751     18754     16005     16004     16006     16005     16004     16007
     16005     16004     16008     16006     16004     16007     16006     16004     16008
     16007     16004     16008     16004     16008     16009     16004     16008     16010
     16004     16008     16011     16009     16008     16010     16009     16008     16011
     16010     16008     16011     16008     16011     16012     16008     16011     16013
     16008     16011     16017     16012     16011     16013     16012     16011     16017
     16013     16011     16017     16015     16014     16016     16015     16014     16017
     16015     16014     16018     16016     16014     16017     16016     16014     16018
     16017     16014     16018     16011     16017     16014     16014     16018     16019
     16018     16019     16020     16018     16019     16021     16018     16019     16022
     16020     16019     16021     16020     16019     16022     16021     16019     16022
     16019     16022     16023     16019     16022     16024     16019     16022     16030
     16023     16022     16024     16023     16022     16030     16024     16022     16030
     16022     16024     16025     16024     16025     16026     16024     16025     16027
     16026     16025     16027     16025     16027     16028     16025     16027     16029
     16025     16027     16039     16028     16027     16029     16028     16027     16039
     16029     16027     16039     16022     16030     16031     16022     16030     16032
     16022     16030     16033     16031     16030     16032     16031     16030     16033
     16032     16030     16033     16030     16033     16034     16033     16034     16035
     16033     16034     16036     16035     16034     16036     16034     16036     16037
     16034     16036     16038     16034     16036     16086     16037     16036     16038
     16037     16036     16086     16038     16036     16086     16027     16039     16040
     16027     16039     16041     16027     16039     16042     16040     16039     16041
     16040     16039     16042     16041     16039     16042     16039     16042     16043
     16039     16042     16044     16039     16042     16045     16043     16042     16044
     16043     16042     16045     16044     16042     16045     16042     16045     16046
     16042     16045     16047     16046     16045     16047     16045     16047     16048
     16045     16047     16049     16048     16047     16049     16047     16049     16050
     16047     16049     16051     16047     16049     16052     16050     16049     16051
     16050     16049     16052     16051     16049     16052     16049     16052     16053
     16049     16052     16054     16053     16052     16054     16052     16054     16055
     16052     16054     16056     16055     16054     16056     16054     16056     16057
     16054     16056     16058     16054     16056     16059     16057     16056     16058
     16057     16056     16059     16058     16056     16059     16056     16059     16060
     16056     16059     16061     16060     16059     16061     16059     16061     16062
     16059     16061     16063     16062     16061     16063     16061     16063     16064
     16061     16063     16065     16061     16063     16066     16064     16063     16065
     16064     16063     16066     16065     16063     16066     16063     16066     16067
     16063     16066     16068     16067     16066     16068     16066     16068     16069
     16066     16068     16070     16069     16068     16070     16068     16070     16071
     16068     16070     16072     16068     16070     16073     16071     16070     16072
     16071     16070     16073     16072     16070     16073     16070     16073     16074
     16070     16073     16075     16070     16073     16076     16074     16073     16075
     16074     16073     16076     16075     16073     16076     16073     16076     16077
     16073     16076     16078     16073     16076     16079     16077     16076     16078
     16077     16076     16079     16078     16076     16079     16076     16079     16080
     16076     16079     16081     16076     16079     16082     16080     16079     16081
     16080     16079     16082     16081     16079     16082     16079     16082     16083
     16079     16082     16084     16079     16082     16085     16083     16082     16084
     16083     16082     16085     16084     16082     16085     16036     16086     16087
     16036     16086     16088     16036     16086     16089     16087     16086     16088
     16087     16086     16089     16088     16086     16089     16086     16089     16090
     16086     16089     16091     16086     16089     16092     16090     16089     16091
     16090     16089     16092     16091     16089     16092     16089     16092     16093
     16089     16092     16094     16089     16092     16095     16093     16092     16094
     16093     16092     16095     16094     16092     16095     16092     16095     16096
     16092     16095     16097     16092     16095     16098     16096     16095     16097
     16096     16095     16098     16097     16095     16098     16095     16098     16099
     16095     16098     16100     16095     16098     16101     16099     16098     16100
     16099     16098     16101     16100     16098     16101     16098     16101     16102
     16098     16101     16103     16098     16101     16104     16102     16101     16103
     16102     16101     16104     16103     16101     16104     16101     16104     16105
     16101     16104     16106     16101     16104     16107     16105     16104     16106
     16105     16104     16107     16106     16104     16107     16104     16107     16108
     16104     16107     16109     16104     16107     16110     16108     16107     16109
     16108     16107     16110     16109     16107     16110     16107     16110     16111
     16107     16110     16112     16107     16110     16113     16111     16110     16112
     16111     16110     16113     16112     16110     16113     16110     16113     16114
     16110     16113     16115     16110     16113     16116     16114     16113     16115
     16114     16113     16116     16115     16113     16116     16113     16116     16117
     16113     16116     16118     16113     16116     16119     16117     16116     16118
     16117     16116     16119     16118     16116     16119     16116     16119     16120
     16116     16119     16121     16116     16119     16122     16120     16119     16121
     16120     16119     16122     16121     16119     16122     16119     16122     16123
     16119     16122     16124     16119     16122     16125     16123     16122     16124
     16123     16122     16125     16124     16122     16125     16122     16125     16126
     16122     16125     16127     16122     16125     16128     16126     16125     16127
     16126     16125     16128     16127     16125     16128     16125     16128     16129
     16125     16128     16130     16125     16128     16131     16129     16128     16130
     16129     16128     16131     16130     16128     16131     16128     16131     16132
     16128     16131     16133     16128     16131     16134     16132     16131     16133
     16132     16131     16134     16133     16131     16134     21080     21079     21084
     21080     21079     21088     21080     21079     21092     21084     21079     21088
     21084     21079     21092     21088     21079     21092     21079     21080     21081
     21079     21080     21082     21079     21080     21083     21081     21080     21082
     21081     21080     21083     21082     21080     21083     21079     21084     21085
     21079     21084     21086     21079     21084     21087     21085     21084     21086
     21085     21084     21087     21086     21084     21087     21079     21088     21089
     21079     21088     21090     21079     21088     21091     21089     21088     21090
     21089     21088     21091     21090     21088     21091     21079     21092     21093
     21079     21092     21094     21079     21092     21095     21093     21092     21094
     21093     21092     21095     21094     21092     21095     21092     21095     21096
     21092     21095     21097     21092     21095     21101     21096     21095     21097
     21096     21095     21101     21097     21095     21101     21099     21098     21100
     21099     21098     21101     21099     21098     21102     21100     21098     21101
     21100     21098     21102     21101     21098     21102     21095     21101     21098
     21098     21102     21103     21102     21103     21104     21102     21103     21105
     21102     21103     21106     21104     21103     21105     21104     21103     21106
     21105     21103     21106     21103     21106     21107     21103     21106     21108
     21103     21106     21114     21107     21106     21108     21107     21106     21114
     21108     21106     21114     21106     21108     21109     21108     21109     21110
     21108     21109     21111     21110     21109     21111     21109     21111     21112
     21109     21111     21113     21109     21111     21123     21112     21111     21113
     21112     21111     21123     21113     21111     21123     21106     21114     21115
     21106     21114     21116     21106     21114     21117     21115     21114     21116
     21115     21114     21117     21116     21114     21117     21114     21117     21118
     21117     21118     21119     21117     21118     21120     21119     21118     21120
     21118     21120     21121     21118     21120     21122     21118     21120     21168
     21121     21120     21122     21121     21120     21168     21122     21120     21168
     21111     21123     21124     21111     21123     21125     21111     21123     21126
     21124     21123     21125     21124     21123     21126     21125     21123     21126
     21123     21126     21127     21123     21126     21128     21123     21126     21129
     21127     21126     21128     21127     21126     21129     21128     21126     21129
     21126     21129     21130     21126     21129     21131     21126     21129     21132
     21130     21129     21131     21130     21129     21132     21131     21129     21132
     21129     21132     21133     21129     21132     21134     21129     21132     21135
     21133     21132     21134     21133     21132     21135     21134     21132     21135
     21132     21135     21136     21132     21135     21137     21132     21135     21138
     21136     21135     21137     21136     21135     21138     21137     21135     21138
     21135     21138     21139     21135     21138     21140     21135     21138     21141
     21139     21138     21140     21139     21138     21141     21140     21138     21141
     21138     21141     21142     21138     21141     21143     21142     21141     21143
     21141     21143     21144     21141     21143     21145     21144     21143     21145
     21143     21145     21146     21143     21145     21147     21143     21145     21148
     21146     21145     21147     21146     21145     21148     21147     21145     21148
     21145     21148     21149     21145     21148     21150     21149     21148     21150
     21148     21150     21151     21148     21150     21152     21151     21150     21152
     21150     21152     21153     21150     21152     21154     21150     21152     21155
     21153     21152     21154     21153     21152     21155     21154     21152     21155
     21152     21155     21156     21152     21155     21157     21152     21155     21158
     21156     21155     21157     21156     21155     21158     21157     21155     21158
     21155     21158     21159     21155     21158     21160     21155     21158     21161
     21159     21158     21160     21159     21158     21161     21160     21158     21161
     21158     21161     21162     21158     21161     21163     21158     21161     21164
     21162     21161     21163     21162     21161     21164     21163     21161     21164
     21161     21164     21165     21161     21164     21166     21161     21164     21167
     21165     21164     21166     21165     21164     21167     21166     21164     21167
     21120     21168     21169     21120     21168     21170     21120     21168     21171
     21169     21168     21170     21169     21168     21171     21170     21168     21171
     21168     21171     21172     21168     21171     21173     21168     21171     21174
     21172     21171     21173     21172     21171     21174     21173     21171     21174
     21171     21174     21175     21171     21174     21176     21171     21174     21177
     21175     21174     21176     21175     21174     21177     21176     21174     21177
     21174     21177     21178     21174     21177     21179     21174     21177     21180
     21178     21177     21179     21178     21177     21180     21179     21177     21180
     21177     21180     21181     21177     21180     21182     21177     21180     21183
     21181     21180     21182     21181     21180     21183     21182     21180     21183
     21180     21183     21184     21180     21183     21185     21180     21183     21186
     21184     21183     21185     21184     21183     21186     21185     21183     21186
     21183     21186     21187     21183     21186     21188     21183     21186     21189
     21187     21186     21188     21187     21186     21189     21188     21186     21189
     21186     21189     21190     21186     21189     21191     21186     21189     21192
     21190     21189     21191     21190     21189     21192     21191     21189     21192
     21189     21192     21193     21189     21192     21194     21189     21192     21195
     21193     21192     21194     21193     21192     21195     21194     21192     21195
     21192     21195     21196     21192     21195     21197     21192     21195     21198
     21196     21195     21197     21196     21195     21198     21197     21195     21198
     21195     21198     21199     21195     21198     21200     21195     21198     21201
     21199     21198     21200     21199     21198     21201     21200     21198     21201
     21198     21201     21202     21198     21201     21203     21198     21201     21204
     21202     21201     21203     21202     21201     21204     21203     21201     21204
     21201     21204     21205     21201     21204     21206     21201     21204     21207
     21205     21204     21206     21205     21204     21207     21206     21204     21207
     21204     21207     21208     21204     21207     21209     21204     21207     21210
     21208     21207     21209     21208     21207     21210     21209     21207     21210
     21207     21210     21211     21207     21210     21212     21207     21210     21213
     21211     21210     21212     21211     21210     21213     21212     21210     21213
     21210     21213     21214     21210     21213     21215     21210     21213     21216
     21214     21213     21215     21214     21213     21216     21215     21213     21216
      3110      3109      3113      3110      3109      3117      3110      3109      3121
      3113      3109      3117      3113      3109      3121      3117      3109      3121
      3109      3110      3111      3109      3110      3112      3109      3110      3125
      3111      3110      3112      3111      3110      3125      3112      3110      3125
      3109      3113      3114      3109      3113      3115      3109      3113      3116
      3114      3113      3115      3114      3113      3116      3115      3113      3116
      3109      3117      3118      3109      3117      3119      3109      3117      3120
      3118      3117      3119      3118      3117      3120      3119      3117      3120
      3109      3121      3122      3109      3121      3123      3109      3121      3124
      3122      3121      3123      3122      3121      3124      3123      3121      3124
      3110      3125      3126      3110      3125      3127      3110      3125      3131
      3126      3125      3127      3126      3125      3131      3127      3125      3131
      3129      3128      3130      3129      3128      3131      3129      3128      3132
      3130      3128      3131      3130      3128      3132      3131      3128      3132
      3125      3131      3128      3128      3132      3133      3132      3133      3134
      3132      3133      3135      3132      3133      3136      3134      3133      3135
      3134      3133      3136      3135      3133      3136      3133      3136      3137
      3133      3136      3138      3133      3136      3144      3137      3136      3138
      3137      3136      3144      3138      3136      3144      3136      3138      3139
      3138      3139      3140      3138      3139      3141      3140      3139      3141
      3139      3141      3142      3139      3141      3143      3139      3141      3153
      3142      3141      3143      3142      3141      3153      3143      3141      3153
      3136      3144      3145      3136      3144      3146      3136      3144      3147
      3145      3144      3146      3145      3144      3147      3146      3144      3147
      3144      3147      3148      3147      3148      3149      3147      3148      3150
      3149      3148      3150      3148      3150      3151      3148      3150      3152
      3148      3150      3200      3151      3150      3152      3151      3150      3200
      3152      3150      3200      3141      3153      3154      3141      3153      3155
      3141      3153      3156      3154      3153      3155      3154      3153      3156
      3155      3153      3156      3153      3156      3157      3153      3156      3158
      3153      3156      3159      3157      3156      3158      3157      3156      3159
      3158      3156      3159      3156      3159      3160      3156      3159      3161
      3160      3159      3161      3159      3161      3162      3159      3161      3163
      3162      3161      3163      3161      3163      3164      3161      3163      3165
      3161      3163      3166      3164      3163      3165      3164      3163      3166
      3165      3163      3166      3163      3166      3167      3163      3166      3168
      3167      3166      3168      3166      3168      3169      3166      3168      3170
      3169      3168      3170      3168      3170      3171      3168      3170      3172
      3168      3170      3173      3171      3170      3172      3171      3170      3173
      3172      3170      3173      3170      3173      3174      3170      3173      3175
      3174      3173      3175      3173      3175      3176      3173      3175      3177
      3176      3175      3177      3175      3177      3178      3175      3177      3179
      3175      3177      3180      3178      3177      3179      3178      3177      3180
      3179      3177      3180      3177      3180      3181      3177      3180      3182
      3181      3180      3182      3180      3182      3183      3180      3182      3184
      3183      3182      3184      3182      3184      3185      3182      3184      3186
      3182      3184      3187      3185      3184      3186      3185      3184      3187
      3186      3184      3187      3184      3187      3188      3184      3187      3189
      3184      3187      3190      3188      3187      3189      3188      3187      3190
      3189      3187      3190      3187      3190      3191      3187      3190      3192
      3187      3190      3193      3191      3190      3192      3191      3190      3193
      3192      3190      3193      3190      3193      3194      3190      3193      3195
      3190      3193      3196      3194      3193      3195      3194      3193      3196
      3195      3193      3196      3193      3196      3197      3193      3196      3198
      3193      3196      3199      3197      3196      3198      3197      3196      3199
      3198      3196      3199      3150      3200      3201      3150      3200      3202
      3150      3200      3203      3201      3200      3202      3201      3200      3203
      3202      3200      3203      3200      3203      3204      3200      3203      3205
      3200      3203      3206      3204      3203      3205      3204      3203      3206
      3205      3203      3206      3203      3206      3207      3203      3206      3208
      3203      3206      3209      3207      3206      3208      3207      3206      3209
      3208      3206      3209      3206      3209      3210      3206      3209      3211
      3206      3209      3212      3210      3209      3211      3210      3209      3212
      3211      3209      3212      3209      3212      3213      3209      3212      3214
      3209      3212      3215      3213      3212      3214      3213      3212      3215
      3214      3212      3215      3212      3215      3216      3212      3215      3217
      3212      3215      3218      3216      3215      3217      3216      3215      3218
      3217      3215      3218      3215      3218      3219      3215      3218      3220
      3215      3218      3221      3219      3218      3220      3219      3218      3221
      3220      3218      3221      3218      3221      3222      3218      3221      3223
      3218      3221      3224      3222      3221      3223      3222      3221      3224
      3223      3221      3224      3221      3224      3225      3221      3224      3226
      3221      3224      3227      3225      3224      3226      3225      3224      3227
      3226      3224      3227      3224      3227      3228      3224      3227      3229
      3224      3227      3230      3228      3227      3229      3228      3227      3230
      3229      3227      3230      3227      3230      3231      3227      3230      3232
      3227      3230      3233      3231      3230      3232      3231      3230      3233
      3232      3230      3233      3230      3233      3234      3230      3233      3235
      3230      3233      3236      3234      3233      3235      3234      3233      3236
      3235      3233      3236      3233      3236      3237      3233      3236      3238
      3233      3236      3239      3237      3236      3238      3237      3236      3239
      3238      3236      3239      3236      3239      3240      3236      3239      3241
      3236      3239      3242      3240      3239      3241      3240      3239      3242
      3241      3239      3242      3239      3242      3243      3239      3242      3244
      3239      3242      3245      3243      3242      3244      3243      3242      3245
      3244      3242      3245      3242      3245      3246      3242      3245      3247
      3242      3245      3248      3246      3245      3247      3246      3245      3248
      3247      3245      3248     11813     11812     11817     11813     11812     11821
     11813     11812     11825     11817     11812     11821     11817     11812     11825
     11821     11812     11825     11812     11813     11814     11812     11813     11815
     11812     11813     11816     11814     11813     11815     11814     11813     11816
     11815     11813     11816     11812     11817     11818     11812     11817     11819
     11812     11817     11820     11818     11817     11819     11818     11817     11820
     11819     11817     11820     11812     11821     11822     11812     11821     11823
     11812     11821     11824     11822     11821     11823     11822     11821     11824
     11823     11821     11824     11812     11825     11826     11812     11825     11827
     11812     11825     11828     11826     11825     11827     11826     11825     11828
     11827     11825     11828     11825     11828     11829     11825     11828     11830
     11825     11828     11835     11829     11828     11830     11829     11828     11835
     11830     11828     11835     11832     11831     11833     11832     11831     11834
     11832     11831     11835     11833     11831     11834     11833     11831     11835
     11834     11831     11835     11831     11834     11836     11828     11835     11831
     11834     11836     11837     11834     11836     11838     11834     11836     11841
     11837     11836     11838     11837     11836     11841     11838     11836     11841
     11840     11839     11841     11840     11839     11891     11841     11839     11891
     11836     11841     11839     11836     11841     11842     11836     11841     11843
     11839     11841     11842     11839     11841     11843     11842     11841     11843
     11841     11843     11844     11841     11843     11845     11841     11843     11847
     11844     11843     11845     11844     11843     11847     11845     11843     11847
     11843     11845     11846     11843     11847     11848     11843     11847     11849
     11848     11847     11849     11847     11849     11850     11847     11849     11851
     11850     11849     11851     11849     11851     11852     11849     11851     11853
     11849     11851     11854     11852     11851     11853     11852     11851     11854
     11853     11851     11854     11851     11854     11855     11851     11854     11856
     11851     11854     11857     11855     11854     11856     11855     11854     11857
     11856     11854     11857     11854     11857     11858     11854     11857     11859
     11854     11857     11860     11858     11857     11859     11858     11857     11860
     11859     11857     11860     11857     11860     11861     11857     11860     11862
     11857     11860     11863     11861     11860     11862     11861     11860     11863
     11862     11860     11863     11860     11863     11864     11860     11863     11865
     11860     11863     11866     11864     11863     11865     11864     11863     11866
     11865     11863     11866     11863     11866     11867     11863     11866     11868
     11863     11866     11869     11867     11866     11868     11867     11866     11869
     11868     11866     11869     11866     11869     11870     11866     11869     11871
     11866     11869     11872     11870     11869     11871     11870     11869     11872
     11871     11869     11872     11869     11872     11873     11869     11872     11874
     11869     11872     11875     11873     11872     11874     11873     11872     11875
     11874     11872     11875     11872     11875     11876     11872     11875     11877
     11872     11875     11878     11876     11875     11877     11876     11875     11878
     11877     11875     11878     11875     11878     11879     11875     11878     11880
     11875     11878     11881     11879     11878     11880     11879     11878     11881
     11880     11878     11881     11878     11881     11882     11878     11881     11883
     11878     11881     11884     11882     11881     11883     11882     11881     11884
     11883     11881     11884     11881     11884     11885     11881     11884     11886
     11881     11884     11887     11885     11884     11886     11885     11884     11887
     11886     11884     11887     11884     11887     11888     11884     11887     11889
     11884     11887     11890     11888     11887     11889     11888     11887     11890
     11889     11887     11890     11839     11891     11892     11839     11891     11893
     11892     11891     11893     11891     11893     11894     11891     11893     11895
     11891     11893     11896     11894     11893     11895     11894     11893     11896
     11895     11893     11896     11893     11896     11897     11893     11896     11898
     11893     11896     11899     11897     11896     11898     11897     11896     11899
     11898     11896     11899     11896     11899     11900     11896     11899     11901
     11896     11899     11902     11900     11899     11901     11900     11899     11902
     11901     11899     11902     11899     11902     11903     11899     11902     11904
     11899     11902     11905     11903     11902     11904     11903     11902     11905
     11904     11902     11905     11902     11905     11906     11902     11905     11907
     11902     11905     11908     11906     11905     11907     11906     11905     11908
     11907     11905     11908     11905     11908     11909     11905     11908     11910
     11905     11908     11911     11909     11908     11910     11909     11908     11911
     11910     11908     11911     11908     11911     11912     11908     11911     11913
     11908     11911     11914     11912     11911     11913     11912     11911     11914
     11913     11911     11914     11911     11914     11915     11911     11914     11916
     11915     11914     11916     11914     11916     11917     11914     11916     11918
     11917     11916     11918     11916     11918     11919     11916     11918     11920
     11916     11918     11921     11919     11918     11920     11919     11918     11921
     11920     11918     11921     11918     11921     11922     11918     11921     11923
     11918     11921     11924     11922     11921     11923     11922     11921     11924
     11923     11921     11924     11921     11924     11925     11921     11924     11926
     11921     11924     11927     11925     11924     11926     11925     11924     11927
     11926     11924     11927     11924     11927     11928     11924     11927     11929
     11924     11927     11930     11928     11927     11929     11928     11927     11930
     11929     11927     11930     11927     11930     11931     11927     11930     11932
     11927     11930     11933     11931     11930     11932     11931     11930     11933
     11932     11930     11933     11930     11933     11934     11930     11933     11935
     11930     11933     11936     11934     11933     11935     11934     11933     11936
     11935     11933     11936     11933     11936     11937     11933     11936     11938
     11933     11936     11939     11937     11936     11938     11937     11936     11939
     11938     11936     11939     11936     11939     11940     11936     11939     11941
     11936     11939     11942     11940     11939     11941     11940     11939     11942
     11941     11939     11942     16136     16135     16137     16136     16135     16138
     16136     16135     16139     16137     16135     16138     16137     16135     16139
     16138     16135     16139     16135     16139     16140     16135     16139     16141
     16135     16139     16142     16140     16139     16141     16140     16139     16142
     16141     16139     16142     16139     16142     16143     16139     16142     16144
     16139     16142     16148     16143     16142     16144     16143     16142     16148
     16144     16142     16148     16146     16145     16147     16146     16145     16148
     16146     16145     16149     16147     16145     16148     16147     16145     16149
     16148     16145     16149     16142     16148     16145     16145     16149     16150
     16149     16150     16151     16149     16150     16152     16149     16150     16153
     16151     16150     16152     16151     16150     16153     16152     16150     16153
     16150     16153     16154     16150     16153     16155     16150     16153     16161
     16154     16153     16155     16154     16153     16161     16155     16153     16161
     16153     16155     16156     16155     16156     16157     16155     16156     16158
     16157     16156     16158     16156     16158     16159     16156     16158     16160
     16156     16158     16170     16159     16158     16160     16159     16158     16170
     16160     16158     16170     16153     16161     16162     16153     16161     16163
     16153     16161     16164     16162     16161     16163     16162     16161     16164
     16163     16161     16164     16161     16164     16165     16164     16165     16166
     16164     16165     16167     16166     16165     16167     16165     16167     16168
     16165     16167     16169     16165     16167     16217     16168     16167     16169
     16168     16167     16217     16169     16167     16217     16158     16170     16171
     16158     16170     16172     16158     16170     16173     16171     16170     16172
     16171     16170     16173     16172     16170     16173     16170     16173     16174
     16170     16173     16175     16170     16173     16176     16174     16173     16175
     16174     16173     16176     16175     16173     16176     16173     16176     16177
     16173     16176     16178     16177     16176     16178     16176     16178     16179
     16176     16178     16180     16179     16178     16180     16178     16180     16181
     16178     16180     16182     16178     16180     16183     16181     16180     16182
     16181     16180     16183     16182     16180     16183     16180     16183     16184
     16180     16183     16185     16184     16183     16185     16183     16185     16186
     16183     16185     16187     16186     16185     16187     16185     16187     16188
     16185     16187     16189     16185     16187     16190     16188     16187     16189
     16188     16187     16190     16189     16187     16190     16187     16190     16191
     16187     16190     16192     16191     16190     16192     16190     16192     16193
     16190     16192     16194     16193     16192     16194     16192     16194     16195
     16192     16194     16196     16192     16194     16197     16195     16194     16196
     16195     16194     16197     16196     16194     16197     16194     16197     16198
     16194     16197     16199     16198     16197     16199     16197     16199     16200
     16197     16199     16201     16200     16199     16201     16199     16201     16202
     16199     16201     16203     16199     16201     16204     16202     16201     16203
     16202     16201     16204     16203     16201     16204     16201     16204     16205
     16201     16204     16206     16201     16204     16207     16205     16204     16206
     16205     16204     16207     16206     16204     16207     16204     16207     16208
     16204     16207     16209     16204     16207     16210     16208     16207     16209
     16208     16207     16210     16209     16207     16210     16207     16210     16211
     16207     16210     16212     16207     16210     16213     16211     16210     16212
     16211     16210     16213     16212     16210     16213     16210     16213     16214
     16210     16213     16215     16210     16213     16216     16214     16213     16215
     16214     16213     16216     16215     16213     16216     16167     16217     16218
     16167     16217     16219     16167     16217     16220     16218     16217     16219
     16218     16217     16220     16219     16217     16220     16217     16220     16221
     16217     16220     16222     16217     16220     16223     16221     16220     16222
     16221     16220     16223     16222     16220     16223     16220     16223     16224
     16220     16223     16225     16220     16223     16226     16224     16223     16225
     16224     16223     16226     16225     16223     16226     16223     16226     16227
     16223     16226     16228     16223     16226     16229     16227     16226     16228
     16227     16226     16229     16228     16226     16229     16226     16229     16230
     16226     16229     16231     16226     16229     16232     16230     16229     16231
     16230     16229     16232     16231     16229     16232     16229     16232     16233
     16229     16232     16234     16229     16232     16235     16233     16232     16234
     16233     16232     16235     16234     16232     16235     16232     16235     16236
     16232     16235     16237     16232     16235     16238     16236     16235     16237
     16236     16235     16238     16237     16235     16238     16235     16238     16239
     16235     16238     16240     16235     16238     16241     16239     16238     16240
     16239     16238     16241     16240     16238     16241     16238     16241     16242
     16238     16241     16243     16238     16241     16244     16242     16241     16243
     16242     16241     16244     16243     16241     16244     16241     16244     16245
     16241     16244     16246     16241     16244     16247     16245     16244     16246
     16245     16244     16247     16246     16244     16247     16244     16247     16248
     16244     16247     16249     16244     16247     16250     16248     16247     16249
     16248     16247     16250     16249     16247     16250     16247     16250     16251
     16247     16250     16252     16247     16250     16253     16251     16250     16252
     16251     16250     16253     16252     16250     16253     16250     16253     16254
     16250     16253     16255     16250     16253     16256     16254     16253     16255
     16254     16253     16256     16255     16253     16256     16253     16256     16257
     16253     16256     16258     16253     16256     16259     16257     16256     16258
     16257     16256     16259     16258     16256     16259     16256     16259     16260
     16256     16259     16261     16256     16259     16262     16260     16259     16261
     16260     16259     16262     16261     16259     16262     16259     16262     16263
     16259     16262     16264     16259     16262     16265     16263     16262     16264
     16263     16262     16265     16264     16262     16265     16267     16266     16268
     16267     16266     16269     16267     16266     16270     16268     16266     16269
     16268     16266     16270     16269     16266     16270     16266     16270     16271
     16266     16270     16272     16266     16270     16273     16271     16270     16272
     16271     16270     16273     16272     16270     16273     16270     16273     16274
     16270     16273     16275     16270     16273     16279     16274     16273     16275
     16274     16273     16279     16275     16273     16279     16277     16276     16278
     16277     16276     16279     16277     16276     16280     16278     16276     16279
     16278     16276     16280     16279     16276     16280     16273     16279     16276
     16276     16280     16281     16280     16281     16282     16280     16281     16283
     16280     16281     16284     16282     16281     16283     16282     16281     16284
     16283     16281     16284     16281     16284     16285     16281     16284     16286
     16281     16284     16292     16285     16284     16286     16285     16284     16292
     16286     16284     16292     16284     16286     16287     16286     16287     16288
     16286     16287     16289     16288     16287     16289     16287     16289     16290
     16287     16289     16291     16287     16289     16301     16290     16289     16291
     16290     16289     16301     16291     16289     16301     16284     16292     16293
     16284     16292     16294     16284     16292     16295     16293     16292     16294
     16293     16292     16295     16294     16292     16295     16292     16295     16296
     16295     16296     16297     16295     16296     16298     16297     16296     16298
     16296     16298     16299     16296     16298     16300     16296     16298     16348
     16299     16298     16300     16299     16298     16348     16300     16298     16348
     16289     16301     16302     16289     16301     16303     16289     16301     16304
     16302     16301     16303     16302     16301     16304     16303     16301     16304
     16301     16304     16305     16301     16304     16306     16301     16304     16307
     16305     16304     16306     16305     16304     16307     16306     16304     16307
     16304     16307     16308     16304     16307     16309     16308     16307     16309
     16307     16309     16310     16307     16309     16311     16310     16309     16311
     16309     16311     16312     16309     16311     16313     16309     16311     16314
     16312     16311     16313     16312     16311     16314     16313     16311     16314
     16311     16314     16315     16311     16314     16316     16315     16314     16316
     16314     16316     16317     16314     16316     16318     16317     16316     16318
     16316     16318     16319     16316     16318     16320     16316     16318     16321
     16319     16318     16320     16319     16318     16321     16320     16318     16321
     16318     16321     16322     16318     16321     16323     16322     16321     16323
     16321     16323     16324     16321     16323     16325     16324     16323     16325
     16323     16325     16326     16323     16325     16327     16323     16325     16328
     16326     16325     16327     16326     16325     16328     16327     16325     16328
     16325     16328     16329     16325     16328     16330     16329     16328     16330
     16328     16330     16331     16328     16330     16332     16331     16330     16332
     16330     16332     16333     16330     16332     16334     16330     16332     16335
     16333     16332     16334     16333     16332     16335     16334     16332     16335
     16332     16335     16336     16332     16335     16337     16332     16335     16338
     16336     16335     16337     16336     16335     16338     16337     16335     16338
     16335     16338     16339     16335     16338     16340     16335     16338     16341
     16339     16338     16340     16339     16338     16341     16340     16338     16341
     16338     16341     16342     16338     16341     16343     16338     16341     16344
     16342     16341     16343     16342     16341     16344     16343     16341     16344
     16341     16344     16345     16341     16344     16346     16341     16344     16347
     16345     16344     16346     16345     16344     16347     16346     16344     16347
     16298     16348     16349     16298     16348     16350     16298     16348     16351
     16349     16348     16350     16349     16348     16351     16350     16348     16351
     16348     16351     16352     16348     16351     16353     16348     16351     16354
     16352     16351     16353     16352     16351     16354     16353     16351     16354
     16351     16354     16355     16351     16354     16356     16351     16354     16357
     16355     16354     16356     16355     16354     16357     16356     16354     16357
     16354     16357     16358     16354     16357     16359     16354     16357     16360
     16358     16357     16359     16358     16357     16360     16359     16357     16360
     16357     16360     16361     16357     16360     16362     16357     16360     16363
     16361     16360     16362     16361     16360     16363     16362     16360     16363
     16360     16363     16364     16360     16363     16365     16360     16363     16366
     16364     16363     16365     16364     16363     16366     16365     16363     16366
     16363     16366     16367     16363     16366     16368     16363     16366     16369
     16367     16366     16368     16367     16366     16369     16368     16366     16369
     16366     16369     16370     16366     16369     16371     16366     16369     16372
     16370     16369     16371     16370     16369     16372     16371     16369     16372
     16369     16372     16373     16369     16372     16374     16369     16372     16375
     16373     16372     16374     16373     16372     16375     16374     16372     16375
     16372     16375     16376     16372     16375     16377     16372     16375     16378
     16376     16375     16377     16376     16375     16378     16377     16375     16378
     16375     16378     16379     16375     16378     16380     16375     16378     16381
     16379     16378     16380     16379     16378     16381     16380     16378     16381
     16378     16381     16382     16378     16381     16383     16378     16381     16384
     16382     16381     16383     16382     16381     16384     16383     16381     16384
     16381     16384     16385     16381     16384     16386     16381     16384     16387
     16385     16384     16386     16385     16384     16387     16386     16384     16387
     16384     16387     16388     16384     16387     16389     16384     16387     16390
     16388     16387     16389     16388     16387     16390     16389     16387     16390
     16387     16390     16391     16387     16390     16392     16387     16390     16393
     16391     16390     16392     16391     16390     16393     16392     16390     16393
     16390     16393     16394     16390     16393     16395     16390     16393     16396
     16394     16393     16395     16394     16393     16396     16395     16393     16396
     16398     16397     16399     16398     16397     16400     16398     16397     16401
     16399     16397     16400     16399     16397     16401     16400     16397     16401
     16397     16401     16402     16397     16401     16403     16397     16401     16404
     16402     16401     16403     16402     16401     16404     16403     16401     16404
     16401     16404     16405     16401     16404     16406     16401     16404     16410
     16405     16404     16406     16405     16404     16410     16406     16404     16410
     16408     16407     16409     16408     16407     16410     16408     16407     16411
     16409     16407     16410     16409     16407     16411     16410     16407     16411
     16404     16410     16407     16407     16411     16412     16411     16412     16413
     16411     16412     16414     16411     16412     16415     16413     16412     16414
     16413     16412     16415     16414     16412     16415     16412     16415     16416
     16412     16415     16417     16412     16415     16423     16416     16415     16417
     16416     16415     16423     16417     16415     16423     16415     16417     16418
     16417     16418     16419     16417     16418     16420     16419     16418     16420
     16418     16420     16421     16418     16420     16422     16418     16420     16432
     16421     16420     16422     16421     16420     16432     16422     16420     16432
     16415     16423     16424     16415     16423     16425     16415     16423     16426
     16424     16423     16425     16424     16423     16426     16425     16423     16426
     16423     16426     16427     16426     16427     16428     16426     16427     16429
     16428     16427     16429     16427     16429     16430     16427     16429     16431
     16427     16429     16479     16430     16429     16431     16430     16429     16479
     16431     16429     16479     16420     16432     16433     16420     16432     16434
     16420     16432     16435     16433     16432     16434     16433     16432     16435
     16434     16432     16435     16432     16435     16436     16432     16435     16437
     16432     16435     16438     16436     16435     16437     16436     16435     16438
     16437     16435     16438     16435     16438     16439     16435     16438     16440
     16439     16438     16440     16438     16440     16441     16438     16440     16442
     16441     16440     16442     16440     16442     16443     16440     16442     16444
     16440     16442     16445     16443     16442     16444     16443     16442     16445
     16444     16442     16445     16442     16445     16446     16442     16445     16447
     16446     16445     16447     16445     16447     16448     16445     16447     16449
     16448     16447     16449     16447     16449     16450     16447     16449     16451
     16447     16449     16452     16450     16449     16451     16450     16449     16452
     16451     16449     16452     16449     16452     16453     16449     16452     16454
     16453     16452     16454     16452     16454     16455     16452     16454     16456
     16455     16454     16456     16454     16456     16457     16454     16456     16458
     16454     16456     16459     16457     16456     16458     16457     16456     16459
     16458     16456     16459     16456     16459     16460     16456     16459     16461
     16460     16459     16461     16459     16461     16462     16459     16461     16463
     16462     16461     16463     16461     16463     16464     16461     16463     16465
     16461     16463     16466     16464     16463     16465     16464     16463     16466
     16465     16463     16466     16463     16466     16467     16463     16466     16468
     16463     16466     16469     16467     16466     16468     16467     16466     16469
     16468     16466     16469     16466     16469     16470     16466     16469     16471
     16466     16469     16472     16470     16469     16471     16470     16469     16472
     16471     16469     16472     16469     16472     16473     16469     16472     16474
     16469     16472     16475     16473     16472     16474     16473     16472     16475
     16474     16472     16475     16472     16475     16476     16472     16475     16477
     16472     16475     16478     16476     16475     16477     16476     16475     16478
     16477     16475     16478     16429     16479     16480     16429     16479     16481
     16429     16479     16482     16480     16479     16481     16480     16479     16482
     16481     16479     16482     16479     16482     16483     16479     16482     16484
     16479     16482     16485     16483     16482     16484     16483     16482     16485
     16484     16482     16485     16482     16485     16486     16482     16485     16487
     16482     16485     16488     16486     16485     16487     16486     16485     16488
     16487     16485     16488     16485     16488     16489     16485     16488     16490
     16485     16488     16491     16489     16488     16490     16489     16488     16491
     16490     16488     16491     16488     16491     16492     16488     16491     16493
     16488     16491     16494     16492     16491     16493     16492     16491     16494
     16493     16491     16494     16491     16494     16495     16491     16494     16496
     16491     16494     16497     16495     16494     16496     16495     16494     16497
     16496     16494     16497     16494     16497     16498     16494     16497     16499
     16494     16497     16500     16498     16497     16499     16498     16497     16500
     16499     16497     16500     16497     16500     16501     16497     16500     16502
     16497     16500     16503     16501     16500     16502     16501     16500     16503
     16502     16500     16503     16500     16503     16504     16500     16503     16505
     16500     16503     16506     16504     16503     16505     16504     16503     16506
     16505     16503     16506     16503     16506     16507     16503     16506     16508
     16503     16506     16509     16507     16506     16508     16507     16506     16509
     16508     16506     16509     16506     16509     16510     16506     16509     16511
     16506     16509     16512     16510     16509     16511     16510     16509     16512
     16511     16509     16512     16509     16512     16513     16509     16512     16514
     16509     16512     16515     16513     16512     16514     16513     16512     16515
     16514     16512     16515     16512     16515     16516     16512     16515     16517
     16512     16515     16518     16516     16515     16517     16516     16515     16518
     16517     16515     16518     16515     16518     16519     16515     16518     16520
     16515     16518     16521     16519     16518     16520     16519     16518     16521
     16520     16518     16521     16518     16521     16522     16518     16521     16523
     16518     16521     16524     16522     16521     16523     16522     16521     16524
     16523     16521     16524     16521     16524     16525     16521     16524     16526
     16521     16524     16527     16525     16524     16526     16525     16524     16527
     16526     16524     16527      1066      1065      1067      1066      1065      1068
      1066      1065      1069      1067      1065      1068      1067      1065      1069
      1068      1065      1069      1065      1069      1070      1065      1069      1071
      1065      1069      1074      1070      1069      1071      1070      1069      1074
      1071      1069      1074      1069      1071      1072      1069      1071      1073
      1072      1071      1073      1069      1074      1075      1069      1074      1076
      1069      1074      1080      1075      1074      1076      1075      1074      1080
      1076      1074      1080      1078      1077      1079      1078      1077      1080
      1078      1077      1081      1079      1077      1080      1079      1077      1081
      1080      1077      1081      1074      1080      1077      1077      1081      1082
      1081      1082      1083      1081      1082      1084      1081      1082      1085
      1083      1082      1084      1083      1082      1085      1084      1082      1085
      1082      1085      1086      1082      1085      1087      1082      1085      1093
      1086      1085      1087      1086      1085      1093      1087      1085      1093
      1085      1087      1088      1087      1088      1089      1087      1088      1090
      1089      1088      1090      1088      1090      1091      1088      1090      1092
      1088      1090      1102      1091      1090      1092      1091      1090      1102
      1092      1090      1102      1085      1093      1094      1085      1093      1095
      1085      1093      1096      1094      1093      1095      1094      1093      1096
      1095      1093      1096      1093      1096      1097      1096      1097      1098
      1096      1097      1099      1098      1097      1099      1097      1099      1100
      1097      1099      1101      1097      1099      1149      1100      1099      1101
      1100      1099      1149      1101      1099      1149      1090      1102      1103
      1090      1102      1104      1090      1102      1105      1103      1102      1104
      1103      1102      1105      1104      1102      1105      1102      1105      1106
      1102      1105      1107      1102      1105      1108      1106      1105      1107
      1106      1105      1108      1107      1105      1108      1105      1108      1109
      1105      1108      1110      1109      1108      1110      1108      1110      1111
      1108      1110      1112      1111      1110      1112      1110      1112      1113
      1110      1112      1114      1110      1112      1115      1113      1112      1114
      1113      1112      1115      1114      1112      1115      1112      1115      1116
      1112      1115      1117      1116      1115      1117      1115      1117      1118
      1115      1117      1119      1118      1117      1119      1117      1119      1120
      1117      1119      1121      1117      1119      1122      1120      1119      1121
      1120      1119      1122      1121      1119      1122      1119      1122      1123
      1119      1122      1124      1123      1122      1124      1122      1124      1125
      1122      1124      1126      1125      1124      1126      1124      1126      1127
      1124      1126      1128      1124      1126      1129      1127      1126      1128
      1127      1126      1129      1128      1126      1129      1126      1129      1130
      1126      1129      1131      1130      1129      1131      1129      1131      1132
      1129      1131      1133      1132      1131      1133      1131      1133      1134
      1131      1133      1135      1131      1133      1136      1134      1133      1135
      1134      1133      1136      1135      1133      1136      1133      1136      1137
      1133      1136      1138      1133      1136      1139      1137      1136      1138
      1137      1136      1139      1138      1136      1139      1136      1139      1140
      1136      1139      1141      1136      1139      1142      1140      1139      1141
      1140      1139      1142      1141      1139      1142      1139      1142      1143
      1139      1142      1144      1139      1142      1145      1143      1142      1144
      1143      1142      1145      1144      1142      1145      1142      1145      1146
      1142      1145      1147      1142      1145      1148      1146      1145      1147
      1146      1145      1148      1147      1145      1148      1099      1149      1150
      1099      1149      1151      1099      1149      1152      1150      1149      1151
      1150      1149      1152      1151      1149      1152      1149      1152      1153
      1149      1152      1154      1149      1152      1155      1153      1152      1154
      1153      1152      1155      1154      1152      1155      1152      1155      1156
      1152      1155      1157      1152      1155      1158      1156      1155      1157
      1156      1155      1158      1157      1155      1158      1155      1158      1159
      1155      1158      1160      1155      1158      1161      1159      1158      1160
      1159      1158      1161      1160      1158      1161      1158      1161      1162
      1158      1161      1163      1158      1161      1164      1162      1161      1163
      1162      1161      1164      1163      1161      1164      1161      1164      1165
      1161      1164      1166      1161      1164      1167      1165      1164      1166
      1165      1164      1167      1166      1164      1167      1164      1167      1168
      1164      1167      1169      1164      1167      1170      1168      1167      1169
      1168      1167      1170      1169      1167      1170      1167      1170      1171
      1167      1170      1172      1167      1170      1173      1171      1170      1172
      1171      1170      1173      1172      1170      1173      1170      1173      1174
      1170      1173      1175      1170      1173      1176      1174      1173      1175
      1174      1173      1176      1175      1173      1176      1173      1176      1177
      1173      1176      1178      1173      1176      1179      1177      1176      1178
      1177      1176      1179      1178      1176      1179      1176      1179      1180
      1176      1179      1181      1176      1179      1182      1180      1179      1181
      1180      1179      1182      1181      1179      1182      1179      1182      1183
      1179      1182      1184      1179      1182      1185      1183      1182      1184
      1183      1182      1185      1184      1182      1185      1182      1185      1186
      1182      1185      1187      1182      1185      1188      1186      1185      1187
      1186      1185      1188      1187      1185      1188      1185      1188      1189
      1185      1188      1190      1185      1188      1191      1189      1188      1190
      1189      1188      1191      1190      1188      1191      1188      1191      1192
      1188      1191      1193      1188      1191      1194      1192      1191      1193
      1192      1191      1194      1193      1191      1194      1191      1194      1195
      1191      1194      1196      1191      1194      1197      1195      1194      1196
      1195      1194      1197      1196      1194      1197     11944     11943     11948
     11944     11943     11952     11944     11943     11956     11948     11943     11952
     11948     11943     11956     11952     11943     11956     11943     11944     11945
     11943     11944     11946     11943     11944     11947     11945     11944     11946
     11945     11944     11947     11946     11944     11947     11943     11948     11949
     11943     11948     11950     11943     11948     11951     11949     11948     11950
     11949     11948     11951     11950     11948     11951     11943     11952     11953
     11943     11952     11954     11943     11952     11955     11953     11952     11954
     11953     11952     11955     11954     11952     11955     11943     11956     11957
     11943     11956     11958     11943     11956     11959     11957     11956     11958
     11957     11956     11959     11958     11956     11959     11956     11959     11960
     11956     11959     11961     11956     11959     11966     11960     11959     11961
     11960     11959     11966     11961     11959     11966     11963     11962     11964
     11963     11962     11965     11963     11962     11966     11964     11962     11965
     11964     11962     11966     11965     11962     11966     11962     11965     11967
     11959     11966     11962     11965     11967     11968     11965     11967     11969
     11965     11967     11972     11968     11967     11969     11968     11967     11972
     11969     11967     11972     11971     11970     11972     11971     11970     12022
     11972     11970     12022     11967     11972     11970     11967     11972     11973
     11967     11972     11974     11970     11972     11973     11970     11972     11974
     11973     11972     11974     11972     11974     11975     11972     11974     11976
     11972     11974     11978     11975     11974     11976     11975     11974     11978
     11976     11974     11978     11974     11976     11977     11974     11978     11979
     11974     11978     11980     11979     11978     11980     11978     11980     11981
     11978     11980     11982     11981     11980     11982     11980     11982     11983
     11980     11982     11984     11980     11982     11985     11983     11982     11984
     11983     11982     11985     11984     11982     11985     11982     11985     11986
     11982     11985     11987     11982     11985     11988     11986     11985     11987
     11986     11985     11988     11987     11985     11988     11985     11988     11989
     11985     11988     11990     11985     11988     11991     11989     11988     11990
     11989     11988     11991     11990     11988     11991     11988     11991     11992
     11988     11991     11993     11988     11991     11994     11992     11991     11993
     11992     11991     11994     11993     11991     11994     11991     11994     11995
     11991     11994     11996     11991     11994     11997     11995     11994     11996
     11995     11994     11997     11996     11994     11997     11994     11997     11998
     11994     11997     11999     11994     11997     12000     11998     11997     11999
     11998     11997     12000     11999     11997     12000     11997     12000     12001
     11997     12000     12002     11997     12000     12003     12001     12000     12002
     12001     12000     12003     12002     12000     12003     12000     12003     12004
     12000     12003     12005     12000     12003     12006     12004     12003     12005
     12004     12003     12006     12005     12003     12006     12003     12006     12007
     12003     12006     12008     12003     12006     12009     12007     12006     12008
     12007     12006     12009     12008     12006     12009     12006     12009     12010
     12006     12009     12011     12006     12009     12012     12010     12009     12011
     12010     12009     12012     12011     12009     12012     12009     12012     12013
     12009     12012     12014     12009     12012     12015     12013     12012     12014
     12013     12012     12015     12014     12012     12015     12012     12015     12016
     12012     12015     12017     12012     12015     12018     12016     12015     12017
     12016     12015     12018     12017     12015     12018     12015     12018     12019
     12015     12018     12020     12015     12018     12021     12019     12018     12020
     12019     12018     12021     12020     12018     12021     11970     12022     12023
     11970     12022     12024     12023     12022     12024     12022     12024     12025
     12022     12024     12026     12022     12024     12027     12025     12024     12026
     12025     12024     12027     12026     12024     12027     12024     12027     12028
     12024     12027     12029     12024     12027     12030     12028     12027     12029
     12028     12027     12030     12029     12027     12030     12027     12030     12031
     12027     12030     12032     12027     12030     12033     12031     12030     12032
     12031     12030     12033     12032     12030     12033     12030     12033     12034
     12030     12033     12035     12030     12033     12036     12034     12033     12035
     12034     12033     12036     12035     12033     12036     12033     12036     12037
     12033     12036     12038     12033     12036     12039     12037     12036     12038
     12037     12036     12039     12038     12036     12039     12036     12039     12040
     12036     12039     12041     12036     12039     12042     12040     12039     12041
     12040     12039     12042     12041     12039     12042     12039     12042     12043
     12039     12042     12044     12039     12042     12045     12043     12042     12044
     12043     12042     12045     12044     12042     12045     12042     12045     12046
     12042     12045     12047     12046     12045     12047     12045     12047     12048
     12045     12047     12049     12048     12047     12049     12047     12049     12050
     12047     12049     12051     12047     12049     12052     12050     12049     12051
     12050     12049     12052     12051     12049     12052     12049     12052     12053
     12049     12052     12054     12049     12052     12055     12053     12052     12054
     12053     12052     12055     12054     12052     12055     12052     12055     12056
     12052     12055     12057     12052     12055     12058     12056     12055     12057
     12056     12055     12058     12057     12055     12058     12055     12058     12059
     12055     12058     12060     12055     12058     12061     12059     12058     12060
     12059     12058     12061     12060     12058     12061     12058     12061     12062
     12058     12061     12063     12058     12061     12064     12062     12061     12063
     12062     12061     12064     12063     12061     12064     12061     12064     12065
     12061     12064     12066     12061     12064     12067     12065     12064     12066
     12065     12064     12067     12066     12064     12067     12064     12067     12068
     12064     12067     12069     12064     12067     12070     12068     12067     12069
     12068     12067     12070     12069     12067     12070     12067     12070     12071
     12067     12070     12072     12067     12070     12073     12071     12070     12072
     12071     12070     12073     12072     12070     12073      4906      4905      4909
      4906      4905      4913      4906      4905      4917      4909      4905      4913
      4909      4905      4917      4913      4905      4917      4905      4906      4907
      4905      4906      4908      4905      4906      4921      4907      4906      4908
      4907      4906      4921      4908      4906      4921      4905      4909      4910
      4905      4909      4911      4905      4909      4912      4910      4909      4911
      4910      4909      4912      4911      4909      4912      4905      4913      4914
      4905      4913      4915      4905      4913      4916      4914      4913      4915
      4914      4913      4916      4915      4913      4916      4905      4917      4918
      4905      4917      4919      4905      4917      4920      4918      4917      4919
      4918      4917      4920      4919      4917      4920      4906      4921      4922
      4906      4921      4923      4906      4921      4927      4922      4921      4923
      4922      4921      4927      4923      4921      4927      4925      4924      4926
      4925      4924      4927      4925      4924      4928      4926      4924      4927
      4926      4924      4928      4927      4924      4928      4921      4927      4924
      4924      4928      4929      4928      4929      4930      4928      4929      4931
      4928      4929      4932      4930      4929      4931      4930      4929      4932
      4931      4929      4932      4929      4932      4933      4929      4932      4934
      4929      4932      4940      4933      4932      4934      4933      4932      4940
      4934      4932      4940      4932      4934      4935      4934      4935      4936
      4934      4935      4937      4936      4935      4937      4935      4937      4938
      4935      4937      4939      4935      4937      4949      4938      4937      4939
      4938      4937      4949      4939      4937      4949      4932      4940      4941
      4932      4940      4942      4932      4940      4943      4941      4940      4942
      4941      4940      4943      4942      4940      4943      4940      4943      4944
      4943      4944      4945      4943      4944      4946      4945      4944      4946
      4944      4946      4947      4944      4946      4948      4944      4946      4996
      4947      4946      4948      4947      4946      4996      4948      4946      4996
      4937      4949      4950      4937      4949      4951      4937      4949      4952
      4950      4949      4951      4950      4949      4952      4951      4949      4952
      4949      4952      4953      4949      4952      4954      4949      4952      4955
      4953      4952      4954      4953      4952      4955      4954      4952      4955
      4952      4955      4956      4952      4955      4957      4952      4955      4958
      4956      4955      4957      4956      4955      4958      4957      4955      4958
      4955      4958      4959      4955      4958      4960      4955      4958      4961
      4959      4958      4960      4959      4958      4961      4960      4958      4961
      4958      4961      4962      4958      4961      4963      4958      4961      4964
      4962      4961      4963      4962      4961      4964      4963      4961      4964
      4961      4964      4965      4961      4964      4966      4961      4964      4967
      4965      4964      4966      4965      4964      4967      4966      4964      4967
      4964      4967      4968      4964      4967      4969      4968      4967      4969
      4967      4969      4970      4967      4969      4971      4970      4969      4971
      4969      4971      4972      4969      4971      4973      4969      4971      4974
      4972      4971      4973      4972      4971      4974      4973      4971      4974
      4971      4974      4975      4971      4974      4976      4971      4974      4977
      4975      4974      4976      4975      4974      4977      4976      4974      4977
      4974      4977      4978      4974      4977      4979      4974      4977      4980
      4978      4977      4979      4978      4977      4980      4979      4977      4980
      4977      4980      4981      4977      4980      4982      4977      4980      4983
      4981      4980      4982      4981      4980      4983      4982      4980      4983
      4980      4983      4984      4980      4983      4985      4980      4983      4986
      4984      4983      4985      4984      4983      4986      4985      4983      4986
      4983      4986      4987      4983      4986      4988      4983      4986      4989
      4987      4986      4988      4987      4986      4989      4988      4986      4989
      4986      4989      4990      4986      4989      4991      4986      4989      4992
      4990      4989      4991      4990      4989      4992      4991      4989      4992
      4989      4992      4993      4989      4992      4994      4989      4992      4995
      4993      4992      4994      4993      4992      4995      4994      4992      4995
      4946      4996      4997      4946      4996      4998      4946      4996      4999
      4997      4996      4998      4997      4996      4999      4998      4996      4999
      4996      4999      5000      4996      4999      5001      4996      4999      5002
      5000      4999      5001      5000      4999      5002      5001      4999      5002
      4999      5002      5003      4999      5002      5004      4999      5002      5005
      5003      5002      5004      5003      5002      5005      5004      5002      5005
      5002      5005      5006      5002      5005      5007      5002      5005      5008
      5006      5005      5007      5006      5005      5008      5007      5005      5008
      5005      5008      5009      5005      5008      5010      5005      5008      5011
      5009      5008      5010      5009      5008      5011      5010      5008      5011
      5008      5011      5012      5008      5011      5013      5008      5011      5014
      5012      5011      5013      5012      5011      5014      5013      5011      5014
      5011      5014      5015      5011      5014      5016      5011      5014      5017
      5015      5014      5016      5015      5014      5017      5016      5014      5017
      5014      5017      5018      5014      5017      5019      5014      5017      5020
      5018      5017      5019      5018      5017      5020      5019      5017      5020
      5017      5020      5021      5017      5020      5022      5017      5020      5023
      5021      5020      5022      5021      5020      5023      5022      5020      5023
      5020      5023      5024      5020      5023      5025      5020      5023      5026
      5024      5023      5025      5024      5023      5026      5025      5023      5026
      5023      5026      5027      5023      5026      5028      5023      5026      5029
      5027      5026      5028      5027      5026      5029      5028      5026      5029
      5026      5029      5030      5026      5029      5031      5026      5029      5032
      5030      5029      5031      5030      5029      5032      5031      5029      5032
      5029      5032      5033      5029      5032      5034      5029      5032      5035
      5033      5032      5034      5033      5032      5035      5034      5032      5035
      5032      5035      5036      5032      5035      5037      5032      5035      5038
      5036      5035      5037      5036      5035      5038      5037      5035      5038
      3250      3249      3253      3250      3249      3257      3250      3249      3261
      3253      3249      3257      3253      3249      3261      3257      3249      3261
      3249      3250      3251      3249      3250      3252      3249      3250      3265
      3251      3250      3252      3251      3250      3265      3252      3250      3265
      3249      3253      3254      3249      3253      3255      3249      3253      3256
      3254      3253      3255      3254      3253      3256      3255      3253      3256
      3249      3257      3258      3249      3257      3259      3249      3257      3260
      3258      3257      3259      3258      3257      3260      3259      3257      3260
      3249      3261      3262      3249      3261      3263      3249      3261      3264
      3262      3261      3263      3262      3261      3264      3263      3261      3264
      3250      3265      3266      3250      3265      3267      3250      3265      3271
      3266      3265      3267      3266      3265      3271      3267      3265      3271
      3269      3268      3270      3269      3268      3271      3269      3268      3272
      3270      3268      3271      3270      3268      3272      3271      3268      3272
      3265      3271      3268      3268      3272      3273      3272      3273      3274
      3272      3273      3275      3272      3273      3276      3274      3273      3275
      3274      3273      3276      3275      3273      3276      3273      3276      3277
      3273      3276      3278      3273      3276      3284      3277      3276      3278
      3277      3276      3284      3278      3276      3284      3276      3278      3279
      3278      3279      3280      3278      3279      3281      3280      3279      3281
      3279      3281      3282      3279      3281      3283      3279      3281      3293
      3282      3281      3283      3282      3281      3293      3283      3281      3293
      3276      3284      3285      3276      3284      3286      3276      3284      3287
      3285      3284      3286      3285      3284      3287      3286      3284      3287
      3284      3287      3288      3287      3288      3289      3287      3288      3290
      3289      3288      3290      3288      3290      3291      3288      3290      3292
      3288      3290      3340      3291      3290      3292      3291      3290      3340
      3292      3290      3340      3281      3293      3294      3281      3293      3295
      3281      3293      3296      3294      3293      3295      3294      3293      3296
      3295      3293      3296      3293      3296      3297      3293      3296      3298
      3293      3296      3299      3297      3296      3298      3297      3296      3299
      3298      3296      3299      3296      3299      3300      3296      3299      3301
      3300      3299      3301      3299      3301      3302      3299      3301      3303
      3302      3301      3303      3301      3303      3304      3301      3303      3305
      3301      3303      3306      3304      3303      3305      3304      3303      3306
      3305      3303      3306      3303      3306      3307      3303      3306      3308
      3307      3306      3308      3306      3308      3309      3306      3308      3310
      3309      3308      3310      3308      3310      3311      3308      3310      3312
      3308      3310      3313      3311      3310      3312      3311      3310      3313
      3312      3310      3313      3310      3313      3314      3310      3313      3315
      3314      3313      3315      3313      3315      3316      3313      3315      3317
      3316      3315      3317      3315      3317      3318      3315      3317      3319
      3315      3317      3320      3318      3317      3319      3318      3317      3320
      3319      3317      3320      3317      3320      3321      3317      3320      3322
      3321      3320      3322      3320      3322      3323      3320      3322      3324
      3323      3322      3324      3322      3324      3325      3322      3324      3326
      3322      3324      3327      3325      3324      3326      3325      3324      3327
      3326      3324      3327      3324      3327      3328      3324      3327      3329
      3324      3327      3330      3328      3327      3329      3328      3327      3330
      3329      3327      3330      3327      3330      3331      3327      3330      3332
      3327      3330      3333      3331      3330      3332      3331      3330      3333
      3332      3330      3333      3330      3333      3334      3330      3333      3335
      3330      3333      3336      3334      3333      3335      3334      3333      3336
      3335      3333      3336      3333      3336      3337      3333      3336      3338
      3333      3336      3339      3337      3336      3338      3337      3336      3339
      3338      3336      3339      3290      3340      3341      3290      3340      3342
      3290      3340      3343      3341      3340      3342      3341      3340      3343
      3342      3340      3343      3340      3343      3344      3340      3343      3345
      3340      3343      3346      3344      3343      3345      3344      3343      3346
      3345      3343      3346      3343      3346      3347      3343      3346      3348
      3343      3346      3349      3347      3346      3348      3347      3346      3349
      3348      3346      3349      3346      3349      3350      3346      3349      3351
      3346      3349      3352      3350      3349      3351      3350      3349      3352
      3351      3349      3352      3349      3352      3353      3349      3352      3354
      3349      3352      3355      3353      3352      3354      3353      3352      3355
      3354      3352      3355      3352      3355      3356      3352      3355      3357
      3352      3355      3358      3356      3355      3357      3356      3355      3358
      3357      3355      3358      3355      3358      3359      3355      3358      3360
      3355      3358      3361      3359      3358      3360      3359      3358      3361
      3360      3358      3361      3358      3361      3362      3358      3361      3363
      3358      3361      3364      3362      3361      3363      3362      3361      3364
      3363      3361      3364      3361      3364      3365      3361      3364      3366
      3361      3364      3367      3365      3364      3366      3365      3364      3367
      3366      3364      3367      3364      3367      3368      3364      3367      3369
      3364      3367      3370      3368      3367      3369      3368      3367      3370
      3369      3367      3370      3367      3370      3371      3367      3370      3372
      3367      3370      3373      3371      3370      3372      3371      3370      3373
      3372      3370      3373      3370      3373      3374      3370      3373      3375
      3370      3373      3376      3374      3373      3375      3374      3373      3376
      3375      3373      3376      3373      3376      3377      3373      3376      3378
      3373      3376      3379      3377      3376      3378      3377      3376      3379
      3378      3376      3379      3376      3379      3380      3376      3379      3381
      3376      3379      3382      3380      3379      3381      3380      3379      3382
      3381      3379      3382      3379      3382      3383      3379      3382      3384
      3379      3382      3385      3383      3382      3384      3383      3382      3385
      3384      3382      3385      3382      3385      3386      3382      3385      3387
      3382      3385      3388      3386      3385      3387      3386      3385      3388
      3387      3385      3388      7514      7513      7515      7514      7513      7517
      7514      7513      7559      7515      7513      7517      7515      7513      7559
      7517      7513      7559      7513      7515      7516      7513      7517      7518
      7513      7517      7519      7513      7517      7520      7518      7517      7519
      7518      7517      7520      7519      7517      7520      7517      7520      7521
      7517      7520      7551      7521      7520      7551      7520      7521      7522
      7520      7521      7523      7522      7521      7523      7521      7523      7524
      7521      7523      7525      7521      7523      7526      7524      7523      7525
      7524      7523      7526      7525      7523      7526      7523      7526      7527
      7523      7526      7528      7523      7526      7549      7527      7526      7528
      7527      7526      7549      7528      7526      7549      7526      7528      7529
      7526      7528      7530      7526      7528      7538      7529      7528      7530
      7529      7528      7538      7530      7528      7538      7528      7530      7531
      7528      7530      7532      7528      7530      7533      7531      7530      7532
      7531      7530      7533      7532      7530      7533      7530      7533      7534
      7530      7533      7535      7530      7533      7536      7534      7533      7535
      7534      7533      7536      7535      7533      7536      7533      7536      7537
      7533      7536      7538      7533      7536      7562      7537      7536      7538
      7537      7536      7562      7538      7536      7562      7528      7538      7536
      7528      7538      7539      7528      7538      7543      7536      7538      7539
      7536      7538      7543      7539      7538      7543      7538      7539      7540
      7538      7539      7541      7538      7539      7542      7540      7539      7541
      7540      7539      7542      7541      7539      7542      7538      7543      7544
      7538      7543      7545      7538      7543      7546      7544      7543      7545
      7544      7543      7546      7545      7543      7546      7543      7546      7547
      7543      7546      7548      7543      7546      7549      7547      7546      7548
      7547      7546      7549      7548      7546      7549      7526      7549      7546
      7526      7549      7550      7526      7549      7551      7546      7549      7550
      7546      7549      7551      7550      7549      7551      7520      7551      7549
      7520      7551      7552      7520      7551      7556      7549      7551      7552
      7549      7551      7556      7552      7551      7556      7551      7552      7553
      7551      7552      7554      7551      7552      7555      7553      7552      7554
      7553      7552      7555      7554      7552      7555      7551      7556      7557
      7551      7556      7558      7551      7556      7559      7557      7556      7558
      7557      7556      7559      7558      7556      7559      7513      7559      7556
      7513      7559      7560      7513      7559      7561      7556      7559      7560
      7556      7559      7561      7560      7559      7561      7536      7562      7563
      7536      7562      7564      7536      7562      7568      7563      7562      7564
      7563      7562      7568      7564      7562      7568      7562      7564      7565
      7562      7564      7566      7562      7564      7567      7565      7564      7566
      7565      7564      7567      7566      7564      7567      7562      7568      7569
      7562      7568      7570      7562      7568      7571      7569      7568      7570
      7569      7568      7571      7570      7568      7571      7568      7571      7572
      7568      7571      7573      7568      7571      7574      7572      7571      7573
      7572      7571      7574      7573      7571      7574      7571      7574      7575
      7571      7574      7576      7571      7574      7577      7575      7574      7576
      7575      7574      7577      7576      7574      7577      7574      7577      7578
      7574      7577      7579      7574      7577      7583      7578      7577      7579
      7578      7577      7583      7579      7577      7583      7577      7579      7580
      7577      7579      7581      7577      7579      7582      7580      7579      7581
      7580      7579      7582      7581      7579      7582      7577      7583      7584
      7577      7583      7585      7577      7583      7586      7584      7583      7585
      7584      7583      7586      7585      7583      7586      7588      7587      7589
      7588      7587      7591      7588      7587      7633      7589      7587      7591
      7589      7587      7633      7591      7587      7633      7587      7589      7590
      7587      7591      7592      7587      7591      7593      7587      7591      7594
      7592      7591      7593      7592      7591      7594      7593      7591      7594
      7591      7594      7595      7591      7594      7625      7595      7594      7625
      7594      7595      7596      7594      7595      7597      7596      7595      7597
      7595      7597      7598      7595      7597      7599      7595      7597      7600
      7598      7597      7599      7598      7597      7600      7599      7597      7600
      7597      7600      7601      7597      7600      7602      7597      7600      7623
      7601      7600      7602      7601      7600      7623      7602      7600      7623
      7600      7602      7603      7600      7602      7604      7600      7602      7612
      7603      7602      7604      7603      7602      7612      7604      7602      7612
      7602      7604      7605      7602      7604      7606      7602      7604      7607
      7605      7604      7606      7605      7604      7607      7606      7604      7607
      7604      7607      7608      7604      7607      7609      7604      7607      7610
      7608      7607      7609      7608      7607      7610      7609      7607      7610
      7607      7610      7611      7607      7610      7612      7607      7610      7636
      7611      7610      7612      7611      7610      7636      7612      7610      7636
      7602      7612      7610      7602      7612      7613      7602      7612      7617
      7610      7612      7613      7610      7612      7617      7613      7612      7617
      7612      7613      7614      7612      7613      7615      7612      7613      7616
      7614      7613      7615      7614      7613      7616      7615      7613      7616
      7612      7617      7618      7612      7617      7619      7612      7617      7620
      7618      7617      7619      7618      7617      7620      7619      7617      7620
      7617      7620      7621      7617      7620      7622      7617      7620      7623
      7621      7620      7622      7621      7620      7623      7622      7620      7623
      7600      7623      7620      7600      7623      7624      7600      7623      7625
      7620      7623      7624      7620      7623      7625      7624      7623      7625
      7594      7625      7623      7594      7625      7626      7594      7625      7630
      7623      7625      7626      7623      7625      7630      7626      7625      7630
      7625      7626      7627      7625      7626      7628      7625      7626      7629
      7627      7626      7628      7627      7626      7629      7628      7626      7629
      7625      7630      7631      7625      7630      7632      7625      7630      7633
      7631      7630      7632      7631      7630      7633      7632      7630      7633
      7587      7633      7630      7587      7633      7634      7587      7633      7635
      7630      7633      7634      7630      7633      7635      7634      7633      7635
      7610      7636      7637      7610      7636      7638      7610      7636      7642
      7637      7636      7638      7637      7636      7642      7638      7636      7642
      7636      7638      7639      7636      7638      7640      7636      7638      7641
      7639      7638      7640      7639      7638      7641      7640      7638      7641
      7636      7642      7643      7636      7642      7644      7636      7642      7645
      7643      7642      7644      7643      7642      7645      7644      7642      7645
      7642      7645      7646      7642      7645      7647      7642      7645      7648
      7646      7645      7647      7646      7645      7648      7647      7645      7648
      7645      7648      7649      7645      7648      7650      7645      7648      7651
      7649      7648      7650      7649      7648      7651      7650      7648      7651
      7648      7651      7652      7648      7651      7653      7648      7651      7657
      7652      7651      7653      7652      7651      7657      7653      7651      7657
      7651      7653      7654      7651      7653      7655      7651      7653      7656
      7654      7653      7655      7654      7653      7656      7655      7653      7656
      7651      7657      7658      7651      7657      7659      7651      7657      7660
      7658      7657      7659      7658      7657      7660      7659      7657      7660
     21218     21217     21222     21218     21217     21226     21218     21217     21230
     21222     21217     21226     21222     21217     21230     21226     21217     21230
     21217     21218     21219     21217     21218     21220     21217     21218     21221
     21219     21218     21220     21219     21218     21221     21220     21218     21221
     21217     21222     21223     21217     21222     21224     21217     21222     21225
     21223     21222     21224     21223     21222     21225     21224     21222     21225
     21217     21226     21227     21217     21226     21228     21217     21226     21229
     21227     21226     21228     21227     21226     21229     21228     21226     21229
     21217     21230     21231     21217     21230     21232     21217     21230     21233
     21231     21230     21232     21231     21230     21233     21232     21230     21233
     21230     21233     21234     21230     21233     21235     21230     21233     21239
     21234     21233     21235     21234     21233     21239     21235     21233     21239
     21237     21236     21238     21237     21236     21239     21237     21236     21240
     21238     21236     21239     21238     21236     21240     21239     21236     21240
     21233     21239     21236     21236     21240     21241     21240     21241     21242
     21240     21241     21243     21240     21241     21244     21242     21241     21243
     21242     21241     21244     21243     21241     21244     21241     21244     21245
     21241     21244     21246     21241     21244     21252     21245     21244     21246
     21245     21244     21252     21246     21244     21252     21244     21246     21247
     21246     21247     21248     21246     21247     21249     21248     21247     21249
     21247     21249     21250     21247     21249     21251     21247     21249     21261
     21250     21249     21251     21250     21249     21261     21251     21249     21261
     21244     21252     21253     21244     21252     21254     21244     21252     21255
     21253     21252     21254     21253     21252     21255     21254     21252     21255
     21252     21255     21256     21255     21256     21257     21255     21256     21258
     21257     21256     21258     21256     21258     21259     21256     21258     21260
     21256     21258     21306     21259     21258     21260     21259     21258     21306
     21260     21258     21306     21249     21261     21262     21249     21261     21263
     21249     21261     21264     21262     21261     21263     21262     21261     21264
     21263     21261     21264     21261     21264     21265     21261     21264     21266
     21261     21264     21267     21265     21264     21266     21265     21264     21267
     21266     21264     21267     21264     21267     21268     21264     21267     21269
     21264     21267     21270     21268     21267     21269     21268     21267     21270
     21269     21267     21270     21267     21270     21271     21267     21270     21272
     21267     21270     21273     21271     21270     21272     21271     21270     21273
     21272     21270     21273     21270     21273     21274     21270     21273     21275
     21270     21273     21276     21274     21273     21275     21274     21273     21276
     21275     21273     21276     21273     21276     21277     21273     21276     21278
     21273     21276     21279     21277     21276     21278     21277     21276     21279
     21278     21276     21279     21276     21279     21280     21276     21279     21281
     21280     21279     21281     21279     21281     21282     21279     21281     21283
     21282     21281     21283     21281     21283     21284     21281     21283     21285
     21281     21283     21286     21284     21283     21285     21284     21283     21286
     21285     21283     21286     21283     21286     21287     21283     21286     21288
     21287     21286     21288     21286     21288     21289     21286     21288     21290
     21289     21288     21290     21288     21290     21291     21288     21290     21292
     21288     21290     21293     21291     21290     21292     21291     21290     21293
     21292     21290     21293     21290     21293     21294     21290     21293     21295
     21290     21293     21296     21294     21293     21295     21294     21293     21296
     21295     21293     21296     21293     21296     21297     21293     21296     21298
     21293     21296     21299     21297     21296     21298     21297     21296     21299
     21298     21296     21299     21296     21299     21300     21296     21299     21301
     21296     21299     21302     21300     21299     21301     21300     21299     21302
     21301     21299     21302     21299     21302     21303     21299     21302     21304
     21299     21302     21305     21303     21302     21304     21303     21302     21305
     21304     21302     21305     21258     21306     21307     21258     21306     21308
     21258     21306     21309     21307     21306     21308     21307     21306     21309
     21308     21306     21309     21306     21309     21310     21306     21309     21311
     21306     21309     21312     21310     21309     21311     21310     21309     21312
     21311     21309     21312     21309     21312     21313     21309     21312     21314
     21309     21312     21315     21313     21312     21314     21313     21312     21315
     21314     21312     21315     21312     21315     21316     21312     21315     21317
     21312     21315     21318     21316     21315     21317     21316     21315     21318
     21317     21315     21318     21315     21318     21319     21315     21318     21320
     21315     21318     21321     21319     21318     21320     21319     21318     21321
     21320     21318     21321     21318     21321     21322     21318     21321     21323
     21318     21321     21324     21322     21321     21323     21322     21321     21324
     21323     21321     21324     21321     21324     21325     21321     21324     21326
     21321     21324     21327     21325     21324     21326     21325     21324     21327
     21326     21324     21327     21324     21327     21328     21324     21327     21329
     21324     21327     21330     21328     21327     21329     21328     21327     21330
     21329     21327     21330     21327     21330     21331     21327     21330     21332
     21327     21330     21333     21331     21330     21332     21331     21330     21333
     21332     21330     21333     21330     21333     21334     21330     21333     21335
     21330     21333     21336     21334     21333     21335     21334     21333     21336
     21335     21333     21336     21333     21336     21337     21333     21336     21338
     21333     21336     21339     21337     21336     21338     21337     21336     21339
     21338     21336     21339     21336     21339     21340     21336     21339     21341
     21336     21339     21342     21340     21339     21341     21340     21339     21342
     21341     21339     21342     21339     21342     21343     21339     21342     21344
     21339     21342     21345     21343     21342     21344     21343     21342     21345
     21344     21342     21345     21342     21345     21346     21342     21345     21347
     21342     21345     21348     21346     21345     21347     21346     21345     21348
     21347     21345     21348     21345     21348     21349     21345     21348     21350
     21345     21348     21351     21349     21348     21350     21349     21348     21351
     21350     21348     21351     21348     21351     21352     21348     21351     21353
     21348     21351     21354     21352     21351     21353     21352     21351     21354
     21353     21351     21354      7662      7661      7663      7662      7661      7665
      7662      7661      7707      7663      7661      7665      7663      7661      7707
      7665      7661      7707      7661      7663      7664      7661      7665      7666
      7661      7665      7667      7661      7665      7668      7666      7665      7667
      7666      7665      7668      7667      7665      7668      7665      7668      7669
      7665      7668      7699      7669      7668      7699      7668      7669      7670
      7668      7669      7671      7670      7669      7671      7669      7671      7672
      7669      7671      7673      7669      7671      7674      7672      7671      7673
      7672      7671      7674      7673      7671      7674      7671      7674      7675
      7671      7674      7676      7671      7674      7697      7675      7674      7676
      7675      7674      7697      7676      7674      7697      7674      7676      7677
      7674      7676      7678      7674      7676      7686      7677      7676      7678
      7677      7676      7686      7678      7676      7686      7676      7678      7679
      7676      7678      7680      7676      7678      7681      7679      7678      7680
      7679      7678      7681      7680      7678      7681      7678      7681      7682
      7678      7681      7683      7678      7681      7684      7682      7681      7683
      7682      7681      7684      7683      7681      7684      7681      7684      7685
      7681      7684      7686      7681      7684      7710      7685      7684      7686
      7685      7684      7710      7686      7684      7710      7676      7686      7684
      7676      7686      7687      7676      7686      7691      7684      7686      7687
      7684      7686      7691      7687      7686      7691      7686      7687      7688
      7686      7687      7689      7686      7687      7690      7688      7687      7689
      7688      7687      7690      7689      7687      7690      7686      7691      7692
      7686      7691      7693      7686      7691      7694      7692      7691      7693
      7692      7691      7694      7693      7691      7694      7691      7694      7695
      7691      7694      7696      7691      7694      7697      7695      7694      7696
      7695      7694      7697      7696      7694      7697      7674      7697      7694
      7674      7697      7698      7674      7697      7699      7694      7697      7698
      7694      7697      7699      7698      7697      7699      7668      7699      7697
      7668      7699      7700      7668      7699      7704      7697      7699      7700
      7697      7699      7704      7700      7699      7704      7699      7700      7701
      7699      7700      7702      7699      7700      7703      7701      7700      7702
      7701      7700      7703      7702      7700      7703      7699      7704      7705
      7699      7704      7706      7699      7704      7707      7705      7704      7706
      7705      7704      7707      7706      7704      7707      7661      7707      7704
      7661      7707      7708      7661      7707      7709      7704      7707      7708
      7704      7707      7709      7708      7707      7709      7684      7710      7711
      7684      7710      7712      7684      7710      7716      7711      7710      7712
      7711      7710      7716      7712      7710      7716      7710      7712      7713
      7710      7712      7714      7710      7712      7715      7713      7712      7714
      7713      7712      7715      7714      7712      7715      7710      7716      7717
      7710      7716      7718      7710      7716      7719      7717      7716      7718
      7717      7716      7719      7718      7716      7719      7716      7719      7720
      7716      7719      7721      7716      7719      7722      7720      7719      7721
      7720      7719      7722      7721      7719      7722      7719      7722      7723
      7719      7722      7724      7719      7722      7725      7723      7722      7724
      7723      7722      7725      7724      7722      7725      7722      7725      7726
      7722      7725      7727      7722      7725      7731      7726      7725      7727
      7726      7725      7731      7727      7725      7731      7725      7727      7728
      7725      7727      7729      7725      7727      7730      7728      7727      7729
      7728      7727      7730      7729      7727      7730      7725      7731      7732
      7725      7731      7733      7725      7731      7734      7732      7731      7733
      7732      7731      7734      7733      7731      7734     16529     16528     16530
     16529     16528     16531     16529     16528     16532     16530     16528     16531
     16530     16528     16532     16531     16528     16532     16528     16532     16533
     16528     16532     16534     16528     16532     16535     16533     16532     16534
     16533     16532     16535     16534     16532     16535     16532     16535     16536
     16532     16535     16537     16532     16535     16541     16536     16535     16537
     16536     16535     16541     16537     16535     16541     16539     16538     16540
     16539     16538     16541     16539     16538     16542     16540     16538     16541
     16540     16538     16542     16541     16538     16542     16535     16541     16538
     16538     16542     16543     16542     16543     16544     16542     16543     16545
     16542     16543     16546     16544     16543     16545     16544     16543     16546
     16545     16543     16546     16543     16546     16547     16543     16546     16548
     16543     16546     16554     16547     16546     16548     16547     16546     16554
     16548     16546     16554     16546     16548     16549     16548     16549     16550
     16548     16549     16551     16550     16549     16551     16549     16551     16552
     16549     16551     16553     16549     16551     16563     16552     16551     16553
     16552     16551     16563     16553     16551     16563     16546     16554     16555
     16546     16554     16556     16546     16554     16557     16555     16554     16556
     16555     16554     16557     16556     16554     16557     16554     16557     16558
     16557     16558     16559     16557     16558     16560     16559     16558     16560
     16558     16560     16561     16558     16560     16562     16558     16560     16610
     16561     16560     16562     16561     16560     16610     16562     16560     16610
     16551     16563     16564     16551     16563     16565     16551     16563     16566
     16564     16563     16565     16564     16563     16566     16565     16563     16566
     16563     16566     16567     16563     16566     16568     16563     16566     16569
     16567     16566     16568     16567     16566     16569     16568     16566     16569
     16566     16569     16570     16566     16569     16571     16570     16569     16571
     16569     16571     16572     16569     16571     16573     16572     16571     16573
     16571     16573     16574     16571     16573     16575     16571     16573     16576
     16574     16573     16575     16574     16573     16576     16575     16573     16576
     16573     16576     16577     16573     16576     16578     16577     16576     16578
     16576     16578     16579     16576     16578     16580     16579     16578     16580
     16578     16580     16581     16578     16580     16582     16578     16580     16583
     16581     16580     16582     16581     16580     16583     16582     16580     16583
     16580     16583     16584     16580     16583     16585     16584     16583     16585
     16583     16585     16586     16583     16585     16587     16586     16585     16587
     16585     16587     16588     16585     16587     16589     16585     16587     16590
     16588     16587     16589     16588     16587     16590     16589     16587     16590
     16587     16590     16591     16587     16590     16592     16591     16590     16592
     16590     16592     16593     16590     16592     16594     16593     16592     16594
     16592     16594     16595     16592     16594     16596     16592     16594     16597
     16595     16594     16596     16595     16594     16597     16596     16594     16597
     16594     16597     16598     16594     16597     16599     16594     16597     16600
     16598     16597     16599     16598     16597     16600     16599     16597     16600
     16597     16600     16601     16597     16600     16602     16597     16600     16603
     16601     16600     16602     16601     16600     16603     16602     16600     16603
     16600     16603     16604     16600     16603     16605     16600     16603     16606
     16604     16603     16605     16604     16603     16606     16605     16603     16606
     16603     16606     16607     16603     16606     16608     16603     16606     16609
     16607     16606     16608     16607     16606     16609     16608     16606     16609
     16560     16610     16611     16560     16610     16612     16560     16610     16613
     16611     16610     16612     16611     16610     16613     16612     16610     16613
     16610     16613     16614     16610     16613     16615     16610     16613     16616
     16614     16613     16615     16614     16613     16616     16615     16613     16616
     16613     16616     16617     16613     16616     16618     16613     16616     16619
     16617     16616     16618     16617     16616     16619     16618     16616     16619
     16616     16619     16620     16616     16619     16621     16616     16619     16622
     16620     16619     16621     16620     16619     16622     16621     16619     16622
     16619     16622     16623     16619     16622     16624     16619     16622     16625
     16623     16622     16624     16623     16622     16625     16624     16622     16625
     16622     16625     16626     16622     16625     16627     16622     16625     16628
     16626     16625     16627     16626     16625     16628     16627     16625     16628
     16625     16628     16629     16625     16628     16630     16625     16628     16631
     16629     16628     16630     16629     16628     16631     16630     16628     16631
     16628     16631     16632     16628     16631     16633     16628     16631     16634
     16632     16631     16633     16632     16631     16634     16633     16631     16634
     16631     16634     16635     16631     16634     16636     16631     16634     16637
     16635     16634     16636     16635     16634     16637     16636     16634     16637
     16634     16637     16638     16634     16637     16639     16634     16637     16640
     16638     16637     16639     16638     16637     16640     16639     16637     16640
     16637     16640     16641     16637     16640     16642     16637     16640     16643
     16641     16640     16642     16641     16640     16643     16642     16640     16643
     16640     16643     16644     16640     16643     16645     16640     16643     16646
     16644     16643     16645     16644     16643     16646     16645     16643     16646
     16643     16646     16647     16643     16646     16648     16643     16646     16649
     16647     16646     16648     16647     16646     16649     16648     16646     16649
     16646     16649     16650     16646     16649     16651     16646     16649     16652
     16650     16649     16651     16650     16649     16652     16651     16649     16652
     16649     16652     16653     16649     16652     16654     16649     16652     16655
     16653     16652     16654     16653     16652     16655     16654     16652     16655
     16652     16655     16656     16652     16655     16657     16652     16655     16658
     16656     16655     16657     16656     16655     16658     16657     16655     16658
     18756     18755     18757     18756     18755     18758     18756     18755     18759
     18757     18755     18758     18757     18755     18759     18758     18755     18759
     18755     18759     18760     18755     18759     18761     18755     18759     18762
     18760     18759     18761     18760     18759     18762     18761     18759     18762
     18759     18762     18763     18759     18762     18764     18759     18762     18768
     18763     18762     18764     18763     18762     18768     18764     18762     18768
     18766     18765     18767     18766     18765     18768     18766     18765     18769
     18767     18765     18768     18767     18765     18769     18768     18765     18769
     18762     18768     18765     18765     18769     18770     18769     18770     18771
     18769     18770     18772     18769     18770     18773     18771     18770     18772
     18771     18770     18773     18772     18770     18773     18770     18773     18774
     18770     18773     18775     18770     18773     18781     18774     18773     18775
     18774     18773     18781     18775     18773     18781     18773     18775     18776
     18775     18776     18777     18775     18776     18778     18777     18776     18778
     18776     18778     18779     18776     18778     18780     18776     18778     18790
     18779     18778     18780     18779     18778     18790     18780     18778     18790
     18773     18781     18782     18773     18781     18783     18773     18781     18784
     18782     18781     18783     18782     18781     18784     18783     18781     18784
     18781     18784     18785     18784     18785     18786     18784     18785     18787
     18786     18785     18787     18785     18787     18788     18785     18787     18789
     18785     18787     18837     18788     18787     18789     18788     18787     18837
     18789     18787     18837     18778     18790     18791     18778     18790     18792
     18778     18790     18793     18791     18790     18792     18791     18790     18793
     18792     18790     18793     18790     18793     18794     18790     18793     18795
     18790     18793     18796     18794     18793     18795     18794     18793     18796
     18795     18793     18796     18793     18796     18797     18793     18796     18798
     18793     18796     18799     18797     18796     18798     18797     18796     18799
     18798     18796     18799     18796     18799     18800     18796     18799     18801
     18796     18799     18802     18800     18799     18801     18800     18799     18802
     18801     18799     18802     18799     18802     18803     18799     18802     18804
     18799     18802     18805     18803     18802     18804     18803     18802     18805
     18804     18802     18805     18802     18805     18806     18802     18805     18807
     18802     18805     18808     18806     18805     18807     18806     18805     18808
     18807     18805     18808     18805     18808     18809     18805     18808     18810
     18809     18808     18810     18808     18810     18811     18808     18810     18812
     18811     18810     18812     18810     18812     18813     18810     18812     18814
     18810     18812     18815     18813     18812     18814     18813     18812     18815
     18814     18812     18815     18812     18815     18816     18812     18815     18817
     18812     18815     18818     18816     18815     18817     18816     18815     18818
     18817     18815     18818     18815     18818     18819     18815     18818     18820
     18815     18818     18821     18819     18818     18820     18819     18818     18821
     18820     18818     18821     18818     18821     18822     18818     18821     18823
     18818     18821     18824     18822     18821     18823     18822     18821     18824
     18823     18821     18824     18821     18824     18825     18821     18824     18826
     18821     18824     18827     18825     18824     18826     18825     18824     18827
     18826     18824     18827     18824     18827     18828     18824     18827     18829
     18824     18827     18830     18828     18827     18829     18828     18827     18830
     18829     18827     18830     18827     18830     18831     18827     18830     18832
     18827     18830     18833     18831     18830     18832     18831     18830     18833
     18832     18830     18833     18830     18833     18834     18830     18833     18835
     18830     18833     18836     18834     18833     18835     18834     18833     18836
     18835     18833     18836     18787     18837     18838     18787     18837     18839
     18787     18837     18840     18838     18837     18839     18838     18837     18840
     18839     18837     18840     18837     18840     18841     18837     18840     18842
     18837     18840     18843     18841     18840     18842     18841     18840     18843
     18842     18840     18843     18840     18843     18844     18840     18843     18845
     18840     18843     18846     18844     18843     18845     18844     18843     18846
     18845     18843     18846     18843     18846     18847     18843     18846     18848
     18843     18846     18849     18847     18846     18848     18847     18846     18849
     18848     18846     18849     18846     18849     18850     18846     18849     18851
     18846     18849     18852     18850     18849     18851     18850     18849     18852
     18851     18849     18852     18849     18852     18853     18849     18852     18854
     18849     18852     18855     18853     18852     18854     18853     18852     18855
     18854     18852     18855     18852     18855     18856     18852     18855     18857
     18852     18855     18858     18856     18855     18857     18856     18855     18858
     18857     18855     18858     18855     18858     18859     18855     18858     18860
     18855     18858     18861     18859     18858     18860     18859     18858     18861
     18860     18858     18861     18858     18861     18862     18858     18861     18863
     18858     18861     18864     18862     18861     18863     18862     18861     18864
     18863     18861     18864     18861     18864     18865     18861     18864     18866
     18861     18864     18867     18865     18864     18866     18865     18864     18867
     18866     18864     18867     18864     18867     18868     18864     18867     18869
     18864     18867     18870     18868     18867     18869     18868     18867     18870
     18869     18867     18870     18867     18870     18871     18867     18870     18872
     18867     18870     18873     18871     18870     18872     18871     18870     18873
     18872     18870     18873     18870     18873     18874     18870     18873     18875
     18870     18873     18876     18874     18873     18875     18874     18873     18876
     18875     18873     18876     18873     18876     18877     18873     18876     18878
     18873     18876     18879     18877     18876     18878     18877     18876     18879
     18878     18876     18879     18876     18879     18880     18876     18879     18881
     18876     18879     18882     18880     18879     18881     18880     18879     18882
     18881     18879     18882     18879     18882     18883     18879     18882     18884
     18879     18882     18885     18883     18882     18884     18883     18882     18885
     18884     18882     18885      7736      7735      7737      7736      7735      7739
      7736      7735      7781      7737      7735      7739      7737      7735      7781
      7739      7735      7781      7735      7737      7738      7735      7739      7740
      7735      7739      7741      7735      7739      7742      7740      7739      7741
      7740      7739      7742      7741      7739      7742      7739      7742      7743
      7739      7742      7773      7743      7742      7773      7742      7743      7744
      7742      7743      7745      7744      7743      7745      7743      7745      7746
      7743      7745      7747      7743      7745      7748      7746      7745      7747
      7746      7745      7748      7747      7745      7748      7745      7748      7749
      7745      7748      7750      7745      7748      7771      7749      7748      7750
      7749      7748      7771      7750      7748      7771      7748      7750      7751
      7748      7750      7752      7748      7750      7760      7751      7750      7752
      7751      7750      7760      7752      7750      7760      7750      7752      7753
      7750      7752      7754      7750      7752      7755      7753      7752      7754
      7753      7752      7755      7754      7752      7755      7752      7755      7756
      7752      7755      7757      7752      7755      7758      7756      7755      7757
      7756      7755      7758      7757      7755      7758      7755      7758      7759
      7755      7758      7760      7755      7758      7784      7759      7758      7760
      7759      7758      7784      7760      7758      7784      7750      7760      7758
      7750      7760      7761      7750      7760      7765      7758      7760      7761
      7758      7760      7765      7761      7760      7765      7760      7761      7762
      7760      7761      7763      7760      7761      7764      7762      7761      7763
      7762      7761      7764      7763      7761      7764      7760      7765      7766
      7760      7765      7767      7760      7765      7768      7766      7765      7767
      7766      7765      7768      7767      7765      7768      7765      7768      7769
      7765      7768      7770      7765      7768      7771      7769      7768      7770
      7769      7768      7771      7770      7768      7771      7748      7771      7768
      7748      7771      7772      7748      7771      7773      7768      7771      7772
      7768      7771      7773      7772      7771      7773      7742      7773      7771
      7742      7773      7774      7742      7773      7778      7771      7773      7774
      7771      7773      7778      7774      7773      7778      7773      7774      7775
      7773      7774      7776      7773      7774      7777      7775      7774      7776
      7775      7774      7777      7776      7774      7777      7773      7778      7779
      7773      7778      7780      7773      7778      7781      7779      7778      7780
      7779      7778      7781      7780      7778      7781      7735      7781      7778
      7735      7781      7782      7735      7781      7783      7778      7781      7782
      7778      7781      7783      7782      7781      7783      7758      7784      7785
      7758      7784      7786      7758      7784      7790      7785      7784      7786
      7785      7784      7790      7786      7784      7790      7784      7786      7787
      7784      7786      7788      7784      7786      7789      7787      7786      7788
      7787      7786      7789      7788      7786      7789      7784      7790      7791
      7784      7790      7792      7784      7790      7793      7791      7790      7792
      7791      7790      7793      7792      7790      7793      7790      7793      7794
      7790      7793      7795      7790      7793      7796      7794      7793      7795
      7794      7793      7796      7795      7793      7796      7793      7796      7797
      7793      7796      7798      7793      7796      7799      7797      7796      7798
      7797      7796      7799      7798      7796      7799      7796      7799      7800
      7796      7799      7801      7796      7799      7805      7800      7799      7801
      7800      7799      7805      7801      7799      7805      7799      7801      7802
      7799      7801      7803      7799      7801      7804      7802      7801      7803
      7802      7801      7804      7803      7801      7804      7799      7805      7806
      7799      7805      7807      7799      7805      7808      7806      7805      7807
      7806      7805      7808      7807      7805      7808     21356     21355     21360
     21356     21355     21364     21356     21355     21368     21360     21355     21364
     21360     21355     21368     21364     21355     21368     21355     21356     21357
     21355     21356     21358     21355     21356     21359     21357     21356     21358
     21357     21356     21359     21358     21356     21359     21355     21360     21361
     21355     21360     21362     21355     21360     21363     21361     21360     21362
     21361     21360     21363     21362     21360     21363     21355     21364     21365
     21355     21364     21366     21355     21364     21367     21365     21364     21366
     21365     21364     21367     21366     21364     21367     21355     21368     21369
     21355     21368     21370     21355     21368     21371     21369     21368     21370
     21369     21368     21371     21370     21368     21371     21368     21371     21372
     21368     21371     21373     21368     21371     21377     21372     21371     21373
     21372     21371     21377     21373     21371     21377     21375     21374     21376
     21375     21374     21377     21375     21374     21378     21376     21374     21377
     21376     21374     21378     21377     21374     21378     21371     21377     21374
     21374     21378     21379     21378     21379     21380     21378     21379     21381
     21378     21379     21382     21380     21379     21381     21380     21379     21382
     21381     21379     21382     21379     21382     21383     21379     21382     21384
     21379     21382     21390     21383     21382     21384     21383     21382     21390
     21384     21382     21390     21382     21384     21385     21384     21385     21386
     21384     21385     21387     21386     21385     21387     21385     21387     21388
     21385     21387     21389     21385     21387     21399     21388     21387     21389
     21388     21387     21399     21389     21387     21399     21382     21390     21391
     21382     21390     21392     21382     21390     21393     21391     21390     21392
     21391     21390     21393     21392     21390     21393     21390     21393     21394
     21393     21394     21395     21393     21394     21396     21395     21394     21396
     21394     21396     21397     21394     21396     21398     21394     21396     21444
     21397     21396     21398     21397     21396     21444     21398     21396     21444
     21387     21399     21400     21387     21399     21401     21387     21399     21402
     21400     21399     21401     21400     21399     21402     21401     21399     21402
     21399     21402     21403     21399     21402     21404     21399     21402     21405
     21403     21402     21404     21403     21402     21405     21404     21402     21405
     21402     21405     21406     21402     21405     21407     21402     21405     21408
     21406     21405     21407     21406     21405     21408     21407     21405     21408
     21405     21408     21409     21405     21408     21410     21405     21408     21411
     21409     21408     21410     21409     21408     21411     21410     21408     21411
     21408     21411     21412     21408     21411     21413     21408     21411     21414
     21412     21411     21413     21412     21411     21414     21413     21411     21414
     21411     21414     21415     21411     21414     21416     21411     21414     21417
     21415     21414     21416     21415     21414     21417     21416     21414     21417
     21414     21417     21418     21414     21417     21419     21418     21417     21419
     21417     21419     21420     21417     21419     21421     21420     21419     21421
     21419     21421     21422     21419     21421     21423     21419     21421     21424
     21422     21421     21423     21422     21421     21424     21423     21421     21424
     21421     21424     21425     21421     21424     21426     21425     21424     21426
     21424     21426     21427     21424     21426     21428     21427     21426     21428
     21426     21428     21429     21426     21428     21430     21426     21428     21431
     21429     21428     21430     21429     21428     21431     21430     21428     21431
     21428     21431     21432     21428     21431     21433     21428     21431     21434
     21432     21431     21433     21432     21431     21434     21433     21431     21434
     21431     21434     21435     21431     21434     21436     21431     21434     21437
     21435     21434     21436     21435     21434     21437     21436     21434     21437
     21434     21437     21438     21434     21437     21439     21434     21437     21440
     21438     21437     21439     21438     21437     21440     21439     21437     21440
     21437     21440     21441     21437     21440     21442     21437     21440     21443
     21441     21440     21442     21441     21440     21443     21442     21440     21443
     21396     21444     21445     21396     21444     21446     21396     21444     21447
     21445     21444     21446     21445     21444     21447     21446     21444     21447
     21444     21447     21448     21444     21447     21449     21444     21447     21450
     21448     21447     21449     21448     21447     21450     21449     21447     21450
     21447     21450     21451     21447     21450     21452     21447     21450     21453
     21451     21450     21452     21451     21450     21453     21452     21450     21453
     21450     21453     21454     21450     21453     21455     21450     21453     21456
     21454     21453     21455     21454     21453     21456     21455     21453     21456
     21453     21456     21457     21453     21456     21458     21453     21456     21459
     21457     21456     21458     21457     21456     21459     21458     21456     21459
     21456     21459     21460     21456     21459     21461     21456     21459     21462
     21460     21459     21461     21460     21459     21462     21461     21459     21462
     21459     21462     21463     21459     21462     21464     21459     21462     21465
     21463     21462     21464     21463     21462     21465     21464     21462     21465
     21462     21465     21466     21462     21465     21467     21462     21465     21468
     21466     21465     21467     21466     21465     21468     21467     21465     21468
     21465     21468     21469     21465     21468     21470     21465     21468     21471
     21469     21468     21470     21469     21468     21471     21470     21468     21471
     21468     21471     21472     21468     21471     21473     21468     21471     21474
     21472     21471     21473     21472     21471     21474     21473     21471     21474
     21471     21474     21475     21471     21474     21476     21471     21474     21477
     21475     21474     21476     21475     21474     21477     21476     21474     21477
     21474     21477     21478     21474     21477     21479     21474     21477     21480
     21478     21477     21479     21478     21477     21480     21479     21477     21480
     21477     21480     21481     21477     21480     21482     21477     21480     21483
     21481     21480     21482     21481     21480     21483     21482     21480     21483
     21480     21483     21484     21480     21483     21485     21480     21483     21486
     21484     21483     21485     21484     21483     21486     21485     21483     21486
     21483     21486     21487     21483     21486     21488     21483     21486     21489
     21487     21486     21488     21487     21486     21489     21488     21486     21489
     21486     21489     21490     21486     21489     21491     21486     21489     21492
     21490     21489     21491     21490     21489     21492     21491     21489     21492
      7810      7809      7811      7810      7809      7813      7810      7809      7855
      7811      7809      7813      7811      7809      7855      7813      7809      7855
      7809      7811      7812      7809      7813      7814      7809      7813      7815
      7809      7813      7816      7814      7813      7815      7814      7813      7816
      7815      7813      7816      7813      7816      7817      7813      7816      7847
      7817      7816      7847      7816      7817      7818      7816      7817      7819
      7818      7817      7819      7817      7819      7820      7817      7819      7821
      7817      7819      7822      7820      7819      7821      7820      7819      7822
      7821      7819      7822      7819      7822      7823      7819      7822      7824
      7819      7822      7845      7823      7822      7824      7823      7822      7845
      7824      7822      7845      7822      7824      7825      7822      7824      7826
      7822      7824      7834      7825      7824      7826      7825      7824      7834
      7826      7824      7834      7824      7826      7827      7824      7826      7828
      7824      7826      7829      7827      7826      7828      7827      7826      7829
      7828      7826      7829      7826      7829      7830      7826      7829      7831
      7826      7829      7832      7830      7829      7831      7830      7829      7832
      7831      7829      7832      7829      7832      7833      7829      7832      7834
      7829      7832      7858      7833      7832      7834      7833      7832      7858
      7834      7832      7858      7824      7834      7832      7824      7834      7835
      7824      7834      7839      7832      7834      7835      7832      7834      7839
      7835      7834      7839      7834      7835      7836      7834      7835      7837
      7834      7835      7838      7836      7835      7837      7836      7835      7838
      7837      7835      7838      7834      7839      7840      7834      7839      7841
      7834      7839      7842      7840      7839      7841      7840      7839      7842
      7841      7839      7842      7839      7842      7843      7839      7842      7844
      7839      7842      7845      7843      7842      7844      7843      7842      7845
      7844      7842      7845      7822      7845      7842      7822      7845      7846
      7822      7845      7847      7842      7845      7846      7842      7845      7847
      7846      7845      7847      7816      7847      7845      7816      7847      7848
      7816      7847      7852      7845      7847      7848      7845      7847      7852
      7848      7847      7852      7847      7848      7849      7847      7848      7850
      7847      7848      7851      7849      7848      7850      7849      7848      7851
      7850      7848      7851      7847      7852      7853      7847      7852      7854
      7847      7852      7855      7853      7852      7854      7853      7852      7855
      7854      7852      7855      7809      7855      7852      7809      7855      7856
      7809      7855      7857      7852      7855      7856      7852      7855      7857
      7856      7855      7857      7832      7858      7859      7832      7858      7860
      7832      7858      7864      7859      7858      7860      7859      7858      7864
      7860      7858      7864      7858      7860      7861      7858      7860      7862
      7858      7860      7863      7861      7860      7862      7861      7860      7863
      7862      7860      7863      7858      7864      7865      7858      7864      7866
      7858      7864      7867      7865      7864      7866      7865      7864      7867
      7866      7864      7867      7864      7867      7868      7864      7867      7869
      7864      7867      7870      7868      7867      7869      7868      7867      7870
      7869      7867      7870      7867      7870      7871      7867      7870      7872
      7867      7870      7873      7871      7870      7872      7871      7870      7873
      7872      7870      7873      7870      7873      7874      7870      7873      7875
      7870      7873      7879      7874      7873      7875      7874      7873      7879
      7875      7873      7879      7873      7875      7876      7873      7875      7877
      7873      7875      7878      7876      7875      7877      7876      7875      7878
      7877      7875      7878      7873      7879      7880      7873      7879      7881
      7873      7879      7882      7880      7879      7881      7880      7879      7882
      7881      7879      7882     12075     12074     12079     12075     12074     12083
     12075     12074     12087     12079     12074     12083     12079     12074     12087
     12083     12074     12087     12074     12075     12076     12074     12075     12077
     12074     12075     12078     12076     12075     12077     12076     12075     12078
     12077     12075     12078     12074     12079     12080     12074     12079     12081
     12074     12079     12082     12080     12079     12081     12080     12079     12082
     12081     12079     12082     12074     12083     12084     12074     12083     12085
     12074     12083     12086     12084     12083     12085     12084     12083     12086
     12085     12083     12086     12074     12087     12088     12074     12087     12089
     12074     12087     12090     12088     12087     12089     12088     12087     12090
     12089     12087     12090     12087     12090     12091     12087     12090     12092
     12087     12090     12097     12091     12090     12092     12091     12090     12097
     12092     12090     12097     12094     12093     12095     12094     12093     12096
     12094     12093     12097     12095     12093     12096     12095     12093     12097
     12096     12093     12097     12093     12096     12098     12090     12097     12093
     12096     12098     12099     12096     12098     12100     12096     12098     12103
     12099     12098     12100     12099     12098     12103     12100     12098     12103
     12102     12101     12103     12102     12101     12153     12103     12101     12153
     12098     12103     12101     12098     12103     12104     12098     12103     12105
     12101     12103     12104     12101     12103     12105     12104     12103     12105
     12103     12105     12106     12103     12105     12107     12103     12105     12109
     12106     12105     12107     12106     12105     12109     12107     12105     12109
     12105     12107     12108     12105     12109     12110     12105     12109     12111
     12110     12109     12111     12109     12111     12112     12109     12111     12113
     12112     12111     12113     12111     12113     12114     12111     12113     12115
     12111     12113     12116     12114     12113     12115     12114     12113     12116
     12115     12113     12116     12113     12116     12117     12113     12116     12118
     12113     12116     12119     12117     12116     12118     12117     12116     12119
     12118     12116     12119     12116     12119     12120     12116     12119     12121
     12116     12119     12122     12120     12119     12121     12120     12119     12122
     12121     12119     12122     12119     12122     12123     12119     12122     12124
     12119     12122     12125     12123     12122     12124     12123     12122     12125
     12124     12122     12125     12122     12125     12126     12122     12125     12127
     12122     12125     12128     12126     12125     12127     12126     12125     12128
     12127     12125     12128     12125     12128     12129     12125     12128     12130
     12125     12128     12131     12129     12128     12130     12129     12128     12131
     12130     12128     12131     12128     12131     12132     12128     12131     12133
     12128     12131     12134     12132     12131     12133     12132     12131     12134
     12133     12131     12134     12131     12134     12135     12131     12134     12136
     12131     12134     12137     12135     12134     12136     12135     12134     12137
     12136     12134     12137     12134     12137     12138     12134     12137     12139
     12134     12137     12140     12138     12137     12139     12138     12137     12140
     12139     12137     12140     12137     12140     12141     12137     12140     12142
     12137     12140     12143     12141     12140     12142     12141     12140     12143
     12142     12140     12143     12140     12143     12144     12140     12143     12145
     12140     12143     12146     12144     12143     12145     12144     12143     12146
     12145     12143     12146     12143     12146     12147     12143     12146     12148
     12143     12146     12149     12147     12146     12148     12147     12146     12149
     12148     12146     12149     12146     12149     12150     12146     12149     12151
     12146     12149     12152     12150     12149     12151     12150     12149     12152
     12151     12149     12152     12101     12153     12154     12101     12153     12155
     12154     12153     12155     12153     12155     12156     12153     12155     12157
     12153     12155     12158     12156     12155     12157     12156     12155     12158
     12157     12155     12158     12155     12158     12159     12155     12158     12160
     12155     12158     12161     12159     12158     12160     12159     12158     12161
     12160     12158     12161     12158     12161     12162     12158     12161     12163
     12158     12161     12164     12162     12161     12163     12162     12161     12164
     12163     12161     12164     12161     12164     12165     12161     12164     12166
     12161     12164     12167     12165     12164     12166     12165     12164     12167
     12166     12164     12167     12164     12167     12168     12164     12167     12169
     12164     12167     12170     12168     12167     12169     12168     12167     12170
     12169     12167     12170     12167     12170     12171     12167     12170     12172
     12167     12170     12173     12171     12170     12172     12171     12170     12173
     12172     12170     12173     12170     12173     12174     12170     12173     12175
     12170     12173     12176     12174     12173     12175     12174     12173     12176
     12175     12173     12176     12173     12176     12177     12173     12176     12178
     12177     12176     12178     12176     12178     12179     12176     12178     12180
     12179     12178     12180     12178     12180     12181     12178     12180     12182
     12178     12180     12183     12181     12180     12182     12181     12180     12183
     12182     12180     12183     12180     12183     12184     12180     12183     12185
     12180     12183     12186     12184     12183     12185     12184     12183     12186
     12185     12183     12186     12183     12186     12187     12183     12186     12188
     12183     12186     12189     12187     12186     12188     12187     12186     12189
     12188     12186     12189     12186     12189     12190     12186     12189     12191
     12186     12189     12192     12190     12189     12191     12190     12189     12192
     12191     12189     12192     12189     12192     12193     12189     12192     12194
     12189     12192     12195     12193     12192     12194     12193     12192     12195
     12194     12192     12195     12192     12195     12196     12192     12195     12197
     12192     12195     12198     12196     12195     12197     12196     12195     12198
     12197     12195     12198     12195     12198     12199     12195     12198     12200
     12195     12198     12201     12199     12198     12200     12199     12198     12201
     12200     12198     12201     12198     12201     12202     12198     12201     12203
     12198     12201     12204     12202     12201     12203     12202     12201     12204
     12203     12201     12204     12206     12205     12210     12206     12205     12214
     12206     12205     12218     12210     12205     12214     12210     12205     12218
     12214     12205     12218     12205     12206     12207     12205     12206     12208
     12205     12206     12209     12207     12206     12208     12207     12206     12209
     12208     12206     12209     12205     12210     12211     12205     12210     12212
     12205     12210     12213     12211     12210     12212     12211     12210     12213
     12212     12210     12213     12205     12214     12215     12205     12214     12216
     12205     12214     12217     12215     12214     12216     12215     12214     12217
     12216     12214     12217     12205     12218     12219     12205     12218     12220
     12205     12218     12221     12219     12218     12220     12219     12218     12221
     12220     12218     12221     12218     12221     12222     12218     12221     12223
     12218     12221     12228     12222     12221     12223     12222     12221     12228
     12223     12221     12228     12225     12224     12226     12225     12224     12227
     12225     12224     12228     12226     12224     12227     12226     12224     12228
     12227     12224     12228     12224     12227     12229     12221     12228     12224
     12227     12229     12230     12227     12229     12231     12227     12229     12234
     12230     12229     12231     12230     12229     12234     12231     12229     12234
     12233     12232     12234     12233     12232     12284     12234     12232     12284
     12229     12234     12232     12229     12234     12235     12229     12234     12236
     12232     12234     12235     12232     12234     12236     12235     12234     12236
     12234     12236     12237     12234     12236     12238     12234     12236     12240
     12237     12236     12238     12237     12236     12240     12238     12236     12240
     12236     12238     12239     12236     12240     12241     12236     12240     12242
     12241     12240     12242     12240     12242     12243     12240     12242     12244
     12243     12242     12244     12242     12244     12245     12242     12244     12246
     12242     12244     12247     12245     12244     12246     12245     12244     12247
     12246     12244     12247     12244     12247     12248     12244     12247     12249
     12244     12247     12250     12248     12247     12249     12248     12247     12250
     12249     12247     12250     12247     12250     12251     12247     12250     12252
     12247     12250     12253     12251     12250     12252     12251     12250     12253
     12252     12250     12253     12250     12253     12254     12250     12253     12255
     12250     12253     12256     12254     12253     12255     12254     12253     12256
     12255     12253     12256     12253     12256     12257     12253     12256     12258
     12253     12256     12259     12257     12256     12258     12257     12256     12259
     12258     12256     12259     12256     12259     12260     12256     12259     12261
     12256     12259     12262     12260     12259     12261     12260     12259     12262
     12261     12259     12262     12259     12262     12263     12259     12262     12264
     12259     12262     12265     12263     12262     12264     12263     12262     12265
     12264     12262     12265     12262     12265     12266     12262     12265     12267
     12262     12265     12268     12266     12265     12267     12266     12265     12268
     12267     12265     12268     12265     12268     12269     12265     12268     12270
     12265     12268     12271     12269     12268     12270     12269     12268     12271
     12270     12268     12271     12268     12271     12272     12268     12271     12273
     12268     12271     12274     12272     12271     12273     12272     12271     12274
     12273     12271     12274     12271     12274     12275     12271     12274     12276
     12271     12274     12277     12275     12274     12276     12275     12274     12277
     12276     12274     12277     12274     12277     12278     12274     12277     12279
     12274     12277     12280     12278     12277     12279     12278     12277     12280
     12279     12277     12280     12277     12280     12281     12277     12280     12282
     12277     12280     12283     12281     12280     12282     12281     12280     12283
     12282     12280     12283     12232     12284     12285     12232     12284     12286
     12285     12284     12286     12284     12286     12287     12284     12286     12288
     12284     12286     12289     12287     12286     12288     12287     12286     12289
     12288     12286     12289     12286     12289     12290     12286     12289     12291
     12286     12289     12292     12290     12289     12291     12290     12289     12292
     12291     12289     12292     12289     12292     12293     12289     12292     12294
     12289     12292     12295     12293     12292     12294     12293     12292     12295
     12294     12292     12295     12292     12295     12296     12292     12295     12297
     12292     12295     12298     12296     12295     12297     12296     12295     12298
     12297     12295     12298     12295     12298     12299     12295     12298     12300
     12295     12298     12301     12299     12298     12300     12299     12298     12301
     12300     12298     12301     12298     12301     12302     12298     12301     12303
     12298     12301     12304     12302     12301     12303     12302     12301     12304
     12303     12301     12304     12301     12304     12305     12301     12304     12306
     12301     12304     12307     12305     12304     12306     12305     12304     12307
     12306     12304     12307     12304     12307     12308     12304     12307     12309
     12308     12307     12309     12307     12309     12310     12307     12309     12311
     12310     12309     12311     12309     12311     12312     12309     12311     12313
     12309     12311     12314     12312     12311     12313     12312     12311     12314
     12313     12311     12314     12311     12314     12315     12311     12314     12316
     12311     12314     12317     12315     12314     12316     12315     12314     12317
     12316     12314     12317     12314     12317     12318     12314     12317     12319
     12314     12317     12320     12318     12317     12319     12318     12317     12320
     12319     12317     12320     12317     12320     12321     12317     12320     12322
     12317     12320     12323     12321     12320     12322     12321     12320     12323
     12322     12320     12323     12320     12323     12324     12320     12323     12325
     12320     12323     12326     12324     12323     12325     12324     12323     12326
     12325     12323     12326     12323     12326     12327     12323     12326     12328
     12323     12326     12329     12327     12326     12328     12327     12326     12329
     12328     12326     12329     12326     12329     12330     12326     12329     12331
     12326     12329     12332     12330     12329     12331     12330     12329     12332
     12331     12329     12332     12329     12332     12333     12329     12332     12334
     12329     12332     12335     12333     12332     12334     12333     12332     12335
     12334     12332     12335     12337     12336     12341     12337     12336     12345
     12337     12336     12349     12341     12336     12345     12341     12336     12349
     12345     12336     12349     12336     12337     12338     12336     12337     12339
     12336     12337     12340     12338     12337     12339     12338     12337     12340
     12339     12337     12340     12336     12341     12342     12336     12341     12343
     12336     12341     12344     12342     12341     12343     12342     12341     12344
     12343     12341     12344     12336     12345     12346     12336     12345     12347
     12336     12345     12348     12346     12345     12347     12346     12345     12348
     12347     12345     12348     12336     12349     12350     12336     12349     12351
     12336     12349     12352     12350     12349     12351     12350     12349     12352
     12351     12349     12352     12349     12352     12353     12349     12352     12354
     12349     12352     12359     12353     12352     12354     12353     12352     12359
     12354     12352     12359     12356     12355     12357     12356     12355     12358
     12356     12355     12359     12357     12355     12358     12357     12355     12359
     12358     12355     12359     12355     12358     12360     12352     12359     12355
     12358     12360     12361     12358     12360     12362     12358     12360     12365
     12361     12360     12362     12361     12360     12365     12362     12360     12365
     12364     12363     12365     12364     12363     12415     12365     12363     12415
     12360     12365     12363     12360     12365     12366     12360     12365     12367
     12363     12365     12366     12363     12365     12367     12366     12365     12367
     12365     12367     12368     12365     12367     12369     12365     12367     12371
     12368     12367     12369     12368     12367     12371     12369     12367     12371
     12367     12369     12370     12367     12371     12372     12367     12371     12373
     12372     12371     12373     12371     12373     12374     12371     12373     12375
     12374     12373     12375     12373     12375     12376     12373     12375     12377
     12373     12375     12378     12376     12375     12377     12376     12375     12378
     12377     12375     12378     12375     12378     12379     12375     12378     12380
     12375     12378     12381     12379     12378     12380     12379     12378     12381
     12380     12378     12381     12378     12381     12382     12378     12381     12383
     12378     12381     12384     12382     12381     12383     12382     12381     12384
     12383     12381     12384     12381     12384     12385     12381     12384     12386
     12381     12384     12387     12385     12384     12386     12385     12384     12387
     12386     12384     12387     12384     12387     12388     12384     12387     12389
     12384     12387     12390     12388     12387     12389     12388     12387     12390
     12389     12387     12390     12387     12390     12391     12387     12390     12392
     12387     12390     12393     12391     12390     12392     12391     12390     12393
     12392     12390     12393     12390     12393     12394     12390     12393     12395
     12390     12393     12396     12394     12393     12395     12394     12393     12396
     12395     12393     12396     12393     12396     12397     12393     12396     12398
     12393     12396     12399     12397     12396     12398     12397     12396     12399
     12398     12396     12399     12396     12399     12400     12396     12399     12401
     12396     12399     12402     12400     12399     12401     12400     12399     12402
     12401     12399     12402     12399     12402     12403     12399     12402     12404
     12399     12402     12405     12403     12402     12404     12403     12402     12405
     12404     12402     12405     12402     12405     12406     12402     12405     12407
     12402     12405     12408     12406     12405     12407     12406     12405     12408
     12407     12405     12408     12405     12408     12409     12405     12408     12410
     12405     12408     12411     12409     12408     12410     12409     12408     12411
     12410     12408     12411     12408     12411     12412     12408     12411     12413
     12408     12411     12414     12412     12411     12413     12412     12411     12414
     12413     12411     12414     12363     12415     12416     12363     12415     12417
     12416     12415     12417     12415     12417     12418     12415     12417     12419
     12415     12417     12420     12418     12417     12419     12418     12417     12420
     12419     12417     12420     12417     12420     12421     12417     12420     12422
     12417     12420     12423     12421     12420     12422     12421     12420     12423
     12422     12420     12423     12420     12423     12424     12420     12423     12425
     12420     12423     12426     12424     12423     12425     12424     12423     12426
     12425     12423     12426     12423     12426     12427     12423     12426     12428
     12423     12426     12429     12427     12426     12428     12427     12426     12429
     12428     12426     12429     12426     12429     12430     12426     12429     12431
     12426     12429     12432     12430     12429     12431     12430     12429     12432
     12431     12429     12432     12429     12432     12433     12429     12432     12434
     12429     12432     12435     12433     12432     12434     12433     12432     12435
     12434     12432     12435     12432     12435     12436     12432     12435     12437
     12432     12435     12438     12436     12435     12437     12436     12435     12438
     12437     12435     12438     12435     12438     12439     12435     12438     12440
     12439     12438     12440     12438     12440     12441     12438     12440     12442
     12441     12440     12442     12440     12442     12443     12440     12442     12444
     12440     12442     12445     12443     12442     12444     12443     12442     12445
     12444     12442     12445     12442     12445     12446     12442     12445     12447
     12442     12445     12448     12446     12445     12447     12446     12445     12448
     12447     12445     12448     12445     12448     12449     12445     12448     12450
     12445     12448     12451     12449     12448     12450     12449     12448     12451
     12450     12448     12451     12448     12451     12452     12448     12451     12453
     12448     12451     12454     12452     12451     12453     12452     12451     12454
     12453     12451     12454     12451     12454     12455     12451     12454     12456
     12451     12454     12457     12455     12454     12456     12455     12454     12457
     12456     12454     12457     12454     12457     12458     12454     12457     12459
     12454     12457     12460     12458     12457     12459     12458     12457     12460
     12459     12457     12460     12457     12460     12461     12457     12460     12462
     12457     12460     12463     12461     12460     12462     12461     12460     12463
     12462     12460     12463     12460     12463     12464     12460     12463     12465
     12460     12463     12466     12464     12463     12465     12464     12463     12466
     12465     12463     12466     12468     12467     12472     12468     12467     12476
     12468     12467     12480     12472     12467     12476     12472     12467     12480
     12476     12467     12480     12467     12468     12469     12467     12468     12470
     12467     12468     12471     12469     12468     12470     12469     12468     12471
     12470     12468     12471     12467     12472     12473     12467     12472     12474
     12467     12472     12475     12473     12472     12474     12473     12472     12475
     12474     12472     12475     12467     12476     12477     12467     12476     12478
     12467     12476     12479     12477     12476     12478     12477     12476     12479
     12478     12476     12479     12467     12480     12481     12467     12480     12482
     12467     12480     12483     12481     12480     12482     12481     12480     12483
     12482     12480     12483     12480     12483     12484     12480     12483     12485
     12480     12483     12490     12484     12483     12485     12484     12483     12490
     12485     12483     12490     12487     12486     12488     12487     12486     12489
     12487     12486     12490     12488     12486     12489     12488     12486     12490
     12489     12486     12490     12486     12489     12491     12483     12490     12486
     12489     12491     12492     12489     12491     12493     12489     12491     12496
     12492     12491     12493     12492     12491     12496     12493     12491     12496
     12495     12494     12496     12495     12494     12546     12496     12494     12546
     12491     12496     12494     12491     12496     12497     12491     12496     12498
     12494     12496     12497     12494     12496     12498     12497     12496     12498
     12496     12498     12499     12496     12498     12500     12496     12498     12502
     12499     12498     12500     12499     12498     12502     12500     12498     12502
     12498     12500     12501     12498     12502     12503     12498     12502     12504
     12503     12502     12504     12502     12504     12505     12502     12504     12506
     12505     12504     12506     12504     12506     12507     12504     12506     12508
     12504     12506     12509     12507     12506     12508     12507     12506     12509
     12508     12506     12509     12506     12509     12510     12506     12509     12511
     12506     12509     12512     12510     12509     12511     12510     12509     12512
     12511     12509     12512     12509     12512     12513     12509     12512     12514
     12509     12512     12515     12513     12512     12514     12513     12512     12515
     12514     12512     12515     12512     12515     12516     12512     12515     12517
     12512     12515     12518     12516     12515     12517     12516     12515     12518
     12517     12515     12518     12515     12518     12519     12515     12518     12520
     12515     12518     12521     12519     12518     12520     12519     12518     12521
     12520     12518     12521     12518     12521     12522     12518     12521     12523
     12518     12521     12524     12522     12521     12523     12522     12521     12524
     12523     12521     12524     12521     12524     12525     12521     12524     12526
     12521     12524     12527     12525     12524     12526     12525     12524     12527
     12526     12524     12527     12524     12527     12528     12524     12527     12529
     12524     12527     12530     12528     12527     12529     12528     12527     12530
     12529     12527     12530     12527     12530     12531     12527     12530     12532
     12527     12530     12533     12531     12530     12532     12531     12530     12533
     12532     12530     12533     12530     12533     12534     12530     12533     12535
     12530     12533     12536     12534     12533     12535     12534     12533     12536
     12535     12533     12536     12533     12536     12537     12533     12536     12538
     12533     12536     12539     12537     12536     12538     12537     12536     12539
     12538     12536     12539     12536     12539     12540     12536     12539     12541
     12536     12539     12542     12540     12539     12541     12540     12539     12542
     12541     12539     12542     12539     12542     12543     12539     12542     12544
     12539     12542     12545     12543     12542     12544     12543     12542     12545
     12544     12542     12545     12494     12546     12547     12494     12546     12548
     12547     12546     12548     12546     12548     12549     12546     12548     12550
     12546     12548     12551     12549     12548     12550     12549     12548     12551
     12550     12548     12551     12548     12551     12552     12548     12551     12553
     12548     12551     12554     12552     12551     12553     12552     12551     12554
     12553     12551     12554     12551     12554     12555     12551     12554     12556
     12551     12554     12557     12555     12554     12556     12555     12554     12557
     12556     12554     12557     12554     12557     12558     12554     12557     12559
     12554     12557     12560     12558     12557     12559     12558     12557     12560
     12559     12557     12560     12557     12560     12561     12557     12560     12562
     12557     12560     12563     12561     12560     12562     12561     12560     12563
     12562     12560     12563     12560     12563     12564     12560     12563     12565
     12560     12563     12566     12564     12563     12565     12564     12563     12566
     12565     12563     12566     12563     12566     12567     12563     12566     12568
     12563     12566     12569     12567     12566     12568     12567     12566     12569
     12568     12566     12569     12566     12569     12570     12566     12569     12571
     12570     12569     12571     12569     12571     12572     12569     12571     12573
     12572     12571     12573     12571     12573     12574     12571     12573     12575
     12571     12573     12576     12574     12573     12575     12574     12573     12576
     12575     12573     12576     12573     12576     12577     12573     12576     12578
     12573     12576     12579     12577     12576     12578     12577     12576     12579
     12578     12576     12579     12576     12579     12580     12576     12579     12581
     12576     12579     12582     12580     12579     12581     12580     12579     12582
     12581     12579     12582     12579     12582     12583     12579     12582     12584
     12579     12582     12585     12583     12582     12584     12583     12582     12585
     12584     12582     12585     12582     12585     12586     12582     12585     12587
     12582     12585     12588     12586     12585     12587     12586     12585     12588
     12587     12585     12588     12585     12588     12589     12585     12588     12590
     12585     12588     12591     12589     12588     12590     12589     12588     12591
     12590     12588     12591     12588     12591     12592     12588     12591     12593
     12588     12591     12594     12592     12591     12593     12592     12591     12594
     12593     12591     12594     12591     12594     12595     12591     12594     12596
     12591     12594     12597     12595     12594     12596     12595     12594     12597
     12596     12594     12597     12599     12598     12603     12599     12598     12607
     12599     12598     12611     12603     12598     12607     12603     12598     12611
     12607     12598     12611     12598     12599     12600     12598     12599     12601
     12598     12599     12602     12600     12599     12601     12600     12599     12602
     12601     12599     12602     12598     12603     12604     12598     12603     12605
     12598     12603     12606     12604     12603     12605     12604     12603     12606
     12605     12603     12606     12598     12607     12608     12598     12607     12609
     12598     12607     12610     12608     12607     12609     12608     12607     12610
     12609     12607     12610     12598     12611     12612     12598     12611     12613
     12598     12611     12614     12612     12611     12613     12612     12611     12614
     12613     12611     12614     12611     12614     12615     12611     12614     12616
     12611     12614     12621     12615     12614     12616     12615     12614     12621
     12616     12614     12621     12618     12617     12619     12618     12617     12620
     12618     12617     12621     12619     12617     12620     12619     12617     12621
     12620     12617     12621     12617     12620     12622     12614     12621     12617
     12620     12622     12623     12620     12622     12624     12620     12622     12627
     12623     12622     12624     12623     12622     12627     12624     12622     12627
     12626     12625     12627     12626     12625     12677     12627     12625     12677
     12622     12627     12625     12622     12627     12628     12622     12627     12629
     12625     12627     12628     12625     12627     12629     12628     12627     12629
     12627     12629     12630     12627     12629     12631     12627     12629     12633
     12630     12629     12631     12630     12629     12633     12631     12629     12633
     12629     12631     12632     12629     12633     12634     12629     12633     12635
     12634     12633     12635     12633     12635     12636     12633     12635     12637
     12636     12635     12637     12635     12637     12638     12635     12637     12639
     12635     12637     12640     12638     12637     12639     12638     12637     12640
     12639     12637     12640     12637     12640     12641     12637     12640     12642
     12637     12640     12643     12641     12640     12642     12641     12640     12643
     12642     12640     12643     12640     12643     12644     12640     12643     12645
     12640     12643     12646     12644     12643     12645     12644     12643     12646
     12645     12643     12646     12643     12646     12647     12643     12646     12648
     12643     12646     12649     12647     12646     12648     12647     12646     12649
     12648     12646     12649     12646     12649     12650     12646     12649     12651
     12646     12649     12652     12650     12649     12651     12650     12649     12652
     12651     12649     12652     12649     12652     12653     12649     12652     12654
     12649     12652     12655     12653     12652     12654     12653     12652     12655
     12654     12652     12655     12652     12655     12656     12652     12655     12657
     12652     12655     12658     12656     12655     12657     12656     12655     12658
     12657     12655     12658     12655     12658     12659     12655     12658     12660
     12655     12658     12661     12659     12658     12660     12659     12658     12661
     12660     12658     12661     12658     12661     12662     12658     12661     12663
     12658     12661     12664     12662     12661     12663     12662     12661     12664
     12663     12661     12664     12661     12664     12665     12661     12664     12666
     12661     12664     12667     12665     12664     12666     12665     12664     12667
     12666     12664     12667     12664     12667     12668     12664     12667     12669
     12664     12667     12670     12668     12667     12669     12668     12667     12670
     12669     12667     12670     12667     12670     12671     12667     12670     12672
     12667     12670     12673     12671     12670     12672     12671     12670     12673
     12672     12670     12673     12670     12673     12674     12670     12673     12675
     12670     12673     12676     12674     12673     12675     12674     12673     12676
     12675     12673     12676     12625     12677     12678     12625     12677     12679
     12678     12677     12679     12677     12679     12680     12677     12679     12681
     12677     12679     12682     12680     12679     12681     12680     12679     12682
     12681     12679     12682     12679     12682     12683     12679     12682     12684
     12679     12682     12685     12683     12682     12684     12683     12682     12685
     12684     12682     12685     12682     12685     12686     12682     12685     12687
     12682     12685     12688     12686     12685     12687     12686     12685     12688
     12687     12685     12688     12685     12688     12689     12685     12688     12690
     12685     12688     12691     12689     12688     12690     12689     12688     12691
     12690     12688     12691     12688     12691     12692     12688     12691     12693
     12688     12691     12694     12692     12691     12693     12692     12691     12694
     12693     12691     12694     12691     12694     12695     12691     12694     12696
     12691     12694     12697     12695     12694     12696     12695     12694     12697
     12696     12694     12697     12694     12697     12698     12694     12697     12699
     12694     12697     12700     12698     12697     12699     12698     12697     12700
     12699     12697     12700     12697     12700     12701     12697     12700     12702
     12701     12700     12702     12700     12702     12703     12700     12702     12704
     12703     12702     12704     12702     12704     12705     12702     12704     12706
     12702     12704     12707     12705     12704     12706     12705     12704     12707
     12706     12704     12707     12704     12707     12708     12704     12707     12709
     12704     12707     12710     12708     12707     12709     12708     12707     12710
     12709     12707     12710     12707     12710     12711     12707     12710     12712
     12707     12710     12713     12711     12710     12712     12711     12710     12713
     12712     12710     12713     12710     12713     12714     12710     12713     12715
     12710     12713     12716     12714     12713     12715     12714     12713     12716
     12715     12713     12716     12713     12716     12717     12713     12716     12718
     12713     12716     12719     12717     12716     12718     12717     12716     12719
     12718     12716     12719     12716     12719     12720     12716     12719     12721
     12716     12719     12722     12720     12719     12721     12720     12719     12722
     12721     12719     12722     12719     12722     12723     12719     12722     12724
     12719     12722     12725     12723     12722     12724     12723     12722     12725
     12724     12722     12725     12722     12725     12726     12722     12725     12727
     12722     12725     12728     12726     12725     12727     12726     12725     12728
     12727     12725     12728      3390      3389      3393      3390      3389      3397
      3390      3389      3401      3393      3389      3397      3393      3389      3401
      3397      3389      3401      3389      3390      3391      3389      3390      3392
      3389      3390      3405      3391      3390      3392      3391      3390      3405
      3392      3390      3405      3389      3393      3394      3389      3393      3395
      3389      3393      3396      3394      3393      3395      3394      3393      3396
      3395      3393      3396      3389      3397      3398      3389      3397      3399
      3389      3397      3400      3398      3397      3399      3398      3397      3400
      3399      3397      3400      3389      3401      3402      3389      3401      3403
      3389      3401      3404      3402      3401      3403      3402      3401      3404
      3403      3401      3404      3390      3405      3406      3390      3405      3407
      3390      3405      3411      3406      3405      3407      3406      3405      3411
      3407      3405      3411      3409      3408      3410      3409      3408      3411
      3409      3408      3412      3410      3408      3411      3410      3408      3412
      3411      3408      3412      3405      3411      3408      3408      3412      3413
      3412      3413      3414      3412      3413      3415      3412      3413      3416
      3414      3413      3415      3414      3413      3416      3415      3413      3416
      3413      3416      3417      3413      3416      3418      3413      3416      3424
      3417      3416      3418      3417      3416      3424      3418      3416      3424
      3416      3418      3419      3418      3419      3420      3418      3419      3421
      3420      3419      3421      3419      3421      3422      3419      3421      3423
      3419      3421      3433      3422      3421      3423      3422      3421      3433
      3423      3421      3433      3416      3424      3425      3416      3424      3426
      3416      3424      3427      3425      3424      3426      3425      3424      3427
      3426      3424      3427      3424      3427      3428      3427      3428      3429
      3427      3428      3430      3429      3428      3430      3428      3430      3431
      3428      3430      3432      3428      3430      3480      3431      3430      3432
      3431      3430      3480      3432      3430      3480      3421      3433      3434
      3421      3433      3435      3421      3433      3436      3434      3433      3435
      3434      3433      3436      3435      3433      3436      3433      3436      3437
      3433      3436      3438      3433      3436      3439      3437      3436      3438
      3437      3436      3439      3438      3436      3439      3436      3439      3440
      3436      3439      3441      3440      3439      3441      3439      3441      3442
      3439      3441      3443      3442      3441      3443      3441      3443      3444
      3441      3443      3445      3441      3443      3446      3444      3443      3445
      3444      3443      3446      3445      3443      3446      3443      3446      3447
      3443      3446      3448      3447      3446      3448      3446      3448      3449
      3446      3448      3450      3449      3448      3450      3448      3450      3451
      3448      3450      3452      3448      3450      3453      3451      3450      3452
      3451      3450      3453      3452      3450      3453      3450      3453      3454
      3450      3453      3455      3454      3453      3455      3453      3455      3456
      3453      3455      3457      3456      3455      3457      3455      3457      3458
      3455      3457      3459      3455      3457      3460      3458      3457      3459
      3458      3457      3460      3459      3457      3460      3457      3460      3461
      3457      3460      3462      3461      3460      3462      3460      3462      3463
      3460      3462      3464      3463      3462      3464      3462      3464      3465
      3462      3464      3466      3462      3464      3467      3465      3464      3466
      3465      3464      3467      3466      3464      3467      3464      3467      3468
      3464      3467      3469      3464      3467      3470      3468      3467      3469
      3468      3467      3470      3469      3467      3470      3467      3470      3471
      3467      3470      3472      3467      3470      3473      3471      3470      3472
      3471      3470      3473      3472      3470      3473      3470      3473      3474
      3470      3473      3475      3470      3473      3476      3474      3473      3475
      3474      3473      3476      3475      3473      3476      3473      3476      3477
      3473      3476      3478      3473      3476      3479      3477      3476      3478
      3477      3476      3479      3478      3476      3479      3430      3480      3481
      3430      3480      3482      3430      3480      3483      3481      3480      3482
      3481      3480      3483      3482      3480      3483      3480      3483      3484
      3480      3483      3485      3480      3483      3486      3484      3483      3485
      3484      3483      3486      3485      3483      3486      3483      3486      3487
      3483      3486      3488      3483      3486      3489      3487      3486      3488
      3487      3486      3489      3488      3486      3489      3486      3489      3490
      3486      3489      3491      3486      3489      3492      3490      3489      3491
      3490      3489      3492      3491      3489      3492      3489      3492      3493
      3489      3492      3494      3489      3492      3495      3493      3492      3494
      3493      3492      3495      3494      3492      3495      3492      3495      3496
      3492      3495      3497      3492      3495      3498      3496      3495      3497
      3496      3495      3498      3497      3495      3498      3495      3498      3499
      3495      3498      3500      3495      3498      3501      3499      3498      3500
      3499      3498      3501      3500      3498      3501      3498      3501      3502
      3498      3501      3503      3498      3501      3504      3502      3501      3503
      3502      3501      3504      3503      3501      3504      3501      3504      3505
      3501      3504      3506      3501      3504      3507      3505      3504      3506
      3505      3504      3507      3506      3504      3507      3504      3507      3508
      3504      3507      3509      3504      3507      3510      3508      3507      3509
      3508      3507      3510      3509      3507      3510      3507      3510      3511
      3507      3510      3512      3507      3510      3513      3511      3510      3512
      3511      3510      3513      3512      3510      3513      3510      3513      3514
      3510      3513      3515      3510      3513      3516      3514      3513      3515
      3514      3513      3516      3515      3513      3516      3513      3516      3517
      3513      3516      3518      3513      3516      3519      3517      3516      3518
      3517      3516      3519      3518      3516      3519      3516      3519      3520
      3516      3519      3521      3516      3519      3522      3520      3519      3521
      3520      3519      3522      3521      3519      3522      3519      3522      3523
      3519      3522      3524      3519      3522      3525      3523      3522      3524
      3523      3522      3525      3524      3522      3525      3522      3525      3526
      3522      3525      3527      3522      3525      3528      3526      3525      3527
      3526      3525      3528      3527      3525      3528      7884      7883      7885
      7884      7883      7887      7884      7883      7929      7885      7883      7887
      7885      7883      7929      7887      7883      7929      7883      7885      7886
      7883      7887      7888      7883      7887      7889      7883      7887      7890
      7888      7887      7889      7888      7887      7890      7889      7887      7890
      7887      7890      7891      7887      7890      7921      7891      7890      7921
      7890      7891      7892      7890      7891      7893      7892      7891      7893
      7891      7893      7894      7891      7893      7895      7891      7893      7896
      7894      7893      7895      7894      7893      7896      7895      7893      7896
      7893      7896      7897      7893      7896      7898      7893      7896      7919
      7897      7896      7898      7897      7896      7919      7898      7896      7919
      7896      7898      7899      7896      7898      7900      7896      7898      7908
      7899      7898      7900      7899      7898      7908      7900      7898      7908
      7898      7900      7901      7898      7900      7902      7898      7900      7903
      7901      7900      7902      7901      7900      7903      7902      7900      7903
      7900      7903      7904      7900      7903      7905      7900      7903      7906
      7904      7903      7905      7904      7903      7906      7905      7903      7906
      7903      7906      7907      7903      7906      7908      7903      7906      7932
      7907      7906      7908      7907      7906      7932      7908      7906      7932
      7898      7908      7906      7898      7908      7909      7898      7908      7913
      7906      7908      7909      7906      7908      7913      7909      7908      7913
      7908      7909      7910      7908      7909      7911      7908      7909      7912
      7910      7909      7911      7910      7909      7912      7911      7909      7912
      7908      7913      7914      7908      7913      7915      7908      7913      7916
      7914      7913      7915      7914      7913      7916      7915      7913      7916
      7913      7916      7917      7913      7916      7918      7913      7916      7919
      7917      7916      7918      7917      7916      7919      7918      7916      7919
      7896      7919      7916      7896      7919      7920      7896      7919      7921
      7916      7919      7920      7916      7919      7921      7920      7919      7921
      7890      7921      7919      7890      7921      7922      7890      7921      7926
      7919      7921      7922      7919      7921      7926      7922      7921      7926
      7921      7922      7923      7921      7922      7924      7921      7922      7925
      7923      7922      7924      7923      7922      7925      7924      7922      7925
      7921      7926      7927      7921      7926      7928      7921      7926      7929
      7927      7926      7928      7927      7926      7929      7928      7926      7929
      7883      7929      7926      7883      7929      7930      7883      7929      7931
      7926      7929      7930      7926      7929      7931      7930      7929      7931
      7906      7932      7933      7906      7932      7934      7906      7932      7938
      7933      7932      7934      7933      7932      7938      7934      7932      7938
      7932      7934      7935      7932      7934      7936      7932      7934      7937
      7935      7934      7936      7935      7934      7937      7936      7934      7937
      7932      7938      7939      7932      7938      7940      7932      7938      7941
      7939      7938      7940      7939      7938      7941      7940      7938      7941
      7938      7941      7942      7938      7941      7943      7938      7941      7944
      7942      7941      7943      7942      7941      7944      7943      7941      7944
      7941      7944      7945      7941      7944      7946      7941      7944      7947
      7945      7944      7946      7945      7944      7947      7946      7944      7947
      7944      7947      7948      7944      7947      7949      7944      7947      7953
      7948      7947      7949      7948      7947      7953      7949      7947      7953
      7947      7949      7950      7947      7949      7951      7947      7949      7952
      7950      7949      7951      7950      7949      7952      7951      7949      7952
      7947      7953      7954      7947      7953      7955      7947      7953      7956
      7954      7953      7955      7954      7953      7956      7955      7953      7956
     16660     16659     16661     16660     16659     16662     16660     16659     16663
     16661     16659     16662     16661     16659     16663     16662     16659     16663
     16659     16663     16664     16659     16663     16665     16659     16663     16666
     16664     16663     16665     16664     16663     16666     16665     16663     16666
     16663     16666     16667     16663     16666     16668     16663     16666     16672
     16667     16666     16668     16667     16666     16672     16668     16666     16672
     16670     16669     16671     16670     16669     16672     16670     16669     16673
     16671     16669     16672     16671     16669     16673     16672     16669     16673
     16666     16672     16669     16669     16673     16674     16673     16674     16675
     16673     16674     16676     16673     16674     16677     16675     16674     16676
     16675     16674     16677     16676     16674     16677     16674     16677     16678
     16674     16677     16679     16674     16677     16685     16678     16677     16679
     16678     16677     16685     16679     16677     16685     16677     16679     16680
     16679     16680     16681     16679     16680     16682     16681     16680     16682
     16680     16682     16683     16680     16682     16684     16680     16682     16694
     16683     16682     16684     16683     16682     16694     16684     16682     16694
     16677     16685     16686     16677     16685     16687     16677     16685     16688
     16686     16685     16687     16686     16685     16688     16687     16685     16688
     16685     16688     16689     16688     16689     16690     16688     16689     16691
     16690     16689     16691     16689     16691     16692     16689     16691     16693
     16689     16691     16741     16692     16691     16693     16692     16691     16741
     16693     16691     16741     16682     16694     16695     16682     16694     16696
     16682     16694     16697     16695     16694     16696     16695     16694     16697
     16696     16694     16697     16694     16697     16698     16694     16697     16699
     16694     16697     16700     16698     16697     16699     16698     16697     16700
     16699     16697     16700     16697     16700     16701     16697     16700     16702
     16701     16700     16702     16700     16702     16703     16700     16702     16704
     16703     16702     16704     16702     16704     16705     16702     16704     16706
     16702     16704     16707     16705     16704     16706     16705     16704     16707
     16706     16704     16707     16704     16707     16708     16704     16707     16709
     16708     16707     16709     16707     16709     16710     16707     16709     16711
     16710     16709     16711     16709     16711     16712     16709     16711     16713
     16709     16711     16714     16712     16711     16713     16712     16711     16714
     16713     16711     16714     16711     16714     16715     16711     16714     16716
     16715     16714     16716     16714     16716     16717     16714     16716     16718
     16717     16716     16718     16716     16718     16719     16716     16718     16720
     16716     16718     16721     16719     16718     16720     16719     16718     16721
     16720     16718     16721     16718     16721     16722     16718     16721     16723
     16722     16721     16723     16721     16723     16724     16721     16723     16725
     16724     16723     16725     16723     16725     16726     16723     16725     16727
     16723     16725     16728     16726     16725     16727     16726     16725     16728
     16727     16725     16728     16725     16728     16729     16725     16728     16730
     16725     16728     16731     16729     16728     16730     16729     16728     16731
     16730     16728     16731     16728     16731     16732     16728     16731     16733
     16728     16731     16734     16732     16731     16733     16732     16731     16734
     16733     16731     16734     16731     16734     16735     16731     16734     16736
     16731     16734     16737     16735     16734     16736     16735     16734     16737
     16736     16734     16737     16734     16737     16738     16734     16737     16739
     16734     16737     16740     16738     16737     16739     16738     16737     16740
     16739     16737     16740     16691     16741     16742     16691     16741     16743
     16691     16741     16744     16742     16741     16743     16742     16741     16744
     16743     16741     16744     16741     16744     16745     16741     16744     16746
     16741     16744     16747     16745     16744     16746     16745     16744     16747
     16746     16744     16747     16744     16747     16748     16744     16747     16749
     16744     16747     16750     16748     16747     16749     16748     16747     16750
     16749     16747     16750     16747     16750     16751     16747     16750     16752
     16747     16750     16753     16751     16750     16752     16751     16750     16753
     16752     16750     16753     16750     16753     16754     16750     16753     16755
     16750     16753     16756     16754     16753     16755     16754     16753     16756
     16755     16753     16756     16753     16756     16757     16753     16756     16758
     16753     16756     16759     16757     16756     16758     16757     16756     16759
     16758     16756     16759     16756     16759     16760     16756     16759     16761
     16756     16759     16762     16760     16759     16761     16760     16759     16762
     16761     16759     16762     16759     16762     16763     16759     16762     16764
     16759     16762     16765     16763     16762     16764     16763     16762     16765
     16764     16762     16765     16762     16765     16766     16762     16765     16767
     16762     16765     16768     16766     16765     16767     16766     16765     16768
     16767     16765     16768     16765     16768     16769     16765     16768     16770
     16765     16768     16771     16769     16768     16770     16769     16768     16771
     16770     16768     16771     16768     16771     16772     16768     16771     16773
     16768     16771     16774     16772     16771     16773     16772     16771     16774
     16773     16771     16774     16771     16774     16775     16771     16774     16776
     16771     16774     16777     16775     16774     16776     16775     16774     16777
     16776     16774     16777     16774     16777     16778     16774     16777     16779
     16774     16777     16780     16778     16777     16779     16778     16777     16780
     16779     16777     16780     16777     16780     16781     16777     16780     16782
     16777     16780     16783     16781     16780     16782     16781     16780     16783
     16782     16780     16783     16780     16783     16784     16780     16783     16785
     16780     16783     16786     16784     16783     16785     16784     16783     16786
     16785     16783     16786     16783     16786     16787     16783     16786     16788
     16783     16786     16789     16787     16786     16788     16787     16786     16789
     16788     16786     16789     21494     21493     21498     21494     21493     21502
     21494     21493     21506     21498     21493     21502     21498     21493     21506
     21502     21493     21506     21493     21494     21495     21493     21494     21496
     21493     21494     21497     21495     21494     21496     21495     21494     21497
     21496     21494     21497     21493     21498     21499     21493     21498     21500
     21493     21498     21501     21499     21498     21500     21499     21498     21501
     21500     21498     21501     21493     21502     21503     21493     21502     21504
     21493     21502     21505     21503     21502     21504     21503     21502     21505
     21504     21502     21505     21493     21506     21507     21493     21506     21508
     21493     21506     21509     21507     21506     21508     21507     21506     21509
     21508     21506     21509     21506     21509     21510     21506     21509     21511
     21506     21509     21515     21510     21509     21511     21510     21509     21515
     21511     21509     21515     21513     21512     21514     21513     21512     21515
     21513     21512     21516     21514     21512     21515     21514     21512     21516
     21515     21512     21516     21509     21515     21512     21512     21516     21517
     21516     21517     21518     21516     21517     21519     21516     21517     21520
     21518     21517     21519     21518     21517     21520     21519     21517     21520
     21517     21520     21521     21517     21520     21522     21517     21520     21528
     21521     21520     21522     21521     21520     21528     21522     21520     21528
     21520     21522     21523     21522     21523     21524     21522     21523     21525
     21524     21523     21525     21523     21525     21526     21523     21525     21527
     21523     21525     21537     21526     21525     21527     21526     21525     21537
     21527     21525     21537     21520     21528     21529     21520     21528     21530
     21520     21528     21531     21529     21528     21530     21529     21528     21531
     21530     21528     21531     21528     21531     21532     21531     21532     21533
     21531     21532     21534     21533     21532     21534     21532     21534     21535
     21532     21534     21536     21532     21534     21582     21535     21534     21536
     21535     21534     21582     21536     21534     21582     21525     21537     21538
     21525     21537     21539     21525     21537     21540     21538     21537     21539
     21538     21537     21540     21539     21537     21540     21537     21540     21541
     21537     21540     21542     21537     21540     21543     21541     21540     21542
     21541     21540     21543     21542     21540     21543     21540     21543     21544
     21540     21543     21545     21540     21543     21546     21544     21543     21545
     21544     21543     21546     21545     21543     21546     21543     21546     21547
     21543     21546     21548     21543     21546     21549     21547     21546     21548
     21547     21546     21549     21548     21546     21549     21546     21549     21550
     21546     21549     21551     21546     21549     21552     21550     21549     21551
     21550     21549     21552     21551     21549     21552     21549     21552     21553
     21549     21552     21554     21549     21552     21555     21553     21552     21554
     21553     21552     21555     21554     21552     21555     21552     21555     21556
     21552     21555     21557     21556     21555     21557     21555     21557     21558
     21555     21557     21559     21558     21557     21559     21557     21559     21560
     21557     21559     21561     21557     21559     21562     21560     21559     21561
     21560     21559     21562     21561     21559     21562     21559     21562     21563
     21559     21562     21564     21563     21562     21564     21562     21564     21565
     21562     21564     21566     21565     21564     21566     21564     21566     21567
     21564     21566     21568     21564     21566     21569     21567     21566     21568
     21567     21566     21569     21568     21566     21569     21566     21569     21570
     21566     21569     21571     21566     21569     21572     21570     21569     21571
     21570     21569     21572     21571     21569     21572     21569     21572     21573
     21569     21572     21574     21569     21572     21575     21573     21572     21574
     21573     21572     21575     21574     21572     21575     21572     21575     21576
     21572     21575     21577     21572     21575     21578     21576     21575     21577
     21576     21575     21578     21577     21575     21578     21575     21578     21579
     21575     21578     21580     21575     21578     21581     21579     21578     21580
     21579     21578     21581     21580     21578     21581     21534     21582     21583
     21534     21582     21584     21534     21582     21585     21583     21582     21584
     21583     21582     21585     21584     21582     21585     21582     21585     21586
     21582     21585     21587     21582     21585     21588     21586     21585     21587
     21586     21585     21588     21587     21585     21588     21585     21588     21589
     21585     21588     21590     21585     21588     21591     21589     21588     21590
     21589     21588     21591     21590     21588     21591     21588     21591     21592
     21588     21591     21593     21588     21591     21594     21592     21591     21593
     21592     21591     21594     21593     21591     21594     21591     21594     21595
     21591     21594     21596     21591     21594     21597     21595     21594     21596
     21595     21594     21597     21596     21594     21597     21594     21597     21598
     21594     21597     21599     21594     21597     21600     21598     21597     21599
     21598     21597     21600     21599     21597     21600     21597     21600     21601
     21597     21600     21602     21597     21600     21603     21601     21600     21602
     21601     21600     21603     21602     21600     21603     21600     21603     21604
     21600     21603     21605     21600     21603     21606     21604     21603     21605
     21604     21603     21606     21605     21603     21606     21603     21606     21607
     21603     21606     21608     21603     21606     21609     21607     21606     21608
     21607     21606     21609     21608     21606     21609     21606     21609     21610
     21606     21609     21611     21606     21609     21612     21610     21609     21611
     21610     21609     21612     21611     21609     21612     21609     21612     21613
     21609     21612     21614     21609     21612     21615     21613     21612     21614
     21613     21612     21615     21614     21612     21615     21612     21615     21616
     21612     21615     21617     21612     21615     21618     21616     21615     21617
     21616     21615     21618     21617     21615     21618     21615     21618     21619
     21615     21618     21620     21615     21618     21621     21619     21618     21620
     21619     21618     21621     21620     21618     21621     21618     21621     21622
     21618     21621     21623     21618     21621     21624     21622     21621     21623
     21622     21621     21624     21623     21621     21624     21621     21624     21625
     21621     21624     21626     21621     21624     21627     21625     21624     21626
     21625     21624     21627     21626     21624     21627     21624     21627     21628
     21624     21627     21629     21624     21627     21630     21628     21627     21629
     21628     21627     21630     21629     21627     21630     19828     19827     19829
     19828     19827     19831     19828     19827     19847     19829     19827     19831
     19829     19827     19847     19831     19827     19847     19827     19829     19830
     19827     19831     19832     19827     19831     19833     19827     19831     19835
     19832     19831     19833     19832     19831     19835     19833     19831     19835
     19831     19833     19834     19831     19835     19836     19831     19835     19837
     19831     19835     19839     19836     19835     19837     19836     19835     19839
     19837     19835     19839     19835     19837     19838     19835     19839     19840
     19835     19839     19841     19835     19839     19843     19840     19839     19841
     19840     19839     19843     19841     19839     19843     19839     19841     19842
     19839     19843     19844     19839     19843     19845     19839     19843     19847
     19844     19843     19845     19844     19843     19847     19845     19843     19847
     19843     19845     19846     19827     19847     19843     19827     19847     19848
     19827     19847     19852     19843     19847     19848     19843     19847     19852
     19848     19847     19852     19850     19849     19851     19850     19849     19852
     19850     19849     19853     19851     19849     19852     19851     19849     19853
     19852     19849     19853     19847     19852     19849     19849     19853     19854
     19853     19854     19855     19853     19854     19856     19853     19854     19857
     19855     19854     19856     19855     19854     19857     19856     19854     19857
     19854     19857     19858     19854     19857     19859     19854     19857     19865
     19858     19857     19859     19858     19857     19865     19859     19857     19865
     19857     19859     19860     19859     19860     19861     19859     19860     19862
     19861     19860     19862     19860     19862     19863     19860     19862     19864
     19860     19862     19874     19863     19862     19864     19863     19862     19874
     19864     19862     19874     19857     19865     19866     19857     19865     19867
     19857     19865     19868     19866     19865     19867     19866     19865     19868
     19867     19865     19868     19865     19868     19869     19868     19869     19870
     19868     19869     19871     19870     19869     19871     19869     19871     19872
     19869     19871     19873     19869     19871     19921     19872     19871     19873
     19872     19871     19921     19873     19871     19921     19862     19874     19875
     19862     19874     19876     19862     19874     19877     19875     19874     19876
     19875     19874     19877     19876     19874     19877     19874     19877     19878
     19874     19877     19879     19874     19877     19880     19878     19877     19879
     19878     19877     19880     19879     19877     19880     19877     19880     19881
     19877     19880     19882     19881     19880     19882     19880     19882     19883
     19880     19882     19884     19883     19882     19884     19882     19884     19885
     19882     19884     19886     19882     19884     19887     19885     19884     19886
     19885     19884     19887     19886     19884     19887     19884     19887     19888
     19884     19887     19889     19888     19887     19889     19887     19889     19890
     19887     19889     19891     19890     19889     19891     19889     19891     19892
     19889     19891     19893     19889     19891     19894     19892     19891     19893
     19892     19891     19894     19893     19891     19894     19891     19894     19895
     19891     19894     19896     19895     19894     19896     19894     19896     19897
     19894     19896     19898     19897     19896     19898     19896     19898     19899
     19896     19898     19900     19896     19898     19901     19899     19898     19900
     19899     19898     19901     19900     19898     19901     19898     19901     19902
     19898     19901     19903     19902     19901     19903     19901     19903     19904
     19901     19903     19905     19904     19903     19905     19903     19905     19906
     19903     19905     19907     19903     19905     19908     19906     19905     19907
     19906     19905     19908     19907     19905     19908     19905     19908     19909
     19905     19908     19910     19905     19908     19911     19909     19908     19910
     19909     19908     19911     19910     19908     19911     19908     19911     19912
     19908     19911     19913     19908     19911     19914     19912     19911     19913
     19912     19911     19914     19913     19911     19914     19911     19914     19915
     19911     19914     19916     19911     19914     19917     19915     19914     19916
     19915     19914     19917     19916     19914     19917     19914     19917     19918
     19914     19917     19919     19914     19917     19920     19918     19917     19919
     19918     19917     19920     19919     19917     19920     19871     19921     19922
     19871     19921     19923     19871     19921     19924     19922     19921     19923
     19922     19921     19924     19923     19921     19924     19921     19924     19925
     19921     19924     19926     19921     19924     19927     19925     19924     19926
     19925     19924     19927     19926     19924     19927     19924     19927     19928
     19924     19927     19929     19924     19927     19930     19928     19927     19929
     19928     19927     19930     19929     19927     19930     19927     19930     19931
     19927     19930     19932     19927     19930     19933     19931     19930     19932
     19931     19930     19933     19932     19930     19933     19930     19933     19934
     19930     19933     19935     19930     19933     19936     19934     19933     19935
     19934     19933     19936     19935     19933     19936     19933     19936     19937
     19933     19936     19938     19933     19936     19939     19937     19936     19938
     19937     19936     19939     19938     19936     19939     19936     19939     19940
     19936     19939     19941     19936     19939     19942     19940     19939     19941
     19940     19939     19942     19941     19939     19942     19939     19942     19943
     19939     19942     19944     19939     19942     19945     19943     19942     19944
     19943     19942     19945     19944     19942     19945     19942     19945     19946
     19942     19945     19947     19942     19945     19948     19946     19945     19947
     19946     19945     19948     19947     19945     19948     19945     19948     19949
     19945     19948     19950     19945     19948     19951     19949     19948     19950
     19949     19948     19951     19950     19948     19951     19948     19951     19952
     19948     19951     19953     19948     19951     19954     19952     19951     19953
     19952     19951     19954     19953     19951     19954     19951     19954     19955
     19951     19954     19956     19951     19954     19957     19955     19954     19956
     19955     19954     19957     19956     19954     19957     19954     19957     19958
     19954     19957     19959     19954     19957     19960     19958     19957     19959
     19958     19957     19960     19959     19957     19960     19957     19960     19961
     19957     19960     19962     19957     19960     19963     19961     19960     19962
     19961     19960     19963     19962     19960     19963     19960     19963     19964
     19960     19963     19965     19960     19963     19966     19964     19963     19965
     19964     19963     19966     19965     19963     19966     19963     19966     19967
     19963     19966     19968     19963     19966     19969     19967     19966     19968
     19967     19966     19969     19968     19966     19969     16791     16790     16792
     16791     16790     16793     16791     16790     16794     16792     16790     16793
     16792     16790     16794     16793     16790     16794     16790     16794     16795
     16790     16794     16796     16790     16794     16797     16795     16794     16796
     16795     16794     16797     16796     16794     16797     16794     16797     16798
     16794     16797     16799     16794     16797     16803     16798     16797     16799
     16798     16797     16803     16799     16797     16803     16801     16800     16802
     16801     16800     16803     16801     16800     16804     16802     16800     16803
     16802     16800     16804     16803     16800     16804     16797     16803     16800
     16800     16804     16805     16804     16805     16806     16804     16805     16807
     16804     16805     16808     16806     16805     16807     16806     16805     16808
     16807     16805     16808     16805     16808     16809     16805     16808     16810
     16805     16808     16816     16809     16808     16810     16809     16808     16816
     16810     16808     16816     16808     16810     16811     16810     16811     16812
     16810     16811     16813     16812     16811     16813     16811     16813     16814
     16811     16813     16815     16811     16813     16825     16814     16813     16815
     16814     16813     16825     16815     16813     16825     16808     16816     16817
     16808     16816     16818     16808     16816     16819     16817     16816     16818
     16817     16816     16819     16818     16816     16819     16816     16819     16820
     16819     16820     16821     16819     16820     16822     16821     16820     16822
     16820     16822     16823     16820     16822     16824     16820     16822     16872
     16823     16822     16824     16823     16822     16872     16824     16822     16872
     16813     16825     16826     16813     16825     16827     16813     16825     16828
     16826     16825     16827     16826     16825     16828     16827     16825     16828
     16825     16828     16829     16825     16828     16830     16825     16828     16831
     16829     16828     16830     16829     16828     16831     16830     16828     16831
     16828     16831     16832     16828     16831     16833     16832     16831     16833
     16831     16833     16834     16831     16833     16835     16834     16833     16835
     16833     16835     16836     16833     16835     16837     16833     16835     16838
     16836     16835     16837     16836     16835     16838     16837     16835     16838
     16835     16838     16839     16835     16838     16840     16839     16838     16840
     16838     16840     16841     16838     16840     16842     16841     16840     16842
     16840     16842     16843     16840     16842     16844     16840     16842     16845
     16843     16842     16844     16843     16842     16845     16844     16842     16845
     16842     16845     16846     16842     16845     16847     16846     16845     16847
     16845     16847     16848     16845     16847     16849     16848     16847     16849
     16847     16849     16850     16847     16849     16851     16847     16849     16852
     16850     16849     16851     16850     16849     16852     16851     16849     16852
     16849     16852     16853     16849     16852     16854     16853     16852     16854
     16852     16854     16855     16852     16854     16856     16855     16854     16856
     16854     16856     16857     16854     16856     16858     16854     16856     16859
     16857     16856     16858     16857     16856     16859     16858     16856     16859
     16856     16859     16860     16856     16859     16861     16856     16859     16862
     16860     16859     16861     16860     16859     16862     16861     16859     16862
     16859     16862     16863     16859     16862     16864     16859     16862     16865
     16863     16862     16864     16863     16862     16865     16864     16862     16865
     16862     16865     16866     16862     16865     16867     16862     16865     16868
     16866     16865     16867     16866     16865     16868     16867     16865     16868
     16865     16868     16869     16865     16868     16870     16865     16868     16871
     16869     16868     16870     16869     16868     16871     16870     16868     16871
     16822     16872     16873     16822     16872     16874     16822     16872     16875
     16873     16872     16874     16873     16872     16875     16874     16872     16875
     16872     16875     16876     16872     16875     16877     16872     16875     16878
     16876     16875     16877     16876     16875     16878     16877     16875     16878
     16875     16878     16879     16875     16878     16880     16875     16878     16881
     16879     16878     16880     16879     16878     16881     16880     16878     16881
     16878     16881     16882     16878     16881     16883     16878     16881     16884
     16882     16881     16883     16882     16881     16884     16883     16881     16884
     16881     16884     16885     16881     16884     16886     16881     16884     16887
     16885     16884     16886     16885     16884     16887     16886     16884     16887
     16884     16887     16888     16884     16887     16889     16884     16887     16890
     16888     16887     16889     16888     16887     16890     16889     16887     16890
     16887     16890     16891     16887     16890     16892     16887     16890     16893
     16891     16890     16892     16891     16890     16893     16892     16890     16893
     16890     16893     16894     16890     16893     16895     16890     16893     16896
     16894     16893     16895     16894     16893     16896     16895     16893     16896
     16893     16896     16897     16893     16896     16898     16893     16896     16899
     16897     16896     16898     16897     16896     16899     16898     16896     16899
     16896     16899     16900     16896     16899     16901     16896     16899     16902
     16900     16899     16901     16900     16899     16902     16901     16899     16902
     16899     16902     16903     16899     16902     16904     16899     16902     16905
     16903     16902     16904     16903     16902     16905     16904     16902     16905
     16902     16905     16906     16902     16905     16907     16902     16905     16908
     16906     16905     16907     16906     16905     16908     16907     16905     16908
     16905     16908     16909     16905     16908     16910     16905     16908     16911
     16909     16908     16910     16909     16908     16911     16910     16908     16911
     16908     16911     16912     16908     16911     16913     16908     16911     16914
     16912     16911     16913     16912     16911     16914     16913     16911     16914
     16911     16914     16915     16911     16914     16916     16911     16914     16917
     16915     16914     16916     16915     16914     16917     16916     16914     16917
     16914     16917     16918     16914     16917     16919     16914     16917     16920
     16918     16917     16919     16918     16917     16920     16919     16917     16920
     21632     21631     21636     21632     21631     21640     21632     21631     21644
     21636     21631     21640     21636     21631     21644     21640     21631     21644
     21631     21632     21633     21631     21632     21634     21631     21632     21635
     21633     21632     21634     21633     21632     21635     21634     21632     21635
     21631     21636     21637     21631     21636     21638     21631     21636     21639
     21637     21636     21638     21637     21636     21639     21638     21636     21639
     21631     21640     21641     21631     21640     21642     21631     21640     21643
     21641     21640     21642     21641     21640     21643     21642     21640     21643
     21631     21644     21645     21631     21644     21646     21631     21644     21647
     21645     21644     21646     21645     21644     21647     21646     21644     21647
     21644     21647     21648     21644     21647     21649     21644     21647     21653
     21648     21647     21649     21648     21647     21653     21649     21647     21653
     21651     21650     21652     21651     21650     21653     21651     21650     21654
     21652     21650     21653     21652     21650     21654     21653     21650     21654
     21647     21653     21650     21650     21654     21655     21654     21655     21656
     21654     21655     21657     21654     21655     21658     21656     21655     21657
     21656     21655     21658     21657     21655     21658     21655     21658     21659
     21655     21658     21660     21655     21658     21666     21659     21658     21660
     21659     21658     21666     21660     21658     21666     21658     21660     21661
     21660     21661     21662     21660     21661     21663     21662     21661     21663
     21661     21663     21664     21661     21663     21665     21661     21663     21675
     21664     21663     21665     21664     21663     21675     21665     21663     21675
     21658     21666     21667     21658     21666     21668     21658     21666     21669
     21667     21666     21668     21667     21666     21669     21668     21666     21669
     21666     21669     21670     21669     21670     21671     21669     21670     21672
     21671     21670     21672     21670     21672     21673     21670     21672     21674
     21670     21672     21720     21673     21672     21674     21673     21672     21720
     21674     21672     21720     21663     21675     21676     21663     21675     21677
     21663     21675     21678     21676     21675     21677     21676     21675     21678
     21677     21675     21678     21675     21678     21679     21675     21678     21680
     21675     21678     21681     21679     21678     21680     21679     21678     21681
     21680     21678     21681     21678     21681     21682     21678     21681     21683
     21678     21681     21684     21682     21681     21683     21682     21681     21684
     21683     21681     21684     21681     21684     21685     21681     21684     21686
     21681     21684     21687     21685     21684     21686     21685     21684     21687
     21686     21684     21687     21684     21687     21688     21684     21687     21689
     21684     21687     21690     21688     21687     21689     21688     21687     21690
     21689     21687     21690     21687     21690     21691     21687     21690     21692
     21687     21690     21693     21691     21690     21692     21691     21690     21693
     21692     21690     21693     21690     21693     21694     21690     21693     21695
     21694     21693     21695     21693     21695     21696     21693     21695     21697
     21696     21695     21697     21695     21697     21698     21695     21697     21699
     21695     21697     21700     21698     21697     21699     21698     21697     21700
     21699     21697     21700     21697     21700     21701     21697     21700     21702
     21701     21700     21702     21700     21702     21703     21700     21702     21704
     21703     21702     21704     21702     21704     21705     21702     21704     21706
     21702     21704     21707     21705     21704     21706     21705     21704     21707
     21706     21704     21707     21704     21707     21708     21704     21707     21709
     21704     21707     21710     21708     21707     21709     21708     21707     21710
     21709     21707     21710     21707     21710     21711     21707     21710     21712
     21707     21710     21713     21711     21710     21712     21711     21710     21713
     21712     21710     21713     21710     21713     21714     21710     21713     21715
     21710     21713     21716     21714     21713     21715     21714     21713     21716
     21715     21713     21716     21713     21716     21717     21713     21716     21718
     21713     21716     21719     21717     21716     21718     21717     21716     21719
     21718     21716     21719     21672     21720     21721     21672     21720     21722
     21672     21720     21723     21721     21720     21722     21721     21720     21723
     21722     21720     21723     21720     21723     21724     21720     21723     21725
     21720     21723     21726     21724     21723     21725     21724     21723     21726
     21725     21723     21726     21723     21726     21727     21723     21726     21728
     21723     21726     21729     21727     21726     21728     21727     21726     21729
     21728     21726     21729     21726     21729     21730     21726     21729     21731
     21726     21729     21732     21730     21729     21731     21730     21729     21732
     21731     21729     21732     21729     21732     21733     21729     21732     21734
     21729     21732     21735     21733     21732     21734     21733     21732     21735
     21734     21732     21735     21732     21735     21736     21732     21735     21737
     21732     21735     21738     21736     21735     21737     21736     21735     21738
     21737     21735     21738     21735     21738     21739     21735     21738     21740
     21735     21738     21741     21739     21738     21740     21739     21738     21741
     21740     21738     21741     21738     21741     21742     21738     21741     21743
     21738     21741     21744     21742     21741     21743     21742     21741     21744
     21743     21741     21744     21741     21744     21745     21741     21744     21746
     21741     21744     21747     21745     21744     21746     21745     21744     21747
     21746     21744     21747     21744     21747     21748     21744     21747     21749
     21744     21747     21750     21748     21747     21749     21748     21747     21750
     21749     21747     21750     21747     21750     21751     21747     21750     21752
     21747     21750     21753     21751     21750     21752     21751     21750     21753
     21752     21750     21753     21750     21753     21754     21750     21753     21755
     21750     21753     21756     21754     21753     21755     21754     21753     21756
     21755     21753     21756     21753     21756     21757     21753     21756     21758
     21753     21756     21759     21757     21756     21758     21757     21756     21759
     21758     21756     21759     21756     21759     21760     21756     21759     21761
     21756     21759     21762     21760     21759     21761     21760     21759     21762
     21761     21759     21762     21759     21762     21763     21759     21762     21764
     21759     21762     21765     21763     21762     21764     21763     21762     21765
     21764     21762     21765     21762     21765     21766     21762     21765     21767
     21762     21765     21768     21766     21765     21767     21766     21765     21768
     21767     21765     21768     12730     12729     12734     12730     12729     12738
     12730     12729     12742     12734     12729     12738     12734     12729     12742
     12738     12729     12742     12729     12730     12731     12729     12730     12732
     12729     12730     12733     12731     12730     12732     12731     12730     12733
     12732     12730     12733     12729     12734     12735     12729     12734     12736
     12729     12734     12737     12735     12734     12736     12735     12734     12737
     12736     12734     12737     12729     12738     12739     12729     12738     12740
     12729     12738     12741     12739     12738     12740     12739     12738     12741
     12740     12738     12741     12729     12742     12743     12729     12742     12744
     12729     12742     12745     12743     12742     12744     12743     12742     12745
     12744     12742     12745     12742     12745     12746     12742     12745     12747
     12742     12745     12752     12746     12745     12747     12746     12745     12752
     12747     12745     12752     12749     12748     12750     12749     12748     12751
     12749     12748     12752     12750     12748     12751     12750     12748     12752
     12751     12748     12752     12748     12751     12753     12745     12752     12748
     12751     12753     12754     12751     12753     12755     12751     12753     12758
     12754     12753     12755     12754     12753     12758     12755     12753     12758
     12757     12756     12758     12757     12756     12808     12758     12756     12808
     12753     12758     12756     12753     12758     12759     12753     12758     12760
     12756     12758     12759     12756     12758     12760     12759     12758     12760
     12758     12760     12761     12758     12760     12762     12758     12760     12764
     12761     12760     12762     12761     12760     12764     12762     12760     12764
     12760     12762     12763     12760     12764     12765     12760     12764     12766
     12765     12764     12766     12764     12766     12767     12764     12766     12768
     12767     12766     12768     12766     12768     12769     12766     12768     12770
     12766     12768     12771     12769     12768     12770     12769     12768     12771
     12770     12768     12771     12768     12771     12772     12768     12771     12773
     12768     12771     12774     12772     12771     12773     12772     12771     12774
     12773     12771     12774     12771     12774     12775     12771     12774     12776
     12771     12774     12777     12775     12774     12776     12775     12774     12777
     12776     12774     12777     12774     12777     12778     12774     12777     12779
     12774     12777     12780     12778     12777     12779     12778     12777     12780
     12779     12777     12780     12777     12780     12781     12777     12780     12782
     12777     12780     12783     12781     12780     12782     12781     12780     12783
     12782     12780     12783     12780     12783     12784     12780     12783     12785
     12780     12783     12786     12784     12783     12785     12784     12783     12786
     12785     12783     12786     12783     12786     12787     12783     12786     12788
     12783     12786     12789     12787     12786     12788     12787     12786     12789
     12788     12786     12789     12786     12789     12790     12786     12789     12791
     12786     12789     12792     12790     12789     12791     12790     12789     12792
     12791     12789     12792     12789     12792     12793     12789     12792     12794
     12789     12792     12795     12793     12792     12794     12793     12792     12795
     12794     12792     12795     12792     12795     12796     12792     12795     12797
     12792     12795     12798     12796     12795     12797     12796     12795     12798
     12797     12795     12798     12795     12798     12799     12795     12798     12800
     12795     12798     12801     12799     12798     12800     12799     12798     12801
     12800     12798     12801     12798     12801     12802     12798     12801     12803
     12798     12801     12804     12802     12801     12803     12802     12801     12804
     12803     12801     12804     12801     12804     12805     12801     12804     12806
     12801     12804     12807     12805     12804     12806     12805     12804     12807
     12806     12804     12807     12756     12808     12809     12756     12808     12810
     12809     12808     12810     12808     12810     12811     12808     12810     12812
     12808     12810     12813     12811     12810     12812     12811     12810     12813
     12812     12810     12813     12810     12813     12814     12810     12813     12815
     12810     12813     12816     12814     12813     12815     12814     12813     12816
     12815     12813     12816     12813     12816     12817     12813     12816     12818
     12813     12816     12819     12817     12816     12818     12817     12816     12819
     12818     12816     12819     12816     12819     12820     12816     12819     12821
     12816     12819     12822     12820     12819     12821     12820     12819     12822
     12821     12819     12822     12819     12822     12823     12819     12822     12824
     12819     12822     12825     12823     12822     12824     12823     12822     12825
     12824     12822     12825     12822     12825     12826     12822     12825     12827
     12822     12825     12828     12826     12825     12827     12826     12825     12828
     12827     12825     12828     12825     12828     12829     12825     12828     12830
     12825     12828     12831     12829     12828     12830     12829     12828     12831
     12830     12828     12831     12828     12831     12832     12828     12831     12833
     12832     12831     12833     12831     12833     12834     12831     12833     12835
     12834     12833     12835     12833     12835     12836     12833     12835     12837
     12833     12835     12838     12836     12835     12837     12836     12835     12838
     12837     12835     12838     12835     12838     12839     12835     12838     12840
     12835     12838     12841     12839     12838     12840     12839     12838     12841
     12840     12838     12841     12838     12841     12842     12838     12841     12843
     12838     12841     12844     12842     12841     12843     12842     12841     12844
     12843     12841     12844     12841     12844     12845     12841     12844     12846
     12841     12844     12847     12845     12844     12846     12845     12844     12847
     12846     12844     12847     12844     12847     12848     12844     12847     12849
     12844     12847     12850     12848     12847     12849     12848     12847     12850
     12849     12847     12850     12847     12850     12851     12847     12850     12852
     12847     12850     12853     12851     12850     12852     12851     12850     12853
     12852     12850     12853     12850     12853     12854     12850     12853     12855
     12850     12853     12856     12854     12853     12855     12854     12853     12856
     12855     12853     12856     12853     12856     12857     12853     12856     12858
     12853     12856     12859     12857     12856     12858     12857     12856     12859
     12858     12856     12859     12861     12860     12865     12861     12860     12869
     12861     12860     12873     12865     12860     12869     12865     12860     12873
     12869     12860     12873     12860     12861     12862     12860     12861     12863
     12860     12861     12864     12862     12861     12863     12862     12861     12864
     12863     12861     12864     12860     12865     12866     12860     12865     12867
     12860     12865     12868     12866     12865     12867     12866     12865     12868
     12867     12865     12868     12860     12869     12870     12860     12869     12871
     12860     12869     12872     12870     12869     12871     12870     12869     12872
     12871     12869     12872     12860     12873     12874     12860     12873     12875
     12860     12873     12876     12874     12873     12875     12874     12873     12876
     12875     12873     12876     12873     12876     12877     12873     12876     12878
     12873     12876     12883     12877     12876     12878     12877     12876     12883
     12878     12876     12883     12880     12879     12881     12880     12879     12882
     12880     12879     12883     12881     12879     12882     12881     12879     12883
     12882     12879     12883     12879     12882     12884     12876     12883     12879
     12882     12884     12885     12882     12884     12886     12882     12884     12889
     12885     12884     12886     12885     12884     12889     12886     12884     12889
     12888     12887     12889     12888     12887     12939     12889     12887     12939
     12884     12889     12887     12884     12889     12890     12884     12889     12891
     12887     12889     12890     12887     12889     12891     12890     12889     12891
     12889     12891     12892     12889     12891     12893     12889     12891     12895
     12892     12891     12893     12892     12891     12895     12893     12891     12895
     12891     12893     12894     12891     12895     12896     12891     12895     12897
     12896     12895     12897     12895     12897     12898     12895     12897     12899
     12898     12897     12899     12897     12899     12900     12897     12899     12901
     12897     12899     12902     12900     12899     12901     12900     12899     12902
     12901     12899     12902     12899     12902     12903     12899     12902     12904
     12899     12902     12905     12903     12902     12904     12903     12902     12905
     12904     12902     12905     12902     12905     12906     12902     12905     12907
     12902     12905     12908     12906     12905     12907     12906     12905     12908
     12907     12905     12908     12905     12908     12909     12905     12908     12910
     12905     12908     12911     12909     12908     12910     12909     12908     12911
     12910     12908     12911     12908     12911     12912     12908     12911     12913
     12908     12911     12914     12912     12911     12913     12912     12911     12914
     12913     12911     12914     12911     12914     12915     12911     12914     12916
     12911     12914     12917     12915     12914     12916     12915     12914     12917
     12916     12914     12917     12914     12917     12918     12914     12917     12919
     12914     12917     12920     12918     12917     12919     12918     12917     12920
     12919     12917     12920     12917     12920     12921     12917     12920     12922
     12917     12920     12923     12921     12920     12922     12921     12920     12923
     12922     12920     12923     12920     12923     12924     12920     12923     12925
     12920     12923     12926     12924     12923     12925     12924     12923     12926
     12925     12923     12926     12923     12926     12927     12923     12926     12928
     12923     12926     12929     12927     12926     12928     12927     12926     12929
     12928     12926     12929     12926     12929     12930     12926     12929     12931
     12926     12929     12932     12930     12929     12931     12930     12929     12932
     12931     12929     12932     12929     12932     12933     12929     12932     12934
     12929     12932     12935     12933     12932     12934     12933     12932     12935
     12934     12932     12935     12932     12935     12936     12932     12935     12937
     12932     12935     12938     12936     12935     12937     12936     12935     12938
     12937     12935     12938     12887     12939     12940     12887     12939     12941
     12940     12939     12941     12939     12941     12942     12939     12941     12943
     12939     12941     12944     12942     12941     12943     12942     12941     12944
     12943     12941     12944     12941     12944     12945     12941     12944     12946
     12941     12944     12947     12945     12944     12946     12945     12944     12947
     12946     12944     12947     12944     12947     12948     12944     12947     12949
     12944     12947     12950     12948     12947     12949     12948     12947     12950
     12949     12947     12950     12947     12950     12951     12947     12950     12952
     12947     12950     12953     12951     12950     12952     12951     12950     12953
     12952     12950     12953     12950     12953     12954     12950     12953     12955
     12950     12953     12956     12954     12953     12955     12954     12953     12956
     12955     12953     12956     12953     12956     12957     12953     12956     12958
     12953     12956     12959     12957     12956     12958     12957     12956     12959
     12958     12956     12959     12956     12959     12960     12956     12959     12961
     12956     12959     12962     12960     12959     12961     12960     12959     12962
     12961     12959     12962     12959     12962     12963     12959     12962     12964
     12963     12962     12964     12962     12964     12965     12962     12964     12966
     12965     12964     12966     12964     12966     12967     12964     12966     12968
     12964     12966     12969     12967     12966     12968     12967     12966     12969
     12968     12966     12969     12966     12969     12970     12966     12969     12971
     12966     12969     12972     12970     12969     12971     12970     12969     12972
     12971     12969     12972     12969     12972     12973     12969     12972     12974
     12969     12972     12975     12973     12972     12974     12973     12972     12975
     12974     12972     12975     12972     12975     12976     12972     12975     12977
     12972     12975     12978     12976     12975     12977     12976     12975     12978
     12977     12975     12978     12975     12978     12979     12975     12978     12980
     12975     12978     12981     12979     12978     12980     12979     12978     12981
     12980     12978     12981     12978     12981     12982     12978     12981     12983
     12978     12981     12984     12982     12981     12983     12982     12981     12984
     12983     12981     12984     12981     12984     12985     12981     12984     12986
     12981     12984     12987     12985     12984     12986     12985     12984     12987
     12986     12984     12987     12984     12987     12988     12984     12987     12989
     12984     12987     12990     12988     12987     12989     12988     12987     12990
     12989     12987     12990     12992     12991     12996     12992     12991     13000
     12992     12991     13004     12996     12991     13000     12996     12991     13004
     13000     12991     13004     12991     12992     12993     12991     12992     12994
     12991     12992     12995     12993     12992     12994     12993     12992     12995
     12994     12992     12995     12991     12996     12997     12991     12996     12998
     12991     12996     12999     12997     12996     12998     12997     12996     12999
     12998     12996     12999     12991     13000     13001     12991     13000     13002
     12991     13000     13003     13001     13000     13002     13001     13000     13003
     13002     13000     13003     12991     13004     13005     12991     13004     13006
     12991     13004     13007     13005     13004     13006     13005     13004     13007
     13006     13004     13007     13004     13007     13008     13004     13007     13009
     13004     13007     13014     13008     13007     13009     13008     13007     13014
     13009     13007     13014     13011     13010     13012     13011     13010     13013
     13011     13010     13014     13012     13010     13013     13012     13010     13014
     13013     13010     13014     13010     13013     13015     13007     13014     13010
     13013     13015     13016     13013     13015     13017     13013     13015     13020
     13016     13015     13017     13016     13015     13020     13017     13015     13020
     13019     13018     13020     13019     13018     13070     13020     13018     13070
     13015     13020     13018     13015     13020     13021     13015     13020     13022
     13018     13020     13021     13018     13020     13022     13021     13020     13022
     13020     13022     13023     13020     13022     13024     13020     13022     13026
     13023     13022     13024     13023     13022     13026     13024     13022     13026
     13022     13024     13025     13022     13026     13027     13022     13026     13028
     13027     13026     13028     13026     13028     13029     13026     13028     13030
     13029     13028     13030     13028     13030     13031     13028     13030     13032
     13028     13030     13033     13031     13030     13032     13031     13030     13033
     13032     13030     13033     13030     13033     13034     13030     13033     13035
     13030     13033     13036     13034     13033     13035     13034     13033     13036
     13035     13033     13036     13033     13036     13037     13033     13036     13038
     13033     13036     13039     13037     13036     13038     13037     13036     13039
     13038     13036     13039     13036     13039     13040     13036     13039     13041
     13036     13039     13042     13040     13039     13041     13040     13039     13042
     13041     13039     13042     13039     13042     13043     13039     13042     13044
     13039     13042     13045     13043     13042     13044     13043     13042     13045
     13044     13042     13045     13042     13045     13046     13042     13045     13047
     13042     13045     13048     13046     13045     13047     13046     13045     13048
     13047     13045     13048     13045     13048     13049     13045     13048     13050
     13045     13048     13051     13049     13048     13050     13049     13048     13051
     13050     13048     13051     13048     13051     13052     13048     13051     13053
     13048     13051     13054     13052     13051     13053     13052     13051     13054
     13053     13051     13054     13051     13054     13055     13051     13054     13056
     13051     13054     13057     13055     13054     13056     13055     13054     13057
     13056     13054     13057     13054     13057     13058     13054     13057     13059
     13054     13057     13060     13058     13057     13059     13058     13057     13060
     13059     13057     13060     13057     13060     13061     13057     13060     13062
     13057     13060     13063     13061     13060     13062     13061     13060     13063
     13062     13060     13063     13060     13063     13064     13060     13063     13065
     13060     13063     13066     13064     13063     13065     13064     13063     13066
     13065     13063     13066     13063     13066     13067     13063     13066     13068
     13063     13066     13069     13067     13066     13068     13067     13066     13069
     13068     13066     13069     13018     13070     13071     13018     13070     13072
     13071     13070     13072     13070     13072     13073     13070     13072     13074
     13070     13072     13075     13073     13072     13074     13073     13072     13075
     13074     13072     13075     13072     13075     13076     13072     13075     13077
     13072     13075     13078     13076     13075     13077     13076     13075     13078
     13077     13075     13078     13075     13078     13079     13075     13078     13080
     13075     13078     13081     13079     13078     13080     13079     13078     13081
     13080     13078     13081     13078     13081     13082     13078     13081     13083
     13078     13081     13084     13082     13081     13083     13082     13081     13084
     13083     13081     13084     13081     13084     13085     13081     13084     13086
     13081     13084     13087     13085     13084     13086     13085     13084     13087
     13086     13084     13087     13084     13087     13088     13084     13087     13089
     13084     13087     13090     13088     13087     13089     13088     13087     13090
     13089     13087     13090     13087     13090     13091     13087     13090     13092
     13087     13090     13093     13091     13090     13092     13091     13090     13093
     13092     13090     13093     13090     13093     13094     13090     13093     13095
     13094     13093     13095     13093     13095     13096     13093     13095     13097
     13096     13095     13097     13095     13097     13098     13095     13097     13099
     13095     13097     13100     13098     13097     13099     13098     13097     13100
     13099     13097     13100     13097     13100     13101     13097     13100     13102
     13097     13100     13103     13101     13100     13102     13101     13100     13103
     13102     13100     13103     13100     13103     13104     13100     13103     13105
     13100     13103     13106     13104     13103     13105     13104     13103     13106
     13105     13103     13106     13103     13106     13107     13103     13106     13108
     13103     13106     13109     13107     13106     13108     13107     13106     13109
     13108     13106     13109     13106     13109     13110     13106     13109     13111
     13106     13109     13112     13110     13109     13111     13110     13109     13112
     13111     13109     13112     13109     13112     13113     13109     13112     13114
     13109     13112     13115     13113     13112     13114     13113     13112     13115
     13114     13112     13115     13112     13115     13116     13112     13115     13117
     13112     13115     13118     13116     13115     13117     13116     13115     13118
     13117     13115     13118     13115     13118     13119     13115     13118     13120
     13115     13118     13121     13119     13118     13120     13119     13118     13121
     13120     13118     13121      5040      5039      5043      5040      5039      5047
      5040      5039      5051      5043      5039      5047      5043      5039      5051
      5047      5039      5051      5039      5040      5041      5039      5040      5042
      5039      5040      5055      5041      5040      5042      5041      5040      5055
      5042      5040      5055      5039      5043      5044      5039      5043      5045
      5039      5043      5046      5044      5043      5045      5044      5043      5046
      5045      5043      5046      5039      5047      5048      5039      5047      5049
      5039      5047      5050      5048      5047      5049      5048      5047      5050
      5049      5047      5050      5039      5051      5052      5039      5051      5053
      5039      5051      5054      5052      5051      5053      5052      5051      5054
      5053      5051      5054      5040      5055      5056      5040      5055      5057
      5040      5055      5061      5056      5055      5057      5056      5055      5061
      5057      5055      5061      5059      5058      5060      5059      5058      5061
      5059      5058      5062      5060      5058      5061      5060      5058      5062
      5061      5058      5062      5055      5061      5058      5058      5062      5063
      5062      5063      5064      5062      5063      5065      5062      5063      5066
      5064      5063      5065      5064      5063      5066      5065      5063      5066
      5063      5066      5067      5063      5066      5068      5063      5066      5074
      5067      5066      5068      5067      5066      5074      5068      5066      5074
      5066      5068      5069      5068      5069      5070      5068      5069      5071
      5070      5069      5071      5069      5071      5072      5069      5071      5073
      5069      5071      5083      5072      5071      5073      5072      5071      5083
      5073      5071      5083      5066      5074      5075      5066      5074      5076
      5066      5074      5077      5075      5074      5076      5075      5074      5077
      5076      5074      5077      5074      5077      5078      5077      5078      5079
      5077      5078      5080      5079      5078      5080      5078      5080      5081
      5078      5080      5082      5078      5080      5130      5081      5080      5082
      5081      5080      5130      5082      5080      5130      5071      5083      5084
      5071      5083      5085      5071      5083      5086      5084      5083      5085
      5084      5083      5086      5085      5083      5086      5083      5086      5087
      5083      5086      5088      5083      5086      5089      5087      5086      5088
      5087      5086      5089      5088      5086      5089      5086      5089      5090
      5086      5089      5091      5086      5089      5092      5090      5089      5091
      5090      5089      5092      5091      5089      5092      5089      5092      5093
      5089      5092      5094      5089      5092      5095      5093      5092      5094
      5093      5092      5095      5094      5092      5095      5092      5095      5096
      5092      5095      5097      5092      5095      5098      5096      5095      5097
      5096      5095      5098      5097      5095      5098      5095      5098      5099
      5095      5098      5100      5095      5098      5101      5099      5098      5100
      5099      5098      5101      5100      5098      5101      5098      5101      5102
      5098      5101      5103      5102      5101      5103      5101      5103      5104
      5101      5103      5105      5104      5103      5105      5103      5105      5106
      5103      5105      5107      5103      5105      5108      5106      5105      5107
      5106      5105      5108      5107      5105      5108      5105      5108      5109
      5105      5108      5110      5105      5108      5111      5109      5108      5110
      5109      5108      5111      5110      5108      5111      5108      5111      5112
      5108      5111      5113      5108      5111      5114      5112      5111      5113
      5112      5111      5114      5113      5111      5114      5111      5114      5115
      5111      5114      5116      5111      5114      5117      5115      5114      5116
      5115      5114      5117      5116      5114      5117      5114      5117      5118
      5114      5117      5119      5114      5117      5120      5118      5117      5119
      5118      5117      5120      5119      5117      5120      5117      5120      5121
      5117      5120      5122      5117      5120      5123      5121      5120      5122
      5121      5120      5123      5122      5120      5123      5120      5123      5124
      5120      5123      5125      5120      5123      5126      5124      5123      5125
      5124      5123      5126      5125      5123      5126      5123      5126      5127
      5123      5126      5128      5123      5126      5129      5127      5126      5128
      5127      5126      5129      5128      5126      5129      5080      5130      5131
      5080      5130      5132      5080      5130      5133      5131      5130      5132
      5131      5130      5133      5132      5130      5133      5130      5133      5134
      5130      5133      5135      5130      5133      5136      5134      5133      5135
      5134      5133      5136      5135      5133      5136      5133      5136      5137
      5133      5136      5138      5133      5136      5139      5137      5136      5138
      5137      5136      5139      5138      5136      5139      5136      5139      5140
      5136      5139      5141      5136      5139      5142      5140      5139      5141
      5140      5139      5142      5141      5139      5142      5139      5142      5143
      5139      5142      5144      5139      5142      5145      5143      5142      5144
      5143      5142      5145      5144      5142      5145      5142      5145      5146
      5142      5145      5147      5142      5145      5148      5146      5145      5147
      5146      5145      5148      5147      5145      5148      5145      5148      5149
      5145      5148      5150      5145      5148      5151      5149      5148      5150
      5149      5148      5151      5150      5148      5151      5148      5151      5152
      5148      5151      5153      5148      5151      5154      5152      5151      5153
      5152      5151      5154      5153      5151      5154      5151      5154      5155
      5151      5154      5156      5151      5154      5157      5155      5154      5156
      5155      5154      5157      5156      5154      5157      5154      5157      5158
      5154      5157      5159      5154      5157      5160      5158      5157      5159
      5158      5157      5160      5159      5157      5160      5157      5160      5161
      5157      5160      5162      5157      5160      5163      5161      5160      5162
      5161      5160      5163      5162      5160      5163      5160      5163      5164
      5160      5163      5165      5160      5163      5166      5164      5163      5165
      5164      5163      5166      5165      5163      5166      5163      5166      5167
      5163      5166      5168      5163      5166      5169      5167      5166      5168
      5167      5166      5169      5168      5166      5169      5166      5169      5170
      5166      5169      5171      5166      5169      5172      5170      5169      5171
      5170      5169      5172      5171      5169      5172      1199      1198      1200
      1199      1198      1201      1199      1198      1202      1200      1198      1201
      1200      1198      1202      1201      1198      1202      1198      1202      1203
      1198      1202      1204      1198      1202      1207      1203      1202      1204
      1203      1202      1207      1204      1202      1207      1202      1204      1205
      1202      1204      1206      1205      1204      1206      1202      1207      1208
      1202      1207      1209      1202      1207      1213      1208      1207      1209
      1208      1207      1213      1209      1207      1213      1211      1210      1212
      1211      1210      1213      1211      1210      1214      1212      1210      1213
      1212      1210      1214      1213      1210      1214      1207      1213      1210
      1210      1214      1215      1214      1215      1216      1214      1215      1217
      1214      1215      1218      1216      1215      1217      1216      1215      1218
      1217      1215      1218      1215      1218      1219      1215      1218      1220
      1215      1218      1226      1219      1218      1220      1219      1218      1226
      1220      1218      1226      1218      1220      1221      1220      1221      1222
      1220      1221      1223      1222      1221      1223      1221      1223      1224
      1221      1223      1225      1221      1223      1235      1224      1223      1225
      1224      1223      1235      1225      1223      1235      1218      1226      1227
      1218      1226      1228      1218      1226      1229      1227      1226      1228
      1227      1226      1229      1228      1226      1229      1226      1229      1230
      1229      1230      1231      1229      1230      1232      1231      1230      1232
      1230      1232      1233      1230      1232      1234      1230      1232      1282
      1233      1232      1234      1233      1232      1282      1234      1232      1282
      1223      1235      1236      1223      1235      1237      1223      1235      1238
      1236      1235      1237      1236      1235      1238      1237      1235      1238
      1235      1238      1239      1235      1238      1240      1235      1238      1241
      1239      1238      1240      1239      1238      1241      1240      1238      1241
      1238      1241      1242      1238      1241      1243      1242      1241      1243
      1241      1243      1244      1241      1243      1245      1244      1243      1245
      1243      1245      1246      1243      1245      1247      1243      1245      1248
      1246      1245      1247      1246      1245      1248      1247      1245      1248
      1245      1248      1249      1245      1248      1250      1249      1248      1250
      1248      1250      1251      1248      1250      1252      1251      1250      1252
      1250      1252      1253      1250      1252      1254      1250      1252      1255
      1253      1252      1254      1253      1252      1255      1254      1252      1255
      1252      1255      1256      1252      1255      1257      1256      1255      1257
      1255      1257      1258      1255      1257      1259      1258      1257      1259
      1257      1259      1260      1257      1259      1261      1257      1259      1262
      1260      1259      1261      1260      1259      1262      1261      1259      1262
      1259      1262      1263      1259      1262      1264      1263      1262      1264
      1262      1264      1265      1262      1264      1266      1265      1264      1266
      1264      1266      1267      1264      1266      1268      1264      1266      1269
      1267      1266      1268      1267      1266      1269      1268      1266      1269
      1266      1269      1270      1266      1269      1271      1266      1269      1272
      1270      1269      1271      1270      1269      1272      1271      1269      1272
      1269      1272      1273      1269      1272      1274      1269      1272      1275
      1273      1272      1274      1273      1272      1275      1274      1272      1275
      1272      1275      1276      1272      1275      1277      1272      1275      1278
      1276      1275      1277      1276      1275      1278      1277      1275      1278
      1275      1278      1279      1275      1278      1280      1275      1278      1281
      1279      1278      1280      1279      1278      1281      1280      1278      1281
      1232      1282      1283      1232      1282      1284      1232      1282      1285
      1283      1282      1284      1283      1282      1285      1284      1282      1285
      1282      1285      1286      1282      1285      1287      1282      1285      1288
      1286      1285      1287      1286      1285      1288      1287      1285      1288
      1285      1288      1289      1285      1288      1290      1285      1288      1291
      1289      1288      1290      1289      1288      1291      1290      1288      1291
      1288      1291      1292      1288      1291      1293      1288      1291      1294
      1292      1291      1293      1292      1291      1294      1293      1291      1294
      1291      1294      1295      1291      1294      1296      1291      1294      1297
      1295      1294      1296      1295      1294      1297      1296      1294      1297
      1294      1297      1298      1294      1297      1299      1294      1297      1300
      1298      1297      1299      1298      1297      1300      1299      1297      1300
      1297      1300      1301      1297      1300      1302      1297      1300      1303
      1301      1300      1302      1301      1300      1303      1302      1300      1303
      1300      1303      1304      1300      1303      1305      1300      1303      1306
      1304      1303      1305      1304      1303      1306      1305      1303      1306
      1303      1306      1307      1303      1306      1308      1303      1306      1309
      1307      1306      1308      1307      1306      1309      1308      1306      1309
      1306      1309      1310      1306      1309      1311      1306      1309      1312
      1310      1309      1311      1310      1309      1312      1311      1309      1312
      1309      1312      1313      1309      1312      1314      1309      1312      1315
      1313      1312      1314      1313      1312      1315      1314      1312      1315
      1312      1315      1316      1312      1315      1317      1312      1315      1318
      1316      1315      1317      1316      1315      1318      1317      1315      1318
      1315      1318      1319      1315      1318      1320      1315      1318      1321
      1319      1318      1320      1319      1318      1321      1320      1318      1321
      1318      1321      1322      1318      1321      1323      1318      1321      1324
      1322      1321      1323      1322      1321      1324      1323      1321      1324
      1321      1324      1325      1321      1324      1326      1321      1324      1327
      1325      1324      1326      1325      1324      1327      1326      1324      1327
      1324      1327      1328      1324      1327      1329      1324      1327      1330
      1328      1327      1329      1328      1327      1330      1329      1327      1330
      7958      7957      7959      7958      7957      7961      7958      7957      8003
      7959      7957      7961      7959      7957      8003      7961      7957      8003
      7957      7959      7960      7957      7961      7962      7957      7961      7963
      7957      7961      7964      7962      7961      7963      7962      7961      7964
      7963      7961      7964      7961      7964      7965      7961      7964      7995
      7965      7964      7995      7964      7965      7966      7964      7965      7967
      7966      7965      7967      7965      7967      7968      7965      7967      7969
      7965      7967      7970      7968      7967      7969      7968      7967      7970
      7969      7967      7970      7967      7970      7971      7967      7970      7972
      7967      7970      7993      7971      7970      7972      7971      7970      7993
      7972      7970      7993      7970      7972      7973      7970      7972      7974
      7970      7972      7982      7973      7972      7974      7973      7972      7982
      7974      7972      7982      7972      7974      7975      7972      7974      7976
      7972      7974      7977      7975      7974      7976      7975      7974      7977
      7976      7974      7977      7974      7977      7978      7974      7977      7979
      7974      7977      7980      7978      7977      7979      7978      7977      7980
      7979      7977      7980      7977      7980      7981      7977      7980      7982
      7977      7980      8006      7981      7980      7982      7981      7980      8006
      7982      7980      8006      7972      7982      7980      7972      7982      7983
      7972      7982      7987      7980      7982      7983      7980      7982      7987
      7983      7982      7987      7982      7983      7984      7982      7983      7985
      7982      7983      7986      7984      7983      7985      7984      7983      7986
      7985      7983      7986      7982      7987      7988      7982      7987      7989
      7982      7987      7990      7988      7987      7989      7988      7987      7990
      7989      7987      7990      7987      7990      7991      7987      7990      7992
      7987      7990      7993      7991      7990      7992      7991      7990      7993
      7992      7990      7993      7970      7993      7990      7970      7993      7994
      7970      7993      7995      7990      7993      7994      7990      7993      7995
      7994      7993      7995      7964      7995      7993      7964      7995      7996
      7964      7995      8000      7993      7995      7996      7993      7995      8000
      7996      7995      8000      7995      7996      7997      7995      7996      7998
      7995      7996      7999      7997      7996      7998      7997      7996      7999
      7998      7996      7999      7995      8000      8001      7995      8000      8002
      7995      8000      8003      8001      8000      8002      8001      8000      8003
      8002      8000      8003      7957      8003      8000      7957      8003      8004
      7957      8003      8005      8000      8003      8004      8000      8003      8005
      8004      8003      8005      7980      8006      8007      7980      8006      8008
      7980      8006      8012      8007      8006      8008      8007      8006      8012
      8008      8006      8012      8006      8008      8009      8006      8008      8010
      8006      8008      8011      8009      8008      8010      8009      8008      8011
      8010      8008      8011      8006      8012      8013      8006      8012      8014
      8006      8012      8015      8013      8012      8014      8013      8012      8015
      8014      8012      8015      8012      8015      8016      8012      8015      8017
      8012      8015      8018      8016      8015      8017      8016      8015      8018
      8017      8015      8018      8015      8018      8019      8015      8018      8020
      8015      8018      8021      8019      8018      8020      8019      8018      8021
      8020      8018      8021      8018      8021      8022      8018      8021      8023
      8018      8021      8027      8022      8021      8023      8022      8021      8027
      8023      8021      8027      8021      8023      8024      8021      8023      8025
      8021      8023      8026      8024      8023      8025      8024      8023      8026
      8025      8023      8026      8021      8027      8028      8021      8027      8029
      8021      8027      8030      8028      8027      8029      8028      8027      8030
      8029      8027      8030     16922     16921     16923     16922     16921     16924
     16922     16921     16925     16923     16921     16924     16923     16921     16925
     16924     16921     16925     16921     16925     16926     16921     16925     16927
     16921     16925     16928     16926     16925     16927     16926     16925     16928
     16927     16925     16928     16925     16928     16929     16925     16928     16930
     16925     16928     16934     16929     16928     16930     16929     16928     16934
     16930     16928     16934     16932     16931     16933     16932     16931     16934
     16932     16931     16935     16933     16931     16934     16933     16931     16935
     16934     16931     16935     16928     16934     16931     16931     16935     16936
     16935     16936     16937     16935     16936     16938     16935     16936     16939
     16937     16936     16938     16937     16936     16939     16938     16936     16939
     16936     16939     16940     16936     16939     16941     16936     16939     16947
     16940     16939     16941     16940     16939     16947     16941     16939     16947
     16939     16941     16942     16941     16942     16943     16941     16942     16944
     16943     16942     16944     16942     16944     16945     16942     16944     16946
     16942     16944     16956     16945     16944     16946     16945     16944     16956
     16946     16944     16956     16939     16947     16948     16939     16947     16949
     16939     16947     16950     16948     16947     16949     16948     16947     16950
     16949     16947     16950     16947     16950     16951     16950     16951     16952
     16950     16951     16953     16952     16951     16953     16951     16953     16954
     16951     16953     16955     16951     16953     17003     16954     16953     16955
     16954     16953     17003     16955     16953     17003     16944     16956     16957
     16944     16956     16958     16944     16956     16959     16957     16956     16958
     16957     16956     16959     16958     16956     16959     16956     16959     16960
     16956     16959     16961     16956     16959     16962     16960     16959     16961
     16960     16959     16962     16961     16959     16962     16959     16962     16963
     16959     16962     16964     16963     16962     16964     16962     16964     16965
     16962     16964     16966     16965     16964     16966     16964     16966     16967
     16964     16966     16968     16964     16966     16969     16967     16966     16968
     16967     16966     16969     16968     16966     16969     16966     16969     16970
     16966     16969     16971     16970     16969     16971     16969     16971     16972
     16969     16971     16973     16972     16971     16973     16971     16973     16974
     16971     16973     16975     16971     16973     16976     16974     16973     16975
     16974     16973     16976     16975     16973     16976     16973     16976     16977
     16973     16976     16978     16977     16976     16978     16976     16978     16979
     16976     16978     16980     16979     16978     16980     16978     16980     16981
     16978     16980     16982     16978     16980     16983     16981     16980     16982
     16981     16980     16983     16982     16980     16983     16980     16983     16984
     16980     16983     16985     16984     16983     16985     16983     16985     16986
     16983     16985     16987     16986     16985     16987     16985     16987     16988
     16985     16987     16989     16985     16987     16990     16988     16987     16989
     16988     16987     16990     16989     16987     16990     16987     16990     16991
     16987     16990     16992     16987     16990     16993     16991     16990     16992
     16991     16990     16993     16992     16990     16993     16990     16993     16994
     16990     16993     16995     16990     16993     16996     16994     16993     16995
     16994     16993     16996     16995     16993     16996     16993     16996     16997
     16993     16996     16998     16993     16996     16999     16997     16996     16998
     16997     16996     16999     16998     16996     16999     16996     16999     17000
     16996     16999     17001     16996     16999     17002     17000     16999     17001
     17000     16999     17002     17001     16999     17002     16953     17003     17004
     16953     17003     17005     16953     17003     17006     17004     17003     17005
     17004     17003     17006     17005     17003     17006     17003     17006     17007
     17003     17006     17008     17003     17006     17009     17007     17006     17008
     17007     17006     17009     17008     17006     17009     17006     17009     17010
     17006     17009     17011     17006     17009     17012     17010     17009     17011
     17010     17009     17012     17011     17009     17012     17009     17012     17013
     17009     17012     17014     17009     17012     17015     17013     17012     17014
     17013     17012     17015     17014     17012     17015     17012     17015     17016
     17012     17015     17017     17012     17015     17018     17016     17015     17017
     17016     17015     17018     17017     17015     17018     17015     17018     17019
     17015     17018     17020     17015     17018     17021     17019     17018     17020
     17019     17018     17021     17020     17018     17021     17018     17021     17022
     17018     17021     17023     17018     17021     17024     17022     17021     17023
     17022     17021     17024     17023     17021     17024     17021     17024     17025
     17021     17024     17026     17021     17024     17027     17025     17024     17026
     17025     17024     17027     17026     17024     17027     17024     17027     17028
     17024     17027     17029     17024     17027     17030     17028     17027     17029
     17028     17027     17030     17029     17027     17030     17027     17030     17031
     17027     17030     17032     17027     17030     17033     17031     17030     17032
     17031     17030     17033     17032     17030     17033     17030     17033     17034
     17030     17033     17035     17030     17033     17036     17034     17033     17035
     17034     17033     17036     17035     17033     17036     17033     17036     17037
     17033     17036     17038     17033     17036     17039     17037     17036     17038
     17037     17036     17039     17038     17036     17039     17036     17039     17040
     17036     17039     17041     17036     17039     17042     17040     17039     17041
     17040     17039     17042     17041     17039     17042     17039     17042     17043
     17039     17042     17044     17039     17042     17045     17043     17042     17044
     17043     17042     17045     17044     17042     17045     17042     17045     17046
     17042     17045     17047     17042     17045     17048     17046     17045     17047
     17046     17045     17048     17047     17045     17048     17045     17048     17049
     17045     17048     17050     17045     17048     17051     17049     17048     17050
     17049     17048     17051     17050     17048     17051      5174      5173      5177
      5174      5173      5181      5174      5173      5185      5177      5173      5181
      5177      5173      5185      5181      5173      5185      5173      5174      5175
      5173      5174      5176      5173      5174      5189      5175      5174      5176
      5175      5174      5189      5176      5174      5189      5173      5177      5178
      5173      5177      5179      5173      5177      5180      5178      5177      5179
      5178      5177      5180      5179      5177      5180      5173      5181      5182
      5173      5181      5183      5173      5181      5184      5182      5181      5183
      5182      5181      5184      5183      5181      5184      5173      5185      5186
      5173      5185      5187      5173      5185      5188      5186      5185      5187
      5186      5185      5188      5187      5185      5188      5174      5189      5190
      5174      5189      5191      5174      5189      5195      5190      5189      5191
      5190      5189      5195      5191      5189      5195      5193      5192      5194
      5193      5192      5195      5193      5192      5196      5194      5192      5195
      5194      5192      5196      5195      5192      5196      5189      5195      5192
      5192      5196      5197      5196      5197      5198      5196      5197      5199
      5196      5197      5200      5198      5197      5199      5198      5197      5200
      5199      5197      5200      5197      5200      5201      5197      5200      5202
      5197      5200      5208      5201      5200      5202      5201      5200      5208
      5202      5200      5208      5200      5202      5203      5202      5203      5204
      5202      5203      5205      5204      5203      5205      5203      5205      5206
      5203      5205      5207      5203      5205      5217      5206      5205      5207
      5206      5205      5217      5207      5205      5217      5200      5208      5209
      5200      5208      5210      5200      5208      5211      5209      5208      5210
      5209      5208      5211      5210      5208      5211      5208      5211      5212
      5211      5212      5213      5211      5212      5214      5213      5212      5214
      5212      5214      5215      5212      5214      5216      5212      5214      5264
      5215      5214      5216      5215      5214      5264      5216      5214      5264
      5205      5217      5218      5205      5217      5219      5205      5217      5220
      5218      5217      5219      5218      5217      5220      5219      5217      5220
      5217      5220      5221      5217      5220      5222      5217      5220      5223
      5221      5220      5222      5221      5220      5223      5222      5220      5223
      5220      5223      5224      5220      5223      5225      5220      5223      5226
      5224      5223      5225      5224      5223      5226      5225      5223      5226
      5223      5226      5227      5223      5226      5228      5223      5226      5229
      5227      5226      5228      5227      5226      5229      5228      5226      5229
      5226      5229      5230      5226      5229      5231      5226      5229      5232
      5230      5229      5231      5230      5229      5232      5231      5229      5232
      5229      5232      5233      5229      5232      5234      5229      5232      5235
      5233      5232      5234      5233      5232      5235      5234      5232      5235
      5232      5235      5236      5232      5235      5237      5236      5235      5237
      5235      5237      5238      5235      5237      5239      5238      5237      5239
      5237      5239      5240      5237      5239      5241      5237      5239      5242
      5240      5239      5241      5240      5239      5242      5241      5239      5242
      5239      5242      5243      5239      5242      5244      5239      5242      5245
      5243      5242      5244      5243      5242      5245      5244      5242      5245
      5242      5245      5246      5242      5245      5247      5242      5245      5248
      5246      5245      5247      5246      5245      5248      5247      5245      5248
      5245      5248      5249      5245      5248      5250      5245      5248      5251
      5249      5248      5250      5249      5248      5251      5250      5248      5251
      5248      5251      5252      5248      5251      5253      5248      5251      5254
      5252      5251      5253      5252      5251      5254      5253      5251      5254
      5251      5254      5255      5251      5254      5256      5251      5254      5257
      5255      5254      5256      5255      5254      5257      5256      5254      5257
      5254      5257      5258      5254      5257      5259      5254      5257      5260
      5258      5257      5259      5258      5257      5260      5259      5257      5260
      5257      5260      5261      5257      5260      5262      5257      5260      5263
      5261      5260      5262      5261      5260      5263      5262      5260      5263
      5214      5264      5265      5214      5264      5266      5214      5264      5267
      5265      5264      5266      5265      5264      5267      5266      5264      5267
      5264      5267      5268      5264      5267      5269      5264      5267      5270
      5268      5267      5269      5268      5267      5270      5269      5267      5270
      5267      5270      5271      5267      5270      5272      5267      5270      5273
      5271      5270      5272      5271      5270      5273      5272      5270      5273
      5270      5273      5274      5270      5273      5275      5270      5273      5276
      5274      5273      5275      5274      5273      5276      5275      5273      5276
      5273      5276      5277      5273      5276      5278      5273      5276      5279
      5277      5276      5278      5277      5276      5279      5278      5276      5279
      5276      5279      5280      5276      5279      5281      5276      5279      5282
      5280      5279      5281      5280      5279      5282      5281      5279      5282
      5279      5282      5283      5279      5282      5284      5279      5282      5285
      5283      5282      5284      5283      5282      5285      5284      5282      5285
      5282      5285      5286      5282      5285      5287      5282      5285      5288
      5286      5285      5287      5286      5285      5288      5287      5285      5288
      5285      5288      5289      5285      5288      5290      5285      5288      5291
      5289      5288      5290      5289      5288      5291      5290      5288      5291
      5288      5291      5292      5288      5291      5293      5288      5291      5294
      5292      5291      5293      5292      5291      5294      5293      5291      5294
      5291      5294      5295      5291      5294      5296      5291      5294      5297
      5295      5294      5296      5295      5294      5297      5296      5294      5297
      5294      5297      5298      5294      5297      5299      5294      5297      5300
      5298      5297      5299      5298      5297      5300      5299      5297      5300
      5297      5300      5301      5297      5300      5302      5297      5300      5303
      5301      5300      5302      5301      5300      5303      5302      5300      5303
      5300      5303      5304      5300      5303      5305      5300      5303      5306
      5304      5303      5305      5304      5303      5306      5305      5303      5306
      8032      8031      8033      8032      8031      8035      8032      8031      8077
      8033      8031      8035      8033      8031      8077      8035      8031      8077
      8031      8033      8034      8031      8035      8036      8031      8035      8037
      8031      8035      8038      8036      8035      8037      8036      8035      8038
      8037      8035      8038      8035      8038      8039      8035      8038      8069
      8039      8038      8069      8038      8039      8040      8038      8039      8041
      8040      8039      8041      8039      8041      8042      8039      8041      8043
      8039      8041      8044      8042      8041      8043      8042      8041      8044
      8043      8041      8044      8041      8044      8045      8041      8044      8046
      8041      8044      8067      8045      8044      8046      8045      8044      8067
      8046      8044      8067      8044      8046      8047      8044      8046      8048
      8044      8046      8056      8047      8046      8048      8047      8046      8056
      8048      8046      8056      8046      8048      8049      8046      8048      8050
      8046      8048      8051      8049      8048      8050      8049      8048      8051
      8050      8048      8051      8048      8051      8052      8048      8051      8053
      8048      8051      8054      8052      8051      8053      8052      8051      8054
      8053      8051      8054      8051      8054      8055      8051      8054      8056
      8051      8054      8080      8055      8054      8056      8055      8054      8080
      8056      8054      8080      8046      8056      8054      8046      8056      8057
      8046      8056      8061      8054      8056      8057      8054      8056      8061
      8057      8056      8061      8056      8057      8058      8056      8057      8059
      8056      8057      8060      8058      8057      8059      8058      8057      8060
      8059      8057      8060      8056      8061      8062      8056      8061      8063
      8056      8061      8064      8062      8061      8063      8062      8061      8064
      8063      8061      8064      8061      8064      8065      8061      8064      8066
      8061      8064      8067      8065      8064      8066      8065      8064      8067
      8066      8064      8067      8044      8067      8064      8044      8067      8068
      8044      8067      8069      8064      8067      8068      8064      8067      8069
      8068      8067      8069      8038      8069      8067      8038      8069      8070
      8038      8069      8074      8067      8069      8070      8067      8069      8074
      8070      8069      8074      8069      8070      8071      8069      8070      8072
      8069      8070      8073      8071      8070      8072      8071      8070      8073
      8072      8070      8073      8069      8074      8075      8069      8074      8076
      8069      8074      8077      8075      8074      8076      8075      8074      8077
      8076      8074      8077      8031      8077      8074      8031      8077      8078
      8031      8077      8079      8074      8077      8078      8074      8077      8079
      8078      8077      8079      8054      8080      8081      8054      8080      8082
      8054      8080      8086      8081      8080      8082      8081      8080      8086
      8082      8080      8086      8080      8082      8083      8080      8082      8084
      8080      8082      8085      8083      8082      8084      8083      8082      8085
      8084      8082      8085      8080      8086      8087      8080      8086      8088
      8080      8086      8089      8087      8086      8088      8087      8086      8089
      8088      8086      8089      8086      8089      8090      8086      8089      8091
      8086      8089      8092      8090      8089      8091      8090      8089      8092
      8091      8089      8092      8089      8092      8093      8089      8092      8094
      8089      8092      8095      8093      8092      8094      8093      8092      8095
      8094      8092      8095      8092      8095      8096      8092      8095      8097
      8092      8095      8101      8096      8095      8097      8096      8095      8101
      8097      8095      8101      8095      8097      8098      8095      8097      8099
      8095      8097      8100      8098      8097      8099      8098      8097      8100
      8099      8097      8100      8095      8101      8102      8095      8101      8103
      8095      8101      8104      8102      8101      8103      8102      8101      8104
      8103      8101      8104      8106      8105      8107      8106      8105      8109
      8106      8105      8151      8107      8105      8109      8107      8105      8151
      8109      8105      8151      8105      8107      8108      8105      8109      8110
      8105      8109      8111      8105      8109      8112      8110      8109      8111
      8110      8109      8112      8111      8109      8112      8109      8112      8113
      8109      8112      8143      8113      8112      8143      8112      8113      8114
      8112      8113      8115      8114      8113      8115      8113      8115      8116
      8113      8115      8117      8113      8115      8118      8116      8115      8117
      8116      8115      8118      8117      8115      8118      8115      8118      8119
      8115      8118      8120      8115      8118      8141      8119      8118      8120
      8119      8118      8141      8120      8118      8141      8118      8120      8121
      8118      8120      8122      8118      8120      8130      8121      8120      8122
      8121      8120      8130      8122      8120      8130      8120      8122      8123
      8120      8122      8124      8120      8122      8125      8123      8122      8124
      8123      8122      8125      8124      8122      8125      8122      8125      8126
      8122      8125      8127      8122      8125      8128      8126      8125      8127
      8126      8125      8128      8127      8125      8128      8125      8128      8129
      8125      8128      8130      8125      8128      8154      8129      8128      8130
      8129      8128      8154      8130      8128      8154      8120      8130      8128
      8120      8130      8131      8120      8130      8135      8128      8130      8131
      8128      8130      8135      8131      8130      8135      8130      8131      8132
      8130      8131      8133      8130      8131      8134      8132      8131      8133
      8132      8131      8134      8133      8131      8134      8130      8135      8136
      8130      8135      8137      8130      8135      8138      8136      8135      8137
      8136      8135      8138      8137      8135      8138      8135      8138      8139
      8135      8138      8140      8135      8138      8141      8139      8138      8140
      8139      8138      8141      8140      8138      8141      8118      8141      8138
      8118      8141      8142      8118      8141      8143      8138      8141      8142
      8138      8141      8143      8142      8141      8143      8112      8143      8141
      8112      8143      8144      8112      8143      8148      8141      8143      8144
      8141      8143      8148      8144      8143      8148      8143      8144      8145
      8143      8144      8146      8143      8144      8147      8145      8144      8146
      8145      8144      8147      8146      8144      8147      8143      8148      8149
      8143      8148      8150      8143      8148      8151      8149      8148      8150
      8149      8148      8151      8150      8148      8151      8105      8151      8148
      8105      8151      8152      8105      8151      8153      8148      8151      8152
      8148      8151      8153      8152      8151      8153      8128      8154      8155
      8128      8154      8156      8128      8154      8160      8155      8154      8156
      8155      8154      8160      8156      8154      8160      8154      8156      8157
      8154      8156      8158      8154      8156      8159      8157      8156      8158
      8157      8156      8159      8158      8156      8159      8154      8160      8161
      8154      8160      8162      8154      8160      8163      8161      8160      8162
      8161      8160      8163      8162      8160      8163      8160      8163      8164
      8160      8163      8165      8160      8163      8166      8164      8163      8165
      8164      8163      8166      8165      8163      8166      8163      8166      8167
      8163      8166      8168      8163      8166      8169      8167      8166      8168
      8167      8166      8169      8168      8166      8169      8166      8169      8170
      8166      8169      8171      8166      8169      8175      8170      8169      8171
      8170      8169      8175      8171      8169      8175      8169      8171      8172
      8169      8171      8173      8169      8171      8174      8172      8171      8173
      8172      8171      8174      8173      8171      8174      8169      8175      8176
      8169      8175      8177      8169      8175      8178      8176      8175      8177
      8176      8175      8178      8177      8175      8178      8180      8179      8181
      8180      8179      8183      8180      8179      8225      8181      8179      8183
      8181      8179      8225      8183      8179      8225      8179      8181      8182
      8179      8183      8184      8179      8183      8185      8179      8183      8186
      8184      8183      8185      8184      8183      8186      8185      8183      8186
      8183      8186      8187      8183      8186      8217      8187      8186      8217
      8186      8187      8188      8186      8187      8189      8188      8187      8189
      8187      8189      8190      8187      8189      8191      8187      8189      8192
      8190      8189      8191      8190      8189      8192      8191      8189      8192
      8189      8192      8193      8189      8192      8194      8189      8192      8215
      8193      8192      8194      8193      8192      8215      8194      8192      8215
      8192      8194      8195      8192      8194      8196      8192      8194      8204
      8195      8194      8196      8195      8194      8204      8196      8194      8204
      8194      8196      8197      8194      8196      8198      8194      8196      8199
      8197      8196      8198      8197      8196      8199      8198      8196      8199
      8196      8199      8200      8196      8199      8201      8196      8199      8202
      8200      8199      8201      8200      8199      8202      8201      8199      8202
      8199      8202      8203      8199      8202      8204      8199      8202      8228
      8203      8202      8204      8203      8202      8228      8204      8202      8228
      8194      8204      8202      8194      8204      8205      8194      8204      8209
      8202      8204      8205      8202      8204      8209      8205      8204      8209
      8204      8205      8206      8204      8205      8207      8204      8205      8208
      8206      8205      8207      8206      8205      8208      8207      8205      8208
      8204      8209      8210      8204      8209      8211      8204      8209      8212
      8210      8209      8211      8210      8209      8212      8211      8209      8212
      8209      8212      8213      8209      8212      8214      8209      8212      8215
      8213      8212      8214      8213      8212      8215      8214      8212      8215
      8192      8215      8212      8192      8215      8216      8192      8215      8217
      8212      8215      8216      8212      8215      8217      8216      8215      8217
      8186      8217      8215      8186      8217      8218      8186      8217      8222
      8215      8217      8218      8215      8217      8222      8218      8217      8222
      8217      8218      8219      8217      8218      8220      8217      8218      8221
      8219      8218      8220      8219      8218      8221      8220      8218      8221
      8217      8222      8223      8217      8222      8224      8217      8222      8225
      8223      8222      8224      8223      8222      8225      8224      8222      8225
      8179      8225      8222      8179      8225      8226      8179      8225      8227
      8222      8225      8226      8222      8225      8227      8226      8225      8227
      8202      8228      8229      8202      8228      8230      8202      8228      8234
      8229      8228      8230      8229      8228      8234      8230      8228      8234
      8228      8230      8231      8228      8230      8232      8228      8230      8233
      8231      8230      8232      8231      8230      8233      8232      8230      8233
      8228      8234      8235      8228      8234      8236      8228      8234      8237
      8235      8234      8236      8235      8234      8237      8236      8234      8237
      8234      8237      8238      8234      8237      8239      8234      8237      8240
      8238      8237      8239      8238      8237      8240      8239      8237      8240
      8237      8240      8241      8237      8240      8242      8237      8240      8243
      8241      8240      8242      8241      8240      8243      8242      8240      8243
      8240      8243      8244      8240      8243      8245      8240      8243      8249
      8244      8243      8245      8244      8243      8249      8245      8243      8249
      8243      8245      8246      8243      8245      8247      8243      8245      8248
      8246      8245      8247      8246      8245      8248      8247      8245      8248
      8243      8249      8250      8243      8249      8251      8243      8249      8252
      8250      8249      8251      8250      8249      8252      8251      8249      8252
     18887     18886     18888     18887     18886     18889     18887     18886     18890
     18888     18886     18889     18888     18886     18890     18889     18886     18890
     18886     18890     18891     18886     18890     18892     18886     18890     18893
     18891     18890     18892     18891     18890     18893     18892     18890     18893
     18890     18893     18894     18890     18893     18895     18890     18893     18899
     18894     18893     18895     18894     18893     18899     18895     18893     18899
     18897     18896     18898     18897     18896     18899     18897     18896     18900
     18898     18896     18899     18898     18896     18900     18899     18896     18900
     18893     18899     18896     18896     18900     18901     18900     18901     18902
     18900     18901     18903     18900     18901     18904     18902     18901     18903
     18902     18901     18904     18903     18901     18904     18901     18904     18905
     18901     18904     18906     18901     18904     18912     18905     18904     18906
     18905     18904     18912     18906     18904     18912     18904     18906     18907
     18906     18907     18908     18906     18907     18909     18908     18907     18909
     18907     18909     18910     18907     18909     18911     18907     18909     18921
     18910     18909     18911     18910     18909     18921     18911     18909     18921
     18904     18912     18913     18904     18912     18914     18904     18912     18915
     18913     18912     18914     18913     18912     18915     18914     18912     18915
     18912     18915     18916     18915     18916     18917     18915     18916     18918
     18917     18916     18918     18916     18918     18919     18916     18918     18920
     18916     18918     18968     18919     18918     18920     18919     18918     18968
     18920     18918     18968     18909     18921     18922     18909     18921     18923
     18909     18921     18924     18922     18921     18923     18922     18921     18924
     18923     18921     18924     18921     18924     18925     18921     18924     18926
     18921     18924     18927     18925     18924     18926     18925     18924     18927
     18926     18924     18927     18924     18927     18928     18924     18927     18929
     18924     18927     18930     18928     18927     18929     18928     18927     18930
     18929     18927     18930     18927     18930     18931     18927     18930     18932
     18927     18930     18933     18931     18930     18932     18931     18930     18933
     18932     18930     18933     18930     18933     18934     18930     18933     18935
     18930     18933     18936     18934     18933     18935     18934     18933     18936
     18935     18933     18936     18933     18936     18937     18933     18936     18938
     18933     18936     18939     18937     18936     18938     18937     18936     18939
     18938     18936     18939     18936     18939     18940     18936     18939     18941
     18940     18939     18941     18939     18941     18942     18939     18941     18943
     18942     18941     18943     18941     18943     18944     18941     18943     18945
     18941     18943     18946     18944     18943     18945     18944     18943     18946
     18945     18943     18946     18943     18946     18947     18943     18946     18948
     18943     18946     18949     18947     18946     18948     18947     18946     18949
     18948     18946     18949     18946     18949     18950     18946     18949     18951
     18946     18949     18952     18950     18949     18951     18950     18949     18952
     18951     18949     18952     18949     18952     18953     18949     18952     18954
     18949     18952     18955     18953     18952     18954     18953     18952     18955
     18954     18952     18955     18952     18955     18956     18952     18955     18957
     18952     18955     18958     18956     18955     18957     18956     18955     18958
     18957     18955     18958     18955     18958     18959     18955     18958     18960
     18955     18958     18961     18959     18958     18960     18959     18958     18961
     18960     18958     18961     18958     18961     18962     18958     18961     18963
     18958     18961     18964     18962     18961     18963     18962     18961     18964
     18963     18961     18964     18961     18964     18965     18961     18964     18966
     18961     18964     18967     18965     18964     18966     18965     18964     18967
     18966     18964     18967     18918     18968     18969     18918     18968     18970
     18918     18968     18971     18969     18968     18970     18969     18968     18971
     18970     18968     18971     18968     18971     18972     18968     18971     18973
     18968     18971     18974     18972     18971     18973     18972     18971     18974
     18973     18971     18974     18971     18974     18975     18971     18974     18976
     18971     18974     18977     18975     18974     18976     18975     18974     18977
     18976     18974     18977     18974     18977     18978     18974     18977     18979
     18974     18977     18980     18978     18977     18979     18978     18977     18980
     18979     18977     18980     18977     18980     18981     18977     18980     18982
     18977     18980     18983     18981     18980     18982     18981     18980     18983
     18982     18980     18983     18980     18983     18984     18980     18983     18985
     18980     18983     18986     18984     18983     18985     18984     18983     18986
     18985     18983     18986     18983     18986     18987     18983     18986     18988
     18983     18986     18989     18987     18986     18988     18987     18986     18989
     18988     18986     18989     18986     18989     18990     18986     18989     18991
     18986     18989     18992     18990     18989     18991     18990     18989     18992
     18991     18989     18992     18989     18992     18993     18989     18992     18994
     18989     18992     18995     18993     18992     18994     18993     18992     18995
     18994     18992     18995     18992     18995     18996     18992     18995     18997
     18992     18995     18998     18996     18995     18997     18996     18995     18998
     18997     18995     18998     18995     18998     18999     18995     18998     19000
     18995     18998     19001     18999     18998     19000     18999     18998     19001
     19000     18998     19001     18998     19001     19002     18998     19001     19003
     18998     19001     19004     19002     19001     19003     19002     19001     19004
     19003     19001     19004     19001     19004     19005     19001     19004     19006
     19001     19004     19007     19005     19004     19006     19005     19004     19007
     19006     19004     19007     19004     19007     19008     19004     19007     19009
     19004     19007     19010     19008     19007     19009     19008     19007     19010
     19009     19007     19010     19007     19010     19011     19007     19010     19012
     19007     19010     19013     19011     19010     19012     19011     19010     19013
     19012     19010     19013     19010     19013     19014     19010     19013     19015
     19010     19013     19016     19014     19013     19015     19014     19013     19016
     19015     19013     19016     13123     13122     13127     13123     13122     13131
     13123     13122     13135     13127     13122     13131     13127     13122     13135
     13131     13122     13135     13122     13123     13124     13122     13123     13125
     13122     13123     13126     13124     13123     13125     13124     13123     13126
     13125     13123     13126     13122     13127     13128     13122     13127     13129
     13122     13127     13130     13128     13127     13129     13128     13127     13130
     13129     13127     13130     13122     13131     13132     13122     13131     13133
     13122     13131     13134     13132     13131     13133     13132     13131     13134
     13133     13131     13134     13122     13135     13136     13122     13135     13137
     13122     13135     13138     13136     13135     13137     13136     13135     13138
     13137     13135     13138     13135     13138     13139     13135     13138     13140
     13135     13138     13145     13139     13138     13140     13139     13138     13145
     13140     13138     13145     13142     13141     13143     13142     13141     13144
     13142     13141     13145     13143     13141     13144     13143     13141     13145
     13144     13141     13145     13141     13144     13146     13138     13145     13141
     13144     13146     13147     13144     13146     13148     13144     13146     13151
     13147     13146     13148     13147     13146     13151     13148     13146     13151
     13150     13149     13151     13150     13149     13201     13151     13149     13201
     13146     13151     13149     13146     13151     13152     13146     13151     13153
     13149     13151     13152     13149     13151     13153     13152     13151     13153
     13151     13153     13154     13151     13153     13155     13151     13153     13157
     13154     13153     13155     13154     13153     13157     13155     13153     13157
     13153     13155     13156     13153     13157     13158     13153     13157     13159
     13158     13157     13159     13157     13159     13160     13157     13159     13161
     13160     13159     13161     13159     13161     13162     13159     13161     13163
     13159     13161     13164     13162     13161     13163     13162     13161     13164
     13163     13161     13164     13161     13164     13165     13161     13164     13166
     13161     13164     13167     13165     13164     13166     13165     13164     13167
     13166     13164     13167     13164     13167     13168     13164     13167     13169
     13164     13167     13170     13168     13167     13169     13168     13167     13170
     13169     13167     13170     13167     13170     13171     13167     13170     13172
     13167     13170     13173     13171     13170     13172     13171     13170     13173
     13172     13170     13173     13170     13173     13174     13170     13173     13175
     13170     13173     13176     13174     13173     13175     13174     13173     13176
     13175     13173     13176     13173     13176     13177     13173     13176     13178
     13173     13176     13179     13177     13176     13178     13177     13176     13179
     13178     13176     13179     13176     13179     13180     13176     13179     13181
     13176     13179     13182     13180     13179     13181     13180     13179     13182
     13181     13179     13182     13179     13182     13183     13179     13182     13184
     13179     13182     13185     13183     13182     13184     13183     13182     13185
     13184     13182     13185     13182     13185     13186     13182     13185     13187
     13182     13185     13188     13186     13185     13187     13186     13185     13188
     13187     13185     13188     13185     13188     13189     13185     13188     13190
     13185     13188     13191     13189     13188     13190     13189     13188     13191
     13190     13188     13191     13188     13191     13192     13188     13191     13193
     13188     13191     13194     13192     13191     13193     13192     13191     13194
     13193     13191     13194     13191     13194     13195     13191     13194     13196
     13191     13194     13197     13195     13194     13196     13195     13194     13197
     13196     13194     13197     13194     13197     13198     13194     13197     13199
     13194     13197     13200     13198     13197     13199     13198     13197     13200
     13199     13197     13200     13149     13201     13202     13149     13201     13203
     13202     13201     13203     13201     13203     13204     13201     13203     13205
     13201     13203     13206     13204     13203     13205     13204     13203     13206
     13205     13203     13206     13203     13206     13207     13203     13206     13208
     13203     13206     13209     13207     13206     13208     13207     13206     13209
     13208     13206     13209     13206     13209     13210     13206     13209     13211
     13206     13209     13212     13210     13209     13211     13210     13209     13212
     13211     13209     13212     13209     13212     13213     13209     13212     13214
     13209     13212     13215     13213     13212     13214     13213     13212     13215
     13214     13212     13215     13212     13215     13216     13212     13215     13217
     13212     13215     13218     13216     13215     13217     13216     13215     13218
     13217     13215     13218     13215     13218     13219     13215     13218     13220
     13215     13218     13221     13219     13218     13220     13219     13218     13221
     13220     13218     13221     13218     13221     13222     13218     13221     13223
     13218     13221     13224     13222     13221     13223     13222     13221     13224
     13223     13221     13224     13221     13224     13225     13221     13224     13226
     13225     13224     13226     13224     13226     13227     13224     13226     13228
     13227     13226     13228     13226     13228     13229     13226     13228     13230
     13226     13228     13231     13229     13228     13230     13229     13228     13231
     13230     13228     13231     13228     13231     13232     13228     13231     13233
     13228     13231     13234     13232     13231     13233     13232     13231     13234
     13233     13231     13234     13231     13234     13235     13231     13234     13236
     13231     13234     13237     13235     13234     13236     13235     13234     13237
     13236     13234     13237     13234     13237     13238     13234     13237     13239
     13234     13237     13240     13238     13237     13239     13238     13237     13240
     13239     13237     13240     13237     13240     13241     13237     13240     13242
     13237     13240     13243     13241     13240     13242     13241     13240     13243
     13242     13240     13243     13240     13243     13244     13240     13243     13245
     13240     13243     13246     13244     13243     13245     13244     13243     13246
     13245     13243     13246     13243     13246     13247     13243     13246     13248
     13243     13246     13249     13247     13246     13248     13247     13246     13249
     13248     13246     13249     13246     13249     13250     13246     13249     13251
     13246     13249     13252     13250     13249     13251     13250     13249     13252
     13251     13249     13252      8254      8253      8255      8254      8253      8257
      8254      8253      8299      8255      8253      8257      8255      8253      8299
      8257      8253      8299      8253      8255      8256      8253      8257      8258
      8253      8257      8259      8253      8257      8260      8258      8257      8259
      8258      8257      8260      8259      8257      8260      8257      8260      8261
      8257      8260      8291      8261      8260      8291      8260      8261      8262
      8260      8261      8263      8262      8261      8263      8261      8263      8264
      8261      8263      8265      8261      8263      8266      8264      8263      8265
      8264      8263      8266      8265      8263      8266      8263      8266      8267
      8263      8266      8268      8263      8266      8289      8267      8266      8268
      8267      8266      8289      8268      8266      8289      8266      8268      8269
      8266      8268      8270      8266      8268      8278      8269      8268      8270
      8269      8268      8278      8270      8268      8278      8268      8270      8271
      8268      8270      8272      8268      8270      8273      8271      8270      8272
      8271      8270      8273      8272      8270      8273      8270      8273      8274
      8270      8273      8275      8270      8273      8276      8274      8273      8275
      8274      8273      8276      8275      8273      8276      8273      8276      8277
      8273      8276      8278      8273      8276      8302      8277      8276      8278
      8277      8276      8302      8278      8276      8302      8268      8278      8276
      8268      8278      8279      8268      8278      8283      8276      8278      8279
      8276      8278      8283      8279      8278      8283      8278      8279      8280
      8278      8279      8281      8278      8279      8282      8280      8279      8281
      8280      8279      8282      8281      8279      8282      8278      8283      8284
      8278      8283      8285      8278      8283      8286      8284      8283      8285
      8284      8283      8286      8285      8283      8286      8283      8286      8287
      8283      8286      8288      8283      8286      8289      8287      8286      8288
      8287      8286      8289      8288      8286      8289      8266      8289      8286
      8266      8289      8290      8266      8289      8291      8286      8289      8290
      8286      8289      8291      8290      8289      8291      8260      8291      8289
      8260      8291      8292      8260      8291      8296      8289      8291      8292
      8289      8291      8296      8292      8291      8296      8291      8292      8293
      8291      8292      8294      8291      8292      8295      8293      8292      8294
      8293      8292      8295      8294      8292      8295      8291      8296      8297
      8291      8296      8298      8291      8296      8299      8297      8296      8298
      8297      8296      8299      8298      8296      8299      8253      8299      8296
      8253      8299      8300      8253      8299      8301      8296      8299      8300
      8296      8299      8301      8300      8299      8301      8276      8302      8303
      8276      8302      8304      8276      8302      8308      8303      8302      8304
      8303      8302      8308      8304      8302      8308      8302      8304      8305
      8302      8304      8306      8302      8304      8307      8305      8304      8306
      8305      8304      8307      8306      8304      8307      8302      8308      8309
      8302      8308      8310      8302      8308      8311      8309      8308      8310
      8309      8308      8311      8310      8308      8311      8308      8311      8312
      8308      8311      8313      8308      8311      8314      8312      8311      8313
      8312      8311      8314      8313      8311      8314      8311      8314      8315
      8311      8314      8316      8311      8314      8317      8315      8314      8316
      8315      8314      8317      8316      8314      8317      8314      8317      8318
      8314      8317      8319      8314      8317      8323      8318      8317      8319
      8318      8317      8323      8319      8317      8323      8317      8319      8320
      8317      8319      8321      8317      8319      8322      8320      8319      8321
      8320      8319      8322      8321      8319      8322      8317      8323      8324
      8317      8323      8325      8317      8323      8326      8324      8323      8325
      8324      8323      8326      8325      8323      8326      8328      8327      8329
      8328      8327      8331      8328      8327      8373      8329      8327      8331
      8329      8327      8373      8331      8327      8373      8327      8329      8330
      8327      8331      8332      8327      8331      8333      8327      8331      8334
      8332      8331      8333      8332      8331      8334      8333      8331      8334
      8331      8334      8335      8331      8334      8365      8335      8334      8365
      8334      8335      8336      8334      8335      8337      8336      8335      8337
      8335      8337      8338      8335      8337      8339      8335      8337      8340
      8338      8337      8339      8338      8337      8340      8339      8337      8340
      8337      8340      8341      8337      8340      8342      8337      8340      8363
      8341      8340      8342      8341      8340      8363      8342      8340      8363
      8340      8342      8343      8340      8342      8344      8340      8342      8352
      8343      8342      8344      8343      8342      8352      8344      8342      8352
      8342      8344      8345      8342      8344      8346      8342      8344      8347
      8345      8344      8346      8345      8344      8347      8346      8344      8347
      8344      8347      8348      8344      8347      8349      8344      8347      8350
      8348      8347      8349      8348      8347      8350      8349      8347      8350
      8347      8350      8351      8347      8350      8352      8347      8350      8376
      8351      8350      8352      8351      8350      8376      8352      8350      8376
      8342      8352      8350      8342      8352      8353      8342      8352      8357
      8350      8352      8353      8350      8352      8357      8353      8352      8357
      8352      8353      8354      8352      8353      8355      8352      8353      8356
      8354      8353      8355      8354      8353      8356      8355      8353      8356
      8352      8357      8358      8352      8357      8359      8352      8357      8360
      8358      8357      8359      8358      8357      8360      8359      8357      8360
      8357      8360      8361      8357      8360      8362      8357      8360      8363
      8361      8360      8362      8361      8360      8363      8362      8360      8363
      8340      8363      8360      8340      8363      8364      8340      8363      8365
      8360      8363      8364      8360      8363      8365      8364      8363      8365
      8334      8365      8363      8334      8365      8366      8334      8365      8370
      8363      8365      8366      8363      8365      8370      8366      8365      8370
      8365      8366      8367      8365      8366      8368      8365      8366      8369
      8367      8366      8368      8367      8366      8369      8368      8366      8369
      8365      8370      8371      8365      8370      8372      8365      8370      8373
      8371      8370      8372      8371      8370      8373      8372      8370      8373
      8327      8373      8370      8327      8373      8374      8327      8373      8375
      8370      8373      8374      8370      8373      8375      8374      8373      8375
      8350      8376      8377      8350      8376      8378      8350      8376      8382
      8377      8376      8378      8377      8376      8382      8378      8376      8382
      8376      8378      8379      8376      8378      8380      8376      8378      8381
      8379      8378      8380      8379      8378      8381      8380      8378      8381
      8376      8382      8383      8376      8382      8384      8376      8382      8385
      8383      8382      8384      8383      8382      8385      8384      8382      8385
      8382      8385      8386      8382      8385      8387      8382      8385      8388
      8386      8385      8387      8386      8385      8388      8387      8385      8388
      8385      8388      8389      8385      8388      8390      8385      8388      8391
      8389      8388      8390      8389      8388      8391      8390      8388      8391
      8388      8391      8392      8388      8391      8393      8388      8391      8397
      8392      8391      8393      8392      8391      8397      8393      8391      8397
      8391      8393      8394      8391      8393      8395      8391      8393      8396
      8394      8393      8395      8394      8393      8396      8395      8393      8396
      8391      8397      8398      8391      8397      8399      8391      8397      8400
      8398      8397      8399      8398      8397      8400      8399      8397      8400
      1332      1331      1333      1332      1331      1334      1332      1331      1335
      1333      1331      1334      1333      1331      1335      1334      1331      1335
      1331      1335      1336      1331      1335      1337      1331      1335      1340
      1336      1335      1337      1336      1335      1340      1337      1335      1340
      1335      1337      1338      1335      1337      1339      1338      1337      1339
      1335      1340      1341      1335      1340      1342      1335      1340      1346
      1341      1340      1342      1341      1340      1346      1342      1340      1346
      1344      1343      1345      1344      1343      1346      1344      1343      1347
      1345      1343      1346      1345      1343      1347      1346      1343      1347
      1340      1346      1343      1343      1347      1348      1347      1348      1349
      1347      1348      1350      1347      1348      1351      1349      1348      1350
      1349      1348      1351      1350      1348      1351      1348      1351      1352
      1348      1351      1353      1348      1351      1359      1352      1351      1353
      1352      1351      1359      1353      1351      1359      1351      1353      1354
      1353      1354      1355      1353      1354      1356      1355      1354      1356
      1354      1356      1357      1354      1356      1358      1354      1356      1368
      1357      1356      1358      1357      1356      1368      1358      1356      1368
      1351      1359      1360      1351      1359      1361      1351      1359      1362
      1360      1359      1361      1360      1359      1362      1361      1359      1362
      1359      1362      1363      1362      1363      1364      1362      1363      1365
      1364      1363      1365      1363      1365      1366      1363      1365      1367
      1363      1365      1415      1366      1365      1367      1366      1365      1415
      1367      1365      1415      1356      1368      1369      1356      1368      1370
      1356      1368      1371      1369      1368      1370      1369      1368      1371
      1370      1368      1371      1368      1371      1372      1368      1371      1373
      1368      1371      1374      1372      1371      1373      1372      1371      1374
      1373      1371      1374      1371      1374      1375      1371      1374      1376
      1375      1374      1376      1374      1376      1377      1374      1376      1378
      1377      1376      1378      1376      1378      1379      1376      1378      1380
      1376      1378      1381      1379      1378      1380      1379      1378      1381
      1380      1378      1381      1378      1381      1382      1378      1381      1383
      1382      1381      1383      1381      1383      1384      1381      1383      1385
      1384      1383      1385      1383      1385      1386      1383      1385      1387
      1383      1385      1388      1386      1385      1387      1386      1385      1388
      1387      1385      1388      1385      1388      1389      1385      1388      1390
      1389      1388      1390      1388      1390      1391      1388      1390      1392
      1391      1390      1392      1390      1392      1393      1390      1392      1394
      1390      1392      1395      1393      1392      1394      1393      1392      1395
      1394      1392      1395      1392      1395      1396      1392      1395      1397
      1396      1395      1397      1395      1397      1398      1395      1397      1399
      1398      1397      1399      1397      1399      1400      1397      1399      1401
      1397      1399      1402      1400      1399      1401      1400      1399      1402
      1401      1399      1402      1399      1402      1403      1399      1402      1404
      1399      1402      1405      1403      1402      1404      1403      1402      1405
      1404      1402      1405      1402      1405      1406      1402      1405      1407
      1402      1405      1408      1406      1405      1407      1406      1405      1408
      1407      1405      1408      1405      1408      1409      1405      1408      1410
      1405      1408      1411      1409      1408      1410      1409      1408      1411
      1410      1408      1411      1408      1411      1412      1408      1411      1413
      1408      1411      1414      1412      1411      1413      1412      1411      1414
      1413      1411      1414      1365      1415      1416      1365      1415      1417
      1365      1415      1418      1416      1415      1417      1416      1415      1418
      1417      1415      1418      1415      1418      1419      1415      1418      1420
      1415      1418      1421      1419      1418      1420      1419      1418      1421
      1420      1418      1421      1418      1421      1422      1418      1421      1423
      1418      1421      1424      1422      1421      1423      1422      1421      1424
      1423      1421      1424      1421      1424      1425      1421      1424      1426
      1421      1424      1427      1425      1424      1426      1425      1424      1427
      1426      1424      1427      1424      1427      1428      1424      1427      1429
      1424      1427      1430      1428      1427      1429      1428      1427      1430
      1429      1427      1430      1427      1430      1431      1427      1430      1432
      1427      1430      1433      1431      1430      1432      1431      1430      1433
      1432      1430      1433      1430      1433      1434      1430      1433      1435
      1430      1433      1436      1434      1433      1435      1434      1433      1436
      1435      1433      1436      1433      1436      1437      1433      1436      1438
      1433      1436      1439      1437      1436      1438      1437      1436      1439
      1438      1436      1439      1436      1439      1440      1436      1439      1441
      1436      1439      1442      1440      1439      1441      1440      1439      1442
      1441      1439      1442      1439      1442      1443      1439      1442      1444
      1439      1442      1445      1443      1442      1444      1443      1442      1445
      1444      1442      1445      1442      1445      1446      1442      1445      1447
      1442      1445      1448      1446      1445      1447      1446      1445      1448
      1447      1445      1448      1445      1448      1449      1445      1448      1450
      1445      1448      1451      1449      1448      1450      1449      1448      1451
      1450      1448      1451      1448      1451      1452      1448      1451      1453
      1448      1451      1454      1452      1451      1453      1452      1451      1454
      1453      1451      1454      1451      1454      1455      1451      1454      1456
      1451      1454      1457      1455      1454      1456      1455      1454      1457
      1456      1454      1457      1454      1457      1458      1454      1457      1459
      1454      1457      1460      1458      1457      1459      1458      1457      1460
      1459      1457      1460      1457      1460      1461      1457      1460      1462
      1457      1460      1463      1461      1460      1462      1461      1460      1463
      1462      1460      1463     13254     13253     13258     13254     13253     13262
     13254     13253     13266     13258     13253     13262     13258     13253     13266
     13262     13253     13266     13253     13254     13255     13253     13254     13256
     13253     13254     13257     13255     13254     13256     13255     13254     13257
     13256     13254     13257     13253     13258     13259     13253     13258     13260
     13253     13258     13261     13259     13258     13260     13259     13258     13261
     13260     13258     13261     13253     13262     13263     13253     13262     13264
     13253     13262     13265     13263     13262     13264     13263     13262     13265
     13264     13262     13265     13253     13266     13267     13253     13266     13268
     13253     13266     13269     13267     13266     13268     13267     13266     13269
     13268     13266     13269     13266     13269     13270     13266     13269     13271
     13266     13269     13276     13270     13269     13271     13270     13269     13276
     13271     13269     13276     13273     13272     13274     13273     13272     13275
     13273     13272     13276     13274     13272     13275     13274     13272     13276
     13275     13272     13276     13272     13275     13277     13269     13276     13272
     13275     13277     13278     13275     13277     13279     13275     13277     13282
     13278     13277     13279     13278     13277     13282     13279     13277     13282
     13281     13280     13282     13281     13280     13332     13282     13280     13332
     13277     13282     13280     13277     13282     13283     13277     13282     13284
     13280     13282     13283     13280     13282     13284     13283     13282     13284
     13282     13284     13285     13282     13284     13286     13282     13284     13288
     13285     13284     13286     13285     13284     13288     13286     13284     13288
     13284     13286     13287     13284     13288     13289     13284     13288     13290
     13289     13288     13290     13288     13290     13291     13288     13290     13292
     13291     13290     13292     13290     13292     13293     13290     13292     13294
     13290     13292     13295     13293     13292     13294     13293     13292     13295
     13294     13292     13295     13292     13295     13296     13292     13295     13297
     13292     13295     13298     13296     13295     13297     13296     13295     13298
     13297     13295     13298     13295     13298     13299     13295     13298     13300
     13295     13298     13301     13299     13298     13300     13299     13298     13301
     13300     13298     13301     13298     13301     13302     13298     13301     13303
     13298     13301     13304     13302     13301     13303     13302     13301     13304
     13303     13301     13304     13301     13304     13305     13301     13304     13306
     13301     13304     13307     13305     13304     13306     13305     13304     13307
     13306     13304     13307     13304     13307     13308     13304     13307     13309
     13304     13307     13310     13308     13307     13309     13308     13307     13310
     13309     13307     13310     13307     13310     13311     13307     13310     13312
     13307     13310     13313     13311     13310     13312     13311     13310     13313
     13312     13310     13313     13310     13313     13314     13310     13313     13315
     13310     13313     13316     13314     13313     13315     13314     13313     13316
     13315     13313     13316     13313     13316     13317     13313     13316     13318
     13313     13316     13319     13317     13316     13318     13317     13316     13319
     13318     13316     13319     13316     13319     13320     13316     13319     13321
     13316     13319     13322     13320     13319     13321     13320     13319     13322
     13321     13319     13322     13319     13322     13323     13319     13322     13324
     13319     13322     13325     13323     13322     13324     13323     13322     13325
     13324     13322     13325     13322     13325     13326     13322     13325     13327
     13322     13325     13328     13326     13325     13327     13326     13325     13328
     13327     13325     13328     13325     13328     13329     13325     13328     13330
     13325     13328     13331     13329     13328     13330     13329     13328     13331
     13330     13328     13331     13280     13332     13333     13280     13332     13334
     13333     13332     13334     13332     13334     13335     13332     13334     13336
     13332     13334     13337     13335     13334     13336     13335     13334     13337
     13336     13334     13337     13334     13337     13338     13334     13337     13339
     13334     13337     13340     13338     13337     13339     13338     13337     13340
     13339     13337     13340     13337     13340     13341     13337     13340     13342
     13337     13340     13343     13341     13340     13342     13341     13340     13343
     13342     13340     13343     13340     13343     13344     13340     13343     13345
     13340     13343     13346     13344     13343     13345     13344     13343     13346
     13345     13343     13346     13343     13346     13347     13343     13346     13348
     13343     13346     13349     13347     13346     13348     13347     13346     13349
     13348     13346     13349     13346     13349     13350     13346     13349     13351
     13346     13349     13352     13350     13349     13351     13350     13349     13352
     13351     13349     13352     13349     13352     13353     13349     13352     13354
     13349     13352     13355     13353     13352     13354     13353     13352     13355
     13354     13352     13355     13352     13355     13356     13352     13355     13357
     13356     13355     13357     13355     13357     13358     13355     13357     13359
     13358     13357     13359     13357     13359     13360     13357     13359     13361
     13357     13359     13362     13360     13359     13361     13360     13359     13362
     13361     13359     13362     13359     13362     13363     13359     13362     13364
     13359     13362     13365     13363     13362     13364     13363     13362     13365
     13364     13362     13365     13362     13365     13366     13362     13365     13367
     13362     13365     13368     13366     13365     13367     13366     13365     13368
     13367     13365     13368     13365     13368     13369     13365     13368     13370
     13365     13368     13371     13369     13368     13370     13369     13368     13371
     13370     13368     13371     13368     13371     13372     13368     13371     13373
     13368     13371     13374     13372     13371     13373     13372     13371     13374
     13373     13371     13374     13371     13374     13375     13371     13374     13376
     13371     13374     13377     13375     13374     13376     13375     13374     13377
     13376     13374     13377     13374     13377     13378     13374     13377     13379
     13374     13377     13380     13378     13377     13379     13378     13377     13380
     13379     13377     13380     13377     13380     13381     13377     13380     13382
     13377     13380     13383     13381     13380     13382     13381     13380     13383
     13382     13380     13383     21770     21769     21774     21770     21769     21778
     21770     21769     21782     21774     21769     21778     21774     21769     21782
     21778     21769     21782     21769     21770     21771     21769     21770     21772
     21769     21770     21773     21771     21770     21772     21771     21770     21773
     21772     21770     21773     21769     21774     21775     21769     21774     21776
     21769     21774     21777     21775     21774     21776     21775     21774     21777
     21776     21774     21777     21769     21778     21779     21769     21778     21780
     21769     21778     21781     21779     21778     21780     21779     21778     21781
     21780     21778     21781     21769     21782     21783     21769     21782     21784
     21769     21782     21785     21783     21782     21784     21783     21782     21785
     21784     21782     21785     21782     21785     21786     21782     21785     21787
     21782     21785     21791     21786     21785     21787     21786     21785     21791
     21787     21785     21791     21789     21788     21790     21789     21788     21791
     21789     21788     21792     21790     21788     21791     21790     21788     21792
     21791     21788     21792     21785     21791     21788     21788     21792     21793
     21792     21793     21794     21792     21793     21795     21792     21793     21796
     21794     21793     21795     21794     21793     21796     21795     21793     21796
     21793     21796     21797     21793     21796     21798     21793     21796     21804
     21797     21796     21798     21797     21796     21804     21798     21796     21804
     21796     21798     21799     21798     21799     21800     21798     21799     21801
     21800     21799     21801     21799     21801     21802     21799     21801     21803
     21799     21801     21813     21802     21801     21803     21802     21801     21813
     21803     21801     21813     21796     21804     21805     21796     21804     21806
     21796     21804     21807     21805     21804     21806     21805     21804     21807
     21806     21804     21807     21804     21807     21808     21807     21808     21809
     21807     21808     21810     21809     21808     21810     21808     21810     21811
     21808     21810     21812     21808     21810     21858     21811     21810     21812
     21811     21810     21858     21812     21810     21858     21801     21813     21814
     21801     21813     21815     21801     21813     21816     21814     21813     21815
     21814     21813     21816     21815     21813     21816     21813     21816     21817
     21813     21816     21818     21813     21816     21819     21817     21816     21818
     21817     21816     21819     21818     21816     21819     21816     21819     21820
     21816     21819     21821     21816     21819     21822     21820     21819     21821
     21820     21819     21822     21821     21819     21822     21819     21822     21823
     21819     21822     21824     21819     21822     21825     21823     21822     21824
     21823     21822     21825     21824     21822     21825     21822     21825     21826
     21822     21825     21827     21822     21825     21828     21826     21825     21827
     21826     21825     21828     21827     21825     21828     21825     21828     21829
     21825     21828     21830     21825     21828     21831     21829     21828     21830
     21829     21828     21831     21830     21828     21831     21828     21831     21832
     21828     21831     21833     21832     21831     21833     21831     21833     21834
     21831     21833     21835     21834     21833     21835     21833     21835     21836
     21833     21835     21837     21833     21835     21838     21836     21835     21837
     21836     21835     21838     21837     21835     21838     21835     21838     21839
     21835     21838     21840     21839     21838     21840     21838     21840     21841
     21838     21840     21842     21841     21840     21842     21840     21842     21843
     21840     21842     21844     21840     21842     21845     21843     21842     21844
     21843     21842     21845     21844     21842     21845     21842     21845     21846
     21842     21845     21847     21842     21845     21848     21846     21845     21847
     21846     21845     21848     21847     21845     21848     21845     21848     21849
     21845     21848     21850     21845     21848     21851     21849     21848     21850
     21849     21848     21851     21850     21848     21851     21848     21851     21852
     21848     21851     21853     21848     21851     21854     21852     21851     21853
     21852     21851     21854     21853     21851     21854     21851     21854     21855
     21851     21854     21856     21851     21854     21857     21855     21854     21856
     21855     21854     21857     21856     21854     21857     21810     21858     21859
     21810     21858     21860     21810     21858     21861     21859     21858     21860
     21859     21858     21861     21860     21858     21861     21858     21861     21862
     21858     21861     21863     21858     21861     21864     21862     21861     21863
     21862     21861     21864     21863     21861     21864     21861     21864     21865
     21861     21864     21866     21861     21864     21867     21865     21864     21866
     21865     21864     21867     21866     21864     21867     21864     21867     21868
     21864     21867     21869     21864     21867     21870     21868     21867     21869
     21868     21867     21870     21869     21867     21870     21867     21870     21871
     21867     21870     21872     21867     21870     21873     21871     21870     21872
     21871     21870     21873     21872     21870     21873     21870     21873     21874
     21870     21873     21875     21870     21873     21876     21874     21873     21875
     21874     21873     21876     21875     21873     21876     21873     21876     21877
     21873     21876     21878     21873     21876     21879     21877     21876     21878
     21877     21876     21879     21878     21876     21879     21876     21879     21880
     21876     21879     21881     21876     21879     21882     21880     21879     21881
     21880     21879     21882     21881     21879     21882     21879     21882     21883
     21879     21882     21884     21879     21882     21885     21883     21882     21884
     21883     21882     21885     21884     21882     21885     21882     21885     21886
     21882     21885     21887     21882     21885     21888     21886     21885     21887
     21886     21885     21888     21887     21885     21888     21885     21888     21889
     21885     21888     21890     21885     21888     21891     21889     21888     21890
     21889     21888     21891     21890     21888     21891     21888     21891     21892
     21888     21891     21893     21888     21891     21894     21892     21891     21893
     21892     21891     21894     21893     21891     21894     21891     21894     21895
     21891     21894     21896     21891     21894     21897     21895     21894     21896
     21895     21894     21897     21896     21894     21897     21894     21897     21898
     21894     21897     21899     21894     21897     21900     21898     21897     21899
     21898     21897     21900     21899     21897     21900     21897     21900     21901
     21897     21900     21902     21897     21900     21903     21901     21900     21902
     21901     21900     21903     21902     21900     21903     21900     21903     21904
     21900     21903     21905     21900     21903     21906     21904     21903     21905
     21904     21903     21906     21905     21903     21906      8402      8401      8403
      8402      8401      8405      8402      8401      8447      8403      8401      8405
      8403      8401      8447      8405      8401      8447      8401      8403      8404
      8401      8405      8406      8401      8405      8407      8401      8405      8408
      8406      8405      8407      8406      8405      8408      8407      8405      8408
      8405      8408      8409      8405      8408      8439      8409      8408      8439
      8408      8409      8410      8408      8409      8411      8410      8409      8411
      8409      8411      8412      8409      8411      8413      8409      8411      8414
      8412      8411      8413      8412      8411      8414      8413      8411      8414
      8411      8414      8415      8411      8414      8416      8411      8414      8437
      8415      8414      8416      8415      8414      8437      8416      8414      8437
      8414      8416      8417      8414      8416      8418      8414      8416      8426
      8417      8416      8418      8417      8416      8426      8418      8416      8426
      8416      8418      8419      8416      8418      8420      8416      8418      8421
      8419      8418      8420      8419      8418      8421      8420      8418      8421
      8418      8421      8422      8418      8421      8423      8418      8421      8424
      8422      8421      8423      8422      8421      8424      8423      8421      8424
      8421      8424      8425      8421      8424      8426      8421      8424      8450
      8425      8424      8426      8425      8424      8450      8426      8424      8450
      8416      8426      8424      8416      8426      8427      8416      8426      8431
      8424      8426      8427      8424      8426      8431      8427      8426      8431
      8426      8427      8428      8426      8427      8429      8426      8427      8430
      8428      8427      8429      8428      8427      8430      8429      8427      8430
      8426      8431      8432      8426      8431      8433      8426      8431      8434
      8432      8431      8433      8432      8431      8434      8433      8431      8434
      8431      8434      8435      8431      8434      8436      8431      8434      8437
      8435      8434      8436      8435      8434      8437      8436      8434      8437
      8414      8437      8434      8414      8437      8438      8414      8437      8439
      8434      8437      8438      8434      8437      8439      8438      8437      8439
      8408      8439      8437      8408      8439      8440      8408      8439      8444
      8437      8439      8440      8437      8439      8444      8440      8439      8444
      8439      8440      8441      8439      8440      8442      8439      8440      8443
      8441      8440      8442      8441      8440      8443      8442      8440      8443
      8439      8444      8445      8439      8444      8446      8439      8444      8447
      8445      8444      8446      8445      8444      8447      8446      8444      8447
      8401      8447      8444      8401      8447      8448      8401      8447      8449
      8444      8447      8448      8444      8447      8449      8448      8447      8449
      8424      8450      8451      8424      8450      8452      8424      8450      8456
      8451      8450      8452      8451      8450      8456      8452      8450      8456
      8450      8452      8453      8450      8452      8454      8450      8452      8455
      8453      8452      8454      8453      8452      8455      8454      8452      8455
      8450      8456      8457      8450      8456      8458      8450      8456      8459
      8457      8456      8458      8457      8456      8459      8458      8456      8459
      8456      8459      8460      8456      8459      8461      8456      8459      8462
      8460      8459      8461      8460      8459      8462      8461      8459      8462
      8459      8462      8463      8459      8462      8464      8459      8462      8465
      8463      8462      8464      8463      8462      8465      8464      8462      8465
      8462      8465      8466      8462      8465      8467      8462      8465      8471
      8466      8465      8467      8466      8465      8471      8467      8465      8471
      8465      8467      8468      8465      8467      8469      8465      8467      8470
      8468      8467      8469      8468      8467      8470      8469      8467      8470
      8465      8471      8472      8465      8471      8473      8465      8471      8474
      8472      8471      8473      8472      8471      8474      8473      8471      8474
     19018     19017     19019     19018     19017     19020     19018     19017     19021
     19019     19017     19020     19019     19017     19021     19020     19017     19021
     19017     19021     19022     19017     19021     19023     19017     19021     19024
     19022     19021     19023     19022     19021     19024     19023     19021     19024
     19021     19024     19025     19021     19024     19026     19021     19024     19030
     19025     19024     19026     19025     19024     19030     19026     19024     19030
     19028     19027     19029     19028     19027     19030     19028     19027     19031
     19029     19027     19030     19029     19027     19031     19030     19027     19031
     19024     19030     19027     19027     19031     19032     19031     19032     19033
     19031     19032     19034     19031     19032     19035     19033     19032     19034
     19033     19032     19035     19034     19032     19035     19032     19035     19036
     19032     19035     19037     19032     19035     19043     19036     19035     19037
     19036     19035     19043     19037     19035     19043     19035     19037     19038
     19037     19038     19039     19037     19038     19040     19039     19038     19040
     19038     19040     19041     19038     19040     19042     19038     19040     19052
     19041     19040     19042     19041     19040     19052     19042     19040     19052
     19035     19043     19044     19035     19043     19045     19035     19043     19046
     19044     19043     19045     19044     19043     19046     19045     19043     19046
     19043     19046     19047     19046     19047     19048     19046     19047     19049
     19048     19047     19049     19047     19049     19050     19047     19049     19051
     19047     19049     19099     19050     19049     19051     19050     19049     19099
     19051     19049     19099     19040     19052     19053     19040     19052     19054
     19040     19052     19055     19053     19052     19054     19053     19052     19055
     19054     19052     19055     19052     19055     19056     19052     19055     19057
     19052     19055     19058     19056     19055     19057     19056     19055     19058
     19057     19055     19058     19055     19058     19059     19055     19058     19060
     19055     19058     19061     19059     19058     19060     19059     19058     19061
     19060     19058     19061     19058     19061     19062     19058     19061     19063
     19058     19061     19064     19062     19061     19063     19062     19061     19064
     19063     19061     19064     19061     19064     19065     19061     19064     19066
     19061     19064     19067     19065     19064     19066     19065     19064     19067
     19066     19064     19067     19064     19067     19068     19064     19067     19069
     19064     19067     19070     19068     19067     19069     19068     19067     19070
     19069     19067     19070     19067     19070     19071     19067     19070     19072
     19071     19070     19072     19070     19072     19073     19070     19072     19074
     19073     19072     19074     19072     19074     19075     19072     19074     19076
     19072     19074     19077     19075     19074     19076     19075     19074     19077
     19076     19074     19077     19074     19077     19078     19074     19077     19079
     19074     19077     19080     19078     19077     19079     19078     19077     19080
     19079     19077     19080     19077     19080     19081     19077     19080     19082
     19077     19080     19083     19081     19080     19082     19081     19080     19083
     19082     19080     19083     19080     19083     19084     19080     19083     19085
     19080     19083     19086     19084     19083     19085     19084     19083     19086
     19085     19083     19086     19083     19086     19087     19083     19086     19088
     19083     19086     19089     19087     19086     19088     19087     19086     19089
     19088     19086     19089     19086     19089     19090     19086     19089     19091
     19086     19089     19092     19090     19089     19091     19090     19089     19092
     19091     19089     19092     19089     19092     19093     19089     19092     19094
     19089     19092     19095     19093     19092     19094     19093     19092     19095
     19094     19092     19095     19092     19095     19096     19092     19095     19097
     19092     19095     19098     19096     19095     19097     19096     19095     19098
     19097     19095     19098     19049     19099     19100     19049     19099     19101
     19049     19099     19102     19100     19099     19101     19100     19099     19102
     19101     19099     19102     19099     19102     19103     19099     19102     19104
     19099     19102     19105     19103     19102     19104     19103     19102     19105
     19104     19102     19105     19102     19105     19106     19102     19105     19107
     19102     19105     19108     19106     19105     19107     19106     19105     19108
     19107     19105     19108     19105     19108     19109     19105     19108     19110
     19105     19108     19111     19109     19108     19110     19109     19108     19111
     19110     19108     19111     19108     19111     19112     19108     19111     19113
     19108     19111     19114     19112     19111     19113     19112     19111     19114
     19113     19111     19114     19111     19114     19115     19111     19114     19116
     19111     19114     19117     19115     19114     19116     19115     19114     19117
     19116     19114     19117     19114     19117     19118     19114     19117     19119
     19114     19117     19120     19118     19117     19119     19118     19117     19120
     19119     19117     19120     19117     19120     19121     19117     19120     19122
     19117     19120     19123     19121     19120     19122     19121     19120     19123
     19122     19120     19123     19120     19123     19124     19120     19123     19125
     19120     19123     19126     19124     19123     19125     19124     19123     19126
     19125     19123     19126     19123     19126     19127     19123     19126     19128
     19123     19126     19129     19127     19126     19128     19127     19126     19129
     19128     19126     19129     19126     19129     19130     19126     19129     19131
     19126     19129     19132     19130     19129     19131     19130     19129     19132
     19131     19129     19132     19129     19132     19133     19129     19132     19134
     19129     19132     19135     19133     19132     19134     19133     19132     19135
     19134     19132     19135     19132     19135     19136     19132     19135     19137
     19132     19135     19138     19136     19135     19137     19136     19135     19138
     19137     19135     19138     19135     19138     19139     19135     19138     19140
     19135     19138     19141     19139     19138     19140     19139     19138     19141
     19140     19138     19141     19138     19141     19142     19138     19141     19143
     19138     19141     19144     19142     19141     19143     19142     19141     19144
     19143     19141     19144     19141     19144     19145     19141     19144     19146
     19141     19144     19147     19145     19144     19146     19145     19144     19147
     19146     19144     19147     13385     13384     13389     13385     13384     13393
     13385     13384     13397     13389     13384     13393     13389     13384     13397
     13393     13384     13397     13384     13385     13386     13384     13385     13387
     13384     13385     13388     13386     13385     13387     13386     13385     13388
     13387     13385     13388     13384     13389     13390     13384     13389     13391
     13384     13389     13392     13390     13389     13391     13390     13389     13392
     13391     13389     13392     13384     13393     13394     13384     13393     13395
     13384     13393     13396     13394     13393     13395     13394     13393     13396
     13395     13393     13396     13384     13397     13398     13384     13397     13399
     13384     13397     13400     13398     13397     13399     13398     13397     13400
     13399     13397     13400     13397     13400     13401     13397     13400     13402
     13397     13400     13407     13401     13400     13402     13401     13400     13407
     13402     13400     13407     13404     13403     13405     13404     13403     13406
     13404     13403     13407     13405     13403     13406     13405     13403     13407
     13406     13403     13407     13403     13406     13408     13400     13407     13403
     13406     13408     13409     13406     13408     13410     13406     13408     13413
     13409     13408     13410     13409     13408     13413     13410     13408     13413
     13412     13411     13413     13412     13411     13463     13413     13411     13463
     13408     13413     13411     13408     13413     13414     13408     13413     13415
     13411     13413     13414     13411     13413     13415     13414     13413     13415
     13413     13415     13416     13413     13415     13417     13413     13415     13419
     13416     13415     13417     13416     13415     13419     13417     13415     13419
     13415     13417     13418     13415     13419     13420     13415     13419     13421
     13420     13419     13421     13419     13421     13422     13419     13421     13423
     13422     13421     13423     13421     13423     13424     13421     13423     13425
     13421     13423     13426     13424     13423     13425     13424     13423     13426
     13425     13423     13426     13423     13426     13427     13423     13426     13428
     13423     13426     13429     13427     13426     13428     13427     13426     13429
     13428     13426     13429     13426     13429     13430     13426     13429     13431
     13426     13429     13432     13430     13429     13431     13430     13429     13432
     13431     13429     13432     13429     13432     13433     13429     13432     13434
     13429     13432     13435     13433     13432     13434     13433     13432     13435
     13434     13432     13435     13432     13435     13436     13432     13435     13437
     13432     13435     13438     13436     13435     13437     13436     13435     13438
     13437     13435     13438     13435     13438     13439     13435     13438     13440
     13435     13438     13441     13439     13438     13440     13439     13438     13441
     13440     13438     13441     13438     13441     13442     13438     13441     13443
     13438     13441     13444     13442     13441     13443     13442     13441     13444
     13443     13441     13444     13441     13444     13445     13441     13444     13446
     13441     13444     13447     13445     13444     13446     13445     13444     13447
     13446     13444     13447     13444     13447     13448     13444     13447     13449
     13444     13447     13450     13448     13447     13449     13448     13447     13450
     13449     13447     13450     13447     13450     13451     13447     13450     13452
     13447     13450     13453     13451     13450     13452     13451     13450     13453
     13452     13450     13453     13450     13453     13454     13450     13453     13455
     13450     13453     13456     13454     13453     13455     13454     13453     13456
     13455     13453     13456     13453     13456     13457     13453     13456     13458
     13453     13456     13459     13457     13456     13458     13457     13456     13459
     13458     13456     13459     13456     13459     13460     13456     13459     13461
     13456     13459     13462     13460     13459     13461     13460     13459     13462
     13461     13459     13462     13411     13463     13464     13411     13463     13465
     13464     13463     13465     13463     13465     13466     13463     13465     13467
     13463     13465     13468     13466     13465     13467     13466     13465     13468
     13467     13465     13468     13465     13468     13469     13465     13468     13470
     13465     13468     13471     13469     13468     13470     13469     13468     13471
     13470     13468     13471     13468     13471     13472     13468     13471     13473
     13468     13471     13474     13472     13471     13473     13472     13471     13474
     13473     13471     13474     13471     13474     13475     13471     13474     13476
     13471     13474     13477     13475     13474     13476     13475     13474     13477
     13476     13474     13477     13474     13477     13478     13474     13477     13479
     13474     13477     13480     13478     13477     13479     13478     13477     13480
     13479     13477     13480     13477     13480     13481     13477     13480     13482
     13477     13480     13483     13481     13480     13482     13481     13480     13483
     13482     13480     13483     13480     13483     13484     13480     13483     13485
     13480     13483     13486     13484     13483     13485     13484     13483     13486
     13485     13483     13486     13483     13486     13487     13483     13486     13488
     13487     13486     13488     13486     13488     13489     13486     13488     13490
     13489     13488     13490     13488     13490     13491     13488     13490     13492
     13488     13490     13493     13491     13490     13492     13491     13490     13493
     13492     13490     13493     13490     13493     13494     13490     13493     13495
     13490     13493     13496     13494     13493     13495     13494     13493     13496
     13495     13493     13496     13493     13496     13497     13493     13496     13498
     13493     13496     13499     13497     13496     13498     13497     13496     13499
     13498     13496     13499     13496     13499     13500     13496     13499     13501
     13496     13499     13502     13500     13499     13501     13500     13499     13502
     13501     13499     13502     13499     13502     13503     13499     13502     13504
     13499     13502     13505     13503     13502     13504     13503     13502     13505
     13504     13502     13505     13502     13505     13506     13502     13505     13507
     13502     13505     13508     13506     13505     13507     13506     13505     13508
     13507     13505     13508     13505     13508     13509     13505     13508     13510
     13505     13508     13511     13509     13508     13510     13509     13508     13511
     13510     13508     13511     13508     13511     13512     13508     13511     13513
     13508     13511     13514     13512     13511     13513     13512     13511     13514
     13513     13511     13514     17053     17052     17054     17053     17052     17055
     17053     17052     17056     17054     17052     17055     17054     17052     17056
     17055     17052     17056     17052     17056     17057     17052     17056     17058
     17052     17056     17059     17057     17056     17058     17057     17056     17059
     17058     17056     17059     17056     17059     17060     17056     17059     17061
     17056     17059     17065     17060     17059     17061     17060     17059     17065
     17061     17059     17065     17063     17062     17064     17063     17062     17065
     17063     17062     17066     17064     17062     17065     17064     17062     17066
     17065     17062     17066     17059     17065     17062     17062     17066     17067
     17066     17067     17068     17066     17067     17069     17066     17067     17070
     17068     17067     17069     17068     17067     17070     17069     17067     17070
     17067     17070     17071     17067     17070     17072     17067     17070     17078
     17071     17070     17072     17071     17070     17078     17072     17070     17078
     17070     17072     17073     17072     17073     17074     17072     17073     17075
     17074     17073     17075     17073     17075     17076     17073     17075     17077
     17073     17075     17087     17076     17075     17077     17076     17075     17087
     17077     17075     17087     17070     17078     17079     17070     17078     17080
     17070     17078     17081     17079     17078     17080     17079     17078     17081
     17080     17078     17081     17078     17081     17082     17081     17082     17083
     17081     17082     17084     17083     17082     17084     17082     17084     17085
     17082     17084     17086     17082     17084     17134     17085     17084     17086
     17085     17084     17134     17086     17084     17134     17075     17087     17088
     17075     17087     17089     17075     17087     17090     17088     17087     17089
     17088     17087     17090     17089     17087     17090     17087     17090     17091
     17087     17090     17092     17087     17090     17093     17091     17090     17092
     17091     17090     17093     17092     17090     17093     17090     17093     17094
     17090     17093     17095     17094     17093     17095     17093     17095     17096
     17093     17095     17097     17096     17095     17097     17095     17097     17098
     17095     17097     17099     17095     17097     17100     17098     17097     17099
     17098     17097     17100     17099     17097     17100     17097     17100     17101
     17097     17100     17102     17101     17100     17102     17100     17102     17103
     17100     17102     17104     17103     17102     17104     17102     17104     17105
     17102     17104     17106     17102     17104     17107     17105     17104     17106
     17105     17104     17107     17106     17104     17107     17104     17107     17108
     17104     17107     17109     17108     17107     17109     17107     17109     17110
     17107     17109     17111     17110     17109     17111     17109     17111     17112
     17109     17111     17113     17109     17111     17114     17112     17111     17113
     17112     17111     17114     17113     17111     17114     17111     17114     17115
     17111     17114     17116     17115     17114     17116     17114     17116     17117
     17114     17116     17118     17117     17116     17118     17116     17118     17119
     17116     17118     17120     17116     17118     17121     17119     17118     17120
     17119     17118     17121     17120     17118     17121     17118     17121     17122
     17118     17121     17123     17118     17121     17124     17122     17121     17123
     17122     17121     17124     17123     17121     17124     17121     17124     17125
     17121     17124     17126     17121     17124     17127     17125     17124     17126
     17125     17124     17127     17126     17124     17127     17124     17127     17128
     17124     17127     17129     17124     17127     17130     17128     17127     17129
     17128     17127     17130     17129     17127     17130     17127     17130     17131
     17127     17130     17132     17127     17130     17133     17131     17130     17132
     17131     17130     17133     17132     17130     17133     17084     17134     17135
     17084     17134     17136     17084     17134     17137     17135     17134     17136
     17135     17134     17137     17136     17134     17137     17134     17137     17138
     17134     17137     17139     17134     17137     17140     17138     17137     17139
     17138     17137     17140     17139     17137     17140     17137     17140     17141
     17137     17140     17142     17137     17140     17143     17141     17140     17142
     17141     17140     17143     17142     17140     17143     17140     17143     17144
     17140     17143     17145     17140     17143     17146     17144     17143     17145
     17144     17143     17146     17145     17143     17146     17143     17146     17147
     17143     17146     17148     17143     17146     17149     17147     17146     17148
     17147     17146     17149     17148     17146     17149     17146     17149     17150
     17146     17149     17151     17146     17149     17152     17150     17149     17151
     17150     17149     17152     17151     17149     17152     17149     17152     17153
     17149     17152     17154     17149     17152     17155     17153     17152     17154
     17153     17152     17155     17154     17152     17155     17152     17155     17156
     17152     17155     17157     17152     17155     17158     17156     17155     17157
     17156     17155     17158     17157     17155     17158     17155     17158     17159
     17155     17158     17160     17155     17158     17161     17159     17158     17160
     17159     17158     17161     17160     17158     17161     17158     17161     17162
     17158     17161     17163     17158     17161     17164     17162     17161     17163
     17162     17161     17164     17163     17161     17164     17161     17164     17165
     17161     17164     17166     17161     17164     17167     17165     17164     17166
     17165     17164     17167     17166     17164     17167     17164     17167     17168
     17164     17167     17169     17164     17167     17170     17168     17167     17169
     17168     17167     17170     17169     17167     17170     17167     17170     17171
     17167     17170     17172     17167     17170     17173     17171     17170     17172
     17171     17170     17173     17172     17170     17173     17170     17173     17174
     17170     17173     17175     17170     17173     17176     17174     17173     17175
     17174     17173     17176     17175     17173     17176     17173     17176     17177
     17173     17176     17178     17173     17176     17179     17177     17176     17178
     17177     17176     17179     17178     17176     17179     17176     17179     17180
     17176     17179     17181     17176     17179     17182     17180     17179     17181
     17180     17179     17182     17181     17179     17182     17184     17183     17185
     17184     17183     17186     17184     17183     17187     17185     17183     17186
     17185     17183     17187     17186     17183     17187     17183     17187     17188
     17183     17187     17189     17183     17187     17190     17188     17187     17189
     17188     17187     17190     17189     17187     17190     17187     17190     17191
     17187     17190     17192     17187     17190     17196     17191     17190     17192
     17191     17190     17196     17192     17190     17196     17194     17193     17195
     17194     17193     17196     17194     17193     17197     17195     17193     17196
     17195     17193     17197     17196     17193     17197     17190     17196     17193
     17193     17197     17198     17197     17198     17199     17197     17198     17200
     17197     17198     17201     17199     17198     17200     17199     17198     17201
     17200     17198     17201     17198     17201     17202     17198     17201     17203
     17198     17201     17209     17202     17201     17203     17202     17201     17209
     17203     17201     17209     17201     17203     17204     17203     17204     17205
     17203     17204     17206     17205     17204     17206     17204     17206     17207
     17204     17206     17208     17204     17206     17218     17207     17206     17208
     17207     17206     17218     17208     17206     17218     17201     17209     17210
     17201     17209     17211     17201     17209     17212     17210     17209     17211
     17210     17209     17212     17211     17209     17212     17209     17212     17213
     17212     17213     17214     17212     17213     17215     17214     17213     17215
     17213     17215     17216     17213     17215     17217     17213     17215     17265
     17216     17215     17217     17216     17215     17265     17217     17215     17265
     17206     17218     17219     17206     17218     17220     17206     17218     17221
     17219     17218     17220     17219     17218     17221     17220     17218     17221
     17218     17221     17222     17218     17221     17223     17218     17221     17224
     17222     17221     17223     17222     17221     17224     17223     17221     17224
     17221     17224     17225     17221     17224     17226     17225     17224     17226
     17224     17226     17227     17224     17226     17228     17227     17226     17228
     17226     17228     17229     17226     17228     17230     17226     17228     17231
     17229     17228     17230     17229     17228     17231     17230     17228     17231
     17228     17231     17232     17228     17231     17233     17232     17231     17233
     17231     17233     17234     17231     17233     17235     17234     17233     17235
     17233     17235     17236     17233     17235     17237     17233     17235     17238
     17236     17235     17237     17236     17235     17238     17237     17235     17238
     17235     17238     17239     17235     17238     17240     17239     17238     17240
     17238     17240     17241     17238     17240     17242     17241     17240     17242
     17240     17242     17243     17240     17242     17244     17240     17242     17245
     17243     17242     17244     17243     17242     17245     17244     17242     17245
     17242     17245     17246     17242     17245     17247     17246     17245     17247
     17245     17247     17248     17245     17247     17249     17248     17247     17249
     17247     17249     17250     17247     17249     17251     17247     17249     17252
     17250     17249     17251     17250     17249     17252     17251     17249     17252
     17249     17252     17253     17249     17252     17254     17249     17252     17255
     17253     17252     17254     17253     17252     17255     17254     17252     17255
     17252     17255     17256     17252     17255     17257     17252     17255     17258
     17256     17255     17257     17256     17255     17258     17257     17255     17258
     17255     17258     17259     17255     17258     17260     17255     17258     17261
     17259     17258     17260     17259     17258     17261     17260     17258     17261
     17258     17261     17262     17258     17261     17263     17258     17261     17264
     17262     17261     17263     17262     17261     17264     17263     17261     17264
     17215     17265     17266     17215     17265     17267     17215     17265     17268
     17266     17265     17267     17266     17265     17268     17267     17265     17268
     17265     17268     17269     17265     17268     17270     17265     17268     17271
     17269     17268     17270     17269     17268     17271     17270     17268     17271
     17268     17271     17272     17268     17271     17273     17268     17271     17274
     17272     17271     17273     17272     17271     17274     17273     17271     17274
     17271     17274     17275     17271     17274     17276     17271     17274     17277
     17275     17274     17276     17275     17274     17277     17276     17274     17277
     17274     17277     17278     17274     17277     17279     17274     17277     17280
     17278     17277     17279     17278     17277     17280     17279     17277     17280
     17277     17280     17281     17277     17280     17282     17277     17280     17283
     17281     17280     17282     17281     17280     17283     17282     17280     17283
     17280     17283     17284     17280     17283     17285     17280     17283     17286
     17284     17283     17285     17284     17283     17286     17285     17283     17286
     17283     17286     17287     17283     17286     17288     17283     17286     17289
     17287     17286     17288     17287     17286     17289     17288     17286     17289
     17286     17289     17290     17286     17289     17291     17286     17289     17292
     17290     17289     17291     17290     17289     17292     17291     17289     17292
     17289     17292     17293     17289     17292     17294     17289     17292     17295
     17293     17292     17294     17293     17292     17295     17294     17292     17295
     17292     17295     17296     17292     17295     17297     17292     17295     17298
     17296     17295     17297     17296     17295     17298     17297     17295     17298
     17295     17298     17299     17295     17298     17300     17295     17298     17301
     17299     17298     17300     17299     17298     17301     17300     17298     17301
     17298     17301     17302     17298     17301     17303     17298     17301     17304
     17302     17301     17303     17302     17301     17304     17303     17301     17304
     17301     17304     17305     17301     17304     17306     17301     17304     17307
     17305     17304     17306     17305     17304     17307     17306     17304     17307
     17304     17307     17308     17304     17307     17309     17304     17307     17310
     17308     17307     17309     17308     17307     17310     17309     17307     17310
     17307     17310     17311     17307     17310     17312     17307     17310     17313
     17311     17310     17312     17311     17310     17313     17312     17310     17313
     19149     19148     19150     19149     19148     19151     19149     19148     19152
     19150     19148     19151     19150     19148     19152     19151     19148     19152
     19148     19152     19153     19148     19152     19154     19148     19152     19155
     19153     19152     19154     19153     19152     19155     19154     19152     19155
     19152     19155     19156     19152     19155     19157     19152     19155     19161
     19156     19155     19157     19156     19155     19161     19157     19155     19161
     19159     19158     19160     19159     19158     19161     19159     19158     19162
     19160     19158     19161     19160     19158     19162     19161     19158     19162
     19155     19161     19158     19158     19162     19163     19162     19163     19164
     19162     19163     19165     19162     19163     19166     19164     19163     19165
     19164     19163     19166     19165     19163     19166     19163     19166     19167
     19163     19166     19168     19163     19166     19174     19167     19166     19168
     19167     19166     19174     19168     19166     19174     19166     19168     19169
     19168     19169     19170     19168     19169     19171     19170     19169     19171
     19169     19171     19172     19169     19171     19173     19169     19171     19183
     19172     19171     19173     19172     19171     19183     19173     19171     19183
     19166     19174     19175     19166     19174     19176     19166     19174     19177
     19175     19174     19176     19175     19174     19177     19176     19174     19177
     19174     19177     19178     19177     19178     19179     19177     19178     19180
     19179     19178     19180     19178     19180     19181     19178     19180     19182
     19178     19180     19230     19181     19180     19182     19181     19180     19230
     19182     19180     19230     19171     19183     19184     19171     19183     19185
     19171     19183     19186     19184     19183     19185     19184     19183     19186
     19185     19183     19186     19183     19186     19187     19183     19186     19188
     19183     19186     19189     19187     19186     19188     19187     19186     19189
     19188     19186     19189     19186     19189     19190     19186     19189     19191
     19186     19189     19192     19190     19189     19191     19190     19189     19192
     19191     19189     19192     19189     19192     19193     19189     19192     19194
     19189     19192     19195     19193     19192     19194     19193     19192     19195
     19194     19192     19195     19192     19195     19196     19192     19195     19197
     19192     19195     19198     19196     19195     19197     19196     19195     19198
     19197     19195     19198     19195     19198     19199     19195     19198     19200
     19195     19198     19201     19199     19198     19200     19199     19198     19201
     19200     19198     19201     19198     19201     19202     19198     19201     19203
     19202     19201     19203     19201     19203     19204     19201     19203     19205
     19204     19203     19205     19203     19205     19206     19203     19205     19207
     19203     19205     19208     19206     19205     19207     19206     19205     19208
     19207     19205     19208     19205     19208     19209     19205     19208     19210
     19205     19208     19211     19209     19208     19210     19209     19208     19211
     19210     19208     19211     19208     19211     19212     19208     19211     19213
     19208     19211     19214     19212     19211     19213     19212     19211     19214
     19213     19211     19214     19211     19214     19215     19211     19214     19216
     19211     19214     19217     19215     19214     19216     19215     19214     19217
     19216     19214     19217     19214     19217     19218     19214     19217     19219
     19214     19217     19220     19218     19217     19219     19218     19217     19220
     19219     19217     19220     19217     19220     19221     19217     19220     19222
     19217     19220     19223     19221     19220     19222     19221     19220     19223
     19222     19220     19223     19220     19223     19224     19220     19223     19225
     19220     19223     19226     19224     19223     19225     19224     19223     19226
     19225     19223     19226     19223     19226     19227     19223     19226     19228
     19223     19226     19229     19227     19226     19228     19227     19226     19229
     19228     19226     19229     19180     19230     19231     19180     19230     19232
     19180     19230     19233     19231     19230     19232     19231     19230     19233
     19232     19230     19233     19230     19233     19234     19230     19233     19235
     19230     19233     19236     19234     19233     19235     19234     19233     19236
     19235     19233     19236     19233     19236     19237     19233     19236     19238
     19233     19236     19239     19237     19236     19238     19237     19236     19239
     19238     19236     19239     19236     19239     19240     19236     19239     19241
     19236     19239     19242     19240     19239     19241     19240     19239     19242
     19241     19239     19242     19239     19242     19243     19239     19242     19244
     19239     19242     19245     19243     19242     19244     19243     19242     19245
     19244     19242     19245     19242     19245     19246     19242     19245     19247
     19242     19245     19248     19246     19245     19247     19246     19245     19248
     19247     19245     19248     19245     19248     19249     19245     19248     19250
     19245     19248     19251     19249     19248     19250     19249     19248     19251
     19250     19248     19251     19248     19251     19252     19248     19251     19253
     19248     19251     19254     19252     19251     19253     19252     19251     19254
     19253     19251     19254     19251     19254     19255     19251     19254     19256
     19251     19254     19257     19255     19254     19256     19255     19254     19257
     19256     19254     19257     19254     19257     19258     19254     19257     19259
     19254     19257     19260     19258     19257     19259     19258     19257     19260
     19259     19257     19260     19257     19260     19261     19257     19260     19262
     19257     19260     19263     19261     19260     19262     19261     19260     19263
     19262     19260     19263     19260     19263     19264     19260     19263     19265
     19260     19263     19266     19264     19263     19265     19264     19263     19266
     19265     19263     19266     19263     19266     19267     19263     19266     19268
     19263     19266     19269     19267     19266     19268     19267     19266     19269
     19268     19266     19269     19266     19269     19270     19266     19269     19271
     19266     19269     19272     19270     19269     19271     19270     19269     19272
     19271     19269     19272     19269     19272     19273     19269     19272     19274
     19269     19272     19275     19273     19272     19274     19273     19272     19275
     19274     19272     19275     19272     19275     19276     19272     19275     19277
     19272     19275     19278     19276     19275     19277     19276     19275     19278
     19277     19275     19278     19971     19970     19972     19971     19970     19974
     19971     19970     19990     19972     19970     19974     19972     19970     19990
     19974     19970     19990     19970     19972     19973     19970     19974     19975
     19970     19974     19976     19970     19974     19978     19975     19974     19976
     19975     19974     19978     19976     19974     19978     19974     19976     19977
     19974     19978     19979     19974     19978     19980     19974     19978     19982
     19979     19978     19980     19979     19978     19982     19980     19978     19982
     19978     19980     19981     19978     19982     19983     19978     19982     19984
     19978     19982     19986     19983     19982     19984     19983     19982     19986
     19984     19982     19986     19982     19984     19985     19982     19986     19987
     19982     19986     19988     19982     19986     19990     19987     19986     19988
     19987     19986     19990     19988     19986     19990     19986     19988     19989
     19970     19990     19986     19970     19990     19991     19970     19990     19995
     19986     19990     19991     19986     19990     19995     19991     19990     19995
     19993     19992     19994     19993     19992     19995     19993     19992     19996
     19994     19992     19995     19994     19992     19996     19995     19992     19996
     19990     19995     19992     19992     19996     19997     19996     19997     19998
     19996     19997     19999     19996     19997     20000     19998     19997     19999
     19998     19997     20000     19999     19997     20000     19997     20000     20001
     19997     20000     20002     19997     20000     20008     20001     20000     20002
     20001     20000     20008     20002     20000     20008     20000     20002     20003
     20002     20003     20004     20002     20003     20005     20004     20003     20005
     20003     20005     20006     20003     20005     20007     20003     20005     20017
     20006     20005     20007     20006     20005     20017     20007     20005     20017
     20000     20008     20009     20000     20008     20010     20000     20008     20011
     20009     20008     20010     20009     20008     20011     20010     20008     20011
     20008     20011     20012     20011     20012     20013     20011     20012     20014
     20013     20012     20014     20012     20014     20015     20012     20014     20016
     20012     20014     20064     20015     20014     20016     20015     20014     20064
     20016     20014     20064     20005     20017     20018     20005     20017     20019
     20005     20017     20020     20018     20017     20019     20018     20017     20020
     20019     20017     20020     20017     20020     20021     20017     20020     20022
     20017     20020     20023     20021     20020     20022     20021     20020     20023
     20022     20020     20023     20020     20023     20024     20020     20023     20025
     20024     20023     20025     20023     20025     20026     20023     20025     20027
     20026     20025     20027     20025     20027     20028     20025     20027     20029
     20025     20027     20030     20028     20027     20029     20028     20027     20030
     20029     20027     20030     20027     20030     20031     20027     20030     20032
     20031     20030     20032     20030     20032     20033     20030     20032     20034
     20033     20032     20034     20032     20034     20035     20032     20034     20036
     20032     20034     20037     20035     20034     20036     20035     20034     20037
     20036     20034     20037     20034     20037     20038     20034     20037     20039
     20038     20037     20039     20037     20039     20040     20037     20039     20041
     20040     20039     20041     20039     20041     20042     20039     20041     20043
     20039     20041     20044     20042     20041     20043     20042     20041     20044
     20043     20041     20044     20041     20044     20045     20041     20044     20046
     20045     20044     20046     20044     20046     20047     20044     20046     20048
     20047     20046     20048     20046     20048     20049     20046     20048     20050
     20046     20048     20051     20049     20048     20050     20049     20048     20051
     20050     20048     20051     20048     20051     20052     20048     20051     20053
     20048     20051     20054     20052     20051     20053     20052     20051     20054
     20053     20051     20054     20051     20054     20055     20051     20054     20056
     20051     20054     20057     20055     20054     20056     20055     20054     20057
     20056     20054     20057     20054     20057     20058     20054     20057     20059
     20054     20057     20060     20058     20057     20059     20058     20057     20060
     20059     20057     20060     20057     20060     20061     20057     20060     20062
     20057     20060     20063     20061     20060     20062     20061     20060     20063
     20062     20060     20063     20014     20064     20065     20014     20064     20066
     20014     20064     20067     20065     20064     20066     20065     20064     20067
     20066     20064     20067     20064     20067     20068     20064     20067     20069
     20064     20067     20070     20068     20067     20069     20068     20067     20070
     20069     20067     20070     20067     20070     20071     20067     20070     20072
     20067     20070     20073     20071     20070     20072     20071     20070     20073
     20072     20070     20073     20070     20073     20074     20070     20073     20075
     20070     20073     20076     20074     20073     20075     20074     20073     20076
     20075     20073     20076     20073     20076     20077     20073     20076     20078
     20073     20076     20079     20077     20076     20078     20077     20076     20079
     20078     20076     20079     20076     20079     20080     20076     20079     20081
     20076     20079     20082     20080     20079     20081     20080     20079     20082
     20081     20079     20082     20079     20082     20083     20079     20082     20084
     20079     20082     20085     20083     20082     20084     20083     20082     20085
     20084     20082     20085     20082     20085     20086     20082     20085     20087
     20082     20085     20088     20086     20085     20087     20086     20085     20088
     20087     20085     20088     20085     20088     20089     20085     20088     20090
     20085     20088     20091     20089     20088     20090     20089     20088     20091
     20090     20088     20091     20088     20091     20092     20088     20091     20093
     20088     20091     20094     20092     20091     20093     20092     20091     20094
     20093     20091     20094     20091     20094     20095     20091     20094     20096
     20091     20094     20097     20095     20094     20096     20095     20094     20097
     20096     20094     20097     20094     20097     20098     20094     20097     20099
     20094     20097     20100     20098     20097     20099     20098     20097     20100
     20099     20097     20100     20097     20100     20101     20097     20100     20102
     20097     20100     20103     20101     20100     20102     20101     20100     20103
     20102     20100     20103     20100     20103     20104     20100     20103     20105
     20100     20103     20106     20104     20103     20105     20104     20103     20106
     20105     20103     20106     20103     20106     20107     20103     20106     20108
     20103     20106     20109     20107     20106     20108     20107     20106     20109
     20108     20106     20109     20106     20109     20110     20106     20109     20111
     20106     20109     20112     20110     20109     20111     20110     20109     20112
     20111     20109     20112     13516     13515     13520     13516     13515     13524
     13516     13515     13528     13520     13515     13524     13520     13515     13528
     13524     13515     13528     13515     13516     13517     13515     13516     13518
     13515     13516     13519     13517     13516     13518     13517     13516     13519
     13518     13516     13519     13515     13520     13521     13515     13520     13522
     13515     13520     13523     13521     13520     13522     13521     13520     13523
     13522     13520     13523     13515     13524     13525     13515     13524     13526
     13515     13524     13527     13525     13524     13526     13525     13524     13527
     13526     13524     13527     13515     13528     13529     13515     13528     13530
     13515     13528     13531     13529     13528     13530     13529     13528     13531
     13530     13528     13531     13528     13531     13532     13528     13531     13533
     13528     13531     13538     13532     13531     13533     13532     13531     13538
     13533     13531     13538     13535     13534     13536     13535     13534     13537
     13535     13534     13538     13536     13534     13537     13536     13534     13538
     13537     13534     13538     13534     13537     13539     13531     13538     13534
     13537     13539     13540     13537     13539     13541     13537     13539     13544
     13540     13539     13541     13540     13539     13544     13541     13539     13544
     13543     13542     13544     13543     13542     13594     13544     13542     13594
     13539     13544     13542     13539     13544     13545     13539     13544     13546
     13542     13544     13545     13542     13544     13546     13545     13544     13546
     13544     13546     13547     13544     13546     13548     13544     13546     13550
     13547     13546     13548     13547     13546     13550     13548     13546     13550
     13546     13548     13549     13546     13550     13551     13546     13550     13552
     13551     13550     13552     13550     13552     13553     13550     13552     13554
     13553     13552     13554     13552     13554     13555     13552     13554     13556
     13552     13554     13557     13555     13554     13556     13555     13554     13557
     13556     13554     13557     13554     13557     13558     13554     13557     13559
     13554     13557     13560     13558     13557     13559     13558     13557     13560
     13559     13557     13560     13557     13560     13561     13557     13560     13562
     13557     13560     13563     13561     13560     13562     13561     13560     13563
     13562     13560     13563     13560     13563     13564     13560     13563     13565
     13560     13563     13566     13564     13563     13565     13564     13563     13566
     13565     13563     13566     13563     13566     13567     13563     13566     13568
     13563     13566     13569     13567     13566     13568     13567     13566     13569
     13568     13566     13569     13566     13569     13570     13566     13569     13571
     13566     13569     13572     13570     13569     13571     13570     13569     13572
     13571     13569     13572     13569     13572     13573     13569     13572     13574
     13569     13572     13575     13573     13572     13574     13573     13572     13575
     13574     13572     13575     13572     13575     13576     13572     13575     13577
     13572     13575     13578     13576     13575     13577     13576     13575     13578
     13577     13575     13578     13575     13578     13579     13575     13578     13580
     13575     13578     13581     13579     13578     13580     13579     13578     13581
     13580     13578     13581     13578     13581     13582     13578     13581     13583
     13578     13581     13584     13582     13581     13583     13582     13581     13584
     13583     13581     13584     13581     13584     13585     13581     13584     13586
     13581     13584     13587     13585     13584     13586     13585     13584     13587
     13586     13584     13587     13584     13587     13588     13584     13587     13589
     13584     13587     13590     13588     13587     13589     13588     13587     13590
     13589     13587     13590     13587     13590     13591     13587     13590     13592
     13587     13590     13593     13591     13590     13592     13591     13590     13593
     13592     13590     13593     13542     13594     13595     13542     13594     13596
     13595     13594     13596     13594     13596     13597     13594     13596     13598
     13594     13596     13599     13597     13596     13598     13597     13596     13599
     13598     13596     13599     13596     13599     13600     13596     13599     13601
     13596     13599     13602     13600     13599     13601     13600     13599     13602
     13601     13599     13602     13599     13602     13603     13599     13602     13604
     13599     13602     13605     13603     13602     13604     13603     13602     13605
     13604     13602     13605     13602     13605     13606     13602     13605     13607
     13602     13605     13608     13606     13605     13607     13606     13605     13608
     13607     13605     13608     13605     13608     13609     13605     13608     13610
     13605     13608     13611     13609     13608     13610     13609     13608     13611
     13610     13608     13611     13608     13611     13612     13608     13611     13613
     13608     13611     13614     13612     13611     13613     13612     13611     13614
     13613     13611     13614     13611     13614     13615     13611     13614     13616
     13611     13614     13617     13615     13614     13616     13615     13614     13617
     13616     13614     13617     13614     13617     13618     13614     13617     13619
     13618     13617     13619     13617     13619     13620     13617     13619     13621
     13620     13619     13621     13619     13621     13622     13619     13621     13623
     13619     13621     13624     13622     13621     13623     13622     13621     13624
     13623     13621     13624     13621     13624     13625     13621     13624     13626
     13621     13624     13627     13625     13624     13626     13625     13624     13627
     13626     13624     13627     13624     13627     13628     13624     13627     13629
     13624     13627     13630     13628     13627     13629     13628     13627     13630
     13629     13627     13630     13627     13630     13631     13627     13630     13632
     13627     13630     13633     13631     13630     13632     13631     13630     13633
     13632     13630     13633     13630     13633     13634     13630     13633     13635
     13630     13633     13636     13634     13633     13635     13634     13633     13636
     13635     13633     13636     13633     13636     13637     13633     13636     13638
     13633     13636     13639     13637     13636     13638     13637     13636     13639
     13638     13636     13639     13636     13639     13640     13636     13639     13641
     13636     13639     13642     13640     13639     13641     13640     13639     13642
     13641     13639     13642     13639     13642     13643     13639     13642     13644
     13639     13642     13645     13643     13642     13644     13643     13642     13645
     13644     13642     13645      8476      8475      8477      8476      8475      8479
      8476      8475      8521      8477      8475      8479      8477      8475      8521
      8479      8475      8521      8475      8477      8478      8475      8479      8480
      8475      8479      8481      8475      8479      8482      8480      8479      8481
      8480      8479      8482      8481      8479      8482      8479      8482      8483
      8479      8482      8513      8483      8482      8513      8482      8483      8484
      8482      8483      8485      8484      8483      8485      8483      8485      8486
      8483      8485      8487      8483      8485      8488      8486      8485      8487
      8486      8485      8488      8487      8485      8488      8485      8488      8489
      8485      8488      8490      8485      8488      8511      8489      8488      8490
      8489      8488      8511      8490      8488      8511      8488      8490      8491
      8488      8490      8492      8488      8490      8500      8491      8490      8492
      8491      8490      8500      8492      8490      8500      8490      8492      8493
      8490      8492      8494      8490      8492      8495      8493      8492      8494
      8493      8492      8495      8494      8492      8495      8492      8495      8496
      8492      8495      8497      8492      8495      8498      8496      8495      8497
      8496      8495      8498      8497      8495      8498      8495      8498      8499
      8495      8498      8500      8495      8498      8524      8499      8498      8500
      8499      8498      8524      8500      8498      8524      8490      8500      8498
      8490      8500      8501      8490      8500      8505      8498      8500      8501
      8498      8500      8505      8501      8500      8505      8500      8501      8502
      8500      8501      8503      8500      8501      8504      8502      8501      8503
      8502      8501      8504      8503      8501      8504      8500      8505      8506
      8500      8505      8507      8500      8505      8508      8506      8505      8507
      8506      8505      8508      8507      8505      8508      8505      8508      8509
      8505      8508      8510      8505      8508      8511      8509      8508      8510
      8509      8508      8511      8510      8508      8511      8488      8511      8508
      8488      8511      8512      8488      8511      8513      8508      8511      8512
      8508      8511      8513      8512      8511      8513      8482      8513      8511
      8482      8513      8514      8482      8513      8518      8511      8513      8514
      8511      8513      8518      8514      8513      8518      8513      8514      8515
      8513      8514      8516      8513      8514      8517      8515      8514      8516
      8515      8514      8517      8516      8514      8517      8513      8518      8519
      8513      8518      8520      8513      8518      8521      8519      8518      8520
      8519      8518      8521      8520      8518      8521      8475      8521      8518
      8475      8521      8522      8475      8521      8523      8518      8521      8522
      8518      8521      8523      8522      8521      8523      8498      8524      8525
      8498      8524      8526      8498      8524      8530      8525      8524      8526
      8525      8524      8530      8526      8524      8530      8524      8526      8527
      8524      8526      8528      8524      8526      8529      8527      8526      8528
      8527      8526      8529      8528      8526      8529      8524      8530      8531
      8524      8530      8532      8524      8530      8533      8531      8530      8532
      8531      8530      8533      8532      8530      8533      8530      8533      8534
      8530      8533      8535      8530      8533      8536      8534      8533      8535
      8534      8533      8536      8535      8533      8536      8533      8536      8537
      8533      8536      8538      8533      8536      8539      8537      8536      8538
      8537      8536      8539      8538      8536      8539      8536      8539      8540
      8536      8539      8541      8536      8539      8545      8540      8539      8541
      8540      8539      8545      8541      8539      8545      8539      8541      8542
      8539      8541      8543      8539      8541      8544      8542      8541      8543
      8542      8541      8544      8543      8541      8544      8539      8545      8546
      8539      8545      8547      8539      8545      8548      8546      8545      8547
      8546      8545      8548      8547      8545      8548      8550      8549      8551
      8550      8549      8553      8550      8549      8595      8551      8549      8553
      8551      8549      8595      8553      8549      8595      8549      8551      8552
      8549      8553      8554      8549      8553      8555      8549      8553      8556
      8554      8553      8555      8554      8553      8556      8555      8553      8556
      8553      8556      8557      8553      8556      8587      8557      8556      8587
      8556      8557      8558      8556      8557      8559      8558      8557      8559
      8557      8559      8560      8557      8559      8561      8557      8559      8562
      8560      8559      8561      8560      8559      8562      8561      8559      8562
      8559      8562      8563      8559      8562      8564      8559      8562      8585
      8563      8562      8564      8563      8562      8585      8564      8562      8585
      8562      8564      8565      8562      8564      8566      8562      8564      8574
      8565      8564      8566      8565      8564      8574      8566      8564      8574
      8564      8566      8567      8564      8566      8568      8564      8566      8569
      8567      8566      8568      8567      8566      8569      8568      8566      8569
      8566      8569      8570      8566      8569      8571      8566      8569      8572
      8570      8569      8571      8570      8569      8572      8571      8569      8572
      8569      8572      8573      8569      8572      8574      8569      8572      8598
      8573      8572      8574      8573      8572      8598      8574      8572      8598
      8564      8574      8572      8564      8574      8575      8564      8574      8579
      8572      8574      8575      8572      8574      8579      8575      8574      8579
      8574      8575      8576      8574      8575      8577      8574      8575      8578
      8576      8575      8577      8576      8575      8578      8577      8575      8578
      8574      8579      8580      8574      8579      8581      8574      8579      8582
      8580      8579      8581      8580      8579      8582      8581      8579      8582
      8579      8582      8583      8579      8582      8584      8579      8582      8585
      8583      8582      8584      8583      8582      8585      8584      8582      8585
      8562      8585      8582      8562      8585      8586      8562      8585      8587
      8582      8585      8586      8582      8585      8587      8586      8585      8587
      8556      8587      8585      8556      8587      8588      8556      8587      8592
      8585      8587      8588      8585      8587      8592      8588      8587      8592
      8587      8588      8589      8587      8588      8590      8587      8588      8591
      8589      8588      8590      8589      8588      8591      8590      8588      8591
      8587      8592      8593      8587      8592      8594      8587      8592      8595
      8593      8592      8594      8593      8592      8595      8594      8592      8595
      8549      8595      8592      8549      8595      8596      8549      8595      8597
      8592      8595      8596      8592      8595      8597      8596      8595      8597
      8572      8598      8599      8572      8598      8600      8572      8598      8604
      8599      8598      8600      8599      8598      8604      8600      8598      8604
      8598      8600      8601      8598      8600      8602      8598      8600      8603
      8601      8600      8602      8601      8600      8603      8602      8600      8603
      8598      8604      8605      8598      8604      8606      8598      8604      8607
      8605      8604      8606      8605      8604      8607      8606      8604      8607
      8604      8607      8608      8604      8607      8609      8604      8607      8610
      8608      8607      8609      8608      8607      8610      8609      8607      8610
      8607      8610      8611      8607      8610      8612      8607      8610      8613
      8611      8610      8612      8611      8610      8613      8612      8610      8613
      8610      8613      8614      8610      8613      8615      8610      8613      8619
      8614      8613      8615      8614      8613      8619      8615      8613      8619
      8613      8615      8616      8613      8615      8617      8613      8615      8618
      8616      8615      8617      8616      8615      8618      8617      8615      8618
      8613      8619      8620      8613      8619      8621      8613      8619      8622
      8620      8619      8621      8620      8619      8622      8621      8619      8622
      8624      8623      8625      8624      8623      8627      8624      8623      8669
      8625      8623      8627      8625      8623      8669      8627      8623      8669
      8623      8625      8626      8623      8627      8628      8623      8627      8629
      8623      8627      8630      8628      8627      8629      8628      8627      8630
      8629      8627      8630      8627      8630      8631      8627      8630      8661
      8631      8630      8661      8630      8631      8632      8630      8631      8633
      8632      8631      8633      8631      8633      8634      8631      8633      8635
      8631      8633      8636      8634      8633      8635      8634      8633      8636
      8635      8633      8636      8633      8636      8637      8633      8636      8638
      8633      8636      8659      8637      8636      8638      8637      8636      8659
      8638      8636      8659      8636      8638      8639      8636      8638      8640
      8636      8638      8648      8639      8638      8640      8639      8638      8648
      8640      8638      8648      8638      8640      8641      8638      8640      8642
      8638      8640      8643      8641      8640      8642      8641      8640      8643
      8642      8640      8643      8640      8643      8644      8640      8643      8645
      8640      8643      8646      8644      8643      8645      8644      8643      8646
      8645      8643      8646      8643      8646      8647      8643      8646      8648
      8643      8646      8672      8647      8646      8648      8647      8646      8672
      8648      8646      8672      8638      8648      8646      8638      8648      8649
      8638      8648      8653      8646      8648      8649      8646      8648      8653
      8649      8648      8653      8648      8649      8650      8648      8649      8651
      8648      8649      8652      8650      8649      8651      8650      8649      8652
      8651      8649      8652      8648      8653      8654      8648      8653      8655
      8648      8653      8656      8654      8653      8655      8654      8653      8656
      8655      8653      8656      8653      8656      8657      8653      8656      8658
      8653      8656      8659      8657      8656      8658      8657      8656      8659
      8658      8656      8659      8636      8659      8656      8636      8659      8660
      8636      8659      8661      8656      8659      8660      8656      8659      8661
      8660      8659      8661      8630      8661      8659      8630      8661      8662
      8630      8661      8666      8659      8661      8662      8659      8661      8666
      8662      8661      8666      8661      8662      8663      8661      8662      8664
      8661      8662      8665      8663      8662      8664      8663      8662      8665
      8664      8662      8665      8661      8666      8667      8661      8666      8668
      8661      8666      8669      8667      8666      8668      8667      8666      8669
      8668      8666      8669      8623      8669      8666      8623      8669      8670
      8623      8669      8671      8666      8669      8670      8666      8669      8671
      8670      8669      8671      8646      8672      8673      8646      8672      8674
      8646      8672      8678      8673      8672      8674      8673      8672      8678
      8674      8672      8678      8672      8674      8675      8672      8674      8676
      8672      8674      8677      8675      8674      8676      8675      8674      8677
      8676      8674      8677      8672      8678      8679      8672      8678      8680
      8672      8678      8681      8679      8678      8680      8679      8678      8681
      8680      8678      8681      8678      8681      8682      8678      8681      8683
      8678      8681      8684      8682      8681      8683      8682      8681      8684
      8683      8681      8684      8681      8684      8685      8681      8684      8686
      8681      8684      8687      8685      8684      8686      8685      8684      8687
      8686      8684      8687      8684      8687      8688      8684      8687      8689
      8684      8687      8693      8688      8687      8689      8688      8687      8693
      8689      8687      8693      8687      8689      8690      8687      8689      8691
      8687      8689      8692      8690      8689      8691      8690      8689      8692
      8691      8689      8692      8687      8693      8694      8687      8693      8695
      8687      8693      8696      8694      8693      8695      8694      8693      8696
      8695      8693      8696      8698      8697      8699      8698      8697      8701
      8698      8697      8743      8699      8697      8701      8699      8697      8743
      8701      8697      8743      8697      8699      8700      8697      8701      8702
      8697      8701      8703      8697      8701      8704      8702      8701      8703
      8702      8701      8704      8703      8701      8704      8701      8704      8705
      8701      8704      8735      8705      8704      8735      8704      8705      8706
      8704      8705      8707      8706      8705      8707      8705      8707      8708
      8705      8707      8709      8705      8707      8710      8708      8707      8709
      8708      8707      8710      8709      8707      8710      8707      8710      8711
      8707      8710      8712      8707      8710      8733      8711      8710      8712
      8711      8710      8733      8712      8710      8733      8710      8712      8713
      8710      8712      8714      8710      8712      8722      8713      8712      8714
      8713      8712      8722      8714      8712      8722      8712      8714      8715
      8712      8714      8716      8712      8714      8717      8715      8714      8716
      8715      8714      8717      8716      8714      8717      8714      8717      8718
      8714      8717      8719      8714      8717      8720      8718      8717      8719
      8718      8717      8720      8719      8717      8720      8717      8720      8721
      8717      8720      8722      8717      8720      8746      8721      8720      8722
      8721      8720      8746      8722      8720      8746      8712      8722      8720
      8712      8722      8723      8712      8722      8727      8720      8722      8723
      8720      8722      8727      8723      8722      8727      8722      8723      8724
      8722      8723      8725      8722      8723      8726      8724      8723      8725
      8724      8723      8726      8725      8723      8726      8722      8727      8728
      8722      8727      8729      8722      8727      8730      8728      8727      8729
      8728      8727      8730      8729      8727      8730      8727      8730      8731
      8727      8730      8732      8727      8730      8733      8731      8730      8732
      8731      8730      8733      8732      8730      8733      8710      8733      8730
      8710      8733      8734      8710      8733      8735      8730      8733      8734
      8730      8733      8735      8734      8733      8735      8704      8735      8733
      8704      8735      8736      8704      8735      8740      8733      8735      8736
      8733      8735      8740      8736      8735      8740      8735      8736      8737
      8735      8736      8738      8735      8736      8739      8737      8736      8738
      8737      8736      8739      8738      8736      8739      8735      8740      8741
      8735      8740      8742      8735      8740      8743      8741      8740      8742
      8741      8740      8743      8742      8740      8743      8697      8743      8740
      8697      8743      8744      8697      8743      8745      8740      8743      8744
      8740      8743      8745      8744      8743      8745      8720      8746      8747
      8720      8746      8748      8720      8746      8752      8747      8746      8748
      8747      8746      8752      8748      8746      8752      8746      8748      8749
      8746      8748      8750      8746      8748      8751      8749      8748      8750
      8749      8748      8751      8750      8748      8751      8746      8752      8753
      8746      8752      8754      8746      8752      8755      8753      8752      8754
      8753      8752      8755      8754      8752      8755      8752      8755      8756
      8752      8755      8757      8752      8755      8758      8756      8755      8757
      8756      8755      8758      8757      8755      8758      8755      8758      8759
      8755      8758      8760      8755      8758      8761      8759      8758      8760
      8759      8758      8761      8760      8758      8761      8758      8761      8762
      8758      8761      8763      8758      8761      8767      8762      8761      8763
      8762      8761      8767      8763      8761      8767      8761      8763      8764
      8761      8763      8765      8761      8763      8766      8764      8763      8765
      8764      8763      8766      8765      8763      8766      8761      8767      8768
      8761      8767      8769      8761      8767      8770      8768      8767      8769
      8768      8767      8770      8769      8767      8770      8772      8771      8773
      8772      8771      8775      8772      8771      8817      8773      8771      8775
      8773      8771      8817      8775      8771      8817      8771      8773      8774
      8771      8775      8776      8771      8775      8777      8771      8775      8778
      8776      8775      8777      8776      8775      8778      8777      8775      8778
      8775      8778      8779      8775      8778      8809      8779      8778      8809
      8778      8779      8780      8778      8779      8781      8780      8779      8781
      8779      8781      8782      8779      8781      8783      8779      8781      8784
      8782      8781      8783      8782      8781      8784      8783      8781      8784
      8781      8784      8785      8781      8784      8786      8781      8784      8807
      8785      8784      8786      8785      8784      8807      8786      8784      8807
      8784      8786      8787      8784      8786      8788      8784      8786      8796
      8787      8786      8788      8787      8786      8796      8788      8786      8796
      8786      8788      8789      8786      8788      8790      8786      8788      8791
      8789      8788      8790      8789      8788      8791      8790      8788      8791
      8788      8791      8792      8788      8791      8793      8788      8791      8794
      8792      8791      8793      8792      8791      8794      8793      8791      8794
      8791      8794      8795      8791      8794      8796      8791      8794      8820
      8795      8794      8796      8795      8794      8820      8796      8794      8820
      8786      8796      8794      8786      8796      8797      8786      8796      8801
      8794      8796      8797      8794      8796      8801      8797      8796      8801
      8796      8797      8798      8796      8797      8799      8796      8797      8800
      8798      8797      8799      8798      8797      8800      8799      8797      8800
      8796      8801      8802      8796      8801      8803      8796      8801      8804
      8802      8801      8803      8802      8801      8804      8803      8801      8804
      8801      8804      8805      8801      8804      8806      8801      8804      8807
      8805      8804      8806      8805      8804      8807      8806      8804      8807
      8784      8807      8804      8784      8807      8808      8784      8807      8809
      8804      8807      8808      8804      8807      8809      8808      8807      8809
      8778      8809      8807      8778      8809      8810      8778      8809      8814
      8807      8809      8810      8807      8809      8814      8810      8809      8814
      8809      8810      8811      8809      8810      8812      8809      8810      8813
      8811      8810      8812      8811      8810      8813      8812      8810      8813
      8809      8814      8815      8809      8814      8816      8809      8814      8817
      8815      8814      8816      8815      8814      8817      8816      8814      8817
      8771      8817      8814      8771      8817      8818      8771      8817      8819
      8814      8817      8818      8814      8817      8819      8818      8817      8819
      8794      8820      8821      8794      8820      8822      8794      8820      8826
      8821      8820      8822      8821      8820      8826      8822      8820      8826
      8820      8822      8823      8820      8822      8824      8820      8822      8825
      8823      8822      8824      8823      8822      8825      8824      8822      8825
      8820      8826      8827      8820      8826      8828      8820      8826      8829
      8827      8826      8828      8827      8826      8829      8828      8826      8829
      8826      8829      8830      8826      8829      8831      8826      8829      8832
      8830      8829      8831      8830      8829      8832      8831      8829      8832
      8829      8832      8833      8829      8832      8834      8829      8832      8835
      8833      8832      8834      8833      8832      8835      8834      8832      8835
      8832      8835      8836      8832      8835      8837      8832      8835      8841
      8836      8835      8837      8836      8835      8841      8837      8835      8841
      8835      8837      8838      8835      8837      8839      8835      8837      8840
      8838      8837      8839      8838      8837      8840      8839      8837      8840
      8835      8841      8842      8835      8841      8843      8835      8841      8844
      8842      8841      8843      8842      8841      8844      8843      8841      8844
      8846      8845      8847      8846      8845      8849      8846      8845      8891
      8847      8845      8849      8847      8845      8891      8849      8845      8891
      8845      8847      8848      8845      8849      8850      8845      8849      8851
      8845      8849      8852      8850      8849      8851      8850      8849      8852
      8851      8849      8852      8849      8852      8853      8849      8852      8883
      8853      8852      8883      8852      8853      8854      8852      8853      8855
      8854      8853      8855      8853      8855      8856      8853      8855      8857
      8853      8855      8858      8856      8855      8857      8856      8855      8858
      8857      8855      8858      8855      8858      8859      8855      8858      8860
      8855      8858      8881      8859      8858      8860      8859      8858      8881
      8860      8858      8881      8858      8860      8861      8858      8860      8862
      8858      8860      8870      8861      8860      8862      8861      8860      8870
      8862      8860      8870      8860      8862      8863      8860      8862      8864
      8860      8862      8865      8863      8862      8864      8863      8862      8865
      8864      8862      8865      8862      8865      8866      8862      8865      8867
      8862      8865      8868      8866      8865      8867      8866      8865      8868
      8867      8865      8868      8865      8868      8869      8865      8868      8870
      8865      8868      8894      8869      8868      8870      8869      8868      8894
      8870      8868      8894      8860      8870      8868      8860      8870      8871
      8860      8870      8875      8868      8870      8871      8868      8870      8875
      8871      8870      8875      8870      8871      8872      8870      8871      8873
      8870      8871      8874      8872      8871      8873      8872      8871      8874
      8873      8871      8874      8870      8875      8876      8870      8875      8877
      8870      8875      8878      8876      8875      8877      8876      8875      8878
      8877      8875      8878      8875      8878      8879      8875      8878      8880
      8875      8878      8881      8879      8878      8880      8879      8878      8881
      8880      8878      8881      8858      8881      8878      8858      8881      8882
      8858      8881      8883      8878      8881      8882      8878      8881      8883
      8882      8881      8883      8852      8883      8881      8852      8883      8884
      8852      8883      8888      8881      8883      8884      8881      8883      8888
      8884      8883      8888      8883      8884      8885      8883      8884      8886
      8883      8884      8887      8885      8884      8886      8885      8884      8887
      8886      8884      8887      8883      8888      8889      8883      8888      8890
      8883      8888      8891      8889      8888      8890      8889      8888      8891
      8890      8888      8891      8845      8891      8888      8845      8891      8892
      8845      8891      8893      8888      8891      8892      8888      8891      8893
      8892      8891      8893      8868      8894      8895      8868      8894      8896
      8868      8894      8900      8895      8894      8896      8895      8894      8900
      8896      8894      8900      8894      8896      8897      8894      8896      8898
      8894      8896      8899      8897      8896      8898      8897      8896      8899
      8898      8896      8899      8894      8900      8901      8894      8900      8902
      8894      8900      8903      8901      8900      8902      8901      8900      8903
      8902      8900      8903      8900      8903      8904      8900      8903      8905
      8900      8903      8906      8904      8903      8905      8904      8903      8906
      8905      8903      8906      8903      8906      8907      8903      8906      8908
      8903      8906      8909      8907      8906      8908      8907      8906      8909
      8908      8906      8909      8906      8909      8910      8906      8909      8911
      8906      8909      8915      8910      8909      8911      8910      8909      8915
      8911      8909      8915      8909      8911      8912      8909      8911      8913
      8909      8911      8914      8912      8911      8913      8912      8911      8914
      8913      8911      8914      8909      8915      8916      8909      8915      8917
      8909      8915      8918      8916      8915      8917      8916      8915      8918
      8917      8915      8918     13647     13646     13651     13647     13646     13655
     13647     13646     13659     13651     13646     13655     13651     13646     13659
     13655     13646     13659     13646     13647     13648     13646     13647     13649
     13646     13647     13650     13648     13647     13649     13648     13647     13650
     13649     13647     13650     13646     13651     13652     13646     13651     13653
     13646     13651     13654     13652     13651     13653     13652     13651     13654
     13653     13651     13654     13646     13655     13656     13646     13655     13657
     13646     13655     13658     13656     13655     13657     13656     13655     13658
     13657     13655     13658     13646     13659     13660     13646     13659     13661
     13646     13659     13662     13660     13659     13661     13660     13659     13662
     13661     13659     13662     13659     13662     13663     13659     13662     13664
     13659     13662     13669     13663     13662     13664     13663     13662     13669
     13664     13662     13669     13666     13665     13667     13666     13665     13668
     13666     13665     13669     13667     13665     13668     13667     13665     13669
     13668     13665     13669     13665     13668     13670     13662     13669     13665
     13668     13670     13671     13668     13670     13672     13668     13670     13675
     13671     13670     13672     13671     13670     13675     13672     13670     13675
     13674     13673     13675     13674     13673     13725     13675     13673     13725
     13670     13675     13673     13670     13675     13676     13670     13675     13677
     13673     13675     13676     13673     13675     13677     13676     13675     13677
     13675     13677     13678     13675     13677     13679     13675     13677     13681
     13678     13677     13679     13678     13677     13681     13679     13677     13681
     13677     13679     13680     13677     13681     13682     13677     13681     13683
     13682     13681     13683     13681     13683     13684     13681     13683     13685
     13684     13683     13685     13683     13685     13686     13683     13685     13687
     13683     13685     13688     13686     13685     13687     13686     13685     13688
     13687     13685     13688     13685     13688     13689     13685     13688     13690
     13685     13688     13691     13689     13688     13690     13689     13688     13691
     13690     13688     13691     13688     13691     13692     13688     13691     13693
     13688     13691     13694     13692     13691     13693     13692     13691     13694
     13693     13691     13694     13691     13694     13695     13691     13694     13696
     13691     13694     13697     13695     13694     13696     13695     13694     13697
     13696     13694     13697     13694     13697     13698     13694     13697     13699
     13694     13697     13700     13698     13697     13699     13698     13697     13700
     13699     13697     13700     13697     13700     13701     13697     13700     13702
     13697     13700     13703     13701     13700     13702     13701     13700     13703
     13702     13700     13703     13700     13703     13704     13700     13703     13705
     13700     13703     13706     13704     13703     13705     13704     13703     13706
     13705     13703     13706     13703     13706     13707     13703     13706     13708
     13703     13706     13709     13707     13706     13708     13707     13706     13709
     13708     13706     13709     13706     13709     13710     13706     13709     13711
     13706     13709     13712     13710     13709     13711     13710     13709     13712
     13711     13709     13712     13709     13712     13713     13709     13712     13714
     13709     13712     13715     13713     13712     13714     13713     13712     13715
     13714     13712     13715     13712     13715     13716     13712     13715     13717
     13712     13715     13718     13716     13715     13717     13716     13715     13718
     13717     13715     13718     13715     13718     13719     13715     13718     13720
     13715     13718     13721     13719     13718     13720     13719     13718     13721
     13720     13718     13721     13718     13721     13722     13718     13721     13723
     13718     13721     13724     13722     13721     13723     13722     13721     13724
     13723     13721     13724     13673     13725     13726     13673     13725     13727
     13726     13725     13727     13725     13727     13728     13725     13727     13729
     13725     13727     13730     13728     13727     13729     13728     13727     13730
     13729     13727     13730     13727     13730     13731     13727     13730     13732
     13727     13730     13733     13731     13730     13732     13731     13730     13733
     13732     13730     13733     13730     13733     13734     13730     13733     13735
     13730     13733     13736     13734     13733     13735     13734     13733     13736
     13735     13733     13736     13733     13736     13737     13733     13736     13738
     13733     13736     13739     13737     13736     13738     13737     13736     13739
     13738     13736     13739     13736     13739     13740     13736     13739     13741
     13736     13739     13742     13740     13739     13741     13740     13739     13742
     13741     13739     13742     13739     13742     13743     13739     13742     13744
     13739     13742     13745     13743     13742     13744     13743     13742     13745
     13744     13742     13745     13742     13745     13746     13742     13745     13747
     13742     13745     13748     13746     13745     13747     13746     13745     13748
     13747     13745     13748     13745     13748     13749     13745     13748     13750
     13749     13748     13750     13748     13750     13751     13748     13750     13752
     13751     13750     13752     13750     13752     13753     13750     13752     13754
     13750     13752     13755     13753     13752     13754     13753     13752     13755
     13754     13752     13755     13752     13755     13756     13752     13755     13757
     13752     13755     13758     13756     13755     13757     13756     13755     13758
     13757     13755     13758     13755     13758     13759     13755     13758     13760
     13755     13758     13761     13759     13758     13760     13759     13758     13761
     13760     13758     13761     13758     13761     13762     13758     13761     13763
     13758     13761     13764     13762     13761     13763     13762     13761     13764
     13763     13761     13764     13761     13764     13765     13761     13764     13766
     13761     13764     13767     13765     13764     13766     13765     13764     13767
     13766     13764     13767     13764     13767     13768     13764     13767     13769
     13764     13767     13770     13768     13767     13769     13768     13767     13770
     13769     13767     13770     13767     13770     13771     13767     13770     13772
     13767     13770     13773     13771     13770     13772     13771     13770     13773
     13772     13770     13773     13770     13773     13774     13770     13773     13775
     13770     13773     13776     13774     13773     13775     13774     13773     13776
     13775     13773     13776      3530      3529      3533      3530      3529      3537
      3530      3529      3541      3533      3529      3537      3533      3529      3541
      3537      3529      3541      3529      3530      3531      3529      3530      3532
      3529      3530      3545      3531      3530      3532      3531      3530      3545
      3532      3530      3545      3529      3533      3534      3529      3533      3535
      3529      3533      3536      3534      3533      3535      3534      3533      3536
      3535      3533      3536      3529      3537      3538      3529      3537      3539
      3529      3537      3540      3538      3537      3539      3538      3537      3540
      3539      3537      3540      3529      3541      3542      3529      3541      3543
      3529      3541      3544      3542      3541      3543      3542      3541      3544
      3543      3541      3544      3530      3545      3546      3530      3545      3547
      3530      3545      3551      3546      3545      3547      3546      3545      3551
      3547      3545      3551      3549      3548      3550      3549      3548      3551
      3549      3548      3552      3550      3548      3551      3550      3548      3552
      3551      3548      3552      3545      3551      3548      3548      3552      3553
      3552      3553      3554      3552      3553      3555      3552      3553      3556
      3554      3553      3555      3554      3553      3556      3555      3553      3556
      3553      3556      3557      3553      3556      3558      3553      3556      3564
      3557      3556      3558      3557      3556      3564      3558      3556      3564
      3556      3558      3559      3558      3559      3560      3558      3559      3561
      3560      3559      3561      3559      3561      3562      3559      3561      3563
      3559      3561      3573      3562      3561      3563      3562      3561      3573
      3563      3561      3573      3556      3564      3565      3556      3564      3566
      3556      3564      3567      3565      3564      3566      3565      3564      3567
      3566      3564      3567      3564      3567      3568      3567      3568      3569
      3567      3568      3570      3569      3568      3570      3568      3570      3571
      3568      3570      3572      3568      3570      3620      3571      3570      3572
      3571      3570      3620      3572      3570      3620      3561      3573      3574
      3561      3573      3575      3561      3573      3576      3574      3573      3575
      3574      3573      3576      3575      3573      3576      3573      3576      3577
      3573      3576      3578      3573      3576      3579      3577      3576      3578
      3577      3576      3579      3578      3576      3579      3576      3579      3580
      3576      3579      3581      3580      3579      3581      3579      3581      3582
      3579      3581      3583      3582      3581      3583      3581      3583      3584
      3581      3583      3585      3581      3583      3586      3584      3583      3585
      3584      3583      3586      3585      3583      3586      3583      3586      3587
      3583      3586      3588      3587      3586      3588      3586      3588      3589
      3586      3588      3590      3589      3588      3590      3588      3590      3591
      3588      3590      3592      3588      3590      3593      3591      3590      3592
      3591      3590      3593      3592      3590      3593      3590      3593      3594
      3590      3593      3595      3594      3593      3595      3593      3595      3596
      3593      3595      3597      3596      3595      3597      3595      3597      3598
      3595      3597      3599      3595      3597      3600      3598      3597      3599
      3598      3597      3600      3599      3597      3600      3597      3600      3601
      3597      3600      3602      3601      3600      3602      3600      3602      3603
      3600      3602      3604      3603      3602      3604      3602      3604      3605
      3602      3604      3606      3602      3604      3607      3605      3604      3606
      3605      3604      3607      3606      3604      3607      3604      3607      3608
      3604      3607      3609      3604      3607      3610      3608      3607      3609
      3608      3607      3610      3609      3607      3610      3607      3610      3611
      3607      3610      3612      3607      3610      3613      3611      3610      3612
      3611      3610      3613      3612      3610      3613      3610      3613      3614
      3610      3613      3615      3610      3613      3616      3614      3613      3615
      3614      3613      3616      3615      3613      3616      3613      3616      3617
      3613      3616      3618      3613      3616      3619      3617      3616      3618
      3617      3616      3619      3618      3616      3619      3570      3620      3621
      3570      3620      3622      3570      3620      3623      3621      3620      3622
      3621      3620      3623      3622      3620      3623      3620      3623      3624
      3620      3623      3625      3620      3623      3626      3624      3623      3625
      3624      3623      3626      3625      3623      3626      3623      3626      3627
      3623      3626      3628      3623      3626      3629      3627      3626      3628
      3627      3626      3629      3628      3626      3629      3626      3629      3630
      3626      3629      3631      3626      3629      3632      3630      3629      3631
      3630      3629      3632      3631      3629      3632      3629      3632      3633
      3629      3632      3634      3629      3632      3635      3633      3632      3634
      3633      3632      3635      3634      3632      3635      3632      3635      3636
      3632      3635      3637      3632      3635      3638      3636      3635      3637
      3636      3635      3638      3637      3635      3638      3635      3638      3639
      3635      3638      3640      3635      3638      3641      3639      3638      3640
      3639      3638      3641      3640      3638      3641      3638      3641      3642
      3638      3641      3643      3638      3641      3644      3642      3641      3643
      3642      3641      3644      3643      3641      3644      3641      3644      3645
      3641      3644      3646      3641      3644      3647      3645      3644      3646
      3645      3644      3647      3646      3644      3647      3644      3647      3648
      3644      3647      3649      3644      3647      3650      3648      3647      3649
      3648      3647      3650      3649      3647      3650      3647      3650      3651
      3647      3650      3652      3647      3650      3653      3651      3650      3652
      3651      3650      3653      3652      3650      3653      3650      3653      3654
      3650      3653      3655      3650      3653      3656      3654      3653      3655
      3654      3653      3656      3655      3653      3656      3653      3656      3657
      3653      3656      3658      3653      3656      3659      3657      3656      3658
      3657      3656      3659      3658      3656      3659      3656      3659      3660
      3656      3659      3661      3656      3659      3662      3660      3659      3661
      3660      3659      3662      3661      3659      3662      3659      3662      3663
      3659      3662      3664      3659      3662      3665      3663      3662      3664
      3663      3662      3665      3664      3662      3665      3662      3665      3666
      3662      3665      3667      3662      3665      3668      3666      3665      3667
      3666      3665      3668      3667      3665      3668     17315     17314     17316
     17315     17314     17317     17315     17314     17318     17316     17314     17317
     17316     17314     17318     17317     17314     17318     17314     17318     17319
     17314     17318     17320     17314     17318     17321     17319     17318     17320
     17319     17318     17321     17320     17318     17321     17318     17321     17322
     17318     17321     17323     17318     17321     17327     17322     17321     17323
     17322     17321     17327     17323     17321     17327     17325     17324     17326
     17325     17324     17327     17325     17324     17328     17326     17324     17327
     17326     17324     17328     17327     17324     17328     17321     17327     17324
     17324     17328     17329     17328     17329     17330     17328     17329     17331
     17328     17329     17332     17330     17329     17331     17330     17329     17332
     17331     17329     17332     17329     17332     17333     17329     17332     17334
     17329     17332     17340     17333     17332     17334     17333     17332     17340
     17334     17332     17340     17332     17334     17335     17334     17335     17336
     17334     17335     17337     17336     17335     17337     17335     17337     17338
     17335     17337     17339     17335     17337     17349     17338     17337     17339
     17338     17337     17349     17339     17337     17349     17332     17340     17341
     17332     17340     17342     17332     17340     17343     17341     17340     17342
     17341     17340     17343     17342     17340     17343     17340     17343     17344
     17343     17344     17345     17343     17344     17346     17345     17344     17346
     17344     17346     17347     17344     17346     17348     17344     17346     17396
     17347     17346     17348     17347     17346     17396     17348     17346     17396
     17337     17349     17350     17337     17349     17351     17337     17349     17352
     17350     17349     17351     17350     17349     17352     17351     17349     17352
     17349     17352     17353     17349     17352     17354     17349     17352     17355
     17353     17352     17354     17353     17352     17355     17354     17352     17355
     17352     17355     17356     17352     17355     17357     17356     17355     17357
     17355     17357     17358     17355     17357     17359     17358     17357     17359
     17357     17359     17360     17357     17359     17361     17357     17359     17362
     17360     17359     17361     17360     17359     17362     17361     17359     17362
     17359     17362     17363     17359     17362     17364     17363     17362     17364
     17362     17364     17365     17362     17364     17366     17365     17364     17366
     17364     17366     17367     17364     17366     17368     17364     17366     17369
     17367     17366     17368     17367     17366     17369     17368     17366     17369
     17366     17369     17370     17366     17369     17371     17370     17369     17371
     17369     17371     17372     17369     17371     17373     17372     17371     17373
     17371     17373     17374     17371     17373     17375     17371     17373     17376
     17374     17373     17375     17374     17373     17376     17375     17373     17376
     17373     17376     17377     17373     17376     17378     17377     17376     17378
     17376     17378     17379     17376     17378     17380     17379     17378     17380
     17378     17380     17381     17378     17380     17382     17378     17380     17383
     17381     17380     17382     17381     17380     17383     17382     17380     17383
     17380     17383     17384     17380     17383     17385     17380     17383     17386
     17384     17383     17385     17384     17383     17386     17385     17383     17386
     17383     17386     17387     17383     17386     17388     17383     17386     17389
     17387     17386     17388     17387     17386     17389     17388     17386     17389
     17386     17389     17390     17386     17389     17391     17386     17389     17392
     17390     17389     17391     17390     17389     17392     17391     17389     17392
     17389     17392     17393     17389     17392     17394     17389     17392     17395
     17393     17392     17394     17393     17392     17395     17394     17392     17395
     17346     17396     17397     17346     17396     17398     17346     17396     17399
     17397     17396     17398     17397     17396     17399     17398     17396     17399
     17396     17399     17400     17396     17399     17401     17396     17399     17402
     17400     17399     17401     17400     17399     17402     17401     17399     17402
     17399     17402     17403     17399     17402     17404     17399     17402     17405
     17403     17402     17404     17403     17402     17405     17404     17402     17405
     17402     17405     17406     17402     17405     17407     17402     17405     17408
     17406     17405     17407     17406     17405     17408     17407     17405     17408
     17405     17408     17409     17405     17408     17410     17405     17408     17411
     17409     17408     17410     17409     17408     17411     17410     17408     17411
     17408     17411     17412     17408     17411     17413     17408     17411     17414
     17412     17411     17413     17412     17411     17414     17413     17411     17414
     17411     17414     17415     17411     17414     17416     17411     17414     17417
     17415     17414     17416     17415     17414     17417     17416     17414     17417
     17414     17417     17418     17414     17417     17419     17414     17417     17420
     17418     17417     17419     17418     17417     17420     17419     17417     17420
     17417     17420     17421     17417     17420     17422     17417     17420     17423
     17421     17420     17422     17421     17420     17423     17422     17420     17423
     17420     17423     17424     17420     17423     17425     17420     17423     17426
     17424     17423     17425     17424     17423     17426     17425     17423     17426
     17423     17426     17427     17423     17426     17428     17423     17426     17429
     17427     17426     17428     17427     17426     17429     17428     17426     17429
     17426     17429     17430     17426     17429     17431     17426     17429     17432
     17430     17429     17431     17430     17429     17432     17431     17429     17432
     17429     17432     17433     17429     17432     17434     17429     17432     17435
     17433     17432     17434     17433     17432     17435     17434     17432     17435
     17432     17435     17436     17432     17435     17437     17432     17435     17438
     17436     17435     17437     17436     17435     17438     17437     17435     17438
     17435     17438     17439     17435     17438     17440     17435     17438     17441
     17439     17438     17440     17439     17438     17441     17440     17438     17441
     17438     17441     17442     17438     17441     17443     17438     17441     17444
     17442     17441     17443     17442     17441     17444     17443     17441     17444
      8920      8919      8921      8920      8919      8923      8920      8919      8965
      8921      8919      8923      8921      8919      8965      8923      8919      8965
      8919      8921      8922      8919      8923      8924      8919      8923      8925
      8919      8923      8926      8924      8923      8925      8924      8923      8926
      8925      8923      8926      8923      8926      8927      8923      8926      8957
      8927      8926      8957      8926      8927      8928      8926      8927      8929
      8928      8927      8929      8927      8929      8930      8927      8929      8931
      8927      8929      8932      8930      8929      8931      8930      8929      8932
      8931      8929      8932      8929      8932      8933      8929      8932      8934
      8929      8932      8955      8933      8932      8934      8933      8932      8955
      8934      8932      8955      8932      8934      8935      8932      8934      8936
      8932      8934      8944      8935      8934      8936      8935      8934      8944
      8936      8934      8944      8934      8936      8937      8934      8936      8938
      8934      8936      8939      8937      8936      8938      8937      8936      8939
      8938      8936      8939      8936      8939      8940      8936      8939      8941
      8936      8939      8942      8940      8939      8941      8940      8939      8942
      8941      8939      8942      8939      8942      8943      8939      8942      8944
      8939      8942      8968      8943      8942      8944      8943      8942      8968
      8944      8942      8968      8934      8944      8942      8934      8944      8945
      8934      8944      8949      8942      8944      8945      8942      8944      8949
      8945      8944      8949      8944      8945      8946      8944      8945      8947
      8944      8945      8948      8946      8945      8947      8946      8945      8948
      8947      8945      8948      8944      8949      8950      8944      8949      8951
      8944      8949      8952      8950      8949      8951      8950      8949      8952
      8951      8949      8952      8949      8952      8953      8949      8952      8954
      8949      8952      8955      8953      8952      8954      8953      8952      8955
      8954      8952      8955      8932      8955      8952      8932      8955      8956
      8932      8955      8957      8952      8955      8956      8952      8955      8957
      8956      8955      8957      8926      8957      8955      8926      8957      8958
      8926      8957      8962      8955      8957      8958      8955      8957      8962
      8958      8957      8962      8957      8958      8959      8957      8958      8960
      8957      8958      8961      8959      8958      8960      8959      8958      8961
      8960      8958      8961      8957      8962      8963      8957      8962      8964
      8957      8962      8965      8963      8962      8964      8963      8962      8965
      8964      8962      8965      8919      8965      8962      8919      8965      8966
      8919      8965      8967      8962      8965      8966      8962      8965      8967
      8966      8965      8967      8942      8968      8969      8942      8968      8970
      8942      8968      8974      8969      8968      8970      8969      8968      8974
      8970      8968      8974      8968      8970      8971      8968      8970      8972
      8968      8970      8973      8971      8970      8972      8971      8970      8973
      8972      8970      8973      8968      8974      8975      8968      8974      8976
      8968      8974      8977      8975      8974      8976      8975      8974      8977
      8976      8974      8977      8974      8977      8978      8974      8977      8979
      8974      8977      8980      8978      8977      8979      8978      8977      8980
      8979      8977      8980      8977      8980      8981      8977      8980      8982
      8977      8980      8983      8981      8980      8982      8981      8980      8983
      8982      8980      8983      8980      8983      8984      8980      8983      8985
      8980      8983      8989      8984      8983      8985      8984      8983      8989
      8985      8983      8989      8983      8985      8986      8983      8985      8987
      8983      8985      8988      8986      8985      8987      8986      8985      8988
      8987      8985      8988      8983      8989      8990      8983      8989      8991
      8983      8989      8992      8990      8989      8991      8990      8989      8992
      8991      8989      8992     17446     17445     17447     17446     17445     17448
     17446     17445     17449     17447     17445     17448     17447     17445     17449
     17448     17445     17449     17445     17449     17450     17445     17449     17451
     17445     17449     17452     17450     17449     17451     17450     17449     17452
     17451     17449     17452     17449     17452     17453     17449     17452     17454
     17449     17452     17458     17453     17452     17454     17453     17452     17458
     17454     17452     17458     17456     17455     17457     17456     17455     17458
     17456     17455     17459     17457     17455     17458     17457     17455     17459
     17458     17455     17459     17452     17458     17455     17455     17459     17460
     17459     17460     17461     17459     17460     17462     17459     17460     17463
     17461     17460     17462     17461     17460     17463     17462     17460     17463
     17460     17463     17464     17460     17463     17465     17460     17463     17471
     17464     17463     17465     17464     17463     17471     17465     17463     17471
     17463     17465     17466     17465     17466     17467     17465     17466     17468
     17467     17466     17468     17466     17468     17469     17466     17468     17470
     17466     17468     17480     17469     17468     17470     17469     17468     17480
     17470     17468     17480     17463     17471     17472     17463     17471     17473
     17463     17471     17474     17472     17471     17473     17472     17471     17474
     17473     17471     17474     17471     17474     17475     17474     17475     17476
     17474     17475     17477     17476     17475     17477     17475     17477     17478
     17475     17477     17479     17475     17477     17527     17478     17477     17479
     17478     17477     17527     17479     17477     17527     17468     17480     17481
     17468     17480     17482     17468     17480     17483     17481     17480     17482
     17481     17480     17483     17482     17480     17483     17480     17483     17484
     17480     17483     17485     17480     17483     17486     17484     17483     17485
     17484     17483     17486     17485     17483     17486     17483     17486     17487
     17483     17486     17488     17487     17486     17488     17486     17488     17489
     17486     17488     17490     17489     17488     17490     17488     17490     17491
     17488     17490     17492     17488     17490     17493     17491     17490     17492
     17491     17490     17493     17492     17490     17493     17490     17493     17494
     17490     17493     17495     17494     17493     17495     17493     17495     17496
     17493     17495     17497     17496     17495     17497     17495     17497     17498
     17495     17497     17499     17495     17497     17500     17498     17497     17499
     17498     17497     17500     17499     17497     17500     17497     17500     17501
     17497     17500     17502     17501     17500     17502     17500     17502     17503
     17500     17502     17504     17503     17502     17504     17502     17504     17505
     17502     17504     17506     17502     17504     17507     17505     17504     17506
     17505     17504     17507     17506     17504     17507     17504     17507     17508
     17504     17507     17509     17508     17507     17509     17507     17509     17510
     17507     17509     17511     17510     17509     17511     17509     17511     17512
     17509     17511     17513     17509     17511     17514     17512     17511     17513
     17512     17511     17514     17513     17511     17514     17511     17514     17515
     17511     17514     17516     17511     17514     17517     17515     17514     17516
     17515     17514     17517     17516     17514     17517     17514     17517     17518
     17514     17517     17519     17514     17517     17520     17518     17517     17519
     17518     17517     17520     17519     17517     17520     17517     17520     17521
     17517     17520     17522     17517     17520     17523     17521     17520     17522
     17521     17520     17523     17522     17520     17523     17520     17523     17524
     17520     17523     17525     17520     17523     17526     17524     17523     17525
     17524     17523     17526     17525     17523     17526     17477     17527     17528
     17477     17527     17529     17477     17527     17530     17528     17527     17529
     17528     17527     17530     17529     17527     17530     17527     17530     17531
     17527     17530     17532     17527     17530     17533     17531     17530     17532
     17531     17530     17533     17532     17530     17533     17530     17533     17534
     17530     17533     17535     17530     17533     17536     17534     17533     17535
     17534     17533     17536     17535     17533     17536     17533     17536     17537
     17533     17536     17538     17533     17536     17539     17537     17536     17538
     17537     17536     17539     17538     17536     17539     17536     17539     17540
     17536     17539     17541     17536     17539     17542     17540     17539     17541
     17540     17539     17542     17541     17539     17542     17539     17542     17543
     17539     17542     17544     17539     17542     17545     17543     17542     17544
     17543     17542     17545     17544     17542     17545     17542     17545     17546
     17542     17545     17547     17542     17545     17548     17546     17545     17547
     17546     17545     17548     17547     17545     17548     17545     17548     17549
     17545     17548     17550     17545     17548     17551     17549     17548     17550
     17549     17548     17551     17550     17548     17551     17548     17551     17552
     17548     17551     17553     17548     17551     17554     17552     17551     17553
     17552     17551     17554     17553     17551     17554     17551     17554     17555
     17551     17554     17556     17551     17554     17557     17555     17554     17556
     17555     17554     17557     17556     17554     17557     17554     17557     17558
     17554     17557     17559     17554     17557     17560     17558     17557     17559
     17558     17557     17560     17559     17557     17560     17557     17560     17561
     17557     17560     17562     17557     17560     17563     17561     17560     17562
     17561     17560     17563     17562     17560     17563     17560     17563     17564
     17560     17563     17565     17560     17563     17566     17564     17563     17565
     17564     17563     17566     17565     17563     17566     17563     17566     17567
     17563     17566     17568     17563     17566     17569     17567     17566     17568
     17567     17566     17569     17568     17566     17569     17566     17569     17570
     17566     17569     17571     17566     17569     17572     17570     17569     17571
     17570     17569     17572     17571     17569     17572     17569     17572     17573
     17569     17572     17574     17569     17572     17575     17573     17572     17574
     17573     17572     17575     17574     17572     17575      8994      8993      8995
      8994      8993      8997      8994      8993      9039      8995      8993      8997
      8995      8993      9039      8997      8993      9039      8993      8995      8996
      8993      8997      8998      8993      8997      8999      8993      8997      9000
      8998      8997      8999      8998      8997      9000      8999      8997      9000
      8997      9000      9001      8997      9000      9031      9001      9000      9031
      9000      9001      9002      9000      9001      9003      9002      9001      9003
      9001      9003      9004      9001      9003      9005      9001      9003      9006
      9004      9003      9005      9004      9003      9006      9005      9003      9006
      9003      9006      9007      9003      9006      9008      9003      9006      9029
      9007      9006      9008      9007      9006      9029      9008      9006      9029
      9006      9008      9009      9006      9008      9010      9006      9008      9018
      9009      9008      9010      9009      9008      9018      9010      9008      9018
      9008      9010      9011      9008      9010      9012      9008      9010      9013
      9011      9010      9012      9011      9010      9013      9012      9010      9013
      9010      9013      9014      9010      9013      9015      9010      9013      9016
      9014      9013      9015      9014      9013      9016      9015      9013      9016
      9013      9016      9017      9013      9016      9018      9013      9016      9042
      9017      9016      9018      9017      9016      9042      9018      9016      9042
      9008      9018      9016      9008      9018      9019      9008      9018      9023
      9016      9018      9019      9016      9018      9023      9019      9018      9023
      9018      9019      9020      9018      9019      9021      9018      9019      9022
      9020      9019      9021      9020      9019      9022      9021      9019      9022
      9018      9023      9024      9018      9023      9025      9018      9023      9026
      9024      9023      9025      9024      9023      9026      9025      9023      9026
      9023      9026      9027      9023      9026      9028      9023      9026      9029
      9027      9026      9028      9027      9026      9029      9028      9026      9029
      9006      9029      9026      9006      9029      9030      9006      9029      9031
      9026      9029      9030      9026      9029      9031      9030      9029      9031
      9000      9031      9029      9000      9031      9032      9000      9031      9036
      9029      9031      9032      9029      9031      9036      9032      9031      9036
      9031      9032      9033      9031      9032      9034      9031      9032      9035
      9033      9032      9034      9033      9032      9035      9034      9032      9035
      9031      9036      9037      9031      9036      9038      9031      9036      9039
      9037      9036      9038      9037      9036      9039      9038      9036      9039
      8993      9039      9036      8993      9039      9040      8993      9039      9041
      9036      9039      9040      9036      9039      9041      9040      9039      9041
      9016      9042      9043      9016      9042      9044      9016      9042      9048
      9043      9042      9044      9043      9042      9048      9044      9042      9048
      9042      9044      9045      9042      9044      9046      9042      9044      9047
      9045      9044      9046      9045      9044      9047      9046      9044      9047
      9042      9048      9049      9042      9048      9050      9042      9048      9051
      9049      9048      9050      9049      9048      9051      9050      9048      9051
      9048      9051      9052      9048      9051      9053      9048      9051      9054
      9052      9051      9053      9052      9051      9054      9053      9051      9054
      9051      9054      9055      9051      9054      9056      9051      9054      9057
      9055      9054      9056      9055      9054      9057      9056      9054      9057
      9054      9057      9058      9054      9057      9059      9054      9057      9063
      9058      9057      9059      9058      9057      9063      9059      9057      9063
      9057      9059      9060      9057      9059      9061      9057      9059      9062
      9060      9059      9061      9060      9059      9062      9061      9059      9062
      9057      9063      9064      9057      9063      9065      9057      9063      9066
      9064      9063      9065      9064      9063      9066      9065      9063      9066
     13778     13777     13782     13778     13777     13786     13778     13777     13790
     13782     13777     13786     13782     13777     13790     13786     13777     13790
     13777     13778     13779     13777     13778     13780     13777     13778     13781
     13779     13778     13780     13779     13778     13781     13780     13778     13781
     13777     13782     13783     13777     13782     13784     13777     13782     13785
     13783     13782     13784     13783     13782     13785     13784     13782     13785
     13777     13786     13787     13777     13786     13788     13777     13786     13789
     13787     13786     13788     13787     13786     13789     13788     13786     13789
     13777     13790     13791     13777     13790     13792     13777     13790     13793
     13791     13790     13792     13791     13790     13793     13792     13790     13793
     13790     13793     13794     13790     13793     13795     13790     13793     13800
     13794     13793     13795     13794     13793     13800     13795     13793     13800
     13797     13796     13798     13797     13796     13799     13797     13796     13800
     13798     13796     13799     13798     13796     13800     13799     13796     13800
     13796     13799     13801     13793     13800     13796     13799     13801     13802
     13799     13801     13803     13799     13801     13806     13802     13801     13803
     13802     13801     13806     13803     13801     13806     13805     13804     13806
     13805     13804     13856     13806     13804     13856     13801     13806     13804
     13801     13806     13807     13801     13806     13808     13804     13806     13807
     13804     13806     13808     13807     13806     13808     13806     13808     13809
     13806     13808     13810     13806     13808     13812     13809     13808     13810
     13809     13808     13812     13810     13808     13812     13808     13810     13811
     13808     13812     13813     13808     13812     13814     13813     13812     13814
     13812     13814     13815     13812     13814     13816     13815     13814     13816
     13814     13816     13817     13814     13816     13818     13814     13816     13819
     13817     13816     13818     13817     13816     13819     13818     13816     13819
     13816     13819     13820     13816     13819     13821     13816     13819     13822
     13820     13819     13821     13820     13819     13822     13821     13819     13822
     13819     13822     13823     13819     13822     13824     13819     13822     13825
     13823     13822     13824     13823     13822     13825     13824     13822     13825
     13822     13825     13826     13822     13825     13827     13822     13825     13828
     13826     13825     13827     13826     13825     13828     13827     13825     13828
     13825     13828     13829     13825     13828     13830     13825     13828     13831
     13829     13828     13830     13829     13828     13831     13830     13828     13831
     13828     13831     13832     13828     13831     13833     13828     13831     13834
     13832     13831     13833     13832     13831     13834     13833     13831     13834
     13831     13834     13835     13831     13834     13836     13831     13834     13837
     13835     13834     13836     13835     13834     13837     13836     13834     13837
     13834     13837     13838     13834     13837     13839     13834     13837     13840
     13838     13837     13839     13838     13837     13840     13839     13837     13840
     13837     13840     13841     13837     13840     13842     13837     13840     13843
     13841     13840     13842     13841     13840     13843     13842     13840     13843
     13840     13843     13844     13840     13843     13845     13840     13843     13846
     13844     13843     13845     13844     13843     13846     13845     13843     13846
     13843     13846     13847     13843     13846     13848     13843     13846     13849
     13847     13846     13848     13847     13846     13849     13848     13846     13849
     13846     13849     13850     13846     13849     13851     13846     13849     13852
     13850     13849     13851     13850     13849     13852     13851     13849     13852
     13849     13852     13853     13849     13852     13854     13849     13852     13855
     13853     13852     13854     13853     13852     13855     13854     13852     13855
     13804     13856     13857     13804     13856     13858     13857     13856     13858
     13856     13858     13859     13856     13858     13860     13856     13858     13861
     13859     13858     13860     13859     13858     13861     13860     13858     13861
     13858     13861     13862     13858     13861     13863     13858     13861     13864
     13862     13861     13863     13862     13861     13864     13863     13861     13864
     13861     13864     13865     13861     13864     13866     13861     13864     13867
     13865     13864     13866     13865     13864     13867     13866     13864     13867
     13864     13867     13868     13864     13867     13869     13864     13867     13870
     13868     13867     13869     13868     13867     13870     13869     13867     13870
     13867     13870     13871     13867     13870     13872     13867     13870     13873
     13871     13870     13872     13871     13870     13873     13872     13870     13873
     13870     13873     13874     13870     13873     13875     13870     13873     13876
     13874     13873     13875     13874     13873     13876     13875     13873     13876
     13873     13876     13877     13873     13876     13878     13873     13876     13879
     13877     13876     13878     13877     13876     13879     13878     13876     13879
     13876     13879     13880     13876     13879     13881     13880     13879     13881
     13879     13881     13882     13879     13881     13883     13882     13881     13883
     13881     13883     13884     13881     13883     13885     13881     13883     13886
     13884     13883     13885     13884     13883     13886     13885     13883     13886
     13883     13886     13887     13883     13886     13888     13883     13886     13889
     13887     13886     13888     13887     13886     13889     13888     13886     13889
     13886     13889     13890     13886     13889     13891     13886     13889     13892
     13890     13889     13891     13890     13889     13892     13891     13889     13892
     13889     13892     13893     13889     13892     13894     13889     13892     13895
     13893     13892     13894     13893     13892     13895     13894     13892     13895
     13892     13895     13896     13892     13895     13897     13892     13895     13898
     13896     13895     13897     13896     13895     13898     13897     13895     13898
     13895     13898     13899     13895     13898     13900     13895     13898     13901
     13899     13898     13900     13899     13898     13901     13900     13898     13901
     13898     13901     13902     13898     13901     13903     13898     13901     13904
     13902     13901     13903     13902     13901     13904     13903     13901     13904
     13901     13904     13905     13901     13904     13906     13901     13904     13907
     13905     13904     13906     13905     13904     13907     13906     13904     13907
     21908     21907     21912     21908     21907     21916     21908     21907     21920
     21912     21907     21916     21912     21907     21920     21916     21907     21920
     21907     21908     21909     21907     21908     21910     21907     21908     21911
     21909     21908     21910     21909     21908     21911     21910     21908     21911
     21907     21912     21913     21907     21912     21914     21907     21912     21915
     21913     21912     21914     21913     21912     21915     21914     21912     21915
     21907     21916     21917     21907     21916     21918     21907     21916     21919
     21917     21916     21918     21917     21916     21919     21918     21916     21919
     21907     21920     21921     21907     21920     21922     21907     21920     21923
     21921     21920     21922     21921     21920     21923     21922     21920     21923
     21920     21923     21924     21920     21923     21925     21920     21923     21929
     21924     21923     21925     21924     21923     21929     21925     21923     21929
     21927     21926     21928     21927     21926     21929     21927     21926     21930
     21928     21926     21929     21928     21926     21930     21929     21926     21930
     21923     21929     21926     21926     21930     21931     21930     21931     21932
     21930     21931     21933     21930     21931     21934     21932     21931     21933
     21932     21931     21934     21933     21931     21934     21931     21934     21935
     21931     21934     21936     21931     21934     21942     21935     21934     21936
     21935     21934     21942     21936     21934     21942     21934     21936     21937
     21936     21937     21938     21936     21937     21939     21938     21937     21939
     21937     21939     21940     21937     21939     21941     21937     21939     21951
     21940     21939     21941     21940     21939     21951     21941     21939     21951
     21934     21942     21943     21934     21942     21944     21934     21942     21945
     21943     21942     21944     21943     21942     21945     21944     21942     21945
     21942     21945     21946     21945     21946     21947     21945     21946     21948
     21947     21946     21948     21946     21948     21949     21946     21948     21950
     21946     21948     21996     21949     21948     21950     21949     21948     21996
     21950     21948     21996     21939     21951     21952     21939     21951     21953
     21939     21951     21954     21952     21951     21953     21952     21951     21954
     21953     21951     21954     21951     21954     21955     21951     21954     21956
     21951     21954     21957     21955     21954     21956     21955     21954     21957
     21956     21954     21957     21954     21957     21958     21954     21957     21959
     21954     21957     21960     21958     21957     21959     21958     21957     21960
     21959     21957     21960     21957     21960     21961     21957     21960     21962
     21957     21960     21963     21961     21960     21962     21961     21960     21963
     21962     21960     21963     21960     21963     21964     21960     21963     21965
     21960     21963     21966     21964     21963     21965     21964     21963     21966
     21965     21963     21966     21963     21966     21967     21963     21966     21968
     21963     21966     21969     21967     21966     21968     21967     21966     21969
     21968     21966     21969     21966     21969     21970     21966     21969     21971
     21970     21969     21971     21969     21971     21972     21969     21971     21973
     21972     21971     21973     21971     21973     21974     21971     21973     21975
     21971     21973     21976     21974     21973     21975     21974     21973     21976
     21975     21973     21976     21973     21976     21977     21973     21976     21978
     21977     21976     21978     21976     21978     21979     21976     21978     21980
     21979     21978     21980     21978     21980     21981     21978     21980     21982
     21978     21980     21983     21981     21980     21982     21981     21980     21983
     21982     21980     21983     21980     21983     21984     21980     21983     21985
     21980     21983     21986     21984     21983     21985     21984     21983     21986
     21985     21983     21986     21983     21986     21987     21983     21986     21988
     21983     21986     21989     21987     21986     21988     21987     21986     21989
     21988     21986     21989     21986     21989     21990     21986     21989     21991
     21986     21989     21992     21990     21989     21991     21990     21989     21992
     21991     21989     21992     21989     21992     21993     21989     21992     21994
     21989     21992     21995     21993     21992     21994     21993     21992     21995
     21994     21992     21995     21948     21996     21997     21948     21996     21998
     21948     21996     21999     21997     21996     21998     21997     21996     21999
     21998     21996     21999     21996     21999     22000     21996     21999     22001
     21996     21999     22002     22000     21999     22001     22000     21999     22002
     22001     21999     22002     21999     22002     22003     21999     22002     22004
     21999     22002     22005     22003     22002     22004     22003     22002     22005
     22004     22002     22005     22002     22005     22006     22002     22005     22007
     22002     22005     22008     22006     22005     22007     22006     22005     22008
     22007     22005     22008     22005     22008     22009     22005     22008     22010
     22005     22008     22011     22009     22008     22010     22009     22008     22011
     22010     22008     22011     22008     22011     22012     22008     22011     22013
     22008     22011     22014     22012     22011     22013     22012     22011     22014
     22013     22011     22014     22011     22014     22015     22011     22014     22016
     22011     22014     22017     22015     22014     22016     22015     22014     22017
     22016     22014     22017     22014     22017     22018     22014     22017     22019
     22014     22017     22020     22018     22017     22019     22018     22017     22020
     22019     22017     22020     22017     22020     22021     22017     22020     22022
     22017     22020     22023     22021     22020     22022     22021     22020     22023
     22022     22020     22023     22020     22023     22024     22020     22023     22025
     22020     22023     22026     22024     22023     22025     22024     22023     22026
     22025     22023     22026     22023     22026     22027     22023     22026     22028
     22023     22026     22029     22027     22026     22028     22027     22026     22029
     22028     22026     22029     22026     22029     22030     22026     22029     22031
     22026     22029     22032     22030     22029     22031     22030     22029     22032
     22031     22029     22032     22029     22032     22033     22029     22032     22034
     22029     22032     22035     22033     22032     22034     22033     22032     22035
     22034     22032     22035     22032     22035     22036     22032     22035     22037
     22032     22035     22038     22036     22035     22037     22036     22035     22038
     22037     22035     22038     22035     22038     22039     22035     22038     22040
     22035     22038     22041     22039     22038     22040     22039     22038     22041
     22040     22038     22041     22038     22041     22042     22038     22041     22043
     22038     22041     22044     22042     22041     22043     22042     22041     22044
     22043     22041     22044      3670      3669      3673      3670      3669      3677
      3670      3669      3681      3673      3669      3677      3673      3669      3681
      3677      3669      3681      3669      3670      3671      3669      3670      3672
      3669      3670      3685      3671      3670      3672      3671      3670      3685
      3672      3670      3685      3669      3673      3674      3669      3673      3675
      3669      3673      3676      3674      3673      3675      3674      3673      3676
      3675      3673      3676      3669      3677      3678      3669      3677      3679
      3669      3677      3680      3678      3677      3679      3678      3677      3680
      3679      3677      3680      3669      3681      3682      3669      3681      3683
      3669      3681      3684      3682      3681      3683      3682      3681      3684
      3683      3681      3684      3670      3685      3686      3670      3685      3687
      3670      3685      3691      3686      3685      3687      3686      3685      3691
      3687      3685      3691      3689      3688      3690      3689      3688      3691
      3689      3688      3692      3690      3688      3691      3690      3688      3692
      3691      3688      3692      3685      3691      3688      3688      3692      3693
      3692      3693      3694      3692      3693      3695      3692      3693      3696
      3694      3693      3695      3694      3693      3696      3695      3693      3696
      3693      3696      3697      3693      3696      3698      3693      3696      3704
      3697      3696      3698      3697      3696      3704      3698      3696      3704
      3696      3698      3699      3698      3699      3700      3698      3699      3701
      3700      3699      3701      3699      3701      3702      3699      3701      3703
      3699      3701      3713      3702      3701      3703      3702      3701      3713
      3703      3701      3713      3696      3704      3705      3696      3704      3706
      3696      3704      3707      3705      3704      3706      3705      3704      3707
      3706      3704      3707      3704      3707      3708      3707      3708      3709
      3707      3708      3710      3709      3708      3710      3708      3710      3711
      3708      3710      3712      3708      3710      3760      3711      3710      3712
      3711      3710      3760      3712      3710      3760      3701      3713      3714
      3701      3713      3715      3701      3713      3716      3714      3713      3715
      3714      3713      3716      3715      3713      3716      3713      3716      3717
      3713      3716      3718      3713      3716      3719      3717      3716      3718
      3717      3716      3719      3718      3716      3719      3716      3719      3720
      3716      3719      3721      3720      3719      3721      3719      3721      3722
      3719      3721      3723      3722      3721      3723      3721      3723      3724
      3721      3723      3725      3721      3723      3726      3724      3723      3725
      3724      3723      3726      3725      3723      3726      3723      3726      3727
      3723      3726      3728      3727      3726      3728      3726      3728      3729
      3726      3728      3730      3729      3728      3730      3728      3730      3731
      3728      3730      3732      3728      3730      3733      3731      3730      3732
      3731      3730      3733      3732      3730      3733      3730      3733      3734
      3730      3733      3735      3734      3733      3735      3733      3735      3736
      3733      3735      3737      3736      3735      3737      3735      3737      3738
      3735      3737      3739      3735      3737      3740      3738      3737      3739
      3738      3737      3740      3739      3737      3740      3737      3740      3741
      3737      3740      3742      3741      3740      3742      3740      3742      3743
      3740      3742      3744      3743      3742      3744      3742      3744      3745
      3742      3744      3746      3742      3744      3747      3745      3744      3746
      3745      3744      3747      3746      3744      3747      3744      3747      3748
      3744      3747      3749      3744      3747      3750      3748      3747      3749
      3748      3747      3750      3749      3747      3750      3747      3750      3751
      3747      3750      3752      3747      3750      3753      3751      3750      3752
      3751      3750      3753      3752      3750      3753      3750      3753      3754
      3750      3753      3755      3750      3753      3756      3754      3753      3755
      3754      3753      3756      3755      3753      3756      3753      3756      3757
      3753      3756      3758      3753      3756      3759      3757      3756      3758
      3757      3756      3759      3758      3756      3759      3710      3760      3761
      3710      3760      3762      3710      3760      3763      3761      3760      3762
      3761      3760      3763      3762      3760      3763      3760      3763      3764
      3760      3763      3765      3760      3763      3766      3764      3763      3765
      3764      3763      3766      3765      3763      3766      3763      3766      3767
      3763      3766      3768      3763      3766      3769      3767      3766      3768
      3767      3766      3769      3768      3766      3769      3766      3769      3770
      3766      3769      3771      3766      3769      3772      3770      3769      3771
      3770      3769      3772      3771      3769      3772      3769      3772      3773
      3769      3772      3774      3769      3772      3775      3773      3772      3774
      3773      3772      3775      3774      3772      3775      3772      3775      3776
      3772      3775      3777      3772      3775      3778      3776      3775      3777
      3776      3775      3778      3777      3775      3778      3775      3778      3779
      3775      3778      3780      3775      3778      3781      3779      3778      3780
      3779      3778      3781      3780      3778      3781      3778      3781      3782
      3778      3781      3783      3778      3781      3784      3782      3781      3783
      3782      3781      3784      3783      3781      3784      3781      3784      3785
      3781      3784      3786      3781      3784      3787      3785      3784      3786
      3785      3784      3787      3786      3784      3787      3784      3787      3788
      3784      3787      3789      3784      3787      3790      3788      3787      3789
      3788      3787      3790      3789      3787      3790      3787      3790      3791
      3787      3790      3792      3787      3790      3793      3791      3790      3792
      3791      3790      3793      3792      3790      3793      3790      3793      3794
      3790      3793      3795      3790      3793      3796      3794      3793      3795
      3794      3793      3796      3795      3793      3796      3793      3796      3797
      3793      3796      3798      3793      3796      3799      3797      3796      3798
      3797      3796      3799      3798      3796      3799      3796      3799      3800
      3796      3799      3801      3796      3799      3802      3800      3799      3801
      3800      3799      3802      3801      3799      3802      3799      3802      3803
      3799      3802      3804      3799      3802      3805      3803      3802      3804
      3803      3802      3805      3804      3802      3805      3802      3805      3806
      3802      3805      3807      3802      3805      3808      3806      3805      3807
      3806      3805      3808      3807      3805      3808      1465      1464      1466
      1465      1464      1467      1465      1464      1468      1466      1464      1467
      1466      1464      1468      1467      1464      1468      1464      1468      1469
      1464      1468      1470      1464      1468      1473      1469      1468      1470
      1469      1468      1473      1470      1468      1473      1468      1470      1471
      1468      1470      1472      1471      1470      1472      1468      1473      1474
      1468      1473      1475      1468      1473      1479      1474      1473      1475
      1474      1473      1479      1475      1473      1479      1477      1476      1478
      1477      1476      1479      1477      1476      1480      1478      1476      1479
      1478      1476      1480      1479      1476      1480      1473      1479      1476
      1476      1480      1481      1480      1481      1482      1480      1481      1483
      1480      1481      1484      1482      1481      1483      1482      1481      1484
      1483      1481      1484      1481      1484      1485      1481      1484      1486
      1481      1484      1492      1485      1484      1486      1485      1484      1492
      1486      1484      1492      1484      1486      1487      1486      1487      1488
      1486      1487      1489      1488      1487      1489      1487      1489      1490
      1487      1489      1491      1487      1489      1501      1490      1489      1491
      1490      1489      1501      1491      1489      1501      1484      1492      1493
      1484      1492      1494      1484      1492      1495      1493      1492      1494
      1493      1492      1495      1494      1492      1495      1492      1495      1496
      1495      1496      1497      1495      1496      1498      1497      1496      1498
      1496      1498      1499      1496      1498      1500      1496      1498      1548
      1499      1498      1500      1499      1498      1548      1500      1498      1548
      1489      1501      1502      1489      1501      1503      1489      1501      1504
      1502      1501      1503      1502      1501      1504      1503      1501      1504
      1501      1504      1505      1501      1504      1506      1501      1504      1507
      1505      1504      1506      1505      1504      1507      1506      1504      1507
      1504      1507      1508      1504      1507      1509      1508      1507      1509
      1507      1509      1510      1507      1509      1511      1510      1509      1511
      1509      1511      1512      1509      1511      1513      1509      1511      1514
      1512      1511      1513      1512      1511      1514      1513      1511      1514
      1511      1514      1515      1511      1514      1516      1515      1514      1516
      1514      1516      1517      1514      1516      1518      1517      1516      1518
      1516      1518      1519      1516      1518      1520      1516      1518      1521
      1519      1518      1520      1519      1518      1521      1520      1518      1521
      1518      1521      1522      1518      1521      1523      1522      1521      1523
      1521      1523      1524      1521      1523      1525      1524      1523      1525
      1523      1525      1526      1523      1525      1527      1523      1525      1528
      1526      1525      1527      1526      1525      1528      1527      1525      1528
      1525      1528      1529      1525      1528      1530      1529      1528      1530
      1528      1530      1531      1528      1530      1532      1531      1530      1532
      1530      1532      1533      1530      1532      1534      1530      1532      1535
      1533      1532      1534      1533      1532      1535      1534      1532      1535
      1532      1535      1536      1532      1535      1537      1532      1535      1538
      1536      1535      1537      1536      1535      1538      1537      1535      1538
      1535      1538      1539      1535      1538      1540      1535      1538      1541
      1539      1538      1540      1539      1538      1541      1540      1538      1541
      1538      1541      1542      1538      1541      1543      1538      1541      1544
      1542      1541      1543      1542      1541      1544      1543      1541      1544
      1541      1544      1545      1541      1544      1546      1541      1544      1547
      1545      1544      1546      1545      1544      1547      1546      1544      1547
      1498      1548      1549      1498      1548      1550      1498      1548      1551
      1549      1548      1550      1549      1548      1551      1550      1548      1551
      1548      1551      1552      1548      1551      1553      1548      1551      1554
      1552      1551      1553      1552      1551      1554      1553      1551      1554
      1551      1554      1555      1551      1554      1556      1551      1554      1557
      1555      1554      1556      1555      1554      1557      1556      1554      1557
      1554      1557      1558      1554      1557      1559      1554      1557      1560
      1558      1557      1559      1558      1557      1560      1559      1557      1560
      1557      1560      1561      1557      1560      1562      1557      1560      1563
      1561      1560      1562      1561      1560      1563      1562      1560      1563
      1560      1563      1564      1560      1563      1565      1560      1563      1566
      1564      1563      1565      1564      1563      1566      1565      1563      1566
      1563      1566      1567      1563      1566      1568      1563      1566      1569
      1567      1566      1568      1567      1566      1569      1568      1566      1569
      1566      1569      1570      1566      1569      1571      1566      1569      1572
      1570      1569      1571      1570      1569      1572      1571      1569      1572
      1569      1572      1573      1569      1572      1574      1569      1572      1575
      1573      1572      1574      1573      1572      1575      1574      1572      1575
      1572      1575      1576      1572      1575      1577      1572      1575      1578
      1576      1575      1577      1576      1575      1578      1577      1575      1578
      1575      1578      1579      1575      1578      1580      1575      1578      1581
      1579      1578      1580      1579      1578      1581      1580      1578      1581
      1578      1581      1582      1578      1581      1583      1578      1581      1584
      1582      1581      1583      1582      1581      1584      1583      1581      1584
      1581      1584      1585      1581      1584      1586      1581      1584      1587
      1585      1584      1586      1585      1584      1587      1586      1584      1587
      1584      1587      1588      1584      1587      1589      1584      1587      1590
      1588      1587      1589      1588      1587      1590      1589      1587      1590
      1587      1590      1591      1587      1590      1592      1587      1590      1593
      1591      1590      1592      1591      1590      1593      1592      1590      1593
      1590      1593      1594      1590      1593      1595      1590      1593      1596
      1594      1593      1595      1594      1593      1596      1595      1593      1596
      9068      9067      9069      9068      9067      9071      9068      9067      9113
      9069      9067      9071      9069      9067      9113      9071      9067      9113
      9067      9069      9070      9067      9071      9072      9067      9071      9073
      9067      9071      9074      9072      9071      9073      9072      9071      9074
      9073      9071      9074      9071      9074      9075      9071      9074      9105
      9075      9074      9105      9074      9075      9076      9074      9075      9077
      9076      9075      9077      9075      9077      9078      9075      9077      9079
      9075      9077      9080      9078      9077      9079      9078      9077      9080
      9079      9077      9080      9077      9080      9081      9077      9080      9082
      9077      9080      9103      9081      9080      9082      9081      9080      9103
      9082      9080      9103      9080      9082      9083      9080      9082      9084
      9080      9082      9092      9083      9082      9084      9083      9082      9092
      9084      9082      9092      9082      9084      9085      9082      9084      9086
      9082      9084      9087      9085      9084      9086      9085      9084      9087
      9086      9084      9087      9084      9087      9088      9084      9087      9089
      9084      9087      9090      9088      9087      9089      9088      9087      9090
      9089      9087      9090      9087      9090      9091      9087      9090      9092
      9087      9090      9116      9091      9090      9092      9091      9090      9116
      9092      9090      9116      9082      9092      9090      9082      9092      9093
      9082      9092      9097      9090      9092      9093      9090      9092      9097
      9093      9092      9097      9092      9093      9094      9092      9093      9095
      9092      9093      9096      9094      9093      9095      9094      9093      9096
      9095      9093      9096      9092      9097      9098      9092      9097      9099
      9092      9097      9100      9098      9097      9099      9098      9097      9100
      9099      9097      9100      9097      9100      9101      9097      9100      9102
      9097      9100      9103      9101      9100      9102      9101      9100      9103
      9102      9100      9103      9080      9103      9100      9080      9103      9104
      9080      9103      9105      9100      9103      9104      9100      9103      9105
      9104      9103      9105      9074      9105      9103      9074      9105      9106
      9074      9105      9110      9103      9105      9106      9103      9105      9110
      9106      9105      9110      9105      9106      9107      9105      9106      9108
      9105      9106      9109      9107      9106      9108      9107      9106      9109
      9108      9106      9109      9105      9110      9111      9105      9110      9112
      9105      9110      9113      9111      9110      9112      9111      9110      9113
      9112      9110      9113      9067      9113      9110      9067      9113      9114
      9067      9113      9115      9110      9113      9114      9110      9113      9115
      9114      9113      9115      9090      9116      9117      9090      9116      9118
      9090      9116      9122      9117      9116      9118      9117      9116      9122
      9118      9116      9122      9116      9118      9119      9116      9118      9120
      9116      9118      9121      9119      9118      9120      9119      9118      9121
      9120      9118      9121      9116      9122      9123      9116      9122      9124
      9116      9122      9125      9123      9122      9124      9123      9122      9125
      9124      9122      9125      9122      9125      9126      9122      9125      9127
      9122      9125      9128      9126      9125      9127      9126      9125      9128
      9127      9125      9128      9125      9128      9129      9125      9128      9130
      9125      9128      9131      9129      9128      9130      9129      9128      9131
      9130      9128      9131      9128      9131      9132      9128      9131      9133
      9128      9131      9137      9132      9131      9133      9132      9131      9137
      9133      9131      9137      9131      9133      9134      9131      9133      9135
      9131      9133      9136      9134      9133      9135      9134      9133      9136
      9135      9133      9136      9131      9137      9138      9131      9137      9139
      9131      9137      9140      9138      9137      9139      9138      9137      9140
      9139      9137      9140     19280     19279     19281     19280     19279     19282
     19280     19279     19283     19281     19279     19282     19281     19279     19283
     19282     19279     19283     19279     19283     19284     19279     19283     19285
     19279     19283     19286     19284     19283     19285     19284     19283     19286
     19285     19283     19286     19283     19286     19287     19283     19286     19288
     19283     19286     19292     19287     19286     19288     19287     19286     19292
     19288     19286     19292     19290     19289     19291     19290     19289     19292
     19290     19289     19293     19291     19289     19292     19291     19289     19293
     19292     19289     19293     19286     19292     19289     19289     19293     19294
     19293     19294     19295     19293     19294     19296     19293     19294     19297
     19295     19294     19296     19295     19294     19297     19296     19294     19297
     19294     19297     19298     19294     19297     19299     19294     19297     19305
     19298     19297     19299     19298     19297     19305     19299     19297     19305
     19297     19299     19300     19299     19300     19301     19299     19300     19302
     19301     19300     19302     19300     19302     19303     19300     19302     19304
     19300     19302     19314     19303     19302     19304     19303     19302     19314
     19304     19302     19314     19297     19305     19306     19297     19305     19307
     19297     19305     19308     19306     19305     19307     19306     19305     19308
     19307     19305     19308     19305     19308     19309     19308     19309     19310
     19308     19309     19311     19310     19309     19311     19309     19311     19312
     19309     19311     19313     19309     19311     19361     19312     19311     19313
     19312     19311     19361     19313     19311     19361     19302     19314     19315
     19302     19314     19316     19302     19314     19317     19315     19314     19316
     19315     19314     19317     19316     19314     19317     19314     19317     19318
     19314     19317     19319     19314     19317     19320     19318     19317     19319
     19318     19317     19320     19319     19317     19320     19317     19320     19321
     19317     19320     19322     19317     19320     19323     19321     19320     19322
     19321     19320     19323     19322     19320     19323     19320     19323     19324
     19320     19323     19325     19320     19323     19326     19324     19323     19325
     19324     19323     19326     19325     19323     19326     19323     19326     19327
     19323     19326     19328     19323     19326     19329     19327     19326     19328
     19327     19326     19329     19328     19326     19329     19326     19329     19330
     19326     19329     19331     19326     19329     19332     19330     19329     19331
     19330     19329     19332     19331     19329     19332     19329     19332     19333
     19329     19332     19334     19333     19332     19334     19332     19334     19335
     19332     19334     19336     19335     19334     19336     19334     19336     19337
     19334     19336     19338     19334     19336     19339     19337     19336     19338
     19337     19336     19339     19338     19336     19339     19336     19339     19340
     19336     19339     19341     19336     19339     19342     19340     19339     19341
     19340     19339     19342     19341     19339     19342     19339     19342     19343
     19339     19342     19344     19339     19342     19345     19343     19342     19344
     19343     19342     19345     19344     19342     19345     19342     19345     19346
     19342     19345     19347     19342     19345     19348     19346     19345     19347
     19346     19345     19348     19347     19345     19348     19345     19348     19349
     19345     19348     19350     19345     19348     19351     19349     19348     19350
     19349     19348     19351     19350     19348     19351     19348     19351     19352
     19348     19351     19353     19348     19351     19354     19352     19351     19353
     19352     19351     19354     19353     19351     19354     19351     19354     19355
     19351     19354     19356     19351     19354     19357     19355     19354     19356
     19355     19354     19357     19356     19354     19357     19354     19357     19358
     19354     19357     19359     19354     19357     19360     19358     19357     19359
     19358     19357     19360     19359     19357     19360     19311     19361     19362
     19311     19361     19363     19311     19361     19364     19362     19361     19363
     19362     19361     19364     19363     19361     19364     19361     19364     19365
     19361     19364     19366     19361     19364     19367     19365     19364     19366
     19365     19364     19367     19366     19364     19367     19364     19367     19368
     19364     19367     19369     19364     19367     19370     19368     19367     19369
     19368     19367     19370     19369     19367     19370     19367     19370     19371
     19367     19370     19372     19367     19370     19373     19371     19370     19372
     19371     19370     19373     19372     19370     19373     19370     19373     19374
     19370     19373     19375     19370     19373     19376     19374     19373     19375
     19374     19373     19376     19375     19373     19376     19373     19376     19377
     19373     19376     19378     19373     19376     19379     19377     19376     19378
     19377     19376     19379     19378     19376     19379     19376     19379     19380
     19376     19379     19381     19376     19379     19382     19380     19379     19381
     19380     19379     19382     19381     19379     19382     19379     19382     19383
     19379     19382     19384     19379     19382     19385     19383     19382     19384
     19383     19382     19385     19384     19382     19385     19382     19385     19386
     19382     19385     19387     19382     19385     19388     19386     19385     19387
     19386     19385     19388     19387     19385     19388     19385     19388     19389
     19385     19388     19390     19385     19388     19391     19389     19388     19390
     19389     19388     19391     19390     19388     19391     19388     19391     19392
     19388     19391     19393     19388     19391     19394     19392     19391     19393
     19392     19391     19394     19393     19391     19394     19391     19394     19395
     19391     19394     19396     19391     19394     19397     19395     19394     19396
     19395     19394     19397     19396     19394     19397     19394     19397     19398
     19394     19397     19399     19394     19397     19400     19398     19397     19399
     19398     19397     19400     19399     19397     19400     19397     19400     19401
     19397     19400     19402     19397     19400     19403     19401     19400     19402
     19401     19400     19403     19402     19400     19403     19400     19403     19404
     19400     19403     19405     19400     19403     19406     19404     19403     19405
     19404     19403     19406     19405     19403     19406     19403     19406     19407
     19403     19406     19408     19403     19406     19409     19407     19406     19408
     19407     19406     19409     19408     19406     19409      1598      1597      1599
      1598      1597      1600      1598      1597      1601      1599      1597      1600
      1599      1597      1601      1600      1597      1601      1597      1601      1602
      1597      1601      1603      1597      1601      1606      1602      1601      1603
      1602      1601      1606      1603      1601      1606      1601      1603      1604
      1601      1603      1605      1604      1603      1605      1601      1606      1607
      1601      1606      1608      1601      1606      1612      1607      1606      1608
      1607      1606      1612      1608      1606      1612      1610      1609      1611
      1610      1609      1612      1610      1609      1613      1611      1609      1612
      1611      1609      1613      1612      1609      1613      1606      1612      1609
      1609      1613      1614      1613      1614      1615      1613      1614      1616
      1613      1614      1617      1615      1614      1616      1615      1614      1617
      1616      1614      1617      1614      1617      1618      1614      1617      1619
      1614      1617      1625      1618      1617      1619      1618      1617      1625
      1619      1617      1625      1617      1619      1620      1619      1620      1621
      1619      1620      1622      1621      1620      1622      1620      1622      1623
      1620      1622      1624      1620      1622      1634      1623      1622      1624
      1623      1622      1634      1624      1622      1634      1617      1625      1626
      1617      1625      1627      1617      1625      1628      1626      1625      1627
      1626      1625      1628      1627      1625      1628      1625      1628      1629
      1628      1629      1630      1628      1629      1631      1630      1629      1631
      1629      1631      1632      1629      1631      1633      1629      1631      1681
      1632      1631      1633      1632      1631      1681      1633      1631      1681
      1622      1634      1635      1622      1634      1636      1622      1634      1637
      1635      1634      1636      1635      1634      1637      1636      1634      1637
      1634      1637      1638      1634      1637      1639      1634      1637      1640
      1638      1637      1639      1638      1637      1640      1639      1637      1640
      1637      1640      1641      1637      1640      1642      1641      1640      1642
      1640      1642      1643      1640      1642      1644      1643      1642      1644
      1642      1644      1645      1642      1644      1646      1642      1644      1647
      1645      1644      1646      1645      1644      1647      1646      1644      1647
      1644      1647      1648      1644      1647      1649      1648      1647      1649
      1647      1649      1650      1647      1649      1651      1650      1649      1651
      1649      1651      1652      1649      1651      1653      1649      1651      1654
      1652      1651      1653      1652      1651      1654      1653      1651      1654
      1651      1654      1655      1651      1654      1656      1655      1654      1656
      1654      1656      1657      1654      1656      1658      1657      1656      1658
      1656      1658      1659      1656      1658      1660      1656      1658      1661
      1659      1658      1660      1659      1658      1661      1660      1658      1661
      1658      1661      1662      1658      1661      1663      1662      1661      1663
      1661      1663      1664      1661      1663      1665      1664      1663      1665
      1663      1665      1666      1663      1665      1667      1663      1665      1668
      1666      1665      1667      1666      1665      1668      1667      1665      1668
      1665      1668      1669      1665      1668      1670      1665      1668      1671
      1669      1668      1670      1669      1668      1671      1670      1668      1671
      1668      1671      1672      1668      1671      1673      1668      1671      1674
      1672      1671      1673      1672      1671      1674      1673      1671      1674
      1671      1674      1675      1671      1674      1676      1671      1674      1677
      1675      1674      1676      1675      1674      1677      1676      1674      1677
      1674      1677      1678      1674      1677      1679      1674      1677      1680
      1678      1677      1679      1678      1677      1680      1679      1677      1680
      1631      1681      1682      1631      1681      1683      1631      1681      1684
      1682      1681      1683      1682      1681      1684      1683      1681      1684
      1681      1684      1685      1681      1684      1686      1681      1684      1687
      1685      1684      1686      1685      1684      1687      1686      1684      1687
      1684      1687      1688      1684      1687      1689      1684      1687      1690
      1688      1687      1689      1688      1687      1690      1689      1687      1690
      1687      1690      1691      1687      1690      1692      1687      1690      1693
      1691      1690      1692      1691      1690      1693      1692      1690      1693
      1690      1693      1694      1690      1693      1695      1690      1693      1696
      1694      1693      1695      1694      1693      1696      1695      1693      1696
      1693      1696      1697      1693      1696      1698      1693      1696      1699
      1697      1696      1698      1697      1696      1699      1698      1696      1699
      1696      1699      1700      1696      1699      1701      1696      1699      1702
      1700      1699      1701      1700      1699      1702      1701      1699      1702
      1699      1702      1703      1699      1702      1704      1699      1702      1705
      1703      1702      1704      1703      1702      1705      1704      1702      1705
      1702      1705      1706      1702      1705      1707      1702      1705      1708
      1706      1705      1707      1706      1705      1708      1707      1705      1708
      1705      1708      1709      1705      1708      1710      1705      1708      1711
      1709      1708      1710      1709      1708      1711      1710      1708      1711
      1708      1711      1712      1708      1711      1713      1708      1711      1714
      1712      1711      1713      1712      1711      1714      1713      1711      1714
      1711      1714      1715      1711      1714      1716      1711      1714      1717
      1715      1714      1716      1715      1714      1717      1716      1714      1717
      1714      1717      1718      1714      1717      1719      1714      1717      1720
      1718      1717      1719      1718      1717      1720      1719      1717      1720
      1717      1720      1721      1717      1720      1722      1717      1720      1723
      1721      1720      1722      1721      1720      1723      1722      1720      1723
      1720      1723      1724      1720      1723      1725      1720      1723      1726
      1724      1723      1725      1724      1723      1726      1725      1723      1726
      1723      1726      1727      1723      1726      1728      1723      1726      1729
      1727      1726      1728      1727      1726      1729      1728      1726      1729
     13909     13908     13913     13909     13908     13917     13909     13908     13921
     13913     13908     13917     13913     13908     13921     13917     13908     13921
     13908     13909     13910     13908     13909     13911     13908     13909     13912
     13910     13909     13911     13910     13909     13912     13911     13909     13912
     13908     13913     13914     13908     13913     13915     13908     13913     13916
     13914     13913     13915     13914     13913     13916     13915     13913     13916
     13908     13917     13918     13908     13917     13919     13908     13917     13920
     13918     13917     13919     13918     13917     13920     13919     13917     13920
     13908     13921     13922     13908     13921     13923     13908     13921     13924
     13922     13921     13923     13922     13921     13924     13923     13921     13924
     13921     13924     13925     13921     13924     13926     13921     13924     13931
     13925     13924     13926     13925     13924     13931     13926     13924     13931
     13928     13927     13929     13928     13927     13930     13928     13927     13931
     13929     13927     13930     13929     13927     13931     13930     13927     13931
     13927     13930     13932     13924     13931     13927     13930     13932     13933
     13930     13932     13934     13930     13932     13937     13933     13932     13934
     13933     13932     13937     13934     13932     13937     13936     13935     13937
     13936     13935     13987     13937     13935     13987     13932     13937     13935
     13932     13937     13938     13932     13937     13939     13935     13937     13938
     13935     13937     13939     13938     13937     13939     13937     13939     13940
     13937     13939     13941     13937     13939     13943     13940     13939     13941
     13940     13939     13943     13941     13939     13943     13939     13941     13942
     13939     13943     13944     13939     13943     13945     13944     13943     13945
     13943     13945     13946     13943     13945     13947     13946     13945     13947
     13945     13947     13948     13945     13947     13949     13945     13947     13950
     13948     13947     13949     13948     13947     13950     13949     13947     13950
     13947     13950     13951     13947     13950     13952     13947     13950     13953
     13951     13950     13952     13951     13950     13953     13952     13950     13953
     13950     13953     13954     13950     13953     13955     13950     13953     13956
     13954     13953     13955     13954     13953     13956     13955     13953     13956
     13953     13956     13957     13953     13956     13958     13953     13956     13959
     13957     13956     13958     13957     13956     13959     13958     13956     13959
     13956     13959     13960     13956     13959     13961     13956     13959     13962
     13960     13959     13961     13960     13959     13962     13961     13959     13962
     13959     13962     13963     13959     13962     13964     13959     13962     13965
     13963     13962     13964     13963     13962     13965     13964     13962     13965
     13962     13965     13966     13962     13965     13967     13962     13965     13968
     13966     13965     13967     13966     13965     13968     13967     13965     13968
     13965     13968     13969     13965     13968     13970     13965     13968     13971
     13969     13968     13970     13969     13968     13971     13970     13968     13971
     13968     13971     13972     13968     13971     13973     13968     13971     13974
     13972     13971     13973     13972     13971     13974     13973     13971     13974
     13971     13974     13975     13971     13974     13976     13971     13974     13977
     13975     13974     13976     13975     13974     13977     13976     13974     13977
     13974     13977     13978     13974     13977     13979     13974     13977     13980
     13978     13977     13979     13978     13977     13980     13979     13977     13980
     13977     13980     13981     13977     13980     13982     13977     13980     13983
     13981     13980     13982     13981     13980     13983     13982     13980     13983
     13980     13983     13984     13980     13983     13985     13980     13983     13986
     13984     13983     13985     13984     13983     13986     13985     13983     13986
     13935     13987     13988     13935     13987     13989     13988     13987     13989
     13987     13989     13990     13987     13989     13991     13987     13989     13992
     13990     13989     13991     13990     13989     13992     13991     13989     13992
     13989     13992     13993     13989     13992     13994     13989     13992     13995
     13993     13992     13994     13993     13992     13995     13994     13992     13995
     13992     13995     13996     13992     13995     13997     13992     13995     13998
     13996     13995     13997     13996     13995     13998     13997     13995     13998
     13995     13998     13999     13995     13998     14000     13995     13998     14001
     13999     13998     14000     13999     13998     14001     14000     13998     14001
     13998     14001     14002     13998     14001     14003     13998     14001     14004
     14002     14001     14003     14002     14001     14004     14003     14001     14004
     14001     14004     14005     14001     14004     14006     14001     14004     14007
     14005     14004     14006     14005     14004     14007     14006     14004     14007
     14004     14007     14008     14004     14007     14009     14004     14007     14010
     14008     14007     14009     14008     14007     14010     14009     14007     14010
     14007     14010     14011     14007     14010     14012     14011     14010     14012
     14010     14012     14013     14010     14012     14014     14013     14012     14014
     14012     14014     14015     14012     14014     14016     14012     14014     14017
     14015     14014     14016     14015     14014     14017     14016     14014     14017
     14014     14017     14018     14014     14017     14019     14014     14017     14020
     14018     14017     14019     14018     14017     14020     14019     14017     14020
     14017     14020     14021     14017     14020     14022     14017     14020     14023
     14021     14020     14022     14021     14020     14023     14022     14020     14023
     14020     14023     14024     14020     14023     14025     14020     14023     14026
     14024     14023     14025     14024     14023     14026     14025     14023     14026
     14023     14026     14027     14023     14026     14028     14023     14026     14029
     14027     14026     14028     14027     14026     14029     14028     14026     14029
     14026     14029     14030     14026     14029     14031     14026     14029     14032
     14030     14029     14031     14030     14029     14032     14031     14029     14032
     14029     14032     14033     14029     14032     14034     14029     14032     14035
     14033     14032     14034     14033     14032     14035     14034     14032     14035
     14032     14035     14036     14032     14035     14037     14032     14035     14038
     14036     14035     14037     14036     14035     14038     14037     14035     14038
      9142      9141      9143      9142      9141      9145      9142      9141      9187
      9143      9141      9145      9143      9141      9187      9145      9141      9187
      9141      9143      9144      9141      9145      9146      9141      9145      9147
      9141      9145      9148      9146      9145      9147      9146      9145      9148
      9147      9145      9148      9145      9148      9149      9145      9148      9179
      9149      9148      9179      9148      9149      9150      9148      9149      9151
      9150      9149      9151      9149      9151      9152      9149      9151      9153
      9149      9151      9154      9152      9151      9153      9152      9151      9154
      9153      9151      9154      9151      9154      9155      9151      9154      9156
      9151      9154      9177      9155      9154      9156      9155      9154      9177
      9156      9154      9177      9154      9156      9157      9154      9156      9158
      9154      9156      9166      9157      9156      9158      9157      9156      9166
      9158      9156      9166      9156      9158      9159      9156      9158      9160
      9156      9158      9161      9159      9158      9160      9159      9158      9161
      9160      9158      9161      9158      9161      9162      9158      9161      9163
      9158      9161      9164      9162      9161      9163      9162      9161      9164
      9163      9161      9164      9161      9164      9165      9161      9164      9166
      9161      9164      9190      9165      9164      9166      9165      9164      9190
      9166      9164      9190      9156      9166      9164      9156      9166      9167
      9156      9166      9171      9164      9166      9167      9164      9166      9171
      9167      9166      9171      9166      9167      9168      9166      9167      9169
      9166      9167      9170      9168      9167      9169      9168      9167      9170
      9169      9167      9170      9166      9171      9172      9166      9171      9173
      9166      9171      9174      9172      9171      9173      9172      9171      9174
      9173      9171      9174      9171      9174      9175      9171      9174      9176
      9171      9174      9177      9175      9174      9176      9175      9174      9177
      9176      9174      9177      9154      9177      9174      9154      9177      9178
      9154      9177      9179      9174      9177      9178      9174      9177      9179
      9178      9177      9179      9148      9179      9177      9148      9179      9180
      9148      9179      9184      9177      9179      9180      9177      9179      9184
      9180      9179      9184      9179      9180      9181      9179      9180      9182
      9179      9180      9183      9181      9180      9182      9181      9180      9183
      9182      9180      9183      9179      9184      9185      9179      9184      9186
      9179      9184      9187      9185      9184      9186      9185      9184      9187
      9186      9184      9187      9141      9187      9184      9141      9187      9188
      9141      9187      9189      9184      9187      9188      9184      9187      9189
      9188      9187      9189      9164      9190      9191      9164      9190      9192
      9164      9190      9196      9191      9190      9192      9191      9190      9196
      9192      9190      9196      9190      9192      9193      9190      9192      9194
      9190      9192      9195      9193      9192      9194      9193      9192      9195
      9194      9192      9195      9190      9196      9197      9190      9196      9198
      9190      9196      9199      9197      9196      9198      9197      9196      9199
      9198      9196      9199      9196      9199      9200      9196      9199      9201
      9196      9199      9202      9200      9199      9201      9200      9199      9202
      9201      9199      9202      9199      9202      9203      9199      9202      9204
      9199      9202      9205      9203      9202      9204      9203      9202      9205
      9204      9202      9205      9202      9205      9206      9202      9205      9207
      9202      9205      9211      9206      9205      9207      9206      9205      9211
      9207      9205      9211      9205      9207      9208      9205      9207      9209
      9205      9207      9210      9208      9207      9209      9208      9207      9210
      9209      9207      9210      9205      9211      9212      9205      9211      9213
      9205      9211      9214      9212      9211      9213      9212      9211      9214
      9213      9211      9214      9216      9215      9217      9216      9215      9219
      9216      9215      9261      9217      9215      9219      9217      9215      9261
      9219      9215      9261      9215      9217      9218      9215      9219      9220
      9215      9219      9221      9215      9219      9222      9220      9219      9221
      9220      9219      9222      9221      9219      9222      9219      9222      9223
      9219      9222      9253      9223      9222      9253      9222      9223      9224
      9222      9223      9225      9224      9223      9225      9223      9225      9226
      9223      9225      9227      9223      9225      9228      9226      9225      9227
      9226      9225      9228      9227      9225      9228      9225      9228      9229
      9225      9228      9230      9225      9228      9251      9229      9228      9230
      9229      9228      9251      9230      9228      9251      9228      9230      9231
      9228      9230      9232      9228      9230      9240      9231      9230      9232
      9231      9230      9240      9232      9230      9240      9230      9232      9233
      9230      9232      9234      9230      9232      9235      9233      9232      9234
      9233      9232      9235      9234      9232      9235      9232      9235      9236
      9232      9235      9237      9232      9235      9238      9236      9235      9237
      9236      9235      9238      9237      9235      9238      9235      9238      9239
      9235      9238      9240      9235      9238      9264      9239      9238      9240
      9239      9238      9264      9240      9238      9264      9230      9240      9238
      9230      9240      9241      9230      9240      9245      9238      9240      9241
      9238      9240      9245      9241      9240      9245      9240      9241      9242
      9240      9241      9243      9240      9241      9244      9242      9241      9243
      9242      9241      9244      9243      9241      9244      9240      9245      9246
      9240      9245      9247      9240      9245      9248      9246      9245      9247
      9246      9245      9248      9247      9245      9248      9245      9248      9249
      9245      9248      9250      9245      9248      9251      9249      9248      9250
      9249      9248      9251      9250      9248      9251      9228      9251      9248
      9228      9251      9252      9228      9251      9253      9248      9251      9252
      9248      9251      9253      9252      9251      9253      9222      9253      9251
      9222      9253      9254      9222      9253      9258      9251      9253      9254
      9251      9253      9258      9254      9253      9258      9253      9254      9255
      9253      9254      9256      9253      9254      9257      9255      9254      9256
      9255      9254      9257      9256      9254      9257      9253      9258      9259
      9253      9258      9260      9253      9258      9261      9259      9258      9260
      9259      9258      9261      9260      9258      9261      9215      9261      9258
      9215      9261      9262      9215      9261      9263      9258      9261      9262
      9258      9261      9263      9262      9261      9263      9238      9264      9265
      9238      9264      9266      9238      9264      9270      9265      9264      9266
      9265      9264      9270      9266      9264      9270      9264      9266      9267
      9264      9266      9268      9264      9266      9269      9267      9266      9268
      9267      9266      9269      9268      9266      9269      9264      9270      9271
      9264      9270      9272      9264      9270      9273      9271      9270      9272
      9271      9270      9273      9272      9270      9273      9270      9273      9274
      9270      9273      9275      9270      9273      9276      9274      9273      9275
      9274      9273      9276      9275      9273      9276      9273      9276      9277
      9273      9276      9278      9273      9276      9279      9277      9276      9278
      9277      9276      9279      9278      9276      9279      9276      9279      9280
      9276      9279      9281      9276      9279      9285      9280      9279      9281
      9280      9279      9285      9281      9279      9285      9279      9281      9282
      9279      9281      9283      9279      9281      9284      9282      9281      9283
      9282      9281      9284      9283      9281      9284      9279      9285      9286
      9279      9285      9287      9279      9285      9288      9286      9285      9287
      9286      9285      9288      9287      9285      9288      3810      3809      3813
      3810      3809      3817      3810      3809      3821      3813      3809      3817
      3813      3809      3821      3817      3809      3821      3809      3810      3811
      3809      3810      3812      3809      3810      3825      3811      3810      3812
      3811      3810      3825      3812      3810      3825      3809      3813      3814
      3809      3813      3815      3809      3813      3816      3814      3813      3815
      3814      3813      3816      3815      3813      3816      3809      3817      3818
      3809      3817      3819      3809      3817      3820      3818      3817      3819
      3818      3817      3820      3819      3817      3820      3809      3821      3822
      3809      3821      3823      3809      3821      3824      3822      3821      3823
      3822      3821      3824      3823      3821      3824      3810      3825      3826
      3810      3825      3827      3810      3825      3831      3826      3825      3827
      3826      3825      3831      3827      3825      3831      3829      3828      3830
      3829      3828      3831      3829      3828      3832      3830      3828      3831
      3830      3828      3832      3831      3828      3832      3825      3831      3828
      3828      3832      3833      3832      3833      3834      3832      3833      3835
      3832      3833      3836      3834      3833      3835      3834      3833      3836
      3835      3833      3836      3833      3836      3837      3833      3836      3838
      3833      3836      3844      3837      3836      3838      3837      3836      3844
      3838      3836      3844      3836      3838      3839      3838      3839      3840
      3838      3839      3841      3840      3839      3841      3839      3841      3842
      3839      3841      3843      3839      3841      3853      3842      3841      3843
      3842      3841      3853      3843      3841      3853      3836      3844      3845
      3836      3844      3846      3836      3844      3847      3845      3844      3846
      3845      3844      3847      3846      3844      3847      3844      3847      3848
      3847      3848      3849      3847      3848      3850      3849      3848      3850
      3848      3850      3851      3848      3850      3852      3848      3850      3900
      3851      3850      3852      3851      3850      3900      3852      3850      3900
      3841      3853      3854      3841      3853      3855      3841      3853      3856
      3854      3853      3855      3854      3853      3856      3855      3853      3856
      3853      3856      3857      3853      3856      3858      3853      3856      3859
      3857      3856      3858      3857      3856      3859      3858      3856      3859
      3856      3859      3860      3856      3859      3861      3860      3859      3861
      3859      3861      3862      3859      3861      3863      3862      3861      3863
      3861      3863      3864      3861      3863      3865      3861      3863      3866
      3864      3863      3865      3864      3863      3866      3865      3863      3866
      3863      3866      3867      3863      3866      3868      3867      3866      3868
      3866      3868      3869      3866      3868      3870      3869      3868      3870
      3868      3870      3871      3868      3870      3872      3868      3870      3873
      3871      3870      3872      3871      3870      3873      3872      3870      3873
      3870      3873      3874      3870      3873      3875      3874      3873      3875
      3873      3875      3876      3873      3875      3877      3876      3875      3877
      3875      3877      3878      3875      3877      3879      3875      3877      3880
      3878      3877      3879      3878      3877      3880      3879      3877      3880
      3877      3880      3881      3877      3880      3882      3881      3880      3882
      3880      3882      3883      3880      3882      3884      3883      3882      3884
      3882      3884      3885      3882      3884      3886      3882      3884      3887
      3885      3884      3886      3885      3884      3887      3886      3884      3887
      3884      3887      3888      3884      3887      3889      3884      3887      3890
      3888      3887      3889      3888      3887      3890      3889      3887      3890
      3887      3890      3891      3887      3890      3892      3887      3890      3893
      3891      3890      3892      3891      3890      3893      3892      3890      3893
      3890      3893      3894      3890      3893      3895      3890      3893      3896
      3894      3893      3895      3894      3893      3896      3895      3893      3896
      3893      3896      3897      3893      3896      3898      3893      3896      3899
      3897      3896      3898      3897      3896      3899      3898      3896      3899
      3850      3900      3901      3850      3900      3902      3850      3900      3903
      3901      3900      3902      3901      3900      3903      3902      3900      3903
      3900      3903      3904      3900      3903      3905      3900      3903      3906
      3904      3903      3905      3904      3903      3906      3905      3903      3906
      3903      3906      3907      3903      3906      3908      3903      3906      3909
      3907      3906      3908      3907      3906      3909      3908      3906      3909
      3906      3909      3910      3906      3909      3911      3906      3909      3912
      3910      3909      3911      3910      3909      3912      3911      3909      3912
      3909      3912      3913      3909      3912      3914      3909      3912      3915
      3913      3912      3914      3913      3912      3915      3914      3912      3915
      3912      3915      3916      3912      3915      3917      3912      3915      3918
      3916      3915      3917      3916      3915      3918      3917      3915      3918
      3915      3918      3919      3915      3918      3920      3915      3918      3921
      3919      3918      3920      3919      3918      3921      3920      3918      3921
      3918      3921      3922      3918      3921      3923      3918      3921      3924
      3922      3921      3923      3922      3921      3924      3923      3921      3924
      3921      3924      3925      3921      3924      3926      3921      3924      3927
      3925      3924      3926      3925      3924      3927      3926      3924      3927
      3924      3927      3928      3924      3927      3929      3924      3927      3930
      3928      3927      3929      3928      3927      3930      3929      3927      3930
      3927      3930      3931      3927      3930      3932      3927      3930      3933
      3931      3930      3932      3931      3930      3933      3932      3930      3933
      3930      3933      3934      3930      3933      3935      3930      3933      3936
      3934      3933      3935      3934      3933      3936      3935      3933      3936
      3933      3936      3937      3933      3936      3938      3933      3936      3939
      3937      3936      3938      3937      3936      3939      3938      3936      3939
      3936      3939      3940      3936      3939      3941      3936      3939      3942
      3940      3939      3941      3940      3939      3942      3941      3939      3942
      3939      3942      3943      3939      3942      3944      3939      3942      3945
      3943      3942      3944      3943      3942      3945      3944      3942      3945
      3942      3945      3946      3942      3945      3947      3942      3945      3948
      3946      3945      3947      3946      3945      3948      3947      3945      3948
     17577     17576     17578     17577     17576     17579     17577     17576     17580
     17578     17576     17579     17578     17576     17580     17579     17576     17580
     17576     17580     17581     17576     17580     17582     17576     17580     17583
     17581     17580     17582     17581     17580     17583     17582     17580     17583
     17580     17583     17584     17580     17583     17585     17580     17583     17589
     17584     17583     17585     17584     17583     17589     17585     17583     17589
     17587     17586     17588     17587     17586     17589     17587     17586     17590
     17588     17586     17589     17588     17586     17590     17589     17586     17590
     17583     17589     17586     17586     17590     17591     17590     17591     17592
     17590     17591     17593     17590     17591     17594     17592     17591     17593
     17592     17591     17594     17593     17591     17594     17591     17594     17595
     17591     17594     17596     17591     17594     17602     17595     17594     17596
     17595     17594     17602     17596     17594     17602     17594     17596     17597
     17596     17597     17598     17596     17597     17599     17598     17597     17599
     17597     17599     17600     17597     17599     17601     17597     17599     17611
     17600     17599     17601     17600     17599     17611     17601     17599     17611
     17594     17602     17603     17594     17602     17604     17594     17602     17605
     17603     17602     17604     17603     17602     17605     17604     17602     17605
     17602     17605     17606     17605     17606     17607     17605     17606     17608
     17607     17606     17608     17606     17608     17609     17606     17608     17610
     17606     17608     17658     17609     17608     17610     17609     17608     17658
     17610     17608     17658     17599     17611     17612     17599     17611     17613
     17599     17611     17614     17612     17611     17613     17612     17611     17614
     17613     17611     17614     17611     17614     17615     17611     17614     17616
     17611     17614     17617     17615     17614     17616     17615     17614     17617
     17616     17614     17617     17614     17617     17618     17614     17617     17619
     17618     17617     17619     17617     17619     17620     17617     17619     17621
     17620     17619     17621     17619     17621     17622     17619     17621     17623
     17619     17621     17624     17622     17621     17623     17622     17621     17624
     17623     17621     17624     17621     17624     17625     17621     17624     17626
     17625     17624     17626     17624     17626     17627     17624     17626     17628
     17627     17626     17628     17626     17628     17629     17626     17628     17630
     17626     17628     17631     17629     17628     17630     17629     17628     17631
     17630     17628     17631     17628     17631     17632     17628     17631     17633
     17632     17631     17633     17631     17633     17634     17631     17633     17635
     17634     17633     17635     17633     17635     17636     17633     17635     17637
     17633     17635     17638     17636     17635     17637     17636     17635     17638
     17637     17635     17638     17635     17638     17639     17635     17638     17640
     17639     17638     17640     17638     17640     17641     17638     17640     17642
     17641     17640     17642     17640     17642     17643     17640     17642     17644
     17640     17642     17645     17643     17642     17644     17643     17642     17645
     17644     17642     17645     17642     17645     17646     17642     17645     17647
     17642     17645     17648     17646     17645     17647     17646     17645     17648
     17647     17645     17648     17645     17648     17649     17645     17648     17650
     17645     17648     17651     17649     17648     17650     17649     17648     17651
     17650     17648     17651     17648     17651     17652     17648     17651     17653
     17648     17651     17654     17652     17651     17653     17652     17651     17654
     17653     17651     17654     17651     17654     17655     17651     17654     17656
     17651     17654     17657     17655     17654     17656     17655     17654     17657
     17656     17654     17657     17608     17658     17659     17608     17658     17660
     17608     17658     17661     17659     17658     17660     17659     17658     17661
     17660     17658     17661     17658     17661     17662     17658     17661     17663
     17658     17661     17664     17662     17661     17663     17662     17661     17664
     17663     17661     17664     17661     17664     17665     17661     17664     17666
     17661     17664     17667     17665     17664     17666     17665     17664     17667
     17666     17664     17667     17664     17667     17668     17664     17667     17669
     17664     17667     17670     17668     17667     17669     17668     17667     17670
     17669     17667     17670     17667     17670     17671     17667     17670     17672
     17667     17670     17673     17671     17670     17672     17671     17670     17673
     17672     17670     17673     17670     17673     17674     17670     17673     17675
     17670     17673     17676     17674     17673     17675     17674     17673     17676
     17675     17673     17676     17673     17676     17677     17673     17676     17678
     17673     17676     17679     17677     17676     17678     17677     17676     17679
     17678     17676     17679     17676     17679     17680     17676     17679     17681
     17676     17679     17682     17680     17679     17681     17680     17679     17682
     17681     17679     17682     17679     17682     17683     17679     17682     17684
     17679     17682     17685     17683     17682     17684     17683     17682     17685
     17684     17682     17685     17682     17685     17686     17682     17685     17687
     17682     17685     17688     17686     17685     17687     17686     17685     17688
     17687     17685     17688     17685     17688     17689     17685     17688     17690
     17685     17688     17691     17689     17688     17690     17689     17688     17691
     17690     17688     17691     17688     17691     17692     17688     17691     17693
     17688     17691     17694     17692     17691     17693     17692     17691     17694
     17693     17691     17694     17691     17694     17695     17691     17694     17696
     17691     17694     17697     17695     17694     17696     17695     17694     17697
     17696     17694     17697     17694     17697     17698     17694     17697     17699
     17694     17697     17700     17698     17697     17699     17698     17697     17700
     17699     17697     17700     17697     17700     17701     17697     17700     17702
     17697     17700     17703     17701     17700     17702     17701     17700     17703
     17702     17700     17703     17700     17703     17704     17700     17703     17705
     17700     17703     17706     17704     17703     17705     17704     17703     17706
     17705     17703     17706     14040     14039     14044     14040     14039     14048
     14040     14039     14052     14044     14039     14048     14044     14039     14052
     14048     14039     14052     14039     14040     14041     14039     14040     14042
     14039     14040     14043     14041     14040     14042     14041     14040     14043
     14042     14040     14043     14039     14044     14045     14039     14044     14046
     14039     14044     14047     14045     14044     14046     14045     14044     14047
     14046     14044     14047     14039     14048     14049     14039     14048     14050
     14039     14048     14051     14049     14048     14050     14049     14048     14051
     14050     14048     14051     14039     14052     14053     14039     14052     14054
     14039     14052     14055     14053     14052     14054     14053     14052     14055
     14054     14052     14055     14052     14055     14056     14052     14055     14057
     14052     14055     14062     14056     14055     14057     14056     14055     14062
     14057     14055     14062     14059     14058     14060     14059     14058     14061
     14059     14058     14062     14060     14058     14061     14060     14058     14062
     14061     14058     14062     14058     14061     14063     14055     14062     14058
     14061     14063     14064     14061     14063     14065     14061     14063     14068
     14064     14063     14065     14064     14063     14068     14065     14063     14068
     14067     14066     14068     14067     14066     14118     14068     14066     14118
     14063     14068     14066     14063     14068     14069     14063     14068     14070
     14066     14068     14069     14066     14068     14070     14069     14068     14070
     14068     14070     14071     14068     14070     14072     14068     14070     14074
     14071     14070     14072     14071     14070     14074     14072     14070     14074
     14070     14072     14073     14070     14074     14075     14070     14074     14076
     14075     14074     14076     14074     14076     14077     14074     14076     14078
     14077     14076     14078     14076     14078     14079     14076     14078     14080
     14076     14078     14081     14079     14078     14080     14079     14078     14081
     14080     14078     14081     14078     14081     14082     14078     14081     14083
     14078     14081     14084     14082     14081     14083     14082     14081     14084
     14083     14081     14084     14081     14084     14085     14081     14084     14086
     14081     14084     14087     14085     14084     14086     14085     14084     14087
     14086     14084     14087     14084     14087     14088     14084     14087     14089
     14084     14087     14090     14088     14087     14089     14088     14087     14090
     14089     14087     14090     14087     14090     14091     14087     14090     14092
     14087     14090     14093     14091     14090     14092     14091     14090     14093
     14092     14090     14093     14090     14093     14094     14090     14093     14095
     14090     14093     14096     14094     14093     14095     14094     14093     14096
     14095     14093     14096     14093     14096     14097     14093     14096     14098
     14093     14096     14099     14097     14096     14098     14097     14096     14099
     14098     14096     14099     14096     14099     14100     14096     14099     14101
     14096     14099     14102     14100     14099     14101     14100     14099     14102
     14101     14099     14102     14099     14102     14103     14099     14102     14104
     14099     14102     14105     14103     14102     14104     14103     14102     14105
     14104     14102     14105     14102     14105     14106     14102     14105     14107
     14102     14105     14108     14106     14105     14107     14106     14105     14108
     14107     14105     14108     14105     14108     14109     14105     14108     14110
     14105     14108     14111     14109     14108     14110     14109     14108     14111
     14110     14108     14111     14108     14111     14112     14108     14111     14113
     14108     14111     14114     14112     14111     14113     14112     14111     14114
     14113     14111     14114     14111     14114     14115     14111     14114     14116
     14111     14114     14117     14115     14114     14116     14115     14114     14117
     14116     14114     14117     14066     14118     14119     14066     14118     14120
     14119     14118     14120     14118     14120     14121     14118     14120     14122
     14118     14120     14123     14121     14120     14122     14121     14120     14123
     14122     14120     14123     14120     14123     14124     14120     14123     14125
     14120     14123     14126     14124     14123     14125     14124     14123     14126
     14125     14123     14126     14123     14126     14127     14123     14126     14128
     14123     14126     14129     14127     14126     14128     14127     14126     14129
     14128     14126     14129     14126     14129     14130     14126     14129     14131
     14126     14129     14132     14130     14129     14131     14130     14129     14132
     14131     14129     14132     14129     14132     14133     14129     14132     14134
     14129     14132     14135     14133     14132     14134     14133     14132     14135
     14134     14132     14135     14132     14135     14136     14132     14135     14137
     14132     14135     14138     14136     14135     14137     14136     14135     14138
     14137     14135     14138     14135     14138     14139     14135     14138     14140
     14135     14138     14141     14139     14138     14140     14139     14138     14141
     14140     14138     14141     14138     14141     14142     14138     14141     14143
     14142     14141     14143     14141     14143     14144     14141     14143     14145
     14144     14143     14145     14143     14145     14146     14143     14145     14147
     14143     14145     14148     14146     14145     14147     14146     14145     14148
     14147     14145     14148     14145     14148     14149     14145     14148     14150
     14145     14148     14151     14149     14148     14150     14149     14148     14151
     14150     14148     14151     14148     14151     14152     14148     14151     14153
     14148     14151     14154     14152     14151     14153     14152     14151     14154
     14153     14151     14154     14151     14154     14155     14151     14154     14156
     14151     14154     14157     14155     14154     14156     14155     14154     14157
     14156     14154     14157     14154     14157     14158     14154     14157     14159
     14154     14157     14160     14158     14157     14159     14158     14157     14160
     14159     14157     14160     14157     14160     14161     14157     14160     14162
     14157     14160     14163     14161     14160     14162     14161     14160     14163
     14162     14160     14163     14160     14163     14164     14160     14163     14165
     14160     14163     14166     14164     14163     14165     14164     14163     14166
     14165     14163     14166     14163     14166     14167     14163     14166     14168
     14163     14166     14169     14167     14166     14168     14167     14166     14169
     14168     14166     14169     17708     17707     17709     17708     17707     17710
     17708     17707     17711     17709     17707     17710     17709     17707     17711
     17710     17707     17711     17707     17711     17712     17707     17711     17713
     17707     17711     17714     17712     17711     17713     17712     17711     17714
     17713     17711     17714     17711     17714     17715     17711     17714     17716
     17711     17714     17720     17715     17714     17716     17715     17714     17720
     17716     17714     17720     17718     17717     17719     17718     17717     17720
     17718     17717     17721     17719     17717     17720     17719     17717     17721
     17720     17717     17721     17714     17720     17717     17717     17721     17722
     17721     17722     17723     17721     17722     17724     17721     17722     17725
     17723     17722     17724     17723     17722     17725     17724     17722     17725
     17722     17725     17726     17722     17725     17727     17722     17725     17733
     17726     17725     17727     17726     17725     17733     17727     17725     17733
     17725     17727     17728     17727     17728     17729     17727     17728     17730
     17729     17728     17730     17728     17730     17731     17728     17730     17732
     17728     17730     17742     17731     17730     17732     17731     17730     17742
     17732     17730     17742     17725     17733     17734     17725     17733     17735
     17725     17733     17736     17734     17733     17735     17734     17733     17736
     17735     17733     17736     17733     17736     17737     17736     17737     17738
     17736     17737     17739     17738     17737     17739     17737     17739     17740
     17737     17739     17741     17737     17739     17789     17740     17739     17741
     17740     17739     17789     17741     17739     17789     17730     17742     17743
     17730     17742     17744     17730     17742     17745     17743     17742     17744
     17743     17742     17745     17744     17742     17745     17742     17745     17746
     17742     17745     17747     17742     17745     17748     17746     17745     17747
     17746     17745     17748     17747     17745     17748     17745     17748     17749
     17745     17748     17750     17749     17748     17750     17748     17750     17751
     17748     17750     17752     17751     17750     17752     17750     17752     17753
     17750     17752     17754     17750     17752     17755     17753     17752     17754
     17753     17752     17755     17754     17752     17755     17752     17755     17756
     17752     17755     17757     17756     17755     17757     17755     17757     17758
     17755     17757     17759     17758     17757     17759     17757     17759     17760
     17757     17759     17761     17757     17759     17762     17760     17759     17761
     17760     17759     17762     17761     17759     17762     17759     17762     17763
     17759     17762     17764     17763     17762     17764     17762     17764     17765
     17762     17764     17766     17765     17764     17766     17764     17766     17767
     17764     17766     17768     17764     17766     17769     17767     17766     17768
     17767     17766     17769     17768     17766     17769     17766     17769     17770
     17766     17769     17771     17770     17769     17771     17769     17771     17772
     17769     17771     17773     17772     17771     17773     17771     17773     17774
     17771     17773     17775     17771     17773     17776     17774     17773     17775
     17774     17773     17776     17775     17773     17776     17773     17776     17777
     17773     17776     17778     17773     17776     17779     17777     17776     17778
     17777     17776     17779     17778     17776     17779     17776     17779     17780
     17776     17779     17781     17776     17779     17782     17780     17779     17781
     17780     17779     17782     17781     17779     17782     17779     17782     17783
     17779     17782     17784     17779     17782     17785     17783     17782     17784
     17783     17782     17785     17784     17782     17785     17782     17785     17786
     17782     17785     17787     17782     17785     17788     17786     17785     17787
     17786     17785     17788     17787     17785     17788     17739     17789     17790
     17739     17789     17791     17739     17789     17792     17790     17789     17791
     17790     17789     17792     17791     17789     17792     17789     17792     17793
     17789     17792     17794     17789     17792     17795     17793     17792     17794
     17793     17792     17795     17794     17792     17795     17792     17795     17796
     17792     17795     17797     17792     17795     17798     17796     17795     17797
     17796     17795     17798     17797     17795     17798     17795     17798     17799
     17795     17798     17800     17795     17798     17801     17799     17798     17800
     17799     17798     17801     17800     17798     17801     17798     17801     17802
     17798     17801     17803     17798     17801     17804     17802     17801     17803
     17802     17801     17804     17803     17801     17804     17801     17804     17805
     17801     17804     17806     17801     17804     17807     17805     17804     17806
     17805     17804     17807     17806     17804     17807     17804     17807     17808
     17804     17807     17809     17804     17807     17810     17808     17807     17809
     17808     17807     17810     17809     17807     17810     17807     17810     17811
     17807     17810     17812     17807     17810     17813     17811     17810     17812
     17811     17810     17813     17812     17810     17813     17810     17813     17814
     17810     17813     17815     17810     17813     17816     17814     17813     17815
     17814     17813     17816     17815     17813     17816     17813     17816     17817
     17813     17816     17818     17813     17816     17819     17817     17816     17818
     17817     17816     17819     17818     17816     17819     17816     17819     17820
     17816     17819     17821     17816     17819     17822     17820     17819     17821
     17820     17819     17822     17821     17819     17822     17819     17822     17823
     17819     17822     17824     17819     17822     17825     17823     17822     17824
     17823     17822     17825     17824     17822     17825     17822     17825     17826
     17822     17825     17827     17822     17825     17828     17826     17825     17827
     17826     17825     17828     17827     17825     17828     17825     17828     17829
     17825     17828     17830     17825     17828     17831     17829     17828     17830
     17829     17828     17831     17830     17828     17831     17828     17831     17832
     17828     17831     17833     17828     17831     17834     17832     17831     17833
     17832     17831     17834     17833     17831     17834     17831     17834     17835
     17831     17834     17836     17831     17834     17837     17835     17834     17836
     17835     17834     17837     17836     17834     17837     14171     14170     14175
     14171     14170     14179     14171     14170     14183     14175     14170     14179
     14175     14170     14183     14179     14170     14183     14170     14171     14172
     14170     14171     14173     14170     14171     14174     14172     14171     14173
     14172     14171     14174     14173     14171     14174     14170     14175     14176
     14170     14175     14177     14170     14175     14178     14176     14175     14177
     14176     14175     14178     14177     14175     14178     14170     14179     14180
     14170     14179     14181     14170     14179     14182     14180     14179     14181
     14180     14179     14182     14181     14179     14182     14170     14183     14184
     14170     14183     14185     14170     14183     14186     14184     14183     14185
     14184     14183     14186     14185     14183     14186     14183     14186     14187
     14183     14186     14188     14183     14186     14193     14187     14186     14188
     14187     14186     14193     14188     14186     14193     14190     14189     14191
     14190     14189     14192     14190     14189     14193     14191     14189     14192
     14191     14189     14193     14192     14189     14193     14189     14192     14194
     14186     14193     14189     14192     14194     14195     14192     14194     14196
     14192     14194     14199     14195     14194     14196     14195     14194     14199
     14196     14194     14199     14198     14197     14199     14198     14197     14249
     14199     14197     14249     14194     14199     14197     14194     14199     14200
     14194     14199     14201     14197     14199     14200     14197     14199     14201
     14200     14199     14201     14199     14201     14202     14199     14201     14203
     14199     14201     14205     14202     14201     14203     14202     14201     14205
     14203     14201     14205     14201     14203     14204     14201     14205     14206
     14201     14205     14207     14206     14205     14207     14205     14207     14208
     14205     14207     14209     14208     14207     14209     14207     14209     14210
     14207     14209     14211     14207     14209     14212     14210     14209     14211
     14210     14209     14212     14211     14209     14212     14209     14212     14213
     14209     14212     14214     14209     14212     14215     14213     14212     14214
     14213     14212     14215     14214     14212     14215     14212     14215     14216
     14212     14215     14217     14212     14215     14218     14216     14215     14217
     14216     14215     14218     14217     14215     14218     14215     14218     14219
     14215     14218     14220     14215     14218     14221     14219     14218     14220
     14219     14218     14221     14220     14218     14221     14218     14221     14222
     14218     14221     14223     14218     14221     14224     14222     14221     14223
     14222     14221     14224     14223     14221     14224     14221     14224     14225
     14221     14224     14226     14221     14224     14227     14225     14224     14226
     14225     14224     14227     14226     14224     14227     14224     14227     14228
     14224     14227     14229     14224     14227     14230     14228     14227     14229
     14228     14227     14230     14229     14227     14230     14227     14230     14231
     14227     14230     14232     14227     14230     14233     14231     14230     14232
     14231     14230     14233     14232     14230     14233     14230     14233     14234
     14230     14233     14235     14230     14233     14236     14234     14233     14235
     14234     14233     14236     14235     14233     14236     14233     14236     14237
     14233     14236     14238     14233     14236     14239     14237     14236     14238
     14237     14236     14239     14238     14236     14239     14236     14239     14240
     14236     14239     14241     14236     14239     14242     14240     14239     14241
     14240     14239     14242     14241     14239     14242     14239     14242     14243
     14239     14242     14244     14239     14242     14245     14243     14242     14244
     14243     14242     14245     14244     14242     14245     14242     14245     14246
     14242     14245     14247     14242     14245     14248     14246     14245     14247
     14246     14245     14248     14247     14245     14248     14197     14249     14250
     14197     14249     14251     14250     14249     14251     14249     14251     14252
     14249     14251     14253     14249     14251     14254     14252     14251     14253
     14252     14251     14254     14253     14251     14254     14251     14254     14255
     14251     14254     14256     14251     14254     14257     14255     14254     14256
     14255     14254     14257     14256     14254     14257     14254     14257     14258
     14254     14257     14259     14254     14257     14260     14258     14257     14259
     14258     14257     14260     14259     14257     14260     14257     14260     14261
     14257     14260     14262     14257     14260     14263     14261     14260     14262
     14261     14260     14263     14262     14260     14263     14260     14263     14264
     14260     14263     14265     14260     14263     14266     14264     14263     14265
     14264     14263     14266     14265     14263     14266     14263     14266     14267
     14263     14266     14268     14263     14266     14269     14267     14266     14268
     14267     14266     14269     14268     14266     14269     14266     14269     14270
     14266     14269     14271     14266     14269     14272     14270     14269     14271
     14270     14269     14272     14271     14269     14272     14269     14272     14273
     14269     14272     14274     14273     14272     14274     14272     14274     14275
     14272     14274     14276     14275     14274     14276     14274     14276     14277
     14274     14276     14278     14274     14276     14279     14277     14276     14278
     14277     14276     14279     14278     14276     14279     14276     14279     14280
     14276     14279     14281     14276     14279     14282     14280     14279     14281
     14280     14279     14282     14281     14279     14282     14279     14282     14283
     14279     14282     14284     14279     14282     14285     14283     14282     14284
     14283     14282     14285     14284     14282     14285     14282     14285     14286
     14282     14285     14287     14282     14285     14288     14286     14285     14287
     14286     14285     14288     14287     14285     14288     14285     14288     14289
     14285     14288     14290     14285     14288     14291     14289     14288     14290
     14289     14288     14291     14290     14288     14291     14288     14291     14292
     14288     14291     14293     14288     14291     14294     14292     14291     14293
     14292     14291     14294     14293     14291     14294     14291     14294     14295
     14291     14294     14296     14291     14294     14297     14295     14294     14296
     14295     14294     14297     14296     14294     14297     14294     14297     14298
     14294     14297     14299     14294     14297     14300     14298     14297     14299
     14298     14297     14300     14299     14297     14300      9290      9289      9291
      9290      9289      9293      9290      9289      9335      9291      9289      9293
      9291      9289      9335      9293      9289      9335      9289      9291      9292
      9289      9293      9294      9289      9293      9295      9289      9293      9296
      9294      9293      9295      9294      9293      9296      9295      9293      9296
      9293      9296      9297      9293      9296      9327      9297      9296      9327
      9296      9297      9298      9296      9297      9299      9298      9297      9299
      9297      9299      9300      9297      9299      9301      9297      9299      9302
      9300      9299      9301      9300      9299      9302      9301      9299      9302
      9299      9302      9303      9299      9302      9304      9299      9302      9325
      9303      9302      9304      9303      9302      9325      9304      9302      9325
      9302      9304      9305      9302      9304      9306      9302      9304      9314
      9305      9304      9306      9305      9304      9314      9306      9304      9314
      9304      9306      9307      9304      9306      9308      9304      9306      9309
      9307      9306      9308      9307      9306      9309      9308      9306      9309
      9306      9309      9310      9306      9309      9311      9306      9309      9312
      9310      9309      9311      9310      9309      9312      9311      9309      9312
      9309      9312      9313      9309      9312      9314      9309      9312      9338
      9313      9312      9314      9313      9312      9338      9314      9312      9338
      9304      9314      9312      9304      9314      9315      9304      9314      9319
      9312      9314      9315      9312      9314      9319      9315      9314      9319
      9314      9315      9316      9314      9315      9317      9314      9315      9318
      9316      9315      9317      9316      9315      9318      9317      9315      9318
      9314      9319      9320      9314      9319      9321      9314      9319      9322
      9320      9319      9321      9320      9319      9322      9321      9319      9322
      9319      9322      9323      9319      9322      9324      9319      9322      9325
      9323      9322      9324      9323      9322      9325      9324      9322      9325
      9302      9325      9322      9302      9325      9326      9302      9325      9327
      9322      9325      9326      9322      9325      9327      9326      9325      9327
      9296      9327      9325      9296      9327      9328      9296      9327      9332
      9325      9327      9328      9325      9327      9332      9328      9327      9332
      9327      9328      9329      9327      9328      9330      9327      9328      9331
      9329      9328      9330      9329      9328      9331      9330      9328      9331
      9327      9332      9333      9327      9332      9334      9327      9332      9335
      9333      9332      9334      9333      9332      9335      9334      9332      9335
      9289      9335      9332      9289      9335      9336      9289      9335      9337
      9332      9335      9336      9332      9335      9337      9336      9335      9337
      9312      9338      9339      9312      9338      9340      9312      9338      9344
      9339      9338      9340      9339      9338      9344      9340      9338      9344
      9338      9340      9341      9338      9340      9342      9338      9340      9343
      9341      9340      9342      9341      9340      9343      9342      9340      9343
      9338      9344      9345      9338      9344      9346      9338      9344      9347
      9345      9344      9346      9345      9344      9347      9346      9344      9347
      9344      9347      9348      9344      9347      9349      9344      9347      9350
      9348      9347      9349      9348      9347      9350      9349      9347      9350
      9347      9350      9351      9347      9350      9352      9347      9350      9353
      9351      9350      9352      9351      9350      9353      9352      9350      9353
      9350      9353      9354      9350      9353      9355      9350      9353      9359
      9354      9353      9355      9354      9353      9359      9355      9353      9359
      9353      9355      9356      9353      9355      9357      9353      9355      9358
      9356      9355      9357      9356      9355      9358      9357      9355      9358
      9353      9359      9360      9353      9359      9361      9353      9359      9362
      9360      9359      9361      9360      9359      9362      9361      9359      9362
      1731      1730      1732      1731      1730      1733      1731      1730      1734
      1732      1730      1733      1732      1730      1734      1733      1730      1734
      1730      1734      1735      1730      1734      1736      1730      1734      1739
      1735      1734      1736      1735      1734      1739      1736      1734      1739
      1734      1736      1737      1734      1736      1738      1737      1736      1738
      1734      1739      1740      1734      1739      1741      1734      1739      1745
      1740      1739      1741      1740      1739      1745      1741      1739      1745
      1743      1742      1744      1743      1742      1745      1743      1742      1746
      1744      1742      1745      1744      1742      1746      1745      1742      1746
      1739      1745      1742      1742      1746      1747      1746      1747      1748
      1746      1747      1749      1746      1747      1750      1748      1747      1749
      1748      1747      1750      1749      1747      1750      1747      1750      1751
      1747      1750      1752      1747      1750      1758      1751      1750      1752
      1751      1750      1758      1752      1750      1758      1750      1752      1753
      1752      1753      1754      1752      1753      1755      1754      1753      1755
      1753      1755      1756      1753      1755      1757      1753      1755      1767
      1756      1755      1757      1756      1755      1767      1757      1755      1767
      1750      1758      1759      1750      1758      1760      1750      1758      1761
      1759      1758      1760      1759      1758      1761      1760      1758      1761
      1758      1761      1762      1761      1762      1763      1761      1762      1764
      1763      1762      1764      1762      1764      1765      1762      1764      1766
      1762      1764      1814      1765      1764      1766      1765      1764      1814
      1766      1764      1814      1755      1767      1768      1755      1767      1769
      1755      1767      1770      1768      1767      1769      1768      1767      1770
      1769      1767      1770      1767      1770      1771      1767      1770      1772
      1767      1770      1773      1771      1770      1772      1771      1770      1773
      1772      1770      1773      1770      1773      1774      1770      1773      1775
      1774      1773      1775      1773      1775      1776      1773      1775      1777
      1776      1775      1777      1775      1777      1778      1775      1777      1779
      1775      1777      1780      1778      1777      1779      1778      1777      1780
      1779      1777      1780      1777      1780      1781      1777      1780      1782
      1781      1780      1782      1780      1782      1783      1780      1782      1784
      1783      1782      1784      1782      1784      1785      1782      1784      1786
      1782      1784      1787      1785      1784      1786      1785      1784      1787
      1786      1784      1787      1784      1787      1788      1784      1787      1789
      1788      1787      1789      1787      1789      1790      1787      1789      1791
      1790      1789      1791      1789      1791      1792      1789      1791      1793
      1789      1791      1794      1792      1791      1793      1792      1791      1794
      1793      1791      1794      1791      1794      1795      1791      1794      1796
      1795      1794      1796      1794      1796      1797      1794      1796      1798
      1797      1796      1798      1796      1798      1799      1796      1798      1800
      1796      1798      1801      1799      1798      1800      1799      1798      1801
      1800      1798      1801      1798      1801      1802      1798      1801      1803
      1798      1801      1804      1802      1801      1803      1802      1801      1804
      1803      1801      1804      1801      1804      1805      1801      1804      1806
      1801      1804      1807      1805      1804      1806      1805      1804      1807
      1806      1804      1807      1804      1807      1808      1804      1807      1809
      1804      1807      1810      1808      1807      1809      1808      1807      1810
      1809      1807      1810      1807      1810      1811      1807      1810      1812
      1807      1810      1813      1811      1810      1812      1811      1810      1813
      1812      1810      1813      1764      1814      1815      1764      1814      1816
      1764      1814      1817      1815      1814      1816      1815      1814      1817
      1816      1814      1817      1814      1817      1818      1814      1817      1819
      1814      1817      1820      1818      1817      1819      1818      1817      1820
      1819      1817      1820      1817      1820      1821      1817      1820      1822
      1817      1820      1823      1821      1820      1822      1821      1820      1823
      1822      1820      1823      1820      1823      1824      1820      1823      1825
      1820      1823      1826      1824      1823      1825      1824      1823      1826
      1825      1823      1826      1823      1826      1827      1823      1826      1828
      1823      1826      1829      1827      1826      1828      1827      1826      1829
      1828      1826      1829      1826      1829      1830      1826      1829      1831
      1826      1829      1832      1830      1829      1831      1830      1829      1832
      1831      1829      1832      1829      1832      1833      1829      1832      1834
      1829      1832      1835      1833      1832      1834      1833      1832      1835
      1834      1832      1835      1832      1835      1836      1832      1835      1837
      1832      1835      1838      1836      1835      1837      1836      1835      1838
      1837      1835      1838      1835      1838      1839      1835      1838      1840
      1835      1838      1841      1839      1838      1840      1839      1838      1841
      1840      1838      1841      1838      1841      1842      1838      1841      1843
      1838      1841      1844      1842      1841      1843      1842      1841      1844
      1843      1841      1844      1841      1844      1845      1841      1844      1846
      1841      1844      1847      1845      1844      1846      1845      1844      1847
      1846      1844      1847      1844      1847      1848      1844      1847      1849
      1844      1847      1850      1848      1847      1849      1848      1847      1850
      1849      1847      1850      1847      1850      1851      1847      1850      1852
      1847      1850      1853      1851      1850      1852      1851      1850      1853
      1852      1850      1853      1850      1853      1854      1850      1853      1855
      1850      1853      1856      1854      1853      1855      1854      1853      1856
      1855      1853      1856      1853      1856      1857      1853      1856      1858
      1853      1856      1859      1857      1856      1858      1857      1856      1859
      1858      1856      1859      1856      1859      1860      1856      1859      1861
      1856      1859      1862      1860      1859      1861      1860      1859      1862
      1861      1859      1862     19411     19410     19412     19411     19410     19413
     19411     19410     19414     19412     19410     19413     19412     19410     19414
     19413     19410     19414     19410     19414     19415     19410     19414     19416
     19410     19414     19417     19415     19414     19416     19415     19414     19417
     19416     19414     19417     19414     19417     19418     19414     19417     19419
     19414     19417     19423     19418     19417     19419     19418     19417     19423
     19419     19417     19423     19421     19420     19422     19421     19420     19423
     19421     19420     19424     19422     19420     19423     19422     19420     19424
     19423     19420     19424     19417     19423     19420     19420     19424     19425
     19424     19425     19426     19424     19425     19427     19424     19425     19428
     19426     19425     19427     19426     19425     19428     19427     19425     19428
     19425     19428     19429     19425     19428     19430     19425     19428     19436
     19429     19428     19430     19429     19428     19436     19430     19428     19436
     19428     19430     19431     19430     19431     19432     19430     19431     19433
     19432     19431     19433     19431     19433     19434     19431     19433     19435
     19431     19433     19445     19434     19433     19435     19434     19433     19445
     19435     19433     19445     19428     19436     19437     19428     19436     19438
     19428     19436     19439     19437     19436     19438     19437     19436     19439
     19438     19436     19439     19436     19439     19440     19439     19440     19441
     19439     19440     19442     19441     19440     19442     19440     19442     19443
     19440     19442     19444     19440     19442     19492     19443     19442     19444
     19443     19442     19492     19444     19442     19492     19433     19445     19446
     19433     19445     19447     19433     19445     19448     19446     19445     19447
     19446     19445     19448     19447     19445     19448     19445     19448     19449
     19445     19448     19450     19445     19448     19451     19449     19448     19450
     19449     19448     19451     19450     19448     19451     19448     19451     19452
     19448     19451     19453     19448     19451     19454     19452     19451     19453
     19452     19451     19454     19453     19451     19454     19451     19454     19455
     19451     19454     19456     19451     19454     19457     19455     19454     19456
     19455     19454     19457     19456     19454     19457     19454     19457     19458
     19454     19457     19459     19454     19457     19460     19458     19457     19459
     19458     19457     19460     19459     19457     19460     19457     19460     19461
     19457     19460     19462     19457     19460     19463     19461     19460     19462
     19461     19460     19463     19462     19460     19463     19460     19463     19464
     19460     19463     19465     19464     19463     19465     19463     19465     19466
     19463     19465     19467     19466     19465     19467     19465     19467     19468
     19465     19467     19469     19465     19467     19470     19468     19467     19469
     19468     19467     19470     19469     19467     19470     19467     19470     19471
     19467     19470     19472     19467     19470     19473     19471     19470     19472
     19471     19470     19473     19472     19470     19473     19470     19473     19474
     19470     19473     19475     19470     19473     19476     19474     19473     19475
     19474     19473     19476     19475     19473     19476     19473     19476     19477
     19473     19476     19478     19473     19476     19479     19477     19476     19478
     19477     19476     19479     19478     19476     19479     19476     19479     19480
     19476     19479     19481     19476     19479     19482     19480     19479     19481
     19480     19479     19482     19481     19479     19482     19479     19482     19483
     19479     19482     19484     19479     19482     19485     19483     19482     19484
     19483     19482     19485     19484     19482     19485     19482     19485     19486
     19482     19485     19487     19482     19485     19488     19486     19485     19487
     19486     19485     19488     19487     19485     19488     19485     19488     19489
     19485     19488     19490     19485     19488     19491     19489     19488     19490
     19489     19488     19491     19490     19488     19491     19442     19492     19493
     19442     19492     19494     19442     19492     19495     19493     19492     19494
     19493     19492     19495     19494     19492     19495     19492     19495     19496
     19492     19495     19497     19492     19495     19498     19496     19495     19497
     19496     19495     19498     19497     19495     19498     19495     19498     19499
     19495     19498     19500     19495     19498     19501     19499     19498     19500
     19499     19498     19501     19500     19498     19501     19498     19501     19502
     19498     19501     19503     19498     19501     19504     19502     19501     19503
     19502     19501     19504     19503     19501     19504     19501     19504     19505
     19501     19504     19506     19501     19504     19507     19505     19504     19506
     19505     19504     19507     19506     19504     19507     19504     19507     19508
     19504     19507     19509     19504     19507     19510     19508     19507     19509
     19508     19507     19510     19509     19507     19510     19507     19510     19511
     19507     19510     19512     19507     19510     19513     19511     19510     19512
     19511     19510     19513     19512     19510     19513     19510     19513     19514
     19510     19513     19515     19510     19513     19516     19514     19513     19515
     19514     19513     19516     19515     19513     19516     19513     19516     19517
     19513     19516     19518     19513     19516     19519     19517     19516     19518
     19517     19516     19519     19518     19516     19519     19516     19519     19520
     19516     19519     19521     19516     19519     19522     19520     19519     19521
     19520     19519     19522     19521     19519     19522     19519     19522     19523
     19519     19522     19524     19519     19522     19525     19523     19522     19524
     19523     19522     19525     19524     19522     19525     19522     19525     19526
     19522     19525     19527     19522     19525     19528     19526     19525     19527
     19526     19525     19528     19527     19525     19528     19525     19528     19529
     19525     19528     19530     19525     19528     19531     19529     19528     19530
     19529     19528     19531     19530     19528     19531     19528     19531     19532
     19528     19531     19533     19528     19531     19534     19532     19531     19533
     19532     19531     19534     19533     19531     19534     19531     19534     19535
     19531     19534     19536     19531     19534     19537     19535     19534     19536
     19535     19534     19537     19536     19534     19537     19534     19537     19538
     19534     19537     19539     19534     19537     19540     19538     19537     19539
     19538     19537     19540     19539     19537     19540      3950      3949      3953
      3950      3949      3957      3950      3949      3961      3953      3949      3957
      3953      3949      3961      3957      3949      3961      3949      3950      3951
      3949      3950      3952      3949      3950      3965      3951      3950      3952
      3951      3950      3965      3952      3950      3965      3949      3953      3954
      3949      3953      3955      3949      3953      3956      3954      3953      3955
      3954      3953      3956      3955      3953      3956      3949      3957      3958
      3949      3957      3959      3949      3957      3960      3958      3957      3959
      3958      3957      3960      3959      3957      3960      3949      3961      3962
      3949      3961      3963      3949      3961      3964      3962      3961      3963
      3962      3961      3964      3963      3961      3964      3950      3965      3966
      3950      3965      3967      3950      3965      3971      3966      3965      3967
      3966      3965      3971      3967      3965      3971      3969      3968      3970
      3969      3968      3971      3969      3968      3972      3970      3968      3971
      3970      3968      3972      3971      3968      3972      3965      3971      3968
      3968      3972      3973      3972      3973      3974      3972      3973      3975
      3972      3973      3976      3974      3973      3975      3974      3973      3976
      3975      3973      3976      3973      3976      3977      3973      3976      3978
      3973      3976      3984      3977      3976      3978      3977      3976      3984
      3978      3976      3984      3976      3978      3979      3978      3979      3980
      3978      3979      3981      3980      3979      3981      3979      3981      3982
      3979      3981      3983      3979      3981      3993      3982      3981      3983
      3982      3981      3993      3983      3981      3993      3976      3984      3985
      3976      3984      3986      3976      3984      3987      3985      3984      3986
      3985      3984      3987      3986      3984      3987      3984      3987      3988
      3987      3988      3989      3987      3988      3990      3989      3988      3990
      3988      3990      3991      3988      3990      3992      3988      3990      4040
      3991      3990      3992      3991      3990      4040      3992      3990      4040
      3981      3993      3994      3981      3993      3995      3981      3993      3996
      3994      3993      3995      3994      3993      3996      3995      3993      3996
      3993      3996      3997      3993      3996      3998      3993      3996      3999
      3997      3996      3998      3997      3996      3999      3998      3996      3999
      3996      3999      4000      3996      3999      4001      4000      3999      4001
      3999      4001      4002      3999      4001      4003      4002      4001      4003
      4001      4003      4004      4001      4003      4005      4001      4003      4006
      4004      4003      4005      4004      4003      4006      4005      4003      4006
      4003      4006      4007      4003      4006      4008      4007      4006      4008
      4006      4008      4009      4006      4008      4010      4009      4008      4010
      4008      4010      4011      4008      4010      4012      4008      4010      4013
      4011      4010      4012      4011      4010      4013      4012      4010      4013
      4010      4013      4014      4010      4013      4015      4014      4013      4015
      4013      4015      4016      4013      4015      4017      4016      4015      4017
      4015      4017      4018      4015      4017      4019      4015      4017      4020
      4018      4017      4019      4018      4017      4020      4019      4017      4020
      4017      4020      4021      4017      4020      4022      4021      4020      4022
      4020      4022      4023      4020      4022      4024      4023      4022      4024
      4022      4024      4025      4022      4024      4026      4022      4024      4027
      4025      4024      4026      4025      4024      4027      4026      4024      4027
      4024      4027      4028      4024      4027      4029      4024      4027      4030
      4028      4027      4029      4028      4027      4030      4029      4027      4030
      4027      4030      4031      4027      4030      4032      4027      4030      4033
      4031      4030      4032      4031      4030      4033      4032      4030      4033
      4030      4033      4034      4030      4033      4035      4030      4033      4036
      4034      4033      4035      4034      4033      4036      4035      4033      4036
      4033      4036      4037      4033      4036      4038      4033      4036      4039
      4037      4036      4038      4037      4036      4039      4038      4036      4039
      3990      4040      4041      3990      4040      4042      3990      4040      4043
      4041      4040      4042      4041      4040      4043      4042      4040      4043
      4040      4043      4044      4040      4043      4045      4040      4043      4046
      4044      4043      4045      4044      4043      4046      4045      4043      4046
      4043      4046      4047      4043      4046      4048      4043      4046      4049
      4047      4046      4048      4047      4046      4049      4048      4046      4049
      4046      4049      4050      4046      4049      4051      4046      4049      4052
      4050      4049      4051      4050      4049      4052      4051      4049      4052
      4049      4052      4053      4049      4052      4054      4049      4052      4055
      4053      4052      4054      4053      4052      4055      4054      4052      4055
      4052      4055      4056      4052      4055      4057      4052      4055      4058
      4056      4055      4057      4056      4055      4058      4057      4055      4058
      4055      4058      4059      4055      4058      4060      4055      4058      4061
      4059      4058      4060      4059      4058      4061      4060      4058      4061
      4058      4061      4062      4058      4061      4063      4058      4061      4064
      4062      4061      4063      4062      4061      4064      4063      4061      4064
      4061      4064      4065      4061      4064      4066      4061      4064      4067
      4065      4064      4066      4065      4064      4067      4066      4064      4067
      4064      4067      4068      4064      4067      4069      4064      4067      4070
      4068      4067      4069      4068      4067      4070      4069      4067      4070
      4067      4070      4071      4067      4070      4072      4067      4070      4073
      4071      4070      4072      4071      4070      4073      4072      4070      4073
      4070      4073      4074      4070      4073      4075      4070      4073      4076
      4074      4073      4075      4074      4073      4076      4075      4073      4076
      4073      4076      4077      4073      4076      4078      4073      4076      4079
      4077      4076      4078      4077      4076      4079      4078      4076      4079
      4076      4079      4080      4076      4079      4081      4076      4079      4082
      4080      4079      4081      4080      4079      4082      4081      4079      4082
      4079      4082      4083      4079      4082      4084      4079      4082      4085
      4083      4082      4084      4083      4082      4085      4084      4082      4085
      4082      4085      4086      4082      4085      4087      4082      4085      4088
      4086      4085      4087      4086      4085      4088      4087      4085      4088
      9364      9363      9365      9364      9363      9367      9364      9363      9409
      9365      9363      9367      9365      9363      9409      9367      9363      9409
      9363      9365      9366      9363      9367      9368      9363      9367      9369
      9363      9367      9370      9368      9367      9369      9368      9367      9370
      9369      9367      9370      9367      9370      9371      9367      9370      9401
      9371      9370      9401      9370      9371      9372      9370      9371      9373
      9372      9371      9373      9371      9373      9374      9371      9373      9375
      9371      9373      9376      9374      9373      9375      9374      9373      9376
      9375      9373      9376      9373      9376      9377      9373      9376      9378
      9373      9376      9399      9377      9376      9378      9377      9376      9399
      9378      9376      9399      9376      9378      9379      9376      9378      9380
      9376      9378      9388      9379      9378      9380      9379      9378      9388
      9380      9378      9388      9378      9380      9381      9378      9380      9382
      9378      9380      9383      9381      9380      9382      9381      9380      9383
      9382      9380      9383      9380      9383      9384      9380      9383      9385
      9380      9383      9386      9384      9383      9385      9384      9383      9386
      9385      9383      9386      9383      9386      9387      9383      9386      9388
      9383      9386      9412      9387      9386      9388      9387      9386      9412
      9388      9386      9412      9378      9388      9386      9378      9388      9389
      9378      9388      9393      9386      9388      9389      9386      9388      9393
      9389      9388      9393      9388      9389      9390      9388      9389      9391
      9388      9389      9392      9390      9389      9391      9390      9389      9392
      9391      9389      9392      9388      9393      9394      9388      9393      9395
      9388      9393      9396      9394      9393      9395      9394      9393      9396
      9395      9393      9396      9393      9396      9397      9393      9396      9398
      9393      9396      9399      9397      9396      9398      9397      9396      9399
      9398      9396      9399      9376      9399      9396      9376      9399      9400
      9376      9399      9401      9396      9399      9400      9396      9399      9401
      9400      9399      9401      9370      9401      9399      9370      9401      9402
      9370      9401      9406      9399      9401      9402      9399      9401      9406
      9402      9401      9406      9401      9402      9403      9401      9402      9404
      9401      9402      9405      9403      9402      9404      9403      9402      9405
      9404      9402      9405      9401      9406      9407      9401      9406      9408
      9401      9406      9409      9407      9406      9408      9407      9406      9409
      9408      9406      9409      9363      9409      9406      9363      9409      9410
      9363      9409      9411      9406      9409      9410      9406      9409      9411
      9410      9409      9411      9386      9412      9413      9386      9412      9414
      9386      9412      9418      9413      9412      9414      9413      9412      9418
      9414      9412      9418      9412      9414      9415      9412      9414      9416
      9412      9414      9417      9415      9414      9416      9415      9414      9417
      9416      9414      9417      9412      9418      9419      9412      9418      9420
      9412      9418      9421      9419      9418      9420      9419      9418      9421
      9420      9418      9421      9418      9421      9422      9418      9421      9423
      9418      9421      9424      9422      9421      9423      9422      9421      9424
      9423      9421      9424      9421      9424      9425      9421      9424      9426
      9421      9424      9427      9425      9424      9426      9425      9424      9427
      9426      9424      9427      9424      9427      9428      9424      9427      9429
      9424      9427      9433      9428      9427      9429      9428      9427      9433
      9429      9427      9433      9427      9429      9430      9427      9429      9431
      9427      9429      9432      9430      9429      9431      9430      9429      9432
      9431      9429      9432      9427      9433      9434      9427      9433      9435
      9427      9433      9436      9434      9433      9435      9434      9433      9436
      9435      9433      9436      1864      1863      1865      1864      1863      1866
      1864      1863      1867      1865      1863      1866      1865      1863      1867
      1866      1863      1867      1863      1867      1868      1863      1867      1869
      1863      1867      1872      1868      1867      1869      1868      1867      1872
      1869      1867      1872      1867      1869      1870      1867      1869      1871
      1870      1869      1871      1867      1872      1873      1867      1872      1874
      1867      1872      1878      1873      1872      1874      1873      1872      1878
      1874      1872      1878      1876      1875      1877      1876      1875      1878
      1876      1875      1879      1877      1875      1878      1877      1875      1879
      1878      1875      1879      1872      1878      1875      1875      1879      1880
      1879      1880      1881      1879      1880      1882      1879      1880      1883
      1881      1880      1882      1881      1880      1883      1882      1880      1883
      1880      1883      1884      1880      1883      1885      1880      1883      1891
      1884      1883      1885      1884      1883      1891      1885      1883      1891
      1883      1885      1886      1885      1886      1887      1885      1886      1888
      1887      1886      1888      1886      1888      1889      1886      1888      1890
      1886      1888      1900      1889      1888      1890      1889      1888      1900
      1890      1888      1900      1883      1891      1892      1883      1891      1893
      1883      1891      1894      1892      1891      1893      1892      1891      1894
      1893      1891      1894      1891      1894      1895      1894      1895      1896
      1894      1895      1897      1896      1895      1897      1895      1897      1898
      1895      1897      1899      1895      1897      1947      1898      1897      1899
      1898      1897      1947      1899      1897      1947      1888      1900      1901
      1888      1900      1902      1888      1900      1903      1901      1900      1902
      1901      1900      1903      1902      1900      1903      1900      1903      1904
      1900      1903      1905      1900      1903      1906      1904      1903      1905
      1904      1903      1906      1905      1903      1906      1903      1906      1907
      1903      1906      1908      1907      1906      1908      1906      1908      1909
      1906      1908      1910      1909      1908      1910      1908      1910      1911
      1908      1910      1912      1908      1910      1913      1911      1910      1912
      1911      1910      1913      1912      1910      1913      1910      1913      1914
      1910      1913      1915      1914      1913      1915      1913      1915      1916
      1913      1915      1917      1916      1915      1917      1915      1917      1918
      1915      1917      1919      1915      1917      1920      1918      1917      1919
      1918      1917      1920      1919      1917      1920      1917      1920      1921
      1917      1920      1922      1921      1920      1922      1920      1922      1923
      1920      1922      1924      1923      1922      1924      1922      1924      1925
      1922      1924      1926      1922      1924      1927      1925      1924      1926
      1925      1924      1927      1926      1924      1927      1924      1927      1928
      1924      1927      1929      1928      1927      1929      1927      1929      1930
      1927      1929      1931      1930      1929      1931      1929      1931      1932
      1929      1931      1933      1929      1931      1934      1932      1931      1933
      1932      1931      1934      1933      1931      1934      1931      1934      1935
      1931      1934      1936      1931      1934      1937      1935      1934      1936
      1935      1934      1937      1936      1934      1937      1934      1937      1938
      1934      1937      1939      1934      1937      1940      1938      1937      1939
      1938      1937      1940      1939      1937      1940      1937      1940      1941
      1937      1940      1942      1937      1940      1943      1941      1940      1942
      1941      1940      1943      1942      1940      1943      1940      1943      1944
      1940      1943      1945      1940      1943      1946      1944      1943      1945
      1944      1943      1946      1945      1943      1946      1897      1947      1948
      1897      1947      1949      1897      1947      1950      1948      1947      1949
      1948      1947      1950      1949      1947      1950      1947      1950      1951
      1947      1950      1952      1947      1950      1953      1951      1950      1952
      1951      1950      1953      1952      1950      1953      1950      1953      1954
      1950      1953      1955      1950      1953      1956      1954      1953      1955
      1954      1953      1956      1955      1953      1956      1953      1956      1957
      1953      1956      1958      1953      1956      1959      1957      1956      1958
      1957      1956      1959      1958      1956      1959      1956      1959      1960
      1956      1959      1961      1956      1959      1962      1960      1959      1961
      1960      1959      1962      1961      1959      1962      1959      1962      1963
      1959      1962      1964      1959      1962      1965      1963      1962      1964
      1963      1962      1965      1964      1962      1965      1962      1965      1966
      1962      1965      1967      1962      1965      1968      1966      1965      1967
      1966      1965      1968      1967      1965      1968      1965      1968      1969
      1965      1968      1970      1965      1968      1971      1969      1968      1970
      1969      1968      1971      1970      1968      1971      1968      1971      1972
      1968      1971      1973      1968      1971      1974      1972      1971      1973
      1972      1971      1974      1973      1971      1974      1971      1974      1975
      1971      1974      1976      1971      1974      1977      1975      1974      1976
      1975      1974      1977      1976      1974      1977      1974      1977      1978
      1974      1977      1979      1974      1977      1980      1978      1977      1979
      1978      1977      1980      1979      1977      1980      1977      1980      1981
      1977      1980      1982      1977      1980      1983      1981      1980      1982
      1981      1980      1983      1982      1980      1983      1980      1983      1984
      1980      1983      1985      1980      1983      1986      1984      1983      1985
      1984      1983      1986      1985      1983      1986      1983      1986      1987
      1983      1986      1988      1983      1986      1989      1987      1986      1988
      1987      1986      1989      1988      1986      1989      1986      1989      1990
      1986      1989      1991      1986      1989      1992      1990      1989      1991
      1990      1989      1992      1991      1989      1992      1989      1992      1993
      1989      1992      1994      1989      1992      1995      1993      1992      1994
      1993      1992      1995      1994      1992      1995      4090      4089      4093
      4090      4089      4097      4090      4089      4101      4093      4089      4097
      4093      4089      4101      4097      4089      4101      4089      4090      4091
      4089      4090      4092      4089      4090      4105      4091      4090      4092
      4091      4090      4105      4092      4090      4105      4089      4093      4094
      4089      4093      4095      4089      4093      4096      4094      4093      4095
      4094      4093      4096      4095      4093      4096      4089      4097      4098
      4089      4097      4099      4089      4097      4100      4098      4097      4099
      4098      4097      4100      4099      4097      4100      4089      4101      4102
      4089      4101      4103      4089      4101      4104      4102      4101      4103
      4102      4101      4104      4103      4101      4104      4090      4105      4106
      4090      4105      4107      4090      4105      4111      4106      4105      4107
      4106      4105      4111      4107      4105      4111      4109      4108      4110
      4109      4108      4111      4109      4108      4112      4110      4108      4111
      4110      4108      4112      4111      4108      4112      4105      4111      4108
      4108      4112      4113      4112      4113      4114      4112      4113      4115
      4112      4113      4116      4114      4113      4115      4114      4113      4116
      4115      4113      4116      4113      4116      4117      4113      4116      4118
      4113      4116      4124      4117      4116      4118      4117      4116      4124
      4118      4116      4124      4116      4118      4119      4118      4119      4120
      4118      4119      4121      4120      4119      4121      4119      4121      4122
      4119      4121      4123      4119      4121      4133      4122      4121      4123
      4122      4121      4133      4123      4121      4133      4116      4124      4125
      4116      4124      4126      4116      4124      4127      4125      4124      4126
      4125      4124      4127      4126      4124      4127      4124      4127      4128
      4127      4128      4129      4127      4128      4130      4129      4128      4130
      4128      4130      4131      4128      4130      4132      4128      4130      4180
      4131      4130      4132      4131      4130      4180      4132      4130      4180
      4121      4133      4134      4121      4133      4135      4121      4133      4136
      4134      4133      4135      4134      4133      4136      4135      4133      4136
      4133      4136      4137      4133      4136      4138      4133      4136      4139
      4137      4136      4138      4137      4136      4139      4138      4136      4139
      4136      4139      4140      4136      4139      4141      4140      4139      4141
      4139      4141      4142      4139      4141      4143      4142      4141      4143
      4141      4143      4144      4141      4143      4145      4141      4143      4146
      4144      4143      4145      4144      4143      4146      4145      4143      4146
      4143      4146      4147      4143      4146      4148      4147      4146      4148
      4146      4148      4149      4146      4148      4150      4149      4148      4150
      4148      4150      4151      4148      4150      4152      4148      4150      4153
      4151      4150      4152      4151      4150      4153      4152      4150      4153
      4150      4153      4154      4150      4153      4155      4154      4153      4155
      4153      4155      4156      4153      4155      4157      4156      4155      4157
      4155      4157      4158      4155      4157      4159      4155      4157      4160
      4158      4157      4159      4158      4157      4160      4159      4157      4160
      4157      4160      4161      4157      4160      4162      4161      4160      4162
      4160      4162      4163      4160      4162      4164      4163      4162      4164
      4162      4164      4165      4162      4164      4166      4162      4164      4167
      4165      4164      4166      4165      4164      4167      4166      4164      4167
      4164      4167      4168      4164      4167      4169      4164      4167      4170
      4168      4167      4169      4168      4167      4170      4169      4167      4170
      4167      4170      4171      4167      4170      4172      4167      4170      4173
      4171      4170      4172      4171      4170      4173      4172      4170      4173
      4170      4173      4174      4170      4173      4175      4170      4173      4176
      4174      4173      4175      4174      4173      4176      4175      4173      4176
      4173      4176      4177      4173      4176      4178      4173      4176      4179
      4177      4176      4178      4177      4176      4179      4178      4176      4179
      4130      4180      4181      4130      4180      4182      4130      4180      4183
      4181      4180      4182      4181      4180      4183      4182      4180      4183
      4180      4183      4184      4180      4183      4185      4180      4183      4186
      4184      4183      4185      4184      4183      4186      4185      4183      4186
      4183      4186      4187      4183      4186      4188      4183      4186      4189
      4187      4186      4188      4187      4186      4189      4188      4186      4189
      4186      4189      4190      4186      4189      4191      4186      4189      4192
      4190      4189      4191      4190      4189      4192      4191      4189      4192
      4189      4192      4193      4189      4192      4194      4189      4192      4195
      4193      4192      4194      4193      4192      4195      4194      4192      4195
      4192      4195      4196      4192      4195      4197      4192      4195      4198
      4196      4195      4197      4196      4195      4198      4197      4195      4198
      4195      4198      4199      4195      4198      4200      4195      4198      4201
      4199      4198      4200      4199      4198      4201      4200      4198      4201
      4198      4201      4202      4198      4201      4203      4198      4201      4204
      4202      4201      4203      4202      4201      4204      4203      4201      4204
      4201      4204      4205      4201      4204      4206      4201      4204      4207
      4205      4204      4206      4205      4204      4207      4206      4204      4207
      4204      4207      4208      4204      4207      4209      4204      4207      4210
      4208      4207      4209      4208      4207      4210      4209      4207      4210
      4207      4210      4211      4207      4210      4212      4207      4210      4213
      4211      4210      4212      4211      4210      4213      4212      4210      4213
      4210      4213      4214      4210      4213      4215      4210      4213      4216
      4214      4213      4215      4214      4213      4216      4215      4213      4216
      4213      4216      4217      4213      4216      4218      4213      4216      4219
      4217      4216      4218      4217      4216      4219      4218      4216      4219
      4216      4219      4220      4216      4219      4221      4216      4219      4222
      4220      4219      4221      4220      4219      4222      4221      4219      4222
      4219      4222      4223      4219      4222      4224      4219      4222      4225
      4223      4222      4224      4223      4222      4225      4224      4222      4225
      4222      4225      4226      4222      4225      4227      4222      4225      4228
      4226      4225      4227      4226      4225      4228      4227      4225      4228
     22046     22045     22050     22046     22045     22054     22046     22045     22058
     22050     22045     22054     22050     22045     22058     22054     22045     22058
     22045     22046     22047     22045     22046     22048     22045     22046     22049
     22047     22046     22048     22047     22046     22049     22048     22046     22049
     22045     22050     22051     22045     22050     22052     22045     22050     22053
     22051     22050     22052     22051     22050     22053     22052     22050     22053
     22045     22054     22055     22045     22054     22056     22045     22054     22057
     22055     22054     22056     22055     22054     22057     22056     22054     22057
     22045     22058     22059     22045     22058     22060     22045     22058     22061
     22059     22058     22060     22059     22058     22061     22060     22058     22061
     22058     22061     22062     22058     22061     22063     22058     22061     22067
     22062     22061     22063     22062     22061     22067     22063     22061     22067
     22065     22064     22066     22065     22064     22067     22065     22064     22068
     22066     22064     22067     22066     22064     22068     22067     22064     22068
     22061     22067     22064     22064     22068     22069     22068     22069     22070
     22068     22069     22071     22068     22069     22072     22070     22069     22071
     22070     22069     22072     22071     22069     22072     22069     22072     22073
     22069     22072     22074     22069     22072     22080     22073     22072     22074
     22073     22072     22080     22074     22072     22080     22072     22074     22075
     22074     22075     22076     22074     22075     22077     22076     22075     22077
     22075     22077     22078     22075     22077     22079     22075     22077     22089
     22078     22077     22079     22078     22077     22089     22079     22077     22089
     22072     22080     22081     22072     22080     22082     22072     22080     22083
     22081     22080     22082     22081     22080     22083     22082     22080     22083
     22080     22083     22084     22083     22084     22085     22083     22084     22086
     22085     22084     22086     22084     22086     22087     22084     22086     22088
     22084     22086     22134     22087     22086     22088     22087     22086     22134
     22088     22086     22134     22077     22089     22090     22077     22089     22091
     22077     22089     22092     22090     22089     22091     22090     22089     22092
     22091     22089     22092     22089     22092     22093     22089     22092     22094
     22089     22092     22095     22093     22092     22094     22093     22092     22095
     22094     22092     22095     22092     22095     22096     22092     22095     22097
     22092     22095     22098     22096     22095     22097     22096     22095     22098
     22097     22095     22098     22095     22098     22099     22095     22098     22100
     22095     22098     22101     22099     22098     22100     22099     22098     22101
     22100     22098     22101     22098     22101     22102     22098     22101     22103
     22098     22101     22104     22102     22101     22103     22102     22101     22104
     22103     22101     22104     22101     22104     22105     22101     22104     22106
     22101     22104     22107     22105     22104     22106     22105     22104     22107
     22106     22104     22107     22104     22107     22108     22104     22107     22109
     22108     22107     22109     22107     22109     22110     22107     22109     22111
     22110     22109     22111     22109     22111     22112     22109     22111     22113
     22109     22111     22114     22112     22111     22113     22112     22111     22114
     22113     22111     22114     22111     22114     22115     22111     22114     22116
     22115     22114     22116     22114     22116     22117     22114     22116     22118
     22117     22116     22118     22116     22118     22119     22116     22118     22120
     22116     22118     22121     22119     22118     22120     22119     22118     22121
     22120     22118     22121     22118     22121     22122     22118     22121     22123
     22118     22121     22124     22122     22121     22123     22122     22121     22124
     22123     22121     22124     22121     22124     22125     22121     22124     22126
     22121     22124     22127     22125     22124     22126     22125     22124     22127
     22126     22124     22127     22124     22127     22128     22124     22127     22129
     22124     22127     22130     22128     22127     22129     22128     22127     22130
     22129     22127     22130     22127     22130     22131     22127     22130     22132
     22127     22130     22133     22131     22130     22132     22131     22130     22133
     22132     22130     22133     22086     22134     22135     22086     22134     22136
     22086     22134     22137     22135     22134     22136     22135     22134     22137
     22136     22134     22137     22134     22137     22138     22134     22137     22139
     22134     22137     22140     22138     22137     22139     22138     22137     22140
     22139     22137     22140     22137     22140     22141     22137     22140     22142
     22137     22140     22143     22141     22140     22142     22141     22140     22143
     22142     22140     22143     22140     22143     22144     22140     22143     22145
     22140     22143     22146     22144     22143     22145     22144     22143     22146
     22145     22143     22146     22143     22146     22147     22143     22146     22148
     22143     22146     22149     22147     22146     22148     22147     22146     22149
     22148     22146     22149     22146     22149     22150     22146     22149     22151
     22146     22149     22152     22150     22149     22151     22150     22149     22152
     22151     22149     22152     22149     22152     22153     22149     22152     22154
     22149     22152     22155     22153     22152     22154     22153     22152     22155
     22154     22152     22155     22152     22155     22156     22152     22155     22157
     22152     22155     22158     22156     22155     22157     22156     22155     22158
     22157     22155     22158     22155     22158     22159     22155     22158     22160
     22155     22158     22161     22159     22158     22160     22159     22158     22161
     22160     22158     22161     22158     22161     22162     22158     22161     22163
     22158     22161     22164     22162     22161     22163     22162     22161     22164
     22163     22161     22164     22161     22164     22165     22161     22164     22166
     22161     22164     22167     22165     22164     22166     22165     22164     22167
     22166     22164     22167     22164     22167     22168     22164     22167     22169
     22164     22167     22170     22168     22167     22169     22168     22167     22170
     22169     22167     22170     22167     22170     22171     22167     22170     22172
     22167     22170     22173     22171     22170     22172     22171     22170     22173
     22172     22170     22173     22170     22173     22174     22170     22173     22175
     22170     22173     22176     22174     22173     22175     22174     22173     22176
     22175     22173     22176     22173     22176     22177     22173     22176     22178
     22173     22176     22179     22177     22176     22178     22177     22176     22179
     22178     22176     22179     22176     22179     22180     22176     22179     22181
     22176     22179     22182     22180     22179     22181     22180     22179     22182
     22181     22179     22182      9438      9437      9439      9438      9437      9441
      9438      9437      9483      9439      9437      9441      9439      9437      9483
      9441      9437      9483      9437      9439      9440      9437      9441      9442
      9437      9441      9443      9437      9441      9444      9442      9441      9443
      9442      9441      9444      9443      9441      9444      9441      9444      9445
      9441      9444      9475      9445      9444      9475      9444      9445      9446
      9444      9445      9447      9446      9445      9447      9445      9447      9448
      9445      9447      9449      9445      9447      9450      9448      9447      9449
      9448      9447      9450      9449      9447      9450      9447      9450      9451
      9447      9450      9452      9447      9450      9473      9451      9450      9452
      9451      9450      9473      9452      9450      9473      9450      9452      9453
      9450      9452      9454      9450      9452      9462      9453      9452      9454
      9453      9452      9462      9454      9452      9462      9452      9454      9455
      9452      9454      9456      9452      9454      9457      9455      9454      9456
      9455      9454      9457      9456      9454      9457      9454      9457      9458
      9454      9457      9459      9454      9457      9460      9458      9457      9459
      9458      9457      9460      9459      9457      9460      9457      9460      9461
      9457      9460      9462      9457      9460      9486      9461      9460      9462
      9461      9460      9486      9462      9460      9486      9452      9462      9460
      9452      9462      9463      9452      9462      9467      9460      9462      9463
      9460      9462      9467      9463      9462      9467      9462      9463      9464
      9462      9463      9465      9462      9463      9466      9464      9463      9465
      9464      9463      9466      9465      9463      9466      9462      9467      9468
      9462      9467      9469      9462      9467      9470      9468      9467      9469
      9468      9467      9470      9469      9467      9470      9467      9470      9471
      9467      9470      9472      9467      9470      9473      9471      9470      9472
      9471      9470      9473      9472      9470      9473      9450      9473      9470
      9450      9473      9474      9450      9473      9475      9470      9473      9474
      9470      9473      9475      9474      9473      9475      9444      9475      9473
      9444      9475      9476      9444      9475      9480      9473      9475      9476
      9473      9475      9480      9476      9475      9480      9475      9476      9477
      9475      9476      9478      9475      9476      9479      9477      9476      9478
      9477      9476      9479      9478      9476      9479      9475      9480      9481
      9475      9480      9482      9475      9480      9483      9481      9480      9482
      9481      9480      9483      9482      9480      9483      9437      9483      9480
      9437      9483      9484      9437      9483      9485      9480      9483      9484
      9480      9483      9485      9484      9483      9485      9460      9486      9487
      9460      9486      9488      9460      9486      9492      9487      9486      9488
      9487      9486      9492      9488      9486      9492      9486      9488      9489
      9486      9488      9490      9486      9488      9491      9489      9488      9490
      9489      9488      9491      9490      9488      9491      9486      9492      9493
      9486      9492      9494      9486      9492      9495      9493      9492      9494
      9493      9492      9495      9494      9492      9495      9492      9495      9496
      9492      9495      9497      9492      9495      9498      9496      9495      9497
      9496      9495      9498      9497      9495      9498      9495      9498      9499
      9495      9498      9500      9495      9498      9501      9499      9498      9500
      9499      9498      9501      9500      9498      9501      9498      9501      9502
      9498      9501      9503      9498      9501      9507      9502      9501      9503
      9502      9501      9507      9503      9501      9507      9501      9503      9504
      9501      9503      9505      9501      9503      9506      9504      9503      9505
      9504      9503      9506      9505      9503      9506      9501      9507      9508
      9501      9507      9509      9501      9507      9510      9508      9507      9509
      9508      9507      9510      9509      9507      9510      9512      9511      9513
      9512      9511      9515      9512      9511      9557      9513      9511      9515
      9513      9511      9557      9515      9511      9557      9511      9513      9514
      9511      9515      9516      9511      9515      9517      9511      9515      9518
      9516      9515      9517      9516      9515      9518      9517      9515      9518
      9515      9518      9519      9515      9518      9549      9519      9518      9549
      9518      9519      9520      9518      9519      9521      9520      9519      9521
      9519      9521      9522      9519      9521      9523      9519      9521      9524
      9522      9521      9523      9522      9521      9524      9523      9521      9524
      9521      9524      9525      9521      9524      9526      9521      9524      9547
      9525      9524      9526      9525      9524      9547      9526      9524      9547
      9524      9526      9527      9524      9526      9528      9524      9526      9536
      9527      9526      9528      9527      9526      9536      9528      9526      9536
      9526      9528      9529      9526      9528      9530      9526      9528      9531
      9529      9528      9530      9529      9528      9531      9530      9528      9531
      9528      9531      9532      9528      9531      9533      9528      9531      9534
      9532      9531      9533      9532      9531      9534      9533      9531      9534
      9531      9534      9535      9531      9534      9536      9531      9534      9560
      9535      9534      9536      9535      9534      9560      9536      9534      9560
      9526      9536      9534      9526      9536      9537      9526      9536      9541
      9534      9536      9537      9534      9536      9541      9537      9536      9541
      9536      9537      9538      9536      9537      9539      9536      9537      9540
      9538      9537      9539      9538      9537      9540      9539      9537      9540
      9536      9541      9542      9536      9541      9543      9536      9541      9544
      9542      9541      9543      9542      9541      9544      9543      9541      9544
      9541      9544      9545      9541      9544      9546      9541      9544      9547
      9545      9544      9546      9545      9544      9547      9546      9544      9547
      9524      9547      9544      9524      9547      9548      9524      9547      9549
      9544      9547      9548      9544      9547      9549      9548      9547      9549
      9518      9549      9547      9518      9549      9550      9518      9549      9554
      9547      9549      9550      9547      9549      9554      9550      9549      9554
      9549      9550      9551      9549      9550      9552      9549      9550      9553
      9551      9550      9552      9551      9550      9553      9552      9550      9553
      9549      9554      9555      9549      9554      9556      9549      9554      9557
      9555      9554      9556      9555      9554      9557      9556      9554      9557
      9511      9557      9554      9511      9557      9558      9511      9557      9559
      9554      9557      9558      9554      9557      9559      9558      9557      9559
      9534      9560      9561      9534      9560      9562      9534      9560      9566
      9561      9560      9562      9561      9560      9566      9562      9560      9566
      9560      9562      9563      9560      9562      9564      9560      9562      9565
      9563      9562      9564      9563      9562      9565      9564      9562      9565
      9560      9566      9567      9560      9566      9568      9560      9566      9569
      9567      9566      9568      9567      9566      9569      9568      9566      9569
      9566      9569      9570      9566      9569      9571      9566      9569      9572
      9570      9569      9571      9570      9569      9572      9571      9569      9572
      9569      9572      9573      9569      9572      9574      9569      9572      9575
      9573      9572      9574      9573      9572      9575      9574      9572      9575
      9572      9575      9576      9572      9575      9577      9572      9575      9581
      9576      9575      9577      9576      9575      9581      9577      9575      9581
      9575      9577      9578      9575      9577      9579      9575      9577      9580
      9578      9577      9579      9578      9577      9580      9579      9577      9580
      9575      9581      9582      9575      9581      9583      9575      9581      9584
      9582      9581      9583      9582      9581      9584      9583      9581      9584
      5308      5307      5311      5308      5307      5315      5308      5307      5319
      5311      5307      5315      5311      5307      5319      5315      5307      5319
      5307      5308      5309      5307      5308      5310      5307      5308      5323
      5309      5308      5310      5309      5308      5323      5310      5308      5323
      5307      5311      5312      5307      5311      5313      5307      5311      5314
      5312      5311      5313      5312      5311      5314      5313      5311      5314
      5307      5315      5316      5307      5315      5317      5307      5315      5318
      5316      5315      5317      5316      5315      5318      5317      5315      5318
      5307      5319      5320      5307      5319      5321      5307      5319      5322
      5320      5319      5321      5320      5319      5322      5321      5319      5322
      5308      5323      5324      5308      5323      5325      5308      5323      5329
      5324      5323      5325      5324      5323      5329      5325      5323      5329
      5327      5326      5328      5327      5326      5329      5327      5326      5330
      5328      5326      5329      5328      5326      5330      5329      5326      5330
      5323      5329      5326      5326      5330      5331      5330      5331      5332
      5330      5331      5333      5330      5331      5334      5332      5331      5333
      5332      5331      5334      5333      5331      5334      5331      5334      5335
      5331      5334      5336      5331      5334      5342      5335      5334      5336
      5335      5334      5342      5336      5334      5342      5334      5336      5337
      5336      5337      5338      5336      5337      5339      5338      5337      5339
      5337      5339      5340      5337      5339      5341      5337      5339      5351
      5340      5339      5341      5340      5339      5351      5341      5339      5351
      5334      5342      5343      5334      5342      5344      5334      5342      5345
      5343      5342      5344      5343      5342      5345      5344      5342      5345
      5342      5345      5346      5345      5346      5347      5345      5346      5348
      5347      5346      5348      5346      5348      5349      5346      5348      5350
      5346      5348      5398      5349      5348      5350      5349      5348      5398
      5350      5348      5398      5339      5351      5352      5339      5351      5353
      5339      5351      5354      5352      5351      5353      5352      5351      5354
      5353      5351      5354      5351      5354      5355      5351      5354      5356
      5351      5354      5357      5355      5354      5356      5355      5354      5357
      5356      5354      5357      5354      5357      5358      5354      5357      5359
      5354      5357      5360      5358      5357      5359      5358      5357      5360
      5359      5357      5360      5357      5360      5361      5357      5360      5362
      5357      5360      5363      5361      5360      5362      5361      5360      5363
      5362      5360      5363      5360      5363      5364      5360      5363      5365
      5360      5363      5366      5364      5363      5365      5364      5363      5366
      5365      5363      5366      5363      5366      5367      5363      5366      5368
      5363      5366      5369      5367      5366      5368      5367      5366      5369
      5368      5366      5369      5366      5369      5370      5366      5369      5371
      5370      5369      5371      5369      5371      5372      5369      5371      5373
      5372      5371      5373      5371      5373      5374      5371      5373      5375
      5371      5373      5376      5374      5373      5375      5374      5373      5376
      5375      5373      5376      5373      5376      5377      5373      5376      5378
      5373      5376      5379      5377      5376      5378      5377      5376      5379
      5378      5376      5379      5376      5379      5380      5376      5379      5381
      5376      5379      5382      5380      5379      5381      5380      5379      5382
      5381      5379      5382      5379      5382      5383      5379      5382      5384
      5379      5382      5385      5383      5382      5384      5383      5382      5385
      5384      5382      5385      5382      5385      5386      5382      5385      5387
      5382      5385      5388      5386      5385      5387      5386      5385      5388
      5387      5385      5388      5385      5388      5389      5385      5388      5390
      5385      5388      5391      5389      5388      5390      5389      5388      5391
      5390      5388      5391      5388      5391      5392      5388      5391      5393
      5388      5391      5394      5392      5391      5393      5392      5391      5394
      5393      5391      5394      5391      5394      5395      5391      5394      5396
      5391      5394      5397      5395      5394      5396      5395      5394      5397
      5396      5394      5397      5348      5398      5399      5348      5398      5400
      5348      5398      5401      5399      5398      5400      5399      5398      5401
      5400      5398      5401      5398      5401      5402      5398      5401      5403
      5398      5401      5404      5402      5401      5403      5402      5401      5404
      5403      5401      5404      5401      5404      5405      5401      5404      5406
      5401      5404      5407      5405      5404      5406      5405      5404      5407
      5406      5404      5407      5404      5407      5408      5404      5407      5409
      5404      5407      5410      5408      5407      5409      5408      5407      5410
      5409      5407      5410      5407      5410      5411      5407      5410      5412
      5407      5410      5413      5411      5410      5412      5411      5410      5413
      5412      5410      5413      5410      5413      5414      5410      5413      5415
      5410      5413      5416      5414      5413      5415      5414      5413      5416
      5415      5413      5416      5413      5416      5417      5413      5416      5418
      5413      5416      5419      5417      5416      5418      5417      5416      5419
      5418      5416      5419      5416      5419      5420      5416      5419      5421
      5416      5419      5422      5420      5419      5421      5420      5419      5422
      5421      5419      5422      5419      5422      5423      5419      5422      5424
      5419      5422      5425      5423      5422      5424      5423      5422      5425
      5424      5422      5425      5422      5425      5426      5422      5425      5427
      5422      5425      5428      5426      5425      5427      5426      5425      5428
      5427      5425      5428      5425      5428      5429      5425      5428      5430
      5425      5428      5431      5429      5428      5430      5429      5428      5431
      5430      5428      5431      5428      5431      5432      5428      5431      5433
      5428      5431      5434      5432      5431      5433      5432      5431      5434
      5433      5431      5434      5431      5434      5435      5431      5434      5436
      5431      5434      5437      5435      5434      5436      5435      5434      5437
      5436      5434      5437      5434      5437      5438      5434      5437      5439
      5434      5437      5440      5438      5437      5439      5438      5437      5440
      5439      5437      5440     17839     17838     17840     17839     17838     17841
     17839     17838     17842     17840     17838     17841     17840     17838     17842
     17841     17838     17842     17838     17842     17843     17838     17842     17844
     17838     17842     17845     17843     17842     17844     17843     17842     17845
     17844     17842     17845     17842     17845     17846     17842     17845     17847
     17842     17845     17851     17846     17845     17847     17846     17845     17851
     17847     17845     17851     17849     17848     17850     17849     17848     17851
     17849     17848     17852     17850     17848     17851     17850     17848     17852
     17851     17848     17852     17845     17851     17848     17848     17852     17853
     17852     17853     17854     17852     17853     17855     17852     17853     17856
     17854     17853     17855     17854     17853     17856     17855     17853     17856
     17853     17856     17857     17853     17856     17858     17853     17856     17864
     17857     17856     17858     17857     17856     17864     17858     17856     17864
     17856     17858     17859     17858     17859     17860     17858     17859     17861
     17860     17859     17861     17859     17861     17862     17859     17861     17863
     17859     17861     17873     17862     17861     17863     17862     17861     17873
     17863     17861     17873     17856     17864     17865     17856     17864     17866
     17856     17864     17867     17865     17864     17866     17865     17864     17867
     17866     17864     17867     17864     17867     17868     17867     17868     17869
     17867     17868     17870     17869     17868     17870     17868     17870     17871
     17868     17870     17872     17868     17870     17920     17871     17870     17872
     17871     17870     17920     17872     17870     17920     17861     17873     17874
     17861     17873     17875     17861     17873     17876     17874     17873     17875
     17874     17873     17876     17875     17873     17876     17873     17876     17877
     17873     17876     17878     17873     17876     17879     17877     17876     17878
     17877     17876     17879     17878     17876     17879     17876     17879     17880
     17876     17879     17881     17880     17879     17881     17879     17881     17882
     17879     17881     17883     17882     17881     17883     17881     17883     17884
     17881     17883     17885     17881     17883     17886     17884     17883     17885
     17884     17883     17886     17885     17883     17886     17883     17886     17887
     17883     17886     17888     17887     17886     17888     17886     17888     17889
     17886     17888     17890     17889     17888     17890     17888     17890     17891
     17888     17890     17892     17888     17890     17893     17891     17890     17892
     17891     17890     17893     17892     17890     17893     17890     17893     17894
     17890     17893     17895     17894     17893     17895     17893     17895     17896
     17893     17895     17897     17896     17895     17897     17895     17897     17898
     17895     17897     17899     17895     17897     17900     17898     17897     17899
     17898     17897     17900     17899     17897     17900     17897     17900     17901
     17897     17900     17902     17901     17900     17902     17900     17902     17903
     17900     17902     17904     17903     17902     17904     17902     17904     17905
     17902     17904     17906     17902     17904     17907     17905     17904     17906
     17905     17904     17907     17906     17904     17907     17904     17907     17908
     17904     17907     17909     17904     17907     17910     17908     17907     17909
     17908     17907     17910     17909     17907     17910     17907     17910     17911
     17907     17910     17912     17907     17910     17913     17911     17910     17912
     17911     17910     17913     17912     17910     17913     17910     17913     17914
     17910     17913     17915     17910     17913     17916     17914     17913     17915
     17914     17913     17916     17915     17913     17916     17913     17916     17917
     17913     17916     17918     17913     17916     17919     17917     17916     17918
     17917     17916     17919     17918     17916     17919     17870     17920     17921
     17870     17920     17922     17870     17920     17923     17921     17920     17922
     17921     17920     17923     17922     17920     17923     17920     17923     17924
     17920     17923     17925     17920     17923     17926     17924     17923     17925
     17924     17923     17926     17925     17923     17926     17923     17926     17927
     17923     17926     17928     17923     17926     17929     17927     17926     17928
     17927     17926     17929     17928     17926     17929     17926     17929     17930
     17926     17929     17931     17926     17929     17932     17930     17929     17931
     17930     17929     17932     17931     17929     17932     17929     17932     17933
     17929     17932     17934     17929     17932     17935     17933     17932     17934
     17933     17932     17935     17934     17932     17935     17932     17935     17936
     17932     17935     17937     17932     17935     17938     17936     17935     17937
     17936     17935     17938     17937     17935     17938     17935     17938     17939
     17935     17938     17940     17935     17938     17941     17939     17938     17940
     17939     17938     17941     17940     17938     17941     17938     17941     17942
     17938     17941     17943     17938     17941     17944     17942     17941     17943
     17942     17941     17944     17943     17941     17944     17941     17944     17945
     17941     17944     17946     17941     17944     17947     17945     17944     17946
     17945     17944     17947     17946     17944     17947     17944     17947     17948
     17944     17947     17949     17944     17947     17950     17948     17947     17949
     17948     17947     17950     17949     17947     17950     17947     17950     17951
     17947     17950     17952     17947     17950     17953     17951     17950     17952
     17951     17950     17953     17952     17950     17953     17950     17953     17954
     17950     17953     17955     17950     17953     17956     17954     17953     17955
     17954     17953     17956     17955     17953     17956     17953     17956     17957
     17953     17956     17958     17953     17956     17959     17957     17956     17958
     17957     17956     17959     17958     17956     17959     17956     17959     17960
     17956     17959     17961     17956     17959     17962     17960     17959     17961
     17960     17959     17962     17961     17959     17962     17959     17962     17963
     17959     17962     17964     17959     17962     17965     17963     17962     17964
     17963     17962     17965     17964     17962     17965     17962     17965     17966
     17962     17965     17967     17962     17965     17968     17966     17965     17967
     17966     17965     17968     17967     17965     17968      4230      4229      4233
      4230      4229      4237      4230      4229      4241      4233      4229      4237
      4233      4229      4241      4237      4229      4241      4229      4230      4231
      4229      4230      4232      4229      4230      4245      4231      4230      4232
      4231      4230      4245      4232      4230      4245      4229      4233      4234
      4229      4233      4235      4229      4233      4236      4234      4233      4235
      4234      4233      4236      4235      4233      4236      4229      4237      4238
      4229      4237      4239      4229      4237      4240      4238      4237      4239
      4238      4237      4240      4239      4237      4240      4229      4241      4242
      4229      4241      4243      4229      4241      4244      4242      4241      4243
      4242      4241      4244      4243      4241      4244      4230      4245      4246
      4230      4245      4247      4230      4245      4251      4246      4245      4247
      4246      4245      4251      4247      4245      4251      4249      4248      4250
      4249      4248      4251      4249      4248      4252      4250      4248      4251
      4250      4248      4252      4251      4248      4252      4245      4251      4248
      4248      4252      4253      4252      4253      4254      4252      4253      4255
      4252      4253      4256      4254      4253      4255      4254      4253      4256
      4255      4253      4256      4253      4256      4257      4253      4256      4258
      4253      4256      4264      4257      4256      4258      4257      4256      4264
      4258      4256      4264      4256      4258      4259      4258      4259      4260
      4258      4259      4261      4260      4259      4261      4259      4261      4262
      4259      4261      4263      4259      4261      4273      4262      4261      4263
      4262      4261      4273      4263      4261      4273      4256      4264      4265
      4256      4264      4266      4256      4264      4267      4265      4264      4266
      4265      4264      4267      4266      4264      4267      4264      4267      4268
      4267      4268      4269      4267      4268      4270      4269      4268      4270
      4268      4270      4271      4268      4270      4272      4268      4270      4320
      4271      4270      4272      4271      4270      4320      4272      4270      4320
      4261      4273      4274      4261      4273      4275      4261      4273      4276
      4274      4273      4275      4274      4273      4276      4275      4273      4276
      4273      4276      4277      4273      4276      4278      4273      4276      4279
      4277      4276      4278      4277      4276      4279      4278      4276      4279
      4276      4279      4280      4276      4279      4281      4280      4279      4281
      4279      4281      4282      4279      4281      4283      4282      4281      4283
      4281      4283      4284      4281      4283      4285      4281      4283      4286
      4284      4283      4285      4284      4283      4286      4285      4283      4286
      4283      4286      4287      4283      4286      4288      4287      4286      4288
      4286      4288      4289      4286      4288      4290      4289      4288      4290
      4288      4290      4291      4288      4290      4292      4288      4290      4293
      4291      4290      4292      4291      4290      4293      4292      4290      4293
      4290      4293      4294      4290      4293      4295      4294      4293      4295
      4293      4295      4296      4293      4295      4297      4296      4295      4297
      4295      4297      4298      4295      4297      4299      4295      4297      4300
      4298      4297      4299      4298      4297      4300      4299      4297      4300
      4297      4300      4301      4297      4300      4302      4301      4300      4302
      4300      4302      4303      4300      4302      4304      4303      4302      4304
      4302      4304      4305      4302      4304      4306      4302      4304      4307
      4305      4304      4306      4305      4304      4307      4306      4304      4307
      4304      4307      4308      4304      4307      4309      4304      4307      4310
      4308      4307      4309      4308      4307      4310      4309      4307      4310
      4307      4310      4311      4307      4310      4312      4307      4310      4313
      4311      4310      4312      4311      4310      4313      4312      4310      4313
      4310      4313      4314      4310      4313      4315      4310      4313      4316
      4314      4313      4315      4314      4313      4316      4315      4313      4316
      4313      4316      4317      4313      4316      4318      4313      4316      4319
      4317      4316      4318      4317      4316      4319      4318      4316      4319
      4270      4320      4321      4270      4320      4322      4270      4320      4323
      4321      4320      4322      4321      4320      4323      4322      4320      4323
      4320      4323      4324      4320      4323      4325      4320      4323      4326
      4324      4323      4325      4324      4323      4326      4325      4323      4326
      4323      4326      4327      4323      4326      4328      4323      4326      4329
      4327      4326      4328      4327      4326      4329      4328      4326      4329
      4326      4329      4330      4326      4329      4331      4326      4329      4332
      4330      4329      4331      4330      4329      4332      4331      4329      4332
      4329      4332      4333      4329      4332      4334      4329      4332      4335
      4333      4332      4334      4333      4332      4335      4334      4332      4335
      4332      4335      4336      4332      4335      4337      4332      4335      4338
      4336      4335      4337      4336      4335      4338      4337      4335      4338
      4335      4338      4339      4335      4338      4340      4335      4338      4341
      4339      4338      4340      4339      4338      4341      4340      4338      4341
      4338      4341      4342      4338      4341      4343      4338      4341      4344
      4342      4341      4343      4342      4341      4344      4343      4341      4344
      4341      4344      4345      4341      4344      4346      4341      4344      4347
      4345      4344      4346      4345      4344      4347      4346      4344      4347
      4344      4347      4348      4344      4347      4349      4344      4347      4350
      4348      4347      4349      4348      4347      4350      4349      4347      4350
      4347      4350      4351      4347      4350      4352      4347      4350      4353
      4351      4350      4352      4351      4350      4353      4352      4350      4353
      4350      4353      4354      4350      4353      4355      4350      4353      4356
      4354      4353      4355      4354      4353      4356      4355      4353      4356
      4353      4356      4357      4353      4356      4358      4353      4356      4359
      4357      4356      4358      4357      4356      4359      4358      4356      4359
      4356      4359      4360      4356      4359      4361      4356      4359      4362
      4360      4359      4361      4360      4359      4362      4361      4359      4362
      4359      4362      4363      4359      4362      4364      4359      4362      4365
      4363      4362      4364      4363      4362      4365      4364      4362      4365
      4362      4365      4366      4362      4365      4367      4362      4365      4368
      4366      4365      4367      4366      4365      4368      4367      4365      4368
     22184     22183     22188     22184     22183     22192     22184     22183     22196
     22188     22183     22192     22188     22183     22196     22192     22183     22196
     22183     22184     22185     22183     22184     22186     22183     22184     22187
     22185     22184     22186     22185     22184     22187     22186     22184     22187
     22183     22188     22189     22183     22188     22190     22183     22188     22191
     22189     22188     22190     22189     22188     22191     22190     22188     22191
     22183     22192     22193     22183     22192     22194     22183     22192     22195
     22193     22192     22194     22193     22192     22195     22194     22192     22195
     22183     22196     22197     22183     22196     22198     22183     22196     22199
     22197     22196     22198     22197     22196     22199     22198     22196     22199
     22196     22199     22200     22196     22199     22201     22196     22199     22205
     22200     22199     22201     22200     22199     22205     22201     22199     22205
     22203     22202     22204     22203     22202     22205     22203     22202     22206
     22204     22202     22205     22204     22202     22206     22205     22202     22206
     22199     22205     22202     22202     22206     22207     22206     22207     22208
     22206     22207     22209     22206     22207     22210     22208     22207     22209
     22208     22207     22210     22209     22207     22210     22207     22210     22211
     22207     22210     22212     22207     22210     22218     22211     22210     22212
     22211     22210     22218     22212     22210     22218     22210     22212     22213
     22212     22213     22214     22212     22213     22215     22214     22213     22215
     22213     22215     22216     22213     22215     22217     22213     22215     22227
     22216     22215     22217     22216     22215     22227     22217     22215     22227
     22210     22218     22219     22210     22218     22220     22210     22218     22221
     22219     22218     22220     22219     22218     22221     22220     22218     22221
     22218     22221     22222     22221     22222     22223     22221     22222     22224
     22223     22222     22224     22222     22224     22225     22222     22224     22226
     22222     22224     22272     22225     22224     22226     22225     22224     22272
     22226     22224     22272     22215     22227     22228     22215     22227     22229
     22215     22227     22230     22228     22227     22229     22228     22227     22230
     22229     22227     22230     22227     22230     22231     22227     22230     22232
     22227     22230     22233     22231     22230     22232     22231     22230     22233
     22232     22230     22233     22230     22233     22234     22230     22233     22235
     22230     22233     22236     22234     22233     22235     22234     22233     22236
     22235     22233     22236     22233     22236     22237     22233     22236     22238
     22233     22236     22239     22237     22236     22238     22237     22236     22239
     22238     22236     22239     22236     22239     22240     22236     22239     22241
     22236     22239     22242     22240     22239     22241     22240     22239     22242
     22241     22239     22242     22239     22242     22243     22239     22242     22244
     22239     22242     22245     22243     22242     22244     22243     22242     22245
     22244     22242     22245     22242     22245     22246     22242     22245     22247
     22246     22245     22247     22245     22247     22248     22245     22247     22249
     22248     22247     22249     22247     22249     22250     22247     22249     22251
     22247     22249     22252     22250     22249     22251     22250     22249     22252
     22251     22249     22252     22249     22252     22253     22249     22252     22254
     22253     22252     22254     22252     22254     22255     22252     22254     22256
     22255     22254     22256     22254     22256     22257     22254     22256     22258
     22254     22256     22259     22257     22256     22258     22257     22256     22259
     22258     22256     22259     22256     22259     22260     22256     22259     22261
     22256     22259     22262     22260     22259     22261     22260     22259     22262
     22261     22259     22262     22259     22262     22263     22259     22262     22264
     22259     22262     22265     22263     22262     22264     22263     22262     22265
     22264     22262     22265     22262     22265     22266     22262     22265     22267
     22262     22265     22268     22266     22265     22267     22266     22265     22268
     22267     22265     22268     22265     22268     22269     22265     22268     22270
     22265     22268     22271     22269     22268     22270     22269     22268     22271
     22270     22268     22271     22224     22272     22273     22224     22272     22274
     22224     22272     22275     22273     22272     22274     22273     22272     22275
     22274     22272     22275     22272     22275     22276     22272     22275     22277
     22272     22275     22278     22276     22275     22277     22276     22275     22278
     22277     22275     22278     22275     22278     22279     22275     22278     22280
     22275     22278     22281     22279     22278     22280     22279     22278     22281
     22280     22278     22281     22278     22281     22282     22278     22281     22283
     22278     22281     22284     22282     22281     22283     22282     22281     22284
     22283     22281     22284     22281     22284     22285     22281     22284     22286
     22281     22284     22287     22285     22284     22286     22285     22284     22287
     22286     22284     22287     22284     22287     22288     22284     22287     22289
     22284     22287     22290     22288     22287     22289     22288     22287     22290
     22289     22287     22290     22287     22290     22291     22287     22290     22292
     22287     22290     22293     22291     22290     22292     22291     22290     22293
     22292     22290     22293     22290     22293     22294     22290     22293     22295
     22290     22293     22296     22294     22293     22295     22294     22293     22296
     22295     22293     22296     22293     22296     22297     22293     22296     22298
     22293     22296     22299     22297     22296     22298     22297     22296     22299
     22298     22296     22299     22296     22299     22300     22296     22299     22301
     22296     22299     22302     22300     22299     22301     22300     22299     22302
     22301     22299     22302     22299     22302     22303     22299     22302     22304
     22299     22302     22305     22303     22302     22304     22303     22302     22305
     22304     22302     22305     22302     22305     22306     22302     22305     22307
     22302     22305     22308     22306     22305     22307     22306     22305     22308
     22307     22305     22308     22305     22308     22309     22305     22308     22310
     22305     22308     22311     22309     22308     22310     22309     22308     22311
     22310     22308     22311     22308     22311     22312     22308     22311     22313
     22308     22311     22314     22312     22311     22313     22312     22311     22314
     22313     22311     22314     22311     22314     22315     22311     22314     22316
     22311     22314     22317     22315     22314     22316     22315     22314     22317
     22316     22314     22317     22314     22317     22318     22314     22317     22319
     22314     22317     22320     22318     22317     22319     22318     22317     22320
     22319     22317     22320      1997      1996      1998      1997      1996      1999
      1997      1996      2000      1998      1996      1999      1998      1996      2000
      1999      1996      2000      1996      2000      2001      1996      2000      2002
      1996      2000      2005      2001      2000      2002      2001      2000      2005
      2002      2000      2005      2000      2002      2003      2000      2002      2004
      2003      2002      2004      2000      2005      2006      2000      2005      2007
      2000      2005      2011      2006      2005      2007      2006      2005      2011
      2007      2005      2011      2009      2008      2010      2009      2008      2011
      2009      2008      2012      2010      2008      2011      2010      2008      2012
      2011      2008      2012      2005      2011      2008      2008      2012      2013
      2012      2013      2014      2012      2013      2015      2012      2013      2016
      2014      2013      2015      2014      2013      2016      2015      2013      2016
      2013      2016      2017      2013      2016      2018      2013      2016      2024
      2017      2016      2018      2017      2016      2024      2018      2016      2024
      2016      2018      2019      2018      2019      2020      2018      2019      2021
      2020      2019      2021      2019      2021      2022      2019      2021      2023
      2019      2021      2033      2022      2021      2023      2022      2021      2033
      2023      2021      2033      2016      2024      2025      2016      2024      2026
      2016      2024      2027      2025      2024      2026      2025      2024      2027
      2026      2024      2027      2024      2027      2028      2027      2028      2029
      2027      2028      2030      2029      2028      2030      2028      2030      2031
      2028      2030      2032      2028      2030      2080      2031      2030      2032
      2031      2030      2080      2032      2030      2080      2021      2033      2034
      2021      2033      2035      2021      2033      2036      2034      2033      2035
      2034      2033      2036      2035      2033      2036      2033      2036      2037
      2033      2036      2038      2033      2036      2039      2037      2036      2038
      2037      2036      2039      2038      2036      2039      2036      2039      2040
      2036      2039      2041      2040      2039      2041      2039      2041      2042
      2039      2041      2043      2042      2041      2043      2041      2043      2044
      2041      2043      2045      2041      2043      2046      2044      2043      2045
      2044      2043      2046      2045      2043      2046      2043      2046      2047
      2043      2046      2048      2047      2046      2048      2046      2048      2049
      2046      2048      2050      2049      2048      2050      2048      2050      2051
      2048      2050      2052      2048      2050      2053      2051      2050      2052
      2051      2050      2053      2052      2050      2053      2050      2053      2054
      2050      2053      2055      2054      2053      2055      2053      2055      2056
      2053      2055      2057      2056      2055      2057      2055      2057      2058
      2055      2057      2059      2055      2057      2060      2058      2057      2059
      2058      2057      2060      2059      2057      2060      2057      2060      2061
      2057      2060      2062      2061      2060      2062      2060      2062      2063
      2060      2062      2064      2063      2062      2064      2062      2064      2065
      2062      2064      2066      2062      2064      2067      2065      2064      2066
      2065      2064      2067      2066      2064      2067      2064      2067      2068
      2064      2067      2069      2064      2067      2070      2068      2067      2069
      2068      2067      2070      2069      2067      2070      2067      2070      2071
      2067      2070      2072      2067      2070      2073      2071      2070      2072
      2071      2070      2073      2072      2070      2073      2070      2073      2074
      2070      2073      2075      2070      2073      2076      2074      2073      2075
      2074      2073      2076      2075      2073      2076      2073      2076      2077
      2073      2076      2078      2073      2076      2079      2077      2076      2078
      2077      2076      2079      2078      2076      2079      2030      2080      2081
      2030      2080      2082      2030      2080      2083      2081      2080      2082
      2081      2080      2083      2082      2080      2083      2080      2083      2084
      2080      2083      2085      2080      2083      2086      2084      2083      2085
      2084      2083      2086      2085      2083      2086      2083      2086      2087
      2083      2086      2088      2083      2086      2089      2087      2086      2088
      2087      2086      2089      2088      2086      2089      2086      2089      2090
      2086      2089      2091      2086      2089      2092      2090      2089      2091
      2090      2089      2092      2091      2089      2092      2089      2092      2093
      2089      2092      2094      2089      2092      2095      2093      2092      2094
      2093      2092      2095      2094      2092      2095      2092      2095      2096
      2092      2095      2097      2092      2095      2098      2096      2095      2097
      2096      2095      2098      2097      2095      2098      2095      2098      2099
      2095      2098      2100      2095      2098      2101      2099      2098      2100
      2099      2098      2101      2100      2098      2101      2098      2101      2102
      2098      2101      2103      2098      2101      2104      2102      2101      2103
      2102      2101      2104      2103      2101      2104      2101      2104      2105
      2101      2104      2106      2101      2104      2107      2105      2104      2106
      2105      2104      2107      2106      2104      2107      2104      2107      2108
      2104      2107      2109      2104      2107      2110      2108      2107      2109
      2108      2107      2110      2109      2107      2110      2107      2110      2111
      2107      2110      2112      2107      2110      2113      2111      2110      2112
      2111      2110      2113      2112      2110      2113      2110      2113      2114
      2110      2113      2115      2110      2113      2116      2114      2113      2115
      2114      2113      2116      2115      2113      2116      2113      2116      2117
      2113      2116      2118      2113      2116      2119      2117      2116      2118
      2117      2116      2119      2118      2116      2119      2116      2119      2120
      2116      2119      2121      2116      2119      2122      2120      2119      2121
      2120      2119      2122      2121      2119      2122      2119      2122      2123
      2119      2122      2124      2119      2122      2125      2123      2122      2124
      2123      2122      2125      2124      2122      2125      2122      2125      2126
      2122      2125      2127      2122      2125      2128      2126      2125      2127
      2126      2125      2128      2127      2125      2128     22448     22447     22449
     22451     22450     22452     22454     22453     22455     22457     22456     22458
     22460     22459     22461     22463     22462     22464     22466     22465     22467
     22469     22468     22470     22472     22471     22473     22475     22474     22476
     22478     22477     22479     22481     22480     22482     22484     22483     22485
     22487     22486     22488     22490     22489     22491     22493     22492     22494
     22496     22495     22497     22499     22498     22500     22502     22501     22503
     22505     22504     22506     22508     22507     22509     22511     22510     22512
     22514     22513     22515     22517     22516     22518     22520     22519     22521
     22523     22522     22524     22526     22525     22527     22529     22528     22530
     22532     22531     22533     22535     22534     22536     22538     22537     22539
     22541     22540     22542     22544     22543     22545     22547     22546     22548
     22550     22549     22551     22553     22552     22554     22556     22555     22557
     22559     22558     22560     22562     22561     22563     22565     22564     22566
     22568     22567     22569     22571     22570     22572     22574     22573     22575
     22577     22576     22578     22580     22579     22581     22583     22582     22584
     22586     22585     22587     22589     22588     22590     22592     22591     22593
     22595     22594     22596     22598     22597     22599     22601     22600     22602
     22604     22603     22605     22607     22606     22608     22610     22609     22611
     22613     22612     22614     22616     22615     22617     22619     22618     22620
     22622     22621     22623     22625     22624     22626     22628     22627     22629
     22631     22630     22632     22634     22633     22635     22637     22636     22638
     22640     22639     22641     22643     22642     22644     22646     22645     22647
     22649     22648     22650     22652     22651     22653     22655     22654     22656
     22658     22657     22659     22661     22660     22662     22664     22663     22665
     22667     22666     22668     22670     22669     22671     22673     22672     22674
     22676     22675     22677     22679     22678     22680     22682     22681     22683
     22685     22684     22686     22688     22687     22689     22691     22690     22692
     22694     22693     22695     22697     22696     22698     22700     22699     22701
     22703     22702     22704     22706     22705     22707     22709     22708     22710
     22712     22711     22713     22715     22714     22716     22718     22717     22719
     22721     22720     22722     22724     22723     22725     22727     22726     22728
     22730     22729     22731     22733     22732     22734     22736     22735     22737
     22739     22738     22740     22742     22741     22743     22745     22744     22746
     22748     22747     22749     22751     22750     22752     22754     22753     22755
     22757     22756     22758     22760     22759     22761     22763     22762     22764
     22766     22765     22767     22769     22768     22770     22772     22771     22773
     22775     22774     22776     22778     22777     22779     22781     22780     22782
     22784     22783     22785     22787     22786     22788     22790     22789     22791
     22793     22792     22794     22796     22795     22797     22799     22798     22800
     22802     22801     22803     22805     22804     22806     22808     22807     22809
     22811     22810     22812     22814     22813     22815     22817     22816     22818
     22820     22819     22821     22823     22822     22824     22826     22825     22827
     22829     22828     22830     22832     22831     22833     22835     22834     22836
     22838     22837     22839     22841     22840     22842     22844     22843     22845
     22847     22846     22848     22850     22849     22851     22853     22852     22854
     22856     22855     22857     22859     22858     22860     22862     22861     22863
     22865     22864     22866     22868     22867     22869     22871     22870     22872
     22874     22873     22875     22877     22876     22878     22880     22879     22881
     22883     22882     22884     22886     22885     22887     22889     22888     22890
     22892     22891     22893     22895     22894     22896     22898     22897     22899
     22901     22900     22902     22904     22903     22905     22907     22906     22908
     22910     22909     22911     22913     22912     22914     22916     22915     22917
     22919     22918     22920     22922     22921     22923     22925     22924     22926
     22928     22927     22929     22931     22930     22932     22934     22933     22935
     22937     22936     22938     22940     22939     22941     22943     22942     22944
     22946     22945     22947     22949     22948     22950     22952     22951     22953
     22955     22954     22956     22958     22957     22959     22961     22960     22962
     22964     22963     22965     22967     22966     22968     22970     22969     22971
     22973     22972     22974     22976     22975     22977     22979     22978     22980
     22982     22981     22983     22985     22984     22986     22988     22987     22989
     22991     22990     22992     22994     22993     22995     22997     22996     22998
     23000     22999     23001     23003     23002     23004     23006     23005     23007
     23009     23008     23010     23012     23011     23013     23015     23014     23016
     23018     23017     23019     23021     23020     23022     23024     23023     23025
     23027     23026     23028     23030     23029     23031     23033     23032     23034
     23036     23035     23037     23039     23038     23040     23042     23041     23043
     23045     23044     23046     23048     23047     23049     23051     23050     23052
     23054     23053     23055     23057     23056     23058     23060     23059     23061
     23063     23062     23064     23066     23065     23067     23069     23068     23070
     23072     23071     23073     23075     23074     23076     23078     23077     23079
     23081     23080     23082     23084     23083     23085     23087     23086     23088
     23090     23089     23091     23093     23092     23094     23096     23095     23097
     23099     23098     23100     23102     23101     23103     23105     23104     23106
     23108     23107     23109     23111     23110     23112     23114     23113     23115
     23117     23116     23118     23120     23119     23121     23123     23122     23124
     23126     23125     23127     23129     23128     23130     23132     23131     23133
     23135     23134     23136     23138     23137     23139     23141     23140     23142
     23144     23143     23145     23147     23146     23148     23150     23149     23151
     23153     23152     23154     23156     23155     23157     23159     23158     23160
     23162     23161     23163     23165     23164     23166     23168     23167     23169
     23171     23170     23172     23174     23173     23175     23177     23176     23178
     23180     23179     23181     23183     23182     23184     23186     23185     23187
     23189     23188     23190     23192     23191     23193     23195     23194     23196
     23198     23197     23199     23201     23200     23202     23204     23203     23205
     23207     23206     23208     23210     23209     23211     23213     23212     23214
     23216     23215     23217     23219     23218     23220     23222     23221     23223
     23225     23224     23226     23228     23227     23229     23231     23230     23232
     23234     23233     23235     23237     23236     23238     23240     23239     23241
     23243     23242     23244     23246     23245     23247     23249     23248     23250
     23252     23251     23253     23255     23254     23256     23258     23257     23259
     23261     23260     23262     23264     23263     23265     23267     23266     23268
     23270     23269     23271     23273     23272     23274     23276     23275     23277
     23279     23278     23280     23282     23281     23283     23285     23284     23286
     23288     23287     23289     23291     23290     23292     23294     23293     23295
     23297     23296     23298     23300     23299     23301     23303     23302     23304
     23306     23305     23307     23309     23308     23310     23312     23311     23313
     23315     23314     23316     23318     23317     23319     23321     23320     23322
     23324     23323     23325     23327     23326     23328     23330     23329     23331
     23333     23332     23334     23336     23335     23337     23339     23338     23340
     23342     23341     23343     23345     23344     23346     23348     23347     23349
     23351     23350     23352     23354     23353     23355     23357     23356     23358
     23360     23359     23361     23363     23362     23364     23366     23365     23367
     23369     23368     23370     23372     23371     23373     23375     23374     23376
     23378     23377     23379     23381     23380     23382     23384     23383     23385
     23387     23386     23388     23390     23389     23391     23393     23392     23394
     23396     23395     23397     23399     23398     23400     23402     23401     23403
     23405     23404     23406     23408     23407     23409     23411     23410     23412
     23414     23413     23415     23417     23416     23418     23420     23419     23421
     23423     23422     23424     23426     23425     23427     23429     23428     23430
     23432     23431     23433     23435     23434     23436     23438     23437     23439
     23441     23440     23442     23444     23443     23445     23447     23446     23448
     23450     23449     23451     23453     23452     23454     23456     23455     23457
     23459     23458     23460     23462     23461     23463     23465     23464     23466
     23468     23467     23469     23471     23470     23472     23474     23473     23475
     23477     23476     23478     23480     23479     23481     23483     23482     23484
     23486     23485     23487     23489     23488     23490     23492     23491     23493
     23495     23494     23496     23498     23497     23499     23501     23500     23502
     23504     23503     23505     23507     23506     23508     23510     23509     23511
     23513     23512     23514     23516     23515     23517     23519     23518     23520
     23522     23521     23523     23525     23524     23526     23528     23527     23529
     23531     23530     23532     23534     23533     23535     23537     23536     23538
     23540     23539     23541     23543     23542     23544     23546     23545     23547
     23549     23548     23550     23552     23551     23553     23555     23554     23556
     23558     23557     23559     23561     23560     23562     23564     23563     23565
     23567     23566     23568     23570     23569     23571     23573     23572     23574
     23576     23575     23577     23579     23578     23580     23582     23581     23583
     23585     23584     23586     23588     23587     23589     23591     23590     23592
     23594     23593     23595     23597     23596     23598     23600     23599     23601
     23603     23602     23604     23606     23605     23607     23609     23608     23610
     23612     23611     23613     23615     23614     23616     23618     23617     23619
     23621     23620     23622     23624     23623     23625     23627     23626     23628
     23630     23629     23631     23633     23632     23634     23636     23635     23637
     23639     23638     23640     23642     23641     23643     23645     23644     23646
     23648     23647     23649     23651     23650     23652     23654     23653     23655
     23657     23656     23658     23660     23659     23661     23663     23662     23664
     23666     23665     23667     23669     23668     23670     23672     23671     23673
     23675     23674     23676     23678     23677     23679     23681     23680     23682
     23684     23683     23685     23687     23686     23688     23690     23689     23691
     23693     23692     23694     23696     23695     23697     23699     23698     23700
     23702     23701     23703     23705     23704     23706     23708     23707     23709
     23711     23710     23712     23714     23713     23715     23717     23716     23718
     23720     23719     23721     23723     23722     23724     23726     23725     23727
     23729     23728     23730     23732     23731     23733     23735     23734     23736
     23738     23737     23739     23741     23740     23742     23744     23743     23745
     23747     23746     23748     23750     23749     23751     23753     23752     23754
     23756     23755     23757     23759     23758     23760     23762     23761     23763
     23765     23764     23766     23768     23767     23769     23771     23770     23772
     23774     23773     23775     23777     23776     23778     23780     23779     23781
     23783     23782     23784     23786     23785     23787     23789     23788     23790
     23792     23791     23793     23795     23794     23796     23798     23797     23799
     23801     23800     23802     23804     23803     23805     23807     23806     23808
     23810     23809     23811     23813     23812     23814     23816     23815     23817
     23819     23818     23820     23822     23821     23823     23825     23824     23826
     23828     23827     23829     23831     23830     23832     23834     23833     23835
     23837     23836     23838     23840     23839     23841     23843     23842     23844
     23846     23845     23847     23849     23848     23850     23852     23851     23853
     23855     23854     23856     23858     23857     23859     23861     23860     23862
     23864     23863     23865     23867     23866     23868     23870     23869     23871
     23873     23872     23874     23876     23875     23877     23879     23878     23880
     23882     23881     23883     23885     23884     23886     23888     23887     23889
     23891     23890     23892     23894     23893     23895     23897     23896     23898
     23900     23899     23901     23903     23902     23904     23906     23905     23907
     23909     23908     23910     23912     23911     23913     23915     23914     23916
     23918     23917     23919     23921     23920     23922     23924     23923     23925
     23927     23926     23928     23930     23929     23931     23933     23932     23934
     23936     23935     23937     23939     23938     23940     23942     23941     23943
     23945     23944     23946     23948     23947     23949     23951     23950     23952
     23954     23953     23955     23957     23956     23958     23960     23959     23961
     23963     23962     23964     23966     23965     23967     23969     23968     23970
     23972     23971     23973     23975     23974     23976     23978     23977     23979
     23981     23980     23982     23984     23983     23985     23987     23986     23988
     23990     23989     23991     23993     23992     23994     23996     23995     23997
     23999     23998     24000     24002     24001     24003     24005     24004     24006
     24008     24007     24009     24011     24010     24012     24014     24013     24015
     24017     24016     24018     24020     24019     24021     24023     24022     24024
     24026     24025     24027     24029     24028     24030     24032     24031     24033
     24035     24034     24036     24038     24037     24039     24041     24040     24042
     24044     24043     24045     24047     24046     24048     24050     24049     24051
     24053     24052     24054     24056     24055     24057     24059     24058     24060
     24062     24061     24063     24065     24064     24066     24068     24067     24069
     24071     24070     24072     24074     24073     24075     24077     24076     24078
     24080     24079     24081     24083     24082     24084     24086     24085     24087
     24089     24088     24090     24092     24091     24093     24095     24094     24096
     24098     24097     24099     24101     24100     24102     24104     24103     24105
     24107     24106     24108     24110     24109     24111     24113     24112     24114
     24116     24115     24117     24119     24118     24120     24122     24121     24123
     24125     24124     24126     24128     24127     24129     24131     24130     24132
     24134     24133     24135     24137     24136     24138     24140     24139     24141
     24143     24142     24144     24146     24145     24147     24149     24148     24150
     24152     24151     24153     24155     24154     24156     24158     24157     24159
     24161     24160     24162     24164     24163     24165     24167     24166     24168
     24170     24169     24171     24173     24172     24174     24176     24175     24177
     24179     24178     24180     24182     24181     24183     24185     24184     24186
     24188     24187     24189     24191     24190     24192     24194     24193     24195
     24197     24196     24198     24200     24199     24201     24203     24202     24204
     24206     24205     24207     24209     24208     24210     24212     24211     24213
     24215     24214     24216     24218     24217     24219     24221     24220     24222
     24224     24223     24225     24227     24226     24228     24230     24229     24231
     24233     24232     24234     24236     24235     24237     24239     24238     24240
     24242     24241     24243     24245     24244     24246     24248     24247     24249
     24251     24250     24252     24254     24253     24255     24257     24256     24258
     24260     24259     24261     24263     24262     24264     24266     24265     24267
     24269     24268     24270     24272     24271     24273     24275     24274     24276
     24278     24277     24279     24281     24280     24282     24284     24283     24285
     24287     24286     24288     24290     24289     24291     24293     24292     24294
     24296     24295     24297     24299     24298     24300     24302     24301     24303
     24305     24304     24306     24308     24307     24309     24311     24310     24312
     24314     24313     24315     24317     24316     24318     24320     24319     24321
     24323     24322     24324     24326     24325     24327     24329     24328     24330
     24332     24331     24333     24335     24334     24336     24338     24337     24339
     24341     24340     24342     24344     24343     24345     24347     24346     24348
     24350     24349     24351     24353     24352     24354     24356     24355     24357
     24359     24358     24360     24362     24361     24363     24365     24364     24366
     24368     24367     24369     24371     24370     24372     24374     24373     24375
     24377     24376     24378     24380     24379     24381     24383     24382     24384
     24386     24385     24387     24389     24388     24390     24392     24391     24393
     24395     24394     24396     24398     24397     24399     24401     24400     24402
     24404     24403     24405     24407     24406     24408     24410     24409     24411
     24413     24412     24414     24416     24415     24417     24419     24418     24420
     24422     24421     24423     24425     24424     24426     24428     24427     24429
     24431     24430     24432     24434     24433     24435     24437     24436     24438
     24440     24439     24441     24443     24442     24444     24446     24445     24447
     24449     24448     24450     24452     24451     24453     24455     24454     24456
     24458     24457     24459     24461     24460     24462     24464     24463     24465
     24467     24466     24468     24470     24469     24471     24473     24472     24474
     24476     24475     24477     24479     24478     24480     24482     24481     24483
     24485     24484     24486     24488     24487     24489     24491     24490     24492
     24494     24493     24495     24497     24496     24498     24500     24499     24501
     24503     24502     24504     24506     24505     24507     24509     24508     24510
     24512     24511     24513     24515     24514     24516     24518     24517     24519
     24521     24520     24522     24524     24523     24525     24527     24526     24528
     24530     24529     24531     24533     24532     24534     24536     24535     24537
     24539     24538     24540     24542     24541     24543     24545     24544     24546
     24548     24547     24549     24551     24550     24552     24554     24553     24555
     24557     24556     24558     24560     24559     24561     24563     24562     24564
     24566     24565     24567     24569     24568     24570     24572     24571     24573
     24575     24574     24576     24578     24577     24579     24581     24580     24582
     24584     24583     24585     24587     24586     24588     24590     24589     24591
     24593     24592     24594     24596     24595     24597     24599     24598     24600
     24602     24601     24603     24605     24604     24606     24608     24607     24609
     24611     24610     24612     24614     24613     24615     24617     24616     24618
     24620     24619     24621     24623     24622     24624     24626     24625     24627
     24629     24628     24630     24632     24631     24633     24635     24634     24636
     24638     24637     24639     24641     24640     24642     24644     24643     24645
     24647     24646     24648     24650     24649     24651     24653     24652     24654
     24656     24655     24657     24659     24658     24660     24662     24661     24663
     24665     24664     24666     24668     24667     24669     24671     24670     24672
     24674     24673     24675     24677     24676     24678     24680     24679     24681
     24683     24682     24684     24686     24685     24687     24689     24688     24690
     24692     24691     24693     24695     24694     24696     24698     24697     24699
     24701     24700     24702     24704     24703     24705     24707     24706     24708
     24710     24709     24711     24713     24712     24714     24716     24715     24717
     24719     24718     24720     24722     24721     24723     24725     24724     24726
     24728     24727     24729     24731     24730     24732     24734     24733     24735
     24737     24736     24738     24740     24739     24741     24743     24742     24744
     24746     24745     24747     24749     24748     24750     24752     24751     24753
     24755     24754     24756     24758     24757     24759     24761     24760     24762
     24764     24763     24765     24767     24766     24768     24770     24769     24771
     24773     24772     24774     24776     24775     24777     24779     24778     24780
     24782     24781     24783     24785     24784     24786     24788     24787     24789
     24791     24790     24792     24794     24793     24795     24797     24796     24798
     24800     24799     24801     24803     24802     24804     24806     24805     24807
     24809     24808     24810     24812     24811     24813     24815     24814     24816
     24818     24817     24819     24821     24820     24822     24824     24823     24825
     24827     24826     24828     24830     24829     24831     24833     24832     24834
     24836     24835     24837     24839     24838     24840     24842     24841     24843
     24845     24844     24846     24848     24847     24849     24851     24850     24852
     24854     24853     24855     24857     24856     24858     24860     24859     24861
     24863     24862     24864     24866     24865     24867     24869     24868     24870
     24872     24871     24873     24875     24874     24876     24878     24877     24879
     24881     24880     24882     24884     24883     24885     24887     24886     24888
     24890     24889     24891     24893     24892     24894     24896     24895     24897
     24899     24898     24900     24902     24901     24903     24905     24904     24906
     24908     24907     24909     24911     24910     24912     24914     24913     24915
     24917     24916     24918     24920     24919     24921     24923     24922     24924
     24926     24925     24927     24929     24928     24930     24932     24931     24933
     24935     24934     24936     24938     24937     24939     24941     24940     24942
     24944     24943     24945     24947     24946     24948     24950     24949     24951
     24953     24952     24954     24956     24955     24957     24959     24958     24960
     24962     24961     24963     24965     24964     24966     24968     24967     24969
     24971     24970     24972     24974     24973     24975     24977     24976     24978
     24980     24979     24981     24983     24982     24984     24986     24985     24987
     24989     24988     24990     24992     24991     24993     24995     24994     24996
     24998     24997     24999     25001     25000     25002     25004     25003     25005
     25007     25006     25008     25010     25009     25011     25013     25012     25014
     25016     25015     25017     25019     25018     25020     25022     25021     25023
     25025     25024     25026     25028     25027     25029     25031     25030     25032
     25034     25033     25035     25037     25036     25038     25040     25039     25041
     25043     25042     25044     25046     25045     25047     25049     25048     25050
     25052     25051     25053     25055     25054     25056     25058     25057     25059
     25061     25060     25062     25064     25063     25065     25067     25066     25068
     25070     25069     25071     25073     25072     25074     25076     25075     25077
     25079     25078     25080     25082     25081     25083     25085     25084     25086
     25088     25087     25089     25091     25090     25092     25094     25093     25095
     25097     25096     25098     25100     25099     25101     25103     25102     25104
     25106     25105     25107     25109     25108     25110     25112     25111     25113
     25115     25114     25116     25118     25117     25119     25121     25120     25122
     25124     25123     25125     25127     25126     25128     25130     25129     25131
     25133     25132     25134     25136     25135     25137     25139     25138     25140
     25142     25141     25143     25145     25144     25146     25148     25147     25149
     25151     25150     25152     25154     25153     25155     25157     25156     25158
     25160     25159     25161     25163     25162     25164     25166     25165     25167
     25169     25168     25170     25172     25171     25173     25175     25174     25176
     25178     25177     25179     25181     25180     25182     25184     25183     25185
     25187     25186     25188     25190     25189     25191     25193     25192     25194
     25196     25195     25197     25199     25198     25200     25202     25201     25203
     25205     25204     25206     25208     25207     25209     25211     25210     25212
     25214     25213     25215     25217     25216     25218     25220     25219     25221
     25223     25222     25224     25226     25225     25227     25229     25228     25230
     25232     25231     25233     25235     25234     25236     25238     25237     25239
     25241     25240     25242     25244     25243     25245     25247     25246     25248
     25250     25249     25251     25253     25252     25254     25256     25255     25257
     25259     25258     25260     25262     25261     25263     25265     25264     25266
     25268     25267     25269     25271     25270     25272     25274     25273     25275
     25277     25276     25278     25280     25279     25281     25283     25282     25284
     25286     25285     25287     25289     25288     25290     25292     25291     25293
     25295     25294     25296     25298     25297     25299     25301     25300     25302
     25304     25303     25305     25307     25306     25308     25310     25309     25311
     25313     25312     25314     25316     25315     25317     25319     25318     25320
     25322     25321     25323     25325     25324     25326     25328     25327     25329
     25331     25330     25332     25334     25333     25335     25337     25336     25338
     25340     25339     25341     25343     25342     25344     25346     25345     25347
     25349     25348     25350     25352     25351     25353     25355     25354     25356
     25358     25357     25359     25361     25360     25362     25364     25363     25365
     25367     25366     25368     25370     25369     25371     25373     25372     25374
     25376     25375     25377     25379     25378     25380     25382     25381     25383
     25385     25384     25386     25388     25387     25389     25391     25390     25392
     25394     25393     25395     25397     25396     25398     25400     25399     25401
     25403     25402     25404     25406     25405     25407     25409     25408     25410
     25412     25411     25413     25415     25414     25416     25418     25417     25419
     25421     25420     25422     25424     25423     25425     25427     25426     25428
     25430     25429     25431     25433     25432     25434     25436     25435     25437
     25439     25438     25440     25442     25441     25443     25445     25444     25446
     25448     25447     25449     25451     25450     25452     25454     25453     25455
     25457     25456     25458     25460     25459     25461     25463     25462     25464
     25466     25465     25467     25469     25468     25470     25472     25471     25473
     25475     25474     25476     25478     25477     25479     25481     25480     25482
     25484     25483     25485     25487     25486     25488     25490     25489     25491
     25493     25492     25494     25496     25495     25497     25499     25498     25500
     25502     25501     25503     25505     25504     25506     25508     25507     25509
     25511     25510     25512     25514     25513     25515     25517     25516     25518
     25520     25519     25521     25523     25522     25524     25526     25525     25527
     25529     25528     25530     25532     25531     25533     25535     25534     25536
     25538     25537     25539     25541     25540     25542     25544     25543     25545
     25547     25546     25548     25550     25549     25551     25553     25552     25554
     25556     25555     25557     25559     25558     25560     25562     25561     25563
     25565     25564     25566     25568     25567     25569     25571     25570     25572
     25574     25573     25575     25577     25576     25578     25580     25579     25581
     25583     25582     25584     25586     25585     25587     25589     25588     25590
     25592     25591     25593     25595     25594     25596     25598     25597     25599
     25601     25600     25602     25604     25603     25605     25607     25606     25608
     25610     25609     25611     25613     25612     25614     25616     25615     25617
     25619     25618     25620     25622     25621     25623     25625     25624     25626
     25628     25627     25629     25631     25630     25632     25634     25633     25635
     25637     25636     25638     25640     25639     25641     25643     25642     25644
     25646     25645     25647     25649     25648     25650     25652     25651     25653
     25655     25654     25656     25658     25657     25659     25661     25660     25662
     25664     25663     25665     25667     25666     25668     25670     25669     25671
     25673     25672     25674     25676     25675     25677     25679     25678     25680
     25682     25681     25683     25685     25684     25686     25688     25687     25689
     25691     25690     25692     25694     25693     25695     25697     25696     25698
     25700     25699     25701     25703     25702     25704     25706     25705     25707
     25709     25708     25710     25712     25711     25713     25715     25714     25716
     25718     25717     25719     25721     25720     25722     25724     25723     25725
     25727     25726     25728     25730     25729     25731     25733     25732     25734
     25736     25735     25737     25739     25738     25740     25742     25741     25743
     25745     25744     25746     25748     25747     25749     25751     25750     25752
     25754     25753     25755     25757     25756     25758     25760     25759     25761
     25763     25762     25764     25766     25765     25767     25769     25768     25770
     25772     25771     25773     25775     25774     25776     25778     25777     25779
     25781     25780     25782     25784     25783     25785     25787     25786     25788
     25790     25789     25791     25793     25792     25794     25796     25795     25797
     25799     25798     25800     25802     25801     25803     25805     25804     25806
     25808     25807     25809     25811     25810     25812     25814     25813     25815
     25817     25816     25818     25820     25819     25821     25823     25822     25824
     25826     25825     25827     25829     25828     25830     25832     25831     25833
     25835     25834     25836     25838     25837     25839     25841     25840     25842
     25844     25843     25845     25847     25846     25848     25850     25849     25851
     25853     25852     25854     25856     25855     25857     25859     25858     25860
     25862     25861     25863     25865     25864     25866     25868     25867     25869
     25871     25870     25872     25874     25873     25875     25877     25876     25878
     25880     25879     25881     25883     25882     25884     25886     25885     25887
     25889     25888     25890     25892     25891     25893     25895     25894     25896
     25898     25897     25899     25901     25900     25902     25904     25903     25905
     25907     25906     25908     25910     25909     25911     25913     25912     25914
     25916     25915     25917     25919     25918     25920     25922     25921     25923
     25925     25924     25926     25928     25927     25929     25931     25930     25932
     25934     25933     25935     25937     25936     25938     25940     25939     25941
     25943     25942     25944     25946     25945     25947     25949     25948     25950
     25952     25951     25953     25955     25954     25956     25958     25957     25959
     25961     25960     25962     25964     25963     25965     25967     25966     25968
     25970     25969     25971     25973     25972     25974     25976     25975     25977
     25979     25978     25980     25982     25981     25983     25985     25984     25986
     25988     25987     25989     25991     25990     25992     25994     25993     25995
     25997     25996     25998     26000     25999     26001     26003     26002     26004
     26006     26005     26007     26009     26008     26010     26012     26011     26013
     26015     26014     26016     26018     26017     26019     26021     26020     26022
     26024     26023     26025     26027     26026     26028     26030     26029     26031
     26033     26032     26034     26036     26035     26037     26039     26038     26040
     26042     26041     26043     26045     26044     26046     26048     26047     26049
     26051     26050     26052     26054     26053     26055     26057     26056     26058
     26060     26059     26061     26063     26062     26064     26066     26065     26067
     26069     26068     26070     26072     26071     26073     26075     26074     26076
     26078     26077     26079     26081     26080     26082     26084     26083     26085
     26087     26086     26088     26090     26089     26091     26093     26092     26094
     26096     26095     26097     26099     26098     26100     26102     26101     26103
     26105     26104     26106     26108     26107     26109     26111     26110     26112
     26114     26113     26115     26117     26116     26118     26120     26119     26121
     26123     26122     26124     26126     26125     26127     26129     26128     26130
     26132     26131     26133     26135     26134     26136     26138     26137     26139
     26141     26140     26142     26144     26143     26145     26147     26146     26148
     26150     26149     26151     26153     26152     26154     26156     26155     26157
     26159     26158     26160     26162     26161     26163     26165     26164     26166
     26168     26167     26169     26171     26170     26172     26174     26173     26175
     26177     26176     26178     26180     26179     26181     26183     26182     26184
     26186     26185     26187     26189     26188     26190     26192     26191     26193
     26195     26194     26196     26198     26197     26199     26201     26200     26202
     26204     26203     26205     26207     26206     26208     26210     26209     26211
     26213     26212     26214     26216     26215     26217     26219     26218     26220
     26222     26221     26223     26225     26224     26226     26228     26227     26229
     26231     26230     26232     26234     26233     26235     26237     26236     26238
     26240     26239     26241     26243     26242     26244     26246     26245     26247
     26249     26248     26250     26252     26251     26253     26255     26254     26256
     26258     26257     26259     26261     26260     26262     26264     26263     26265
     26267     26266     26268     26270     26269     26271     26273     26272     26274
     26276     26275     26277     26279     26278     26280     26282     26281     26283
     26285     26284     26286     26288     26287     26289     26291     26290     26292
     26294     26293     26295     26297     26296     26298     26300     26299     26301
     26303     26302     26304     26306     26305     26307     26309     26308     26310
     26312     26311     26313     26315     26314     26316     26318     26317     26319
     26321     26320     26322     26324     26323     26325     26327     26326     26328
     26330     26329     26331     26333     26332     26334     26336     26335     26337
     26339     26338     26340     26342     26341     26343     26345     26344     26346
     26348     26347     26349     26351     26350     26352     26354     26353     26355
     26357     26356     26358     26360     26359     26361     26363     26362     26364
     26366     26365     26367     26369     26368     26370     26372     26371     26373
     26375     26374     26376     26378     26377     26379     26381     26380     26382
     26384     26383     26385     26387     26386     26388     26390     26389     26391
     26393     26392     26394     26396     26395     26397     26399     26398     26400
     26402     26401     26403     26405     26404     26406     26408     26407     26409
     26411     26410     26412     26414     26413     26415     26417     26416     26418
     26420     26419     26421     26423     26422     26424     26426     26425     26427
     26429     26428     26430     26432     26431     26433     26435     26434     26436
     26438     26437     26439     26441     26440     26442     26444     26443     26445
     26447     26446     26448     26450     26449     26451     26453     26452     26454
     26456     26455     26457     26459     26458     26460     26462     26461     26463
     26465     26464     26466     26468     26467     26469     26471     26470     26472
     26474     26473     26475     26477     26476     26478     26480     26479     26481
     26483     26482     26484     26486     26485     26487     26489     26488     26490
     26492     26491     26493     26495     26494     26496     26498     26497     26499
     26501     26500     26502     26504     26503     26505     26507     26506     26508
     26510     26509     26511     26513     26512     26514     26516     26515     26517
     26519     26518     26520     26522     26521     26523     26525     26524     26526
     26528     26527     26529     26531     26530     26532     26534     26533     26535
     26537     26536     26538     26540     26539     26541     26543     26542     26544
     26546     26545     26547     26549     26548     26550     26552     26551     26553
     26555     26554     26556     26558     26557     26559     26561     26560     26562
     26564     26563     26565     26567     26566     26568     26570     26569     26571
     26573     26572     26574     26576     26575     26577     26579     26578     26580
     26582     26581     26583     26585     26584     26586     26588     26587     26589
     26591     26590     26592     26594     26593     26595     26597     26596     26598
     26600     26599     26601     26603     26602     26604     26606     26605     26607
     26609     26608     26610     26612     26611     26613     26615     26614     26616
     26618     26617     26619     26621     26620     26622     26624     26623     26625
     26627     26626     26628     26630     26629     26631     26633     26632     26634
     26636     26635     26637     26639     26638     26640     26642     26641     26643
     26645     26644     26646     26648     26647     26649     26651     26650     26652
     26654     26653     26655     26657     26656     26658     26660     26659     26661
     26663     26662     26664     26666     26665     26667     26669     26668     26670
     26672     26671     26673     26675     26674     26676     26678     26677     26679
     26681     26680     26682     26684     26683     26685     26687     26686     26688
     26690     26689     26691     26693     26692     26694     26696     26695     26697
     26699     26698     26700     26702     26701     26703     26705     26704     26706
     26708     26707     26709     26711     26710     26712     26714     26713     26715
     26717     26716     26718     26720     26719     26721     26723     26722     26724
     26726     26725     26727     26729     26728     26730     26732     26731     26733
     26735     26734     26736     26738     26737     26739     26741     26740     26742
     26744     26743     26745     26747     26746     26748     26750     26749     26751
     26753     26752     26754     26756     26755     26757     26759     26758     26760
     26762     26761     26763     26765     26764     26766     26768     26767     26769
     26771     26770     26772     26774     26773     26775     26777     26776     26778
     26780     26779     26781     26783     26782     26784     26786     26785     26787
     26789     26788     26790     26792     26791     26793     26795     26794     26796
     26798     26797     26799     26801     26800     26802     26804     26803     26805
     26807     26806     26808     26810     26809     26811     26813     26812     26814
     26816     26815     26817     26819     26818     26820     26822     26821     26823
     26825     26824     26826     26828     26827     26829     26831     26830     26832
     26834     26833     26835     26837     26836     26838     26840     26839     26841
     26843     26842     26844     26846     26845     26847     26849     26848     26850
     26852     26851     26853     26855     26854     26856     26858     26857     26859
     26861     26860     26862     26864     26863     26865     26867     26866     26868
     26870     26869     26871     26873     26872     26874     26876     26875     26877
     26879     26878     26880     26882     26881     26883     26885     26884     26886
     26888     26887     26889     26891     26890     26892     26894     26893     26895
     26897     26896     26898     26900     26899     26901     26903     26902     26904
     26906     26905     26907     26909     26908     26910     26912     26911     26913
     26915     26914     26916     26918     26917     26919     26921     26920     26922
     26924     26923     26925     26927     26926     26928     26930     26929     26931
     26933     26932     26934     26936     26935     26937     26939     26938     26940
     26942     26941     26943     26945     26944     26946     26948     26947     26949
     26951     26950     26952     26954     26953     26955     26957     26956     26958
     26960     26959     26961     26963     26962     26964     26966     26965     26967
     26969     26968     26970     26972     26971     26973     26975     26974     26976
     26978     26977     26979     26981     26980     26982     26984     26983     26985
     26987     26986     26988     26990     26989     26991     26993     26992     26994
     26996     26995     26997     26999     26998     27000     27002     27001     27003
     27005     27004     27006     27008     27007     27009     27011     27010     27012
     27014     27013     27015     27017     27016     27018     27020     27019     27021
     27023     27022     27024     27026     27025     27027     27029     27028     27030
     27032     27031     27033     27035     27034     27036     27038     27037     27039
     27041     27040     27042     27044     27043     27045     27047     27046     27048
     27050     27049     27051     27053     27052     27054     27056     27055     27057
     27059     27058     27060     27062     27061     27063     27065     27064     27066
     27068     27067     27069     27071     27070     27072     27074     27073     27075
     27077     27076     27078     27080     27079     27081     27083     27082     27084
     27086     27085     27087     27089     27088     27090     27092     27091     27093
     27095     27094     27096     27098     27097     27099     27101     27100     27102
     27104     27103     27105     27107     27106     27108     27110     27109     27111
     27113     27112     27114     27116     27115     27117     27119     27118     27120
     27122     27121     27123     27125     27124     27126     27128     27127     27129
     27131     27130     27132     27134     27133     27135     27137     27136     27138
     27140     27139     27141     27143     27142     27144     27146     27145     27147
     27149     27148     27150     27152     27151     27153     27155     27154     27156
     27158     27157     27159     27161     27160     27162     27164     27163     27165
     27167     27166     27168     27170     27169     27171     27173     27172     27174
     27176     27175     27177     27179     27178     27180     27182     27181     27183
     27185     27184     27186     27188     27187     27189     27191     27190     27192
     27194     27193     27195     27197     27196     27198     27200     27199     27201
     27203     27202     27204     27206     27205     27207     27209     27208     27210
     27212     27211     27213     27215     27214     27216     27218     27217     27219
     27221     27220     27222     27224     27223     27225     27227     27226     27228
     27230     27229     27231     27233     27232     27234     27236     27235     27237
     27239     27238     27240     27242     27241     27243     27245     27244     27246
     27248     27247     27249     27251     27250     27252     27254     27253     27255
     27257     27256     27258     27260     27259     27261     27263     27262     27264
     27266     27265     27267     27269     27268     27270     27272     27271     27273
     27275     27274     27276     27278     27277     27279     27281     27280     27282
     27284     27283     27285     27287     27286     27288     27290     27289     27291
     27293     27292     27294     27296     27295     27297     27299     27298     27300
     27302     27301     27303     27305     27304     27306     27308     27307     27309
     27311     27310     27312     27314     27313     27315     27317     27316     27318
     27320     27319     27321     27323     27322     27324     27326     27325     27327
     27329     27328     27330     27332     27331     27333     27335     27334     27336
     27338     27337     27339     27341     27340     27342     27344     27343     27345
     27347     27346     27348     27350     27349     27351     27353     27352     27354
     27356     27355     27357     27359     27358     27360     27362     27361     27363
     27365     27364     27366     27368     27367     27369     27371     27370     27372
     27374     27373     27375     27377     27376     27378     27380     27379     27381
     27383     27382     27384     27386     27385     27387     27389     27388     27390
     27392     27391     27393     27395     27394     27396     27398     27397     27399
     27401     27400     27402     27404     27403     27405     27407     27406     27408
     27410     27409     27411     27413     27412     27414     27416     27415     27417
     27419     27418     27420     27422     27421     27423     27425     27424     27426
     27428     27427     27429     27431     27430     27432     27434     27433     27435
     27437     27436     27438     27440     27439     27441     27443     27442     27444
     27446     27445     27447     27449     27448     27450     27452     27451     27453
     27455     27454     27456     27458     27457     27459     27461     27460     27462
     27464     27463     27465     27467     27466     27468     27470     27469     27471
     27473     27472     27474     27476     27475     27477     27479     27478     27480
     27482     27481     27483     27485     27484     27486     27488     27487     27489
     27491     27490     27492     27494     27493     27495     27497     27496     27498
     27500     27499     27501     27503     27502     27504     27506     27505     27507
     27509     27508     27510     27512     27511     27513     27515     27514     27516
     27518     27517     27519     27521     27520     27522     27524     27523     27525
     27527     27526     27528     27530     27529     27531     27533     27532     27534
     27536     27535     27537     27539     27538     27540     27542     27541     27543
     27545     27544     27546     27548     27547     27549     27551     27550     27552
     27554     27553     27555     27557     27556     27558     27560     27559     27561
     27563     27562     27564     27566     27565     27567     27569     27568     27570
     27572     27571     27573     27575     27574     27576     27578     27577     27579
     27581     27580     27582     27584     27583     27585     27587     27586     27588
     27590     27589     27591     27593     27592     27594     27596     27595     27597
     27599     27598     27600     27602     27601     27603     27605     27604     27606
     27608     27607     27609     27611     27610     27612     27614     27613     27615
     27617     27616     27618     27620     27619     27621     27623     27622     27624
     27626     27625     27627     27629     27628     27630     27632     27631     27633
     27635     27634     27636     27638     27637     27639     27641     27640     27642
     27644     27643     27645     27647     27646     27648     27650     27649     27651
     27653     27652     27654     27656     27655     27657     27659     27658     27660
     27662     27661     27663     27665     27664     27666     27668     27667     27669
     27671     27670     27672     27674     27673     27675     27677     27676     27678
     27680     27679     27681     27683     27682     27684     27686     27685     27687
     27689     27688     27690     27692     27691     27693     27695     27694     27696
     27698     27697     27699     27701     27700     27702     27704     27703     27705
     27707     27706     27708     27710     27709     27711     27713     27712     27714
     27716     27715     27717     27719     27718     27720     27722     27721     27723
     27725     27724     27726     27728     27727     27729     27731     27730     27732
     27734     27733     27735     27737     27736     27738     27740     27739     27741
     27743     27742     27744     27746     27745     27747     27749     27748     27750
     27752     27751     27753     27755     27754     27756     27758     27757     27759
     27761     27760     27762     27764     27763     27765     27767     27766     27768
     27770     27769     27771     27773     27772     27774     27776     27775     27777
     27779     27778     27780     27782     27781     27783     27785     27784     27786
     27788     27787     27789     27791     27790     27792     27794     27793     27795
     27797     27796     27798     27800     27799     27801     27803     27802     27804
     27806     27805     27807     27809     27808     27810     27812     27811     27813
     27815     27814     27816     27818     27817     27819     27821     27820     27822
     27824     27823     27825     27827     27826     27828     27830     27829     27831
     27833     27832     27834     27836     27835     27837     27839     27838     27840
     27842     27841     27843     27845     27844     27846     27848     27847     27849
     27851     27850     27852     27854     27853     27855     27857     27856     27858
     27860     27859     27861     27863     27862     27864     27866     27865     27867
     27869     27868     27870     27872     27871     27873     27875     27874     27876
     27878     27877     27879     27881     27880     27882     27884     27883     27885
     27887     27886     27888     27890     27889     27891     27893     27892     27894
     27896     27895     27897     27899     27898     27900     27902     27901     27903
     27905     27904     27906     27908     27907     27909     27911     27910     27912
     27914     27913     27915     27917     27916     27918     27920     27919     27921
     27923     27922     27924     27926     27925     27927     27929     27928     27930
     27932     27931     27933     27935     27934     27936     27938     27937     27939
     27941     27940     27942     27944     27943     27945     27947     27946     27948
     27950     27949     27951     27953     27952     27954     27956     27955     27957
     27959     27958     27960     27962     27961     27963     27965     27964     27966
     27968     27967     27969     27971     27970     27972     27974     27973     27975
     27977     27976     27978     27980     27979     27981     27983     27982     27984
     27986     27985     27987     27989     27988     27990     27992     27991     27993
     27995     27994     27996     27998     27997     27999     28001     28000     28002
     28004     28003     28005     28007     28006     28008     28010     28009     28011
     28013     28012     28014     28016     28015     28017     28019     28018     28020
     28022     28021     28023     28025     28024     28026     28028     28027     28029
     28031     28030     28032     28034     28033     28035     28037     28036     28038
     28040     28039     28041     28043     28042     28044     28046     28045     28047
     28049     28048     28050     28052     28051     28053     28055     28054     28056
     28058     28057     28059     28061     28060     28062     28064     28063     28065
     28067     28066     28068     28070     28069     28071     28073     28072     28074
     28076     28075     28077     28079     28078     28080     28082     28081     28083
     28085     28084     28086     28088     28087     28089     28091     28090     28092
     28094     28093     28095     28097     28096     28098     28100     28099     28101
     28103     28102     28104     28106     28105     28107     28109     28108     28110
     28112     28111     28113     28115     28114     28116     28118     28117     28119
     28121     28120     28122     28124     28123     28125     28127     28126     28128
     28130     28129     28131     28133     28132     28134     28136     28135     28137
     28139     28138     28140     28142     28141     28143     28145     28144     28146
     28148     28147     28149     28151     28150     28152     28154     28153     28155
     28157     28156     28158     28160     28159     28161     28163     28162     28164
     28166     28165     28167     28169     28168     28170     28172     28171     28173
     28175     28174     28176     28178     28177     28179     28181     28180     28182
     28184     28183     28185     28187     28186     28188     28190     28189     28191
     28193     28192     28194     28196     28195     28197     28199     28198     28200
     28202     28201     28203     28205     28204     28206     28208     28207     28209
     28211     28210     28212     28214     28213     28215     28217     28216     28218
     28220     28219     28221     28223     28222     28224     28226     28225     28227
     28229     28228     28230     28232     28231     28233     28235     28234     28236
     28238     28237     28239     28241     28240     28242     28244     28243     28245
     28247     28246     28248     28250     28249     28251     28253     28252     28254
     28256     28255     28257     28259     28258     28260     28262     28261     28263
     28265     28264     28266     28268     28267     28269     28271     28270     28272
     28274     28273     28275     28277     28276     28278     28280     28279     28281
     28283     28282     28284     28286     28285     28287     28289     28288     28290
     28292     28291     28293     28295     28294     28296     28298     28297     28299
     28301     28300     28302     28304     28303     28305     28307     28306     28308
     28310     28309     28311     28313     28312     28314     28316     28315     28317
     28319     28318     28320     28322     28321     28323     28325     28324     28326
     28328     28327     28329     28331     28330     28332     28334     28333     28335
     28337     28336     28338     28340     28339     28341     28343     28342     28344
     28346     28345     28347     28349     28348     28350     28352     28351     28353
     28355     28354     28356     28358     28357     28359     28361     28360     28362
     28364     28363     28365     28367     28366     28368     28370     28369     28371
     28373     28372     28374     28376     28375     28377     28379     28378     28380
     28382     28381     28383     28385     28384     28386     28388     28387     28389
     28391     28390     28392     28394     28393     28395     28397     28396     28398
     28400     28399     28401     28403     28402     28404     28406     28405     28407
     28409     28408     28410     28412     28411     28413     28415     28414     28416
     28418     28417     28419     28421     28420     28422     28424     28423     28425
     28427     28426     28428     28430     28429     28431     28433     28432     28434
     28436     28435     28437     28439     28438     28440     28442     28441     28443
     28445     28444     28446     28448     28447     28449     28451     28450     28452
     28454     28453     28455     28457     28456     28458     28460     28459     28461
     28463     28462     28464     28466     28465     28467     28469     28468     28470
     28472     28471     28473     28475     28474     28476     28478     28477     28479
     28481     28480     28482     28484     28483     28485     28487     28486     28488
     28490     28489     28491     28493     28492     28494     28496     28495     28497
     28499     28498     28500     28502     28501     28503     28505     28504     28506
     28508     28507     28509     28511     28510     28512     28514     28513     28515
     28517     28516     28518     28520     28519     28521     28523     28522     28524
     28526     28525     28527     28529     28528     28530     28532     28531     28533
     28535     28534     28536     28538     28537     28539     28541     28540     28542
     28544     28543     28545     28547     28546     28548     28550     28549     28551
     28553     28552     28554     28556     28555     28557     28559     28558     28560
     28562     28561     28563     28565     28564     28566     28568     28567     28569
     28571     28570     28572     28574     28573     28575     28577     28576     28578
     28580     28579     28581     28583     28582     28584     28586     28585     28587
     28589     28588     28590     28592     28591     28593     28595     28594     28596
     28598     28597     28599     28601     28600     28602     28604     28603     28605
     28607     28606     28608     28610     28609     28611     28613     28612     28614
     28616     28615     28617     28619     28618     28620     28622     28621     28623
     28625     28624     28626     28628     28627     28629     28631     28630     28632
     28634     28633     28635     28637     28636     28638     28640     28639     28641
     28643     28642     28644     28646     28645     28647     28649     28648     28650
     28652     28651     28653     28655     28654     28656     28658     28657     28659
     28661     28660     28662     28664     28663     28665     28667     28666     28668
     28670     28669     28671     28673     28672     28674     28676     28675     28677
     28679     28678     28680     28682     28681     28683     28685     28684     28686
     28688     28687     28689     28691     28690     28692     28694     28693     28695
     28697     28696     28698     28700     28699     28701     28703     28702     28704
     28706     28705     28707     28709     28708     28710     28712     28711     28713
     28715     28714     28716     28718     28717     28719     28721     28720     28722
     28724     28723     28725     28727     28726     28728     28730     28729     28731
     28733     28732     28734     28736     28735     28737     28739     28738     28740
     28742     28741     28743     28745     28744     28746     28748     28747     28749
     28751     28750     28752     28754     28753     28755     28757     28756     28758
     28760     28759     28761     28763     28762     28764     28766     28765     28767
     28769     28768     28770     28772     28771     28773     28775     28774     28776
     28778     28777     28779     28781     28780     28782     28784     28783     28785
     28787     28786     28788     28790     28789     28791     28793     28792     28794
     28796     28795     28797     28799     28798     28800     28802     28801     28803
     28805     28804     28806     28808     28807     28809     28811     28810     28812
     28814     28813     28815     28817     28816     28818     28820     28819     28821
     28823     28822     28824     28826     28825     28827     28829     28828     28830
     28832     28831     28833     28835     28834     28836     28838     28837     28839
     28841     28840     28842     28844     28843     28845     28847     28846     28848
     28850     28849     28851     28853     28852     28854     28856     28855     28857
     28859     28858     28860     28862     28861     28863     28865     28864     28866
     28868     28867     28869     28871     28870     28872     28874     28873     28875
     28877     28876     28878     28880     28879     28881     28883     28882     28884
     28886     28885     28887     28889     28888     28890     28892     28891     28893
     28895     28894     28896     28898     28897     28899     28901     28900     28902
     28904     28903     28905     28907     28906     28908     28910     28909     28911
     28913     28912     28914     28916     28915     28917     28919     28918     28920
     28922     28921     28923     28925     28924     28926     28928     28927     28929
     28931     28930     28932     28934     28933     28935     28937     28936     28938
     28940     28939     28941     28943     28942     28944     28946     28945     28947
     28949     28948     28950     28952     28951     28953     28955     28954     28956
     28958     28957     28959     28961     28960     28962     28964     28963     28965
     28967     28966     28968     28970     28969     28971     28973     28972     28974
     28976     28975     28977     28979     28978     28980     28982     28981     28983
     28985     28984     28986     28988     28987     28989     28991     28990     28992
     28994     28993     28995     28997     28996     28998     29000     28999     29001
     29003     29002     29004     29006     29005     29007     29009     29008     29010
     29012     29011     29013     29015     29014     29016     29018     29017     29019
     29021     29020     29022     29024     29023     29025     29027     29026     29028
     29030     29029     29031     29033     29032     29034     29036     29035     29037
     29039     29038     29040     29042     29041     29043     29045     29044     29046
     29048     29047     29049     29051     29050     29052     29054     29053     29055
     29057     29056     29058     29060     29059     29061     29063     29062     29064
     29066     29065     29067     29069     29068     29070     29072     29071     29073
     29075     29074     29076     29078     29077     29079     29081     29080     29082
     29084     29083     29085     29087     29086     29088     29090     29089     29091
     29093     29092     29094     29096     29095     29097     29099     29098     29100
     29102     29101     29103     29105     29104     29106     29108     29107     29109
     29111     29110     29112     29114     29113     29115     29117     29116     29118
     29120     29119     29121     29123     29122     29124     29126     29125     29127
     29129     29128     29130     29132     29131     29133     29135     29134     29136
     29138     29137     29139     29141     29140     29142     29144     29143     29145
     29147     29146     29148     29150     29149     29151     29153     29152     29154
     29156     29155     29157     29159     29158     29160     29162     29161     29163
     29165     29164     29166     29168     29167     29169     29171     29170     29172
     29174     29173     29175     29177     29176     29178     29180     29179     29181
     29183     29182     29184     29186     29185     29187     29189     29188     29190
     29192     29191     29193     29195     29194     29196     29198     29197     29199
     29201     29200     29202     29204     29203     29205     29207     29206     29208
     29210     29209     29211     29213     29212     29214     29216     29215     29217
     29219     29218     29220     29222     29221     29223     29225     29224     29226
     29228     29227     29229     29231     29230     29232     29234     29233     29235
     29237     29236     29238     29240     29239     29241     29243     29242     29244
     29246     29245     29247     29249     29248     29250     29252     29251     29253
     29255     29254     29256     29258     29257     29259     29261     29260     29262
     29264     29263     29265     29267     29266     29268     29270     29269     29271
     29273     29272     29274     29276     29275     29277     29279     29278     29280
     29282     29281     29283     29285     29284     29286     29288     29287     29289
     29291     29290     29292     29294     29293     29295     29297     29296     29298
     29300     29299     29301     29303     29302     29304     29306     29305     29307
     29309     29308     29310     29312     29311     29313     29315     29314     29316
     29318     29317     29319     29321     29320     29322     29324     29323     29325
     29327     29326     29328     29330     29329     29331     29333     29332     29334
     29336     29335     29337     29339     29338     29340     29342     29341     29343
     29345     29344     29346     29348     29347     29349     29351     29350     29352
     29354     29353     29355     29357     29356     29358     29360     29359     29361
     29363     29362     29364     29366     29365     29367     29369     29368     29370
     29372     29371     29373     29375     29374     29376     29378     29377     29379
     29381     29380     29382     29384     29383     29385     29387     29386     29388
     29390     29389     29391     29393     29392     29394     29396     29395     29397
     29399     29398     29400     29402     29401     29403     29405     29404     29406
     29408     29407     29409     29411     29410     29412     29414     29413     29415
     29417     29416     29418     29420     29419     29421     29423     29422     29424
     29426     29425     29427     29429     29428     29430     29432     29431     29433
     29435     29434     29436     29438     29437     29439     29441     29440     29442
     29444     29443     29445     29447     29446     29448     29450     29449     29451
     29453     29452     29454     29456     29455     29457     29459     29458     29460
     29462     29461     29463     29465     29464     29466     29468     29467     29469
     29471     29470     29472     29474     29473     29475     29477     29476     29478
     29480     29479     29481     29483     29482     29484     29486     29485     29487
     29489     29488     29490     29492     29491     29493     29495     29494     29496
     29498     29497     29499     29501     29500     29502     29504     29503     29505
     29507     29506     29508     29510     29509     29511     29513     29512     29514
     29516     29515     29517     29519     29518     29520     29522     29521     29523
     29525     29524     29526     29528     29527     29529     29531     29530     29532
     29534     29533     29535     29537     29536     29538     29540     29539     29541
     29543     29542     29544     29546     29545     29547     29549     29548     29550
     29552     29551     29553     29555     29554     29556     29558     29557     29559
     29561     29560     29562     29564     29563     29565     29567     29566     29568
     29570     29569     29571     29573     29572     29574     29576     29575     29577
     29579     29578     29580     29582     29581     29583     29585     29584     29586
     29588     29587     29589     29591     29590     29592     29594     29593     29595
     29597     29596     29598     29600     29599     29601     29603     29602     29604
     29606     29605     29607     29609     29608     29610     29612     29611     29613
     29615     29614     29616     29618     29617     29619     29621     29620     29622
     29624     29623     29625     29627     29626     29628     29630     29629     29631
     29633     29632     29634     29636     29635     29637     29639     29638     29640
     29642     29641     29643     29645     29644     29646     29648     29647     29649
     29651     29650     29652     29654     29653     29655     29657     29656     29658
     29660     29659     29661     29663     29662     29664     29666     29665     29667
     29669     29668     29670     29672     29671     29673     29675     29674     29676
     29678     29677     29679     29681     29680     29682     29684     29683     29685
     29687     29686     29688     29690     29689     29691     29693     29692     29694
     29696     29695     29697     29699     29698     29700     29702     29701     29703
     29705     29704     29706     29708     29707     29709     29711     29710     29712
     29714     29713     29715     29717     29716     29718     29720     29719     29721
     29723     29722     29724     29726     29725     29727     29729     29728     29730
     29732     29731     29733     29735     29734     29736     29738     29737     29739
     29741     29740     29742     29744     29743     29745     29747     29746     29748
     29750     29749     29751     29753     29752     29754     29756     29755     29757
     29759     29758     29760     29762     29761     29763     29765     29764     29766
     29768     29767     29769     29771     29770     29772     29774     29773     29775
     29777     29776     29778     29780     29779     29781     29783     29782     29784
     29786     29785     29787     29789     29788     29790     29792     29791     29793
     29795     29794     29796     29798     29797     29799     29801     29800     29802
     29804     29803     29805     29807     29806     29808     29810     29809     29811
     29813     29812     29814     29816     29815     29817     29819     29818     29820
     29822     29821     29823     29825     29824     29826     29828     29827     29829
     29831     29830     29832     29834     29833     29835     29837     29836     29838
     29840     29839     29841     29843     29842     29844     29846     29845     29847
     29849     29848     29850     29852     29851     29853     29855     29854     29856
     29858     29857     29859     29861     29860     29862     29864     29863     29865
     29867     29866     29868     29870     29869     29871     29873     29872     29874
     29876     29875     29877     29879     29878     29880     29882     29881     29883
     29885     29884     29886     29888     29887     29889     29891     29890     29892
     29894     29893     29895     29897     29896     29898     29900     29899     29901
     29903     29902     29904     29906     29905     29907     29909     29908     29910
     29912     29911     29913     29915     29914     29916     29918     29917     29919
     29921     29920     29922     29924     29923     29925     29927     29926     29928
     29930     29929     29931     29933     29932     29934     29936     29935     29937
     29939     29938     29940     29942     29941     29943     29945     29944     29946
     29948     29947     29949     29951     29950     29952     29954     29953     29955
     29957     29956     29958     29960     29959     29961     29963     29962     29964
     29966     29965     29967     29969     29968     29970     29972     29971     29973
     29975     29974     29976     29978     29977     29979     29981     29980     29982
     29984     29983     29985     29987     29986     29988     29990     29989     29991
     29993     29992     29994     29996     29995     29997     29999     29998     30000
     30002     30001     30003     30005     30004     30006     30008     30007     30009
     30011     30010     30012     30014     30013     30015     30017     30016     30018
     30020     30019     30021     30023     30022     30024     30026     30025     30027
     30029     30028     30030     30032     30031     30033     30035     30034     30036
     30038     30037     30039     30041     30040     30042     30044     30043     30045
     30047     30046     30048     30050     30049     30051     30053     30052     30054
     30056     30055     30057     30059     30058     30060     30062     30061     30063
     30065     30064     30066     30068     30067     30069     30071     30070     30072
     30074     30073     30075     30077     30076     30078     30080     30079     30081
     30083     30082     30084     30086     30085     30087     30089     30088     30090
     30092     30091     30093     30095     30094     30096     30098     30097     30099
     30101     30100     30102     30104     30103     30105     30107     30106     30108
     30110     30109     30111     30113     30112     30114     30116     30115     30117
     30119     30118     30120     30122     30121     30123     30125     30124     30126
     30128     30127     30129     30131     30130     30132     30134     30133     30135
     30137     30136     30138     30140     30139     30141     30143     30142     30144
     30146     30145     30147     30149     30148     30150     30152     30151     30153
     30155     30154     30156     30158     30157     30159     30161     30160     30162
     30164     30163     30165     30167     30166     30168     30170     30169     30171
     30173     30172     30174     30176     30175     30177     30179     30178     30180
     30182     30181     30183     30185     30184     30186     30188     30187     30189
     30191     30190     30192     30194     30193     30195     30197     30196     30198
     30200     30199     30201     30203     30202     30204     30206     30205     30207
     30209     30208     30210     30212     30211     30213     30215     30214     30216
     30218     30217     30219     30221     30220     30222     30224     30223     30225
     30227     30226     30228     30230     30229     30231     30233     30232     30234
     30236     30235     30237     30239     30238     30240     30242     30241     30243
     30245     30244     30246     30248     30247     30249     30251     30250     30252
     30254     30253     30255     30257     30256     30258     30260     30259     30261
     30263     30262     30264     30266     30265     30267     30269     30268     30270
     30272     30271     30273     30275     30274     30276     30278     30277     30279
     30281     30280     30282     30284     30283     30285     30287     30286     30288
     30290     30289     30291     30293     30292     30294     30296     30295     30297
     30299     30298     30300     30302     30301     30303     30305     30304     30306
     30308     30307     30309     30311     30310     30312     30314     30313     30315
     30317     30316     30318     30320     30319     30321     30323     30322     30324
     30326     30325     30327     30329     30328     30330     30332     30331     30333
     30335     30334     30336     30338     30337     30339     30341     30340     30342
     30344     30343     30345     30347     30346     30348     30350     30349     30351
     30353     30352     30354     30356     30355     30357     30359     30358     30360
     30362     30361     30363     30365     30364     30366     30368     30367     30369
     30371     30370     30372     30374     30373     30375     30377     30376     30378
     30380     30379     30381     30383     30382     30384     30386     30385     30387
     30389     30388     30390     30392     30391     30393     30395     30394     30396
     30398     30397     30399     30401     30400     30402     30404     30403     30405
     30407     30406     30408     30410     30409     30411     30413     30412     30414
     30416     30415     30417     30419     30418     30420     30422     30421     30423
     30425     30424     30426     30428     30427     30429     30431     30430     30432
     30434     30433     30435     30437     30436     30438     30440     30439     30441
     30443     30442     30444     30446     30445     30447     30449     30448     30450
     30452     30451     30453     30455     30454     30456     30458     30457     30459
     30461     30460     30462     30464     30463     30465     30467     30466     30468
     30470     30469     30471     30473     30472     30474     30476     30475     30477
     30479     30478     30480     30482     30481     30483     30485     30484     30486
     30488     30487     30489     30491     30490     30492     30494     30493     30495
     30497     30496     30498     30500     30499     30501     30503     30502     30504
     30506     30505     30507     30509     30508     30510     30512     30511     30513
     30515     30514     30516     30518     30517     30519     30521     30520     30522
     30524     30523     30525     30527     30526     30528     30530     30529     30531
     30533     30532     30534     30536     30535     30537     30539     30538     30540
     30542     30541     30543     30545     30544     30546     30548     30547     30549
     30551     30550     30552     30554     30553     30555     30557     30556     30558
     30560     30559     30561     30563     30562     30564     30566     30565     30567
     30569     30568     30570     30572     30571     30573     30575     30574     30576
     30578     30577     30579     30581     30580     30582     30584     30583     30585
     30587     30586     30588     30590     30589     30591     30593     30592     30594
     30596     30595     30597     30599     30598     30600     30602     30601     30603
     30605     30604     30606     30608     30607     30609     30611     30610     30612
     30614     30613     30615     30617     30616     30618     30620     30619     30621
     30623     30622     30624     30626     30625     30627     30629     30628     30630
     30632     30631     30633     30635     30634     30636     30638     30637     30639
     30641     30640     30642     30644     30643     30645     30647     30646     30648
     30650     30649     30651     30653     30652     30654     30656     30655     30657
     30659     30658     30660     30662     30661     30663     30665     30664     30666
     30668     30667     30669     30671     30670     30672     30674     30673     30675
     30677     30676     30678     30680     30679     30681     30683     30682     30684
     30686     30685     30687     30689     30688     30690     30692     30691     30693
     30695     30694     30696     30698     30697     30699     30701     30700     30702
     30704     30703     30705     30707     30706     30708     30710     30709     30711
     30713     30712     30714     30716     30715     30717     30719     30718     30720
     30722     30721     30723     30725     30724     30726     30728     30727     30729
     30731     30730     30732     30734     30733     30735     30737     30736     30738
     30740     30739     30741     30743     30742     30744     30746     30745     30747
     30749     30748     30750     30752     30751     30753     30755     30754     30756
     30758     30757     30759     30761     30760     30762     30764     30763     30765
     30767     30766     30768     30770     30769     30771     30773     30772     30774
     30776     30775     30777     30779     30778     30780     30782     30781     30783
     30785     30784     30786     30788     30787     30789     30791     30790     30792
     30794     30793     30795     30797     30796     30798     30800     30799     30801
     30803     30802     30804     30806     30805     30807     30809     30808     30810
     30812     30811     30813     30815     30814     30816     30818     30817     30819
     30821     30820     30822     30824     30823     30825     30827     30826     30828
     30830     30829     30831     30833     30832     30834     30836     30835     30837
     30839     30838     30840     30842     30841     30843     30845     30844     30846
     30848     30847     30849     30851     30850     30852     30854     30853     30855
     30857     30856     30858     30860     30859     30861     30863     30862     30864
     30866     30865     30867     30869     30868     30870     30872     30871     30873
     30875     30874     30876     30878     30877     30879     30881     30880     30882
     30884     30883     30885     30887     30886     30888     30890     30889     30891
     30893     30892     30894     30896     30895     30897     30899     30898     30900
     30902     30901     30903     30905     30904     30906     30908     30907     30909
     30911     30910     30912     30914     30913     30915     30917     30916     30918
     30920     30919     30921     30923     30922     30924     30926     30925     30927
     30929     30928     30930     30932     30931     30933     30935     30934     30936
     30938     30937     30939     30941     30940     30942     30944     30943     30945
     30947     30946     30948     30950     30949     30951     30953     30952     30954
     30956     30955     30957     30959     30958     30960     30962     30961     30963
     30965     30964     30966     30968     30967     30969     30971     30970     30972
     30974     30973     30975     30977     30976     30978     30980     30979     30981
     30983     30982     30984     30986     30985     30987     30989     30988     30990
     30992     30991     30993     30995     30994     30996     30998     30997     30999
     31001     31000     31002     31004     31003     31005     31007     31006     31008
     31010     31009     31011     31013     31012     31014     31016     31015     31017
     31019     31018     31020     31022     31021     31023     31025     31024     31026
     31028     31027     31029     31031     31030     31032     31034     31033     31035
     31037     31036     31038     31040     31039     31041     31043     31042     31044
     31046     31045     31047     31049     31048     31050     31052     31051     31053
     31055     31054     31056     31058     31057     31059     31061     31060     31062
     31064     31063     31065     31067     31066     31068     31070     31069     31071
     31073     31072     31074     31076     31075     31077     31079     31078     31080
     31082     31081     31083     31085     31084     31086     31088     31087     31089
     31091     31090     31092     31094     31093     31095     31097     31096     31098
     31100     31099     31101     31103     31102     31104     31106     31105     31107
     31109     31108     31110     31112     31111     31113     31115     31114     31116
     31118     31117     31119     31121     31120     31122     31124     31123     31125
     31127     31126     31128     31130     31129     31131     31133     31132     31134
     31136     31135     31137     31139     31138     31140     31142     31141     31143
     31145     31144     31146     31148     31147     31149     31151     31150     31152
     31154     31153     31155     31157     31156     31158     31160     31159     31161
     31163     31162     31164     31166     31165     31167     31169     31168     31170
     31172     31171     31173     31175     31174     31176     31178     31177     31179
     31181     31180     31182     31184     31183     31185     31187     31186     31188
     31190     31189     31191     31193     31192     31194     31196     31195     31197
     31199     31198     31200     31202     31201     31203     31205     31204     31206
     31208     31207     31209     31211     31210     31212     31214     31213     31215
     31217     31216     31218     31220     31219     31221     31223     31222     31224
     31226     31225     31227     31229     31228     31230     31232     31231     31233
     31235     31234     31236     31238     31237     31239     31241     31240     31242
     31244     31243     31245     31247     31246     31248     31250     31249     31251
     31253     31252     31254     31256     31255     31257     31259     31258     31260
     31262     31261     31263     31265     31264     31266     31268     31267     31269
     31271     31270     31272     31274     31273     31275     31277     31276     31278
     31280     31279     31281     31283     31282     31284     31286     31285     31287
     31289     31288     31290     31292     31291     31293     31295     31294     31296
     31298     31297     31299     31301     31300     31302     31304     31303     31305
     31307     31306     31308     31310     31309     31311     31313     31312     31314
     31316     31315     31317     31319     31318     31320     31322     31321     31323
     31325     31324     31326     31328     31327     31329     31331     31330     31332
     31334     31333     31335     31337     31336     31338     31340     31339     31341
     31343     31342     31344     31346     31345     31347     31349     31348     31350
     31352     31351     31353     31355     31354     31356     31358     31357     31359
     31361     31360     31362     31364     31363     31365     31367     31366     31368
     31370     31369     31371     31373     31372     31374     31376     31375     31377
     31379     31378     31380     31382     31381     31383     31385     31384     31386
     31388     31387     31389     31391     31390     31392     31394     31393     31395
     31397     31396     31398     31400     31399     31401     31403     31402     31404
     31406     31405     31407     31409     31408     31410     31412     31411     31413
     31415     31414     31416     31418     31417     31419     31421     31420     31422
     31424     31423     31425     31427     31426     31428     31430     31429     31431
     31433     31432     31434     31436     31435     31437     31439     31438     31440
     31442     31441     31443     31445     31444     31446     31448     31447     31449
     31451     31450     31452     31454     31453     31455     31457     31456     31458
     31460     31459     31461     31463     31462     31464     31466     31465     31467
     31469     31468     31470     31472     31471     31473     31475     31474     31476
     31478     31477     31479     31481     31480     31482     31484     31483     31485
     31487     31486     31488     31490     31489     31491     31493     31492     31494
     31496     31495     31497     31499     31498     31500     31502     31501     31503
     31505     31504     31506     31508     31507     31509     31511     31510     31512
     31514     31513     31515     31517     31516     31518     31520     31519     31521
     31523     31522     31524     31526     31525     31527     31529     31528     31530
     31532     31531     31533     31535     31534     31536     31538     31537     31539
     31541     31540     31542     31544     31543     31545     31547     31546     31548
     31550     31549     31551     31553     31552     31554     31556     31555     31557
     31559     31558     31560     31562     31561     31563     31565     31564     31566
     31568     31567     31569     31571     31570     31572     31574     31573     31575
     31577     31576     31578     31580     31579     31581     31583     31582     31584
     31586     31585     31587     31589     31588     31590     31592     31591     31593
     31595     31594     31596     31598     31597     31599     31601     31600     31602
     31604     31603     31605     31607     31606     31608     31610     31609     31611
     31613     31612     31614     31616     31615     31617     31619     31618     31620
     31622     31621     31623     31625     31624     31626     31628     31627     31629
     31631     31630     31632     31634     31633     31635     31637     31636     31638
     31640     31639     31641     31643     31642     31644     31646     31645     31647
     31649     31648     31650     31652     31651     31653     31655     31654     31656
     31658     31657     31659     31661     31660     31662     31664     31663     31665
     31667     31666     31668     31670     31669     31671     31673     31672     31674
     31676     31675     31677     31679     31678     31680     31682     31681     31683
     31685     31684     31686     31688     31687     31689     31691     31690     31692
     31694     31693     31695     31697     31696     31698     31700     31699     31701
     31703     31702     31704     31706     31705     31707     31709     31708     31710
     31712     31711     31713     31715     31714     31716     31718     31717     31719
     31721     31720     31722     31724     31723     31725     31727     31726     31728
     31730     31729     31731     31733     31732     31734     31736     31735     31737
     31739     31738     31740     31742     31741     31743     31745     31744     31746
     31748     31747     31749     31751     31750     31752     31754     31753     31755
     31757     31756     31758     31760     31759     31761     31763     31762     31764
     31766     31765     31767     31769     31768     31770     31772     31771     31773
     31775     31774     31776     31778     31777     31779     31781     31780     31782
     31784     31783     31785     31787     31786     31788     31790     31789     31791
     31793     31792     31794     31796     31795     31797     31799     31798     31800
     31802     31801     31803     31805     31804     31806     31808     31807     31809
     31811     31810     31812     31814     31813     31815     31817     31816     31818
     31820     31819     31821     31823     31822     31824     31826     31825     31827
     31829     31828     31830     31832     31831     31833     31835     31834     31836
     31838     31837     31839     31841     31840     31842     31844     31843     31845
     31847     31846     31848     31850     31849     31851     31853     31852     31854
     31856     31855     31857     31859     31858     31860     31862     31861     31863
     31865     31864     31866     31868     31867     31869     31871     31870     31872
     31874     31873     31875     31877     31876     31878     31880     31879     31881
     31883     31882     31884     31886     31885     31887     31889     31888     31890
     31892     31891     31893     31895     31894     31896     31898     31897     31899
     31901     31900     31902     31904     31903     31905     31907     31906     31908
     31910     31909     31911     31913     31912     31914     31916     31915     31917
     31919     31918     31920     31922     31921     31923     31925     31924     31926
     31928     31927     31929     31931     31930     31932     31934     31933     31935
     31937     31936     31938     31940     31939     31941     31943     31942     31944
     31946     31945     31947     31949     31948     31950     31952     31951     31953
     31955     31954     31956     31958     31957     31959     31961     31960     31962
     31964     31963     31965     31967     31966     31968     31970     31969     31971
     31973     31972     31974     31976     31975     31977     31979     31978     31980
     31982     31981     31983     31985     31984     31986     31988     31987     31989
     31991     31990     31992     31994     31993     31995     31997     31996     31998
     32000     31999     32001     32003     32002     32004     32006     32005     32007
     32009     32008     32010     32012     32011     32013     32015     32014     32016
     32018     32017     32019     32021     32020     32022     32024     32023     32025
     32027     32026     32028     32030     32029     32031     32033     32032     32034
     32036     32035     32037     32039     32038     32040     32042     32041     32043
     32045     32044     32046     32048     32047     32049     32051     32050     32052
     32054     32053     32055     32057     32056     32058     32060     32059     32061
     32063     32062     32064     32066     32065     32067     32069     32068     32070
     32072     32071     32073     32075     32074     32076     32078     32077     32079
     32081     32080     32082     32084     32083     32085     32087     32086     32088
     32090     32089     32091     32093     32092     32094     32096     32095     32097
     32099     32098     32100     32102     32101     32103     32105     32104     32106
     32108     32107     32109     32111     32110     32112     32114     32113     32115
     32117     32116     32118     32120     32119     32121     32123     32122     32124
     32126     32125     32127     32129     32128     32130     32132     32131     32133
     32135     32134     32136     32138     32137     32139     32141     32140     32142
     32144     32143     32145     32147     32146     32148     32150     32149     32151
     32153     32152     32154     32156     32155     32157     32159     32158     32160
     32162     32161     32163     32165     32164     32166     32168     32167     32169
     32171     32170     32172     32174     32173     32175     32177     32176     32178
     32180     32179     32181     32183     32182     32184     32186     32185     32187
     32189     32188     32190     32192     32191     32193     32195     32194     32196
     32198     32197     32199     32201     32200     32202     32204     32203     32205
     32207     32206     32208     32210     32209     32211     32213     32212     32214
     32216     32215     32217     32219     32218     32220     32222     32221     32223
     32225     32224     32226     32228     32227     32229     32231     32230     32232
     32234     32233     32235     32237     32236     32238     32240     32239     32241
     32243     32242     32244     32246     32245     32247     32249     32248     32250
     32252     32251     32253     32255     32254     32256     32258     32257     32259
     32261     32260     32262     32264     32263     32265     32267     32266     32268
     32270     32269     32271     32273     32272     32274     32276     32275     32277
     32279     32278     32280     32282     32281     32283     32285     32284     32286
     32288     32287     32289     32291     32290     32292     32294     32293     32295
     32297     32296     32298     32300     32299     32301     32303     32302     32304
     32306     32305     32307     32309     32308     32310     32312     32311     32313
     32315     32314     32316     32318     32317     32319     32321     32320     32322
     32324     32323     32325     32327     32326     32328     32330     32329     32331
     32333     32332     32334     32336     32335     32337     32339     32338     32340
     32342     32341     32343     32345     32344     32346     32348     32347     32349
     32351     32350     32352     32354     32353     32355     32357     32356     32358
     32360     32359     32361     32363     32362     32364     32366     32365     32367
     32369     32368     32370     32372     32371     32373     32375     32374     32376
     32378     32377     32379     32381     32380     32382     32384     32383     32385
     32387     32386     32388     32390     32389     32391     32393     32392     32394
     32396     32395     32397     32399     32398     32400     32402     32401     32403
     32405     32404     32406     32408     32407     32409     32411     32410     32412
     32414     32413     32415     32417     32416     32418     32420     32419     32421
     32423     32422     32424     32426     32425     32427     32429     32428     32430
     32432     32431     32433     32435     32434     32436     32438     32437     32439
     32441     32440     32442     32444     32443     32445     32447     32446     32448
     32450     32449     32451     32453     32452     32454     32456     32455     32457
     32459     32458     32460     32462     32461     32463     32465     32464     32466
     32468     32467     32469     32471     32470     32472     32474     32473     32475
     32477     32476     32478     32480     32479     32481     32483     32482     32484
     32486     32485     32487     32489     32488     32490     32492     32491     32493
     32495     32494     32496     32498     32497     32499     32501     32500     32502
     32504     32503     32505     32507     32506     32508     32510     32509     32511
     32513     32512     32514     32516     32515     32517     32519     32518     32520
     32522     32521     32523     32525     32524     32526     32528     32527     32529
     32531     32530     32532     32534     32533     32535     32537     32536     32538
     32540     32539     32541     32543     32542     32544     32546     32545     32547
     32549     32548     32550     32552     32551     32553     32555     32554     32556
     32558     32557     32559     32561     32560     32562     32564     32563     32565
     32567     32566     32568     32570     32569     32571     32573     32572     32574
     32576     32575     32577     32579     32578     32580     32582     32581     32583
     32585     32584     32586     32588     32587     32589     32591     32590     32592
     32594     32593     32595     32597     32596     32598     32600     32599     32601
     32603     32602     32604     32606     32605     32607     32609     32608     32610
     32612     32611     32613     32615     32614     32616     32618     32617     32619
     32621     32620     32622     32624     32623     32625     32627     32626     32628
     32630     32629     32631     32633     32632     32634     32636     32635     32637
     32639     32638     32640     32642     32641     32643     32645     32644     32646
     32648     32647     32649     32651     32650     32652     32654     32653     32655
     32657     32656     32658     32660     32659     32661     32663     32662     32664
     32666     32665     32667     32669     32668     32670     32672     32671     32673
     32675     32674     32676     32678     32677     32679     32681     32680     32682
     32684     32683     32685     32687     32686     32688     32690     32689     32691
     32693     32692     32694     32696     32695     32697     32699     32698     32700
     32702     32701     32703     32705     32704     32706     32708     32707     32709
     32711     32710     32712     32714     32713     32715     32717     32716     32718
     32720     32719     32721     32723     32722     32724     32726     32725     32727
     32729     32728     32730     32732     32731     32733     32735     32734     32736
     32738     32737     32739     32741     32740     32742     32744     32743     32745
     32747     32746     32748     32750     32749     32751     32753     32752     32754
     32756     32755     32757     32759     32758     32760     32762     32761     32763
     32765     32764     32766     32768     32767     32769     32771     32770     32772
     32774     32773     32775     32777     32776     32778     32780     32779     32781
     32783     32782     32784     32786     32785     32787     32789     32788     32790
     32792     32791     32793     32795     32794     32796     32798     32797     32799
     32801     32800     32802     32804     32803     32805     32807     32806     32808
     32810     32809     32811     32813     32812     32814     32816     32815     32817
     32819     32818     32820     32822     32821     32823     32825     32824     32826
     32828     32827     32829     32831     32830     32832     32834     32833     32835
     32837     32836     32838     32840     32839     32841     32843     32842     32844
     32846     32845     32847     32849     32848     32850     32852     32851     32853
     32855     32854     32856     32858     32857     32859     32861     32860     32862
     32864     32863     32865     32867     32866     32868     32870     32869     32871
     32873     32872     32874     32876     32875     32877     32879     32878     32880
     32882     32881     32883     32885     32884     32886     32888     32887     32889
     32891     32890     32892     32894     32893     32895     32897     32896     32898
     32900     32899     32901     32903     32902     32904     32906     32905     32907
     32909     32908     32910     32912     32911     32913     32915     32914     32916
     32918     32917     32919     32921     32920     32922     32924     32923     32925
     32927     32926     32928     32930     32929     32931     32933     32932     32934
     32936     32935     32937     32939     32938     32940     32942     32941     32943
     32945     32944     32946     32948     32947     32949     32951     32950     32952
     32954     32953     32955     32957     32956     32958     32960     32959     32961
     32963     32962     32964     32966     32965     32967     32969     32968     32970
     32972     32971     32973     32975     32974     32976     32978     32977     32979
     32981     32980     32982     32984     32983     32985     32987     32986     32988
     32990     32989     32991     32993     32992     32994     32996     32995     32997
     32999     32998     33000     33002     33001     33003     33005     33004     33006
     33008     33007     33009     33011     33010     33012     33014     33013     33015
     33017     33016     33018     33020     33019     33021     33023     33022     33024
     33026     33025     33027     33029     33028     33030     33032     33031     33033
     33035     33034     33036     33038     33037     33039     33041     33040     33042
     33044     33043     33045     33047     33046     33048     33050     33049     33051
     33053     33052     33054     33056     33055     33057     33059     33058     33060
     33062     33061     33063     33065     33064     33066     33068     33067     33069
     33071     33070     33072     33074     33073     33075     33077     33076     33078
     33080     33079     33081     33083     33082     33084     33086     33085     33087
     33089     33088     33090     33092     33091     33093     33095     33094     33096
     33098     33097     33099     33101     33100     33102     33104     33103     33105
     33107     33106     33108     33110     33109     33111     33113     33112     33114
     33116     33115     33117     33119     33118     33120     33122     33121     33123
     33125     33124     33126     33128     33127     33129     33131     33130     33132
     33134     33133     33135     33137     33136     33138     33140     33139     33141
     33143     33142     33144     33146     33145     33147     33149     33148     33150
     33152     33151     33153     33155     33154     33156     33158     33157     33159
     33161     33160     33162     33164     33163     33165     33167     33166     33168
     33170     33169     33171     33173     33172     33174     33176     33175     33177
     33179     33178     33180     33182     33181     33183     33185     33184     33186
     33188     33187     33189     33191     33190     33192     33194     33193     33195
     33197     33196     33198     33200     33199     33201     33203     33202     33204
     33206     33205     33207     33209     33208     33210     33212     33211     33213
     33215     33214     33216     33218     33217     33219     33221     33220     33222
     33224     33223     33225     33227     33226     33228     33230     33229     33231
     33233     33232     33234     33236     33235     33237     33239     33238     33240
     33242     33241     33243     33245     33244     33246     33248     33247     33249
     33251     33250     33252     33254     33253     33255     33257     33256     33258
     33260     33259     33261     33263     33262     33264     33266     33265     33267
     33269     33268     33270     33272     33271     33273     33275     33274     33276
     33278     33277     33279     33281     33280     33282     33284     33283     33285
     33287     33286     33288     33290     33289     33291     33293     33292     33294
     33296     33295     33297     33299     33298     33300     33302     33301     33303
     33305     33304     33306     33308     33307     33309     33311     33310     33312
     33314     33313     33315     33317     33316     33318     33320     33319     33321
     33323     33322     33324     33326     33325     33327     33329     33328     33330
     33332     33331     33333     33335     33334     33336     33338     33337     33339
     33341     33340     33342     33344     33343     33345     33347     33346     33348
     33350     33349     33351     33353     33352     33354     33356     33355     33357
     33359     33358     33360     33362     33361     33363     33365     33364     33366
     33368     33367     33369     33371     33370     33372     33374     33373     33375
     33377     33376     33378     33380     33379     33381     33383     33382     33384
     33386     33385     33387     33389     33388     33390     33392     33391     33393
     33395     33394     33396     33398     33397     33399     33401     33400     33402
     33404     33403     33405     33407     33406     33408     33410     33409     33411
     33413     33412     33414     33416     33415     33417     33419     33418     33420
     33422     33421     33423     33425     33424     33426     33428     33427     33429
     33431     33430     33432     33434     33433     33435     33437     33436     33438
     33440     33439     33441     33443     33442     33444     33446     33445     33447
     33449     33448     33450     33452     33451     33453     33455     33454     33456
     33458     33457     33459     33461     33460     33462     33464     33463     33465
     33467     33466     33468     33470     33469     33471     33473     33472     33474
     33476     33475     33477     33479     33478     33480     33482     33481     33483
     33485     33484     33486     33488     33487     33489     33491     33490     33492
     33494     33493     33495     33497     33496     33498     33500     33499     33501
     33503     33502     33504     33506     33505     33507     33509     33508     33510
     33512     33511     33513     33515     33514     33516     33518     33517     33519
     33521     33520     33522     33524     33523     33525     33527     33526     33528
     33530     33529     33531     33533     33532     33534     33536     33535     33537
     33539     33538     33540     33542     33541     33543     33545     33544     33546
     33548     33547     33549     33551     33550     33552     33554     33553     33555
     33557     33556     33558     33560     33559     33561     33563     33562     33564
     33566     33565     33567     33569     33568     33570     33572     33571     33573
     33575     33574     33576     33578     33577     33579     33581     33580     33582
     33584     33583     33585     33587     33586     33588     33590     33589     33591
     33593     33592     33594     33596     33595     33597     33599     33598     33600
     33602     33601     33603     33605     33604     33606     33608     33607     33609
     33611     33610     33612     33614     33613     33615     33617     33616     33618
     33620     33619     33621     33623     33622     33624     33626     33625     33627
     33629     33628     33630     33632     33631     33633     33635     33634     33636
     33638     33637     33639     33641     33640     33642     33644     33643     33645
     33647     33646     33648     33650     33649     33651     33653     33652     33654
     33656     33655     33657     33659     33658     33660     33662     33661     33663
     33665     33664     33666     33668     33667     33669     33671     33670     33672
     33674     33673     33675     33677     33676     33678     33680     33679     33681
     33683     33682     33684     33686     33685     33687     33689     33688     33690
     33692     33691     33693     33695     33694     33696     33698     33697     33699
     33701     33700     33702     33704     33703     33705     33707     33706     33708
     33710     33709     33711     33713     33712     33714     33716     33715     33717
     33719     33718     33720     33722     33721     33723     33725     33724     33726
     33728     33727     33729     33731     33730     33732     33734     33733     33735
     33737     33736     33738     33740     33739     33741     33743     33742     33744
     33746     33745     33747     33749     33748     33750     33752     33751     33753
     33755     33754     33756     33758     33757     33759     33761     33760     33762
     33764     33763     33765     33767     33766     33768     33770     33769     33771
     33773     33772     33774     33776     33775     33777     33779     33778     33780
     33782     33781     33783     33785     33784     33786     33788     33787     33789
     33791     33790     33792     33794     33793     33795     33797     33796     33798
     33800     33799     33801     33803     33802     33804     33806     33805     33807
     33809     33808     33810     33812     33811     33813     33815     33814     33816
     33818     33817     33819     33821     33820     33822     33824     33823     33825
     33827     33826     33828     33830     33829     33831     33833     33832     33834
     33836     33835     33837     33839     33838     33840     33842     33841     33843
     33845     33844     33846     33848     33847     33849     33851     33850     33852
     33854     33853     33855     33857     33856     33858     33860     33859     33861
     33863     33862     33864     33866     33865     33867     33869     33868     33870
     33872     33871     33873     33875     33874     33876     33878     33877     33879
     33881     33880     33882     33884     33883     33885     33887     33886     33888
     33890     33889     33891     33893     33892     33894     33896     33895     33897
     33899     33898     33900     33902     33901     33903     33905     33904     33906
     33908     33907     33909     33911     33910     33912     33914     33913     33915
     33917     33916     33918     33920     33919     33921     33923     33922     33924
     33926     33925     33927     33929     33928     33930     33932     33931     33933
     33935     33934     33936     33938     33937     33939     33941     33940     33942
     33944     33943     33945     33947     33946     33948     33950     33949     33951
     33953     33952     33954     33956     33955     33957     33959     33958     33960
     33962     33961     33963     33965     33964     33966     33968     33967     33969
     33971     33970     33972     33974     33973     33975     33977     33976     33978
     33980     33979     33981     33983     33982     33984     33986     33985     33987
     33989     33988     33990     33992     33991     33993     33995     33994     33996
     33998     33997     33999     34001     34000     34002     34004     34003     34005
     34007     34006     34008     34010     34009     34011     34013     34012     34014
     34016     34015     34017     34019     34018     34020     34022     34021     34023
     34025     34024     34026     34028     34027     34029     34031     34030     34032
     34034     34033     34035     34037     34036     34038     34040     34039     34041
     34043     34042     34044     34046     34045     34047     34049     34048     34050
     34052     34051     34053     34055     34054     34056     34058     34057     34059
     34061     34060     34062     34064     34063     34065     34067     34066     34068
     34070     34069     34071     34073     34072     34074     34076     34075     34077
     34079     34078     34080     34082     34081     34083     34085     34084     34086
     34088     34087     34089     34091     34090     34092     34094     34093     34095
     34097     34096     34098     34100     34099     34101     34103     34102     34104
     34106     34105     34107     34109     34108     34110     34112     34111     34113
     34115     34114     34116     34118     34117     34119     34121     34120     34122
     34124     34123     34125     34127     34126     34128     34130     34129     34131
     34133     34132     34134     34136     34135     34137     34139     34138     34140
     34142     34141     34143     34145     34144     34146     34148     34147     34149
     34151     34150     34152     34154     34153     34155     34157     34156     34158
     34160     34159     34161     34163     34162     34164     34166     34165     34167
     34169     34168     34170     34172     34171     34173     34175     34174     34176
     34178     34177     34179     34181     34180     34182     34184     34183     34185
     34187     34186     34188     34190     34189     34191     34193     34192     34194
     34196     34195     34197     34199     34198     34200     34202     34201     34203
     34205     34204     34206     34208     34207     34209     34211     34210     34212
     34214     34213     34215     34217     34216     34218     34220     34219     34221
     34223     34222     34224     34226     34225     34227     34229     34228     34230
     34232     34231     34233     34235     34234     34236     34238     34237     34239
     34241     34240     34242     34244     34243     34245     34247     34246     34248
     34250     34249     34251     34253     34252     34254     34256     34255     34257
     34259     34258     34260     34262     34261     34263     34265     34264     34266
     34268     34267     34269     34271     34270     34272     34274     34273     34275
     34277     34276     34278     34280     34279     34281     34283     34282     34284
     34286     34285     34287     34289     34288     34290     34292     34291     34293
     34295     34294     34296     34298     34297     34299     34301     34300     34302
     34304     34303     34305     34307     34306     34308     34310     34309     34311
     34313     34312     34314     34316     34315     34317     34319     34318     34320
     34322     34321     34323     34325     34324     34326     34328     34327     34329
     34331     34330     34332     34334     34333     34335     34337     34336     34338
     34340     34339     34341     34343     34342     34344     34346     34345     34347
     34349     34348     34350     34352     34351     34353     34355     34354     34356
     34358     34357     34359     34361     34360     34362     34364     34363     34365
     34367     34366     34368     34370     34369     34371     34373     34372     34374
     34376     34375     34377     34379     34378     34380     34382     34381     34383
     34385     34384     34386     34388     34387     34389     34391     34390     34392
     34394     34393     34395     34397     34396     34398     34400     34399     34401
     34403     34402     34404     34406     34405     34407     34409     34408     34410
     34412     34411     34413     34415     34414     34416     34418     34417     34419
     34421     34420     34422     34424     34423     34425     34427     34426     34428
     34430     34429     34431     34433     34432     34434     34436     34435     34437
     34439     34438     34440     34442     34441     34443     34445     34444     34446
     34448     34447     34449     34451     34450     34452     34454     34453     34455
     34457     34456     34458     34460     34459     34461     34463     34462     34464
     34466     34465     34467     34469     34468     34470     34472     34471     34473
     34475     34474     34476     34478     34477     34479     34481     34480     34482
     34484     34483     34485     34487     34486     34488     34490     34489     34491
     34493     34492     34494     34496     34495     34497     34499     34498     34500
     34502     34501     34503     34505     34504     34506     34508     34507     34509
     34511     34510     34512     34514     34513     34515     34517     34516     34518
     34520     34519     34521     34523     34522     34524     34526     34525     34527
     34529     34528     34530     34532     34531     34533     34535     34534     34536
     34538     34537     34539     34541     34540     34542     34544     34543     34545
     34547     34546     34548     34550     34549     34551     34553     34552     34554
     34556     34555     34557     34559     34558     34560     34562     34561     34563
     34565     34564     34566     34568     34567     34569     34571     34570     34572
     34574     34573     34575     34577     34576     34578     34580     34579     34581
     34583     34582     34584     34586     34585     34587     34589     34588     34590
     34592     34591     34593     34595     34594     34596     34598     34597     34599
     34601     34600     34602     34604     34603     34605     34607     34606     34608
     34610     34609     34611     34613     34612     34614     34616     34615     34617
     34619     34618     34620     34622     34621     34623     34625     34624     34626
     34628     34627     34629     34631     34630     34632     34634     34633     34635
     34637     34636     34638     34640     34639     34641     34643     34642     34644
     34646     34645     34647     34649     34648     34650     34652     34651     34653
     34655     34654     34656     34658     34657     34659     34661     34660     34662
     34664     34663     34665     34667     34666     34668     34670     34669     34671
     34673     34672     34674     34676     34675     34677     34679     34678     34680
     34682     34681     34683     34685     34684     34686     34688     34687     34689
     34691     34690     34692     34694     34693     34695     34697     34696     34698
     34700     34699     34701     34703     34702     34704     34706     34705     34707
     34709     34708     34710     34712     34711     34713     34715     34714     34716
     34718     34717     34719     34721     34720     34722     34724     34723     34725
     34727     34726     34728     34730     34729     34731     34733     34732     34734
     34736     34735     34737     34739     34738     34740     34742     34741     34743
     34745     34744     34746     34748     34747     34749     34751     34750     34752
     34754     34753     34755     34757     34756     34758     34760     34759     34761
     34763     34762     34764     34766     34765     34767     34769     34768     34770
     34772     34771     34773     34775     34774     34776     34778     34777     34779
     34781     34780     34782     34784     34783     34785     34787     34786     34788
     34790     34789     34791     34793     34792     34794     34796     34795     34797
     34799     34798     34800     34802     34801     34803     34805     34804     34806
     34808     34807     34809     34811     34810     34812     34814     34813     34815
     34817     34816     34818     34820     34819     34821     34823     34822     34824
     34826     34825     34827     34829     34828     34830     34832     34831     34833
     34835     34834     34836     34838     34837     34839     34841     34840     34842
     34844     34843     34845     34847     34846     34848     34850     34849     34851
     34853     34852     34854     34856     34855     34857     34859     34858     34860
     34862     34861     34863     34865     34864     34866     34868     34867     34869
     34871     34870     34872     34874     34873     34875     34877     34876     34878
     34880     34879     34881     34883     34882     34884     34886     34885     34887
     34889     34888     34890     34892     34891     34893     34895     34894     34896
     34898     34897     34899     34901     34900     34902     34904     34903     34905
     34907     34906     34908     34910     34909     34911     34913     34912     34914
     34916     34915     34917     34919     34918     34920     34922     34921     34923
     34925     34924     34926     34928     34927     34929     34931     34930     34932
     34934     34933     34935     34937     34936     34938     34940     34939     34941
     34943     34942     34944     34946     34945     34947     34949     34948     34950
     34952     34951     34953     34955     34954     34956     34958     34957     34959
     34961     34960     34962     34964     34963     34965     34967     34966     34968
     34970     34969     34971     34973     34972     34974     34976     34975     34977
     34979     34978     34980     34982     34981     34983     34985     34984     34986
     34988     34987     34989     34991     34990     34992     34994     34993     34995
     34997     34996     34998     35000     34999     35001     35003     35002     35004
     35006     35005     35007     35009     35008     35010     35012     35011     35013
     35015     35014     35016     35018     35017     35019     35021     35020     35022
     35024     35023     35025     35027     35026     35028     35030     35029     35031
     35033     35032     35034     35036     35035     35037     35039     35038     35040
     35042     35041     35043     35045     35044     35046     35048     35047     35049
     35051     35050     35052     35054     35053     35055     35057     35056     35058
     35060     35059     35061     35063     35062     35064     35066     35065     35067
     35069     35068     35070     35072     35071     35073     35075     35074     35076
     35078     35077     35079     35081     35080     35082     35084     35083     35085
     35087     35086     35088     35090     35089     35091     35093     35092     35094
     35096     35095     35097     35099     35098     35100     35102     35101     35103
     35105     35104     35106     35108     35107     35109     35111     35110     35112
     35114     35113     35115     35117     35116     35118     35120     35119     35121
     35123     35122     35124     35126     35125     35127     35129     35128     35130
     35132     35131     35133     35135     35134     35136     35138     35137     35139
     35141     35140     35142     35144     35143     35145     35147     35146     35148
     35150     35149     35151     35153     35152     35154     35156     35155     35157
     35159     35158     35160     35162     35161     35163     35165     35164     35166
     35168     35167     35169     35171     35170     35172     35174     35173     35175
     35177     35176     35178     35180     35179     35181     35183     35182     35184
     35186     35185     35187     35189     35188     35190     35192     35191     35193
     35195     35194     35196     35198     35197     35199     35201     35200     35202
     35204     35203     35205     35207     35206     35208     35210     35209     35211
     35213     35212     35214     35216     35215     35217     35219     35218     35220
     35222     35221     35223     35225     35224     35226     35228     35227     35229
     35231     35230     35232     35234     35233     35235     35237     35236     35238
     35240     35239     35241     35243     35242     35244     35246     35245     35247
     35249     35248     35250     35252     35251     35253     35255     35254     35256
     35258     35257     35259     35261     35260     35262     35264     35263     35265
     35267     35266     35268     35270     35269     35271     35273     35272     35274
     35276     35275     35277     35279     35278     35280     35282     35281     35283
     35285     35284     35286     35288     35287     35289     35291     35290     35292
     35294     35293     35295     35297     35296     35298     35300     35299     35301
     35303     35302     35304     35306     35305     35307     35309     35308     35310
     35312     35311     35313     35315     35314     35316     35318     35317     35319
     35321     35320     35322     35324     35323     35325     35327     35326     35328
     35330     35329     35331     35333     35332     35334     35336     35335     35337
     35339     35338     35340     35342     35341     35343     35345     35344     35346
     35348     35347     35349     35351     35350     35352     35354     35353     35355
     35357     35356     35358     35360     35359     35361     35363     35362     35364
     35366     35365     35367     35369     35368     35370     35372     35371     35373
     35375     35374     35376     35378     35377     35379     35381     35380     35382
     35384     35383     35385     35387     35386     35388     35390     35389     35391
     35393     35392     35394     35396     35395     35397     35399     35398     35400
     35402     35401     35403     35405     35404     35406     35408     35407     35409
     35411     35410     35412     35414     35413     35415     35417     35416     35418
     35420     35419     35421     35423     35422     35424     35426     35425     35427
     35429     35428     35430     35432     35431     35433     35435     35434     35436
     35438     35437     35439     35441     35440     35442     35444     35443     35445
     35447     35446     35448     35450     35449     35451     35453     35452     35454
     35456     35455     35457     35459     35458     35460     35462     35461     35463
     35465     35464     35466     35468     35467     35469     35471     35470     35472
     35474     35473     35475     35477     35476     35478     35480     35479     35481
     35483     35482     35484     35486     35485     35487     35489     35488     35490
     35492     35491     35493     35495     35494     35496     35498     35497     35499
     35501     35500     35502     35504     35503     35505     35507     35506     35508
     35510     35509     35511     35513     35512     35514     35516     35515     35517
     35519     35518     35520     35522     35521     35523     35525     35524     35526
     35528     35527     35529     35531     35530     35532     35534     35533     35535
     35537     35536     35538     35540     35539     35541     35543     35542     35544
     35546     35545     35547     35549     35548     35550     35552     35551     35553
     35555     35554     35556     35558     35557     35559     35561     35560     35562
     35564     35563     35565     35567     35566     35568     35570     35569     35571
     35573     35572     35574     35576     35575     35577     35579     35578     35580
     35582     35581     35583     35585     35584     35586     35588     35587     35589
     35591     35590     35592     35594     35593     35595     35597     35596     35598
     35600     35599     35601     35603     35602     35604     35606     35605     35607
     35609     35608     35610     35612     35611     35613     35615     35614     35616
     35618     35617     35619     35621     35620     35622     35624     35623     35625
     35627     35626     35628     35630     35629     35631     35633     35632     35634
     35636     35635     35637     35639     35638     35640     35642     35641     35643
     35645     35644     35646     35648     35647     35649     35651     35650     35652
     35654     35653     35655     35657     35656     35658     35660     35659     35661
     35663     35662     35664     35666     35665     35667     35669     35668     35670
     35672     35671     35673     35675     35674     35676     35678     35677     35679
     35681     35680     35682     35684     35683     35685     35687     35686     35688
     35690     35689     35691     35693     35692     35694     35696     35695     35697
     35699     35698     35700     35702     35701     35703     35705     35704     35706
     35708     35707     35709     35711     35710     35712     35714     35713     35715
     35717     35716     35718     35720     35719     35721     35723     35722     35724
     35726     35725     35727     35729     35728     35730     35732     35731     35733
     35735     35734     35736     35738     35737     35739     35741     35740     35742
     35744     35743     35745     35747     35746     35748     35750     35749     35751
     35753     35752     35754     35756     35755     35757     35759     35758     35760
     35762     35761     35763     35765     35764     35766     35768     35767     35769
     35771     35770     35772     35774     35773     35775     35777     35776     35778
     35780     35779     35781     35783     35782     35784     35786     35785     35787
     35789     35788     35790     35792     35791     35793     35795     35794     35796
     35798     35797     35799     35801     35800     35802     35804     35803     35805
     35807     35806     35808     35810     35809     35811     35813     35812     35814
     35816     35815     35817     35819     35818     35820     35822     35821     35823
     35825     35824     35826     35828     35827     35829     35831     35830     35832
     35834     35833     35835     35837     35836     35838     35840     35839     35841
     35843     35842     35844     35846     35845     35847     35849     35848     35850
     35852     35851     35853     35855     35854     35856     35858     35857     35859
     35861     35860     35862     35864     35863     35865     35867     35866     35868
     35870     35869     35871     35873     35872     35874     35876     35875     35877
     35879     35878     35880     35882     35881     35883     35885     35884     35886
     35888     35887     35889     35891     35890     35892     35894     35893     35895
     35897     35896     35898     35900     35899     35901     35903     35902     35904
     35906     35905     35907     35909     35908     35910     35912     35911     35913
     35915     35914     35916     35918     35917     35919     35921     35920     35922
     35924     35923     35925     35927     35926     35928     35930     35929     35931
     35933     35932     35934     35936     35935     35937     35939     35938     35940
     35942     35941     35943     35945     35944     35946     35948     35947     35949
     35951     35950     35952     35954     35953     35955     35957     35956     35958
     35960     35959     35961     35963     35962     35964     35966     35965     35967
     35969     35968     35970     35972     35971     35973     35975     35974     35976
     35978     35977     35979     35981     35980     35982     35984     35983     35985
     35987     35986     35988     35990     35989     35991     35993     35992     35994
     35996     35995     35997     35999     35998     36000     36002     36001     36003
     36005     36004     36006     36008     36007     36009     36011     36010     36012
     36014     36013     36015     36017     36016     36018     36020     36019     36021
     36023     36022     36024     36026     36025     36027     36029     36028     36030
     36032     36031     36033     36035     36034     36036     36038     36037     36039
     36041     36040     36042     36044     36043     36045     36047     36046     36048
     36050     36049     36051     36053     36052     36054     36056     36055     36057
     36059     36058     36060     36062     36061     36063     36065     36064     36066
     36068     36067     36069     36071     36070     36072     36074     36073     36075
     36077     36076     36078     36080     36079     36081     36083     36082     36084
     36086     36085     36087     36089     36088     36090     36092     36091     36093
     36095     36094     36096     36098     36097     36099     36101     36100     36102
     36104     36103     36105     36107     36106     36108     36110     36109     36111
     36113     36112     36114     36116     36115     36117     36119     36118     36120
     36122     36121     36123     36125     36124     36126     36128     36127     36129
     36131     36130     36132     36134     36133     36135     36137     36136     36138
     36140     36139     36141     36143     36142     36144     36146     36145     36147
     36149     36148     36150     36152     36151     36153     36155     36154     36156
     36158     36157     36159     36161     36160     36162     36164     36163     36165
     36167     36166     36168     36170     36169     36171     36173     36172     36174
     36176     36175     36177     36179     36178     36180     36182     36181     36183
     36185     36184     36186     36188     36187     36189     36191     36190     36192
     36194     36193     36195     36197     36196     36198     36200     36199     36201
     36203     36202     36204     36206     36205     36207     36209     36208     36210
     36212     36211     36213     36215     36214     36216     36218     36217     36219
     36221     36220     36222     36224     36223     36225     36227     36226     36228
     36230     36229     36231     36233     36232     36234     36236     36235     36237
     36239     36238     36240     36242     36241     36243     36245     36244     36246
     36248     36247     36249     36251     36250     36252     36254     36253     36255
     36257     36256     36258     36260     36259     36261     36263     36262     36264
     36266     36265     36267     36269     36268     36270     36272     36271     36273
     36275     36274     36276     36278     36277     36279     36281     36280     36282
     36284     36283     36285     36287     36286     36288     36290     36289     36291
     36293     36292     36294     36296     36295     36297     36299     36298     36300
     36302     36301     36303     36305     36304     36306     36308     36307     36309
     36311     36310     36312     36314     36313     36315     36317     36316     36318
     36320     36319     36321     36323     36322     36324     36326     36325     36327
     36329     36328     36330     36332     36331     36333     36335     36334     36336
     36338     36337     36339     36341     36340     36342     36344     36343     36345
     36347     36346     36348     36350     36349     36351     36353     36352     36354
     36356     36355     36357     36359     36358     36360     36362     36361     36363
     36365     36364     36366     36368     36367     36369     36371     36370     36372
     36374     36373     36375     36377     36376     36378     36380     36379     36381
     36383     36382     36384     36386     36385     36387     36389     36388     36390
     36392     36391     36393     36395     36394     36396     36398     36397     36399
     36401     36400     36402     36404     36403     36405     36407     36406     36408
     36410     36409     36411     36413     36412     36414     36416     36415     36417
     36419     36418     36420     36422     36421     36423     36425     36424     36426
     36428     36427     36429     36431     36430     36432     36434     36433     36435
     36437     36436     36438     36440     36439     36441     36443     36442     36444
     36446     36445     36447     36449     36448     36450     36452     36451     36453
     36455     36454     36456     36458     36457     36459     36461     36460     36462
     36464     36463     36465     36467     36466     36468     36470     36469     36471
     36473     36472     36474     36476     36475     36477     36479     36478     36480
     36482     36481     36483     36485     36484     36486     36488     36487     36489
     36491     36490     36492     36494     36493     36495     36497     36496     36498
     36500     36499     36501     36503     36502     36504     36506     36505     36507
     36509     36508     36510     36512     36511     36513     36515     36514     36516
     36518     36517     36519     36521     36520     36522     36524     36523     36525
     36527     36526     36528     36530     36529     36531     36533     36532     36534
     36536     36535     36537     36539     36538     36540     36542     36541     36543
     36545     36544     36546     36548     36547     36549     36551     36550     36552
     36554     36553     36555     36557     36556     36558     36560     36559     36561
     36563     36562     36564     36566     36565     36567     36569     36568     36570
     36572     36571     36573     36575     36574     36576     36578     36577     36579
     36581     36580     36582     36584     36583     36585     36587     36586     36588
     36590     36589     36591     36593     36592     36594     36596     36595     36597
     36599     36598     36600     36602     36601     36603     36605     36604     36606
     36608     36607     36609     36611     36610     36612     36614     36613     36615
     36617     36616     36618     36620     36619     36621     36623     36622     36624
     36626     36625     36627     36629     36628     36630     36632     36631     36633
     36635     36634     36636     36638     36637     36639     36641     36640     36642
     36644     36643     36645     36647     36646     36648     36650     36649     36651
     36653     36652     36654     36656     36655     36657     36659     36658     36660
     36662     36661     36663     36665     36664     36666     36668     36667     36669
     36671     36670     36672     36674     36673     36675     36677     36676     36678
     36680     36679     36681     36683     36682     36684     36686     36685     36687
     36689     36688     36690     36692     36691     36693     36695     36694     36696
     36698     36697     36699     36701     36700     36702     36704     36703     36705
     36707     36706     36708     36710     36709     36711     36713     36712     36714
     36716     36715     36717     36719     36718     36720     36722     36721     36723
     36725     36724     36726     36728     36727     36729     36731     36730     36732
     36734     36733     36735     36737     36736     36738     36740     36739     36741
     36743     36742     36744     36746     36745     36747     36749     36748     36750
     36752     36751     36753     36755     36754     36756     36758     36757     36759
     36761     36760     36762     36764     36763     36765     36767     36766     36768
     36770     36769     36771     36773     36772     36774     36776     36775     36777
     36779     36778     36780     36782     36781     36783     36785     36784     36786
     36788     36787     36789     36791     36790     36792     36794     36793     36795
     36797     36796     36798     36800     36799     36801     36803     36802     36804
     36806     36805     36807     36809     36808     36810     36812     36811     36813
     36815     36814     36816     36818     36817     36819     36821     36820     36822
     36824     36823     36825     36827     36826     36828     36830     36829     36831
     36833     36832     36834     36836     36835     36837     36839     36838     36840
     36842     36841     36843     36845     36844     36846     36848     36847     36849
     36851     36850     36852     36854     36853     36855     36857     36856     36858
     36860     36859     36861     36863     36862     36864     36866     36865     36867
     36869     36868     36870     36872     36871     36873     36875     36874     36876
     36878     36877     36879     36881     36880     36882     36884     36883     36885
     36887     36886     36888     36890     36889     36891     36893     36892     36894
     36896     36895     36897     36899     36898     36900     36902     36901     36903
     36905     36904     36906     36908     36907     36909     36911     36910     36912
     36914     36913     36915     36917     36916     36918     36920     36919     36921
     36923     36922     36924     36926     36925     36927     36929     36928     36930
     36932     36931     36933     36935     36934     36936     36938     36937     36939
     36941     36940     36942     36944     36943     36945     36947     36946     36948
     36950     36949     36951     36953     36952     36954     36956     36955     36957
     36959     36958     36960     36962     36961     36963     36965     36964     36966
     36968     36967     36969     36971     36970     36972     36974     36973     36975
     36977     36976     36978     36980     36979     36981     36983     36982     36984
     36986     36985     36987     36989     36988     36990     36992     36991     36993
     36995     36994     36996     36998     36997     36999     37001     37000     37002
     37004     37003     37005     37007     37006     37008     37010     37009     37011
     37013     37012     37014     37016     37015     37017     37019     37018     37020
     37022     37021     37023     37025     37024     37026     37028     37027     37029
     37031     37030     37032     37034     37033     37035     37037     37036     37038
     37040     37039     37041     37043     37042     37044     37046     37045     37047
     37049     37048     37050     37052     37051     37053     37055     37054     37056
     37058     37057     37059     37061     37060     37062     37064     37063     37065
     37067     37066     37068     37070     37069     37071     37073     37072     37074
     37076     37075     37077     37079     37078     37080     37082     37081     37083
     37085     37084     37086     37088     37087     37089     37091     37090     37092
     37094     37093     37095     37097     37096     37098     37100     37099     37101
     37103     37102     37104     37106     37105     37107     37109     37108     37110
     37112     37111     37113     37115     37114     37116     37118     37117     37119
     37121     37120     37122     37124     37123     37125     37127     37126     37128
     37130     37129     37131     37133     37132     37134     37136     37135     37137
     37139     37138     37140     37142     37141     37143     37145     37144     37146
     37148     37147     37149     37151     37150     37152     37154     37153     37155
     37157     37156     37158     37160     37159     37161     37163     37162     37164
     37166     37165     37167     37169     37168     37170     37172     37171     37173
     37175     37174     37176     37178     37177     37179     37181     37180     37182
     37184     37183     37185     37187     37186     37188     37190     37189     37191
     37193     37192     37194     37196     37195     37197     37199     37198     37200
     37202     37201     37203     37205     37204     37206     37208     37207     37209
     37211     37210     37212     37214     37213     37215     37217     37216     37218
     37220     37219     37221     37223     37222     37224     37226     37225     37227
     37229     37228     37230     37232     37231     37233     37235     37234     37236
     37238     37237     37239     37241     37240     37242     37244     37243     37245
     37247     37246     37248     37250     37249     37251     37253     37252     37254
     37256     37255     37257     37259     37258     37260     37262     37261     37263
     37265     37264     37266     37268     37267     37269     37271     37270     37272
     37274     37273     37275     37277     37276     37278     37280     37279     37281
     37283     37282     37284     37286     37285     37287     37289     37288     37290
     37292     37291     37293     37295     37294     37296     37298     37297     37299
     37301     37300     37302     37304     37303     37305     37307     37306     37308
     37310     37309     37311     37313     37312     37314     37316     37315     37317
     37319     37318     37320     37322     37321     37323     37325     37324     37326
     37328     37327     37329     37331     37330     37332     37334     37333     37335
     37337     37336     37338     37340     37339     37341     37343     37342     37344
     37346     37345     37347     37349     37348     37350     37352     37351     37353
     37355     37354     37356     37358     37357     37359     37361     37360     37362
     37364     37363     37365     37367     37366     37368     37370     37369     37371
     37373     37372     37374     37376     37375     37377     37379     37378     37380
     37382     37381     37383     37385     37384     37386     37388     37387     37389
     37391     37390     37392     37394     37393     37395     37397     37396     37398
     37400     37399     37401     37403     37402     37404     37406     37405     37407
     37409     37408     37410     37412     37411     37413     37415     37414     37416
     37418     37417     37419     37421     37420     37422     37424     37423     37425
     37427     37426     37428     37430     37429     37431     37433     37432     37434
     37436     37435     37437     37439     37438     37440     37442     37441     37443
     37445     37444     37446     37448     37447     37449     37451     37450     37452
     37454     37453     37455     37457     37456     37458     37460     37459     37461
     37463     37462     37464     37466     37465     37467     37469     37468     37470
     37472     37471     37473     37475     37474     37476     37478     37477     37479
     37481     37480     37482     37484     37483     37485     37487     37486     37488
     37490     37489     37491     37493     37492     37494     37496     37495     37497
     37499     37498     37500     37502     37501     37503     37505     37504     37506
     37508     37507     37509     37511     37510     37512     37514     37513     37515
     37517     37516     37518     37520     37519     37521     37523     37522     37524
     37526     37525     37527     37529     37528     37530     37532     37531     37533
     37535     37534     37536     37538     37537     37539     37541     37540     37542
     37544     37543     37545     37547     37546     37548     37550     37549     37551
     37553     37552     37554     37556     37555     37557     37559     37558     37560
     37562     37561     37563     37565     37564     37566     37568     37567     37569
     37571     37570     37572     37574     37573     37575     37577     37576     37578
     37580     37579     37581     37583     37582     37584     37586     37585     37587
     37589     37588     37590     37592     37591     37593     37595     37594     37596
     37598     37597     37599     37601     37600     37602     37604     37603     37605
     37607     37606     37608     37610     37609     37611     37613     37612     37614
     37616     37615     37617     37619     37618     37620     37622     37621     37623
     37625     37624     37626     37628     37627     37629     37631     37630     37632
     37634     37633     37635     37637     37636     37638     37640     37639     37641
     37643     37642     37644     37646     37645     37647     37649     37648     37650
     37652     37651     37653     37655     37654     37656     37658     37657     37659
     37661     37660     37662     37664     37663     37665     37667     37666     37668
     37670     37669     37671     37673     37672     37674     37676     37675     37677
     37679     37678     37680     37682     37681     37683     37685     37684     37686
     37688     37687     37689     37691     37690     37692     37694     37693     37695
     37697     37696     37698     37700     37699     37701     37703     37702     37704
     37706     37705     37707     37709     37708     37710     37712     37711     37713
     37715     37714     37716     37718     37717     37719     37721     37720     37722
     37724     37723     37725     37727     37726     37728     37730     37729     37731
     37733     37732     37734     37736     37735     37737     37739     37738     37740
     37742     37741     37743     37745     37744     37746     37748     37747     37749
     37751     37750     37752     37754     37753     37755     37757     37756     37758
     37760     37759     37761     37763     37762     37764     37766     37765     37767
     37769     37768     37770     37772     37771     37773     37775     37774     37776
     37778     37777     37779     37781     37780     37782     37784     37783     37785
     37787     37786     37788     37790     37789     37791     37793     37792     37794
     37796     37795     37797     37799     37798     37800     37802     37801     37803
     37805     37804     37806     37808     37807     37809     37811     37810     37812
     37814     37813     37815     37817     37816     37818     37820     37819     37821
     37823     37822     37824     37826     37825     37827     37829     37828     37830
     37832     37831     37833     37835     37834     37836     37838     37837     37839
     37841     37840     37842     37844     37843     37845     37847     37846     37848
     37850     37849     37851     37853     37852     37854     37856     37855     37857
     37859     37858     37860     37862     37861     37863     37865     37864     37866
     37868     37867     37869     37871     37870     37872     37874     37873     37875
     37877     37876     37878     37880     37879     37881     37883     37882     37884
     37886     37885     37887     37889     37888     37890     37892     37891     37893
     37895     37894     37896     37898     37897     37899     37901     37900     37902
     37904     37903     37905     37907     37906     37908     37910     37909     37911
     37913     37912     37914     37916     37915     37917     37919     37918     37920
     37922     37921     37923     37925     37924     37926     37928     37927     37929
     37931     37930     37932     37934     37933     37935     37937     37936     37938
     37940     37939     37941     37943     37942     37944     37946     37945     37947
     37949     37948     37950     37952     37951     37953     37955     37954     37956
     37958     37957     37959     37961     37960     37962     37964     37963     37965
     37967     37966     37968     37970     37969     37971     37973     37972     37974
     37976     37975     37977     37979     37978     37980     37982     37981     37983
     37985     37984     37986     37988     37987     37989     37991     37990     37992
     37994     37993     37995     37997     37996     37998     38000     37999     38001
     38003     38002     38004     38006     38005     38007     38009     38008     38010
     38012     38011     38013     38015     38014     38016     38018     38017     38019
     38021     38020     38022     38024     38023     38025     38027     38026     38028
     38030     38029     38031     38033     38032     38034     38036     38035     38037
     38039     38038     38040     38042     38041     38043     38045     38044     38046
     38048     38047     38049     38051     38050     38052     38054     38053     38055
     38057     38056     38058     38060     38059     38061     38063     38062     38064
     38066     38065     38067     38069     38068     38070     38072     38071     38073
     38075     38074     38076     38078     38077     38079     38081     38080     38082
     38084     38083     38085     38087     38086     38088     38090     38089     38091
     38093     38092     38094     38096     38095     38097     38099     38098     38100
     38102     38101     38103     38105     38104     38106     38108     38107     38109
     38111     38110     38112     38114     38113     38115     38117     38116     38118
     38120     38119     38121     38123     38122     38124     38126     38125     38127
     38129     38128     38130     38132     38131     38133     38135     38134     38136
     38138     38137     38139     38141     38140     38142     38144     38143     38145
     38147     38146     38148     38150     38149     38151     38153     38152     38154
     38156     38155     38157     38159     38158     38160     38162     38161     38163
     38165     38164     38166     38168     38167     38169     38171     38170     38172
     38174     38173     38175     38177     38176     38178     38180     38179     38181
     38183     38182     38184     38186     38185     38187     38189     38188     38190
     38192     38191     38193     38195     38194     38196     38198     38197     38199
     38201     38200     38202     38204     38203     38205     38207     38206     38208
     38210     38209     38211     38213     38212     38214     38216     38215     38217
     38219     38218     38220     38222     38221     38223     38225     38224     38226
     38228     38227     38229     38231     38230     38232     38234     38233     38235
     38237     38236     38238     38240     38239     38241     38243     38242     38244
     38246     38245     38247     38249     38248     38250     38252     38251     38253
     38255     38254     38256     38258     38257     38259     38261     38260     38262
     38264     38263     38265     38267     38266     38268     38270     38269     38271
     38273     38272     38274     38276     38275     38277     38279     38278     38280
     38282     38281     38283     38285     38284     38286     38288     38287     38289
     38291     38290     38292     38294     38293     38295     38297     38296     38298
     38300     38299     38301     38303     38302     38304     38306     38305     38307
     38309     38308     38310     38312     38311     38313     38315     38314     38316
     38318     38317     38319     38321     38320     38322     38324     38323     38325
     38327     38326     38328     38330     38329     38331     38333     38332     38334
     38336     38335     38337     38339     38338     38340     38342     38341     38343
     38345     38344     38346     38348     38347     38349     38351     38350     38352
     38354     38353     38355     38357     38356     38358     38360     38359     38361
     38363     38362     38364     38366     38365     38367     38369     38368     38370
     38372     38371     38373     38375     38374     38376     38378     38377     38379
     38381     38380     38382     38384     38383     38385     38387     38386     38388
     38390     38389     38391     38393     38392     38394     38396     38395     38397
     38399     38398     38400     38402     38401     38403     38405     38404     38406
     38408     38407     38409     38411     38410     38412     38414     38413     38415
     38417     38416     38418     38420     38419     38421     38423     38422     38424
     38426     38425     38427     38429     38428     38430     38432     38431     38433
     38435     38434     38436     38438     38437     38439     38441     38440     38442
     38444     38443     38445     38447     38446     38448     38450     38449     38451
     38453     38452     38454     38456     38455     38457     38459     38458     38460
     38462     38461     38463     38465     38464     38466     38468     38467     38469
     38471     38470     38472     38474     38473     38475     38477     38476     38478
     38480     38479     38481     38483     38482     38484     38486     38485     38487
     38489     38488     38490     38492     38491     38493     38495     38494     38496
     38498     38497     38499     38501     38500     38502     38504     38503     38505
     38507     38506     38508     38510     38509     38511     38513     38512     38514
     38516     38515     38517     38519     38518     38520     38522     38521     38523
     38525     38524     38526     38528     38527     38529     38531     38530     38532
     38534     38533     38535     38537     38536     38538     38540     38539     38541
     38543     38542     38544     38546     38545     38547     38549     38548     38550
     38552     38551     38553     38555     38554     38556     38558     38557     38559
     38561     38560     38562     38564     38563     38565     38567     38566     38568
     38570     38569     38571     38573     38572     38574     38576     38575     38577
     38579     38578     38580     38582     38581     38583     38585     38584     38586
     38588     38587     38589     38591     38590     38592     38594     38593     38595
     38597     38596     38598     38600     38599     38601     38603     38602     38604
     38606     38605     38607     38609     38608     38610     38612     38611     38613
     38615     38614     38616     38618     38617     38619     38621     38620     38622
     38624     38623     38625     38627     38626     38628     38630     38629     38631
     38633     38632     38634     38636     38635     38637     38639     38638     38640
     38642     38641     38643     38645     38644     38646     38648     38647     38649
     38651     38650     38652     38654     38653     38655     38657     38656     38658
     38660     38659     38661     38663     38662     38664     38666     38665     38667
     38669     38668     38670     38672     38671     38673     38675     38674     38676
     38678     38677     38679     38681     38680     38682     38684     38683     38685
     38687     38686     38688     38690     38689     38691     38693     38692     38694
     38696     38695     38697     38699     38698     38700     38702     38701     38703
     38705     38704     38706     38708     38707     38709     38711     38710     38712
     38714     38713     38715     38717     38716     38718     38720     38719     38721
     38723     38722     38724     38726     38725     38727     38729     38728     38730
     38732     38731     38733     38735     38734     38736     38738     38737     38739
     38741     38740     38742     38744     38743     38745     38747     38746     38748
     38750     38749     38751     38753     38752     38754     38756     38755     38757
     38759     38758     38760     38762     38761     38763     38765     38764     38766
     38768     38767     38769     38771     38770     38772     38774     38773     38775
     38777     38776     38778     38780     38779     38781     38783     38782     38784
     38786     38785     38787     38789     38788     38790     38792     38791     38793
     38795     38794     38796     38798     38797     38799     38801     38800     38802
     38804     38803     38805     38807     38806     38808     38810     38809     38811
     38813     38812     38814     38816     38815     38817     38819     38818     38820
     38822     38821     38823     38825     38824     38826     38828     38827     38829
     38831     38830     38832     38834     38833     38835     38837     38836     38838
     38840     38839     38841     38843     38842     38844     38846     38845     38847
     38849     38848     38850     38852     38851     38853     38855     38854     38856
     38858     38857     38859     38861     38860     38862     38864     38863     38865
     38867     38866     38868     38870     38869     38871     38873     38872     38874
     38876     38875     38877     38879     38878     38880     38882     38881     38883
     38885     38884     38886     38888     38887     38889     38891     38890     38892
     38894     38893     38895     38897     38896     38898     38900     38899     38901
     38903     38902     38904     38906     38905     38907     38909     38908     38910
     38912     38911     38913     38915     38914     38916     38918     38917     38919
     38921     38920     38922     38924     38923     38925     38927     38926     38928
     38930     38929     38931     38933     38932     38934     38936     38935     38937
     38939     38938     38940     38942     38941     38943     38945     38944     38946
     38948     38947     38949     38951     38950     38952     38954     38953     38955
     38957     38956     38958     38960     38959     38961     38963     38962     38964
     38966     38965     38967     38969     38968     38970     38972     38971     38973
     38975     38974     38976     38978     38977     38979     38981     38980     38982
     38984     38983     38985     38987     38986     38988     38990     38989     38991
     38993     38992     38994     38996     38995     38997     38999     38998     39000
     39002     39001     39003     39005     39004     39006     39008     39007     39009
     39011     39010     39012     39014     39013     39015     39017     39016     39018
     39020     39019     39021     39023     39022     39024     39026     39025     39027
     39029     39028     39030     39032     39031     39033     39035     39034     39036
     39038     39037     39039     39041     39040     39042     39044     39043     39045
     39047     39046     39048     39050     39049     39051     39053     39052     39054
     39056     39055     39057     39059     39058     39060     39062     39061     39063
     39065     39064     39066     39068     39067     39069     39071     39070     39072
     39074     39073     39075     39077     39076     39078     39080     39079     39081
     39083     39082     39084     39086     39085     39087     39089     39088     39090
     39092     39091     39093     39095     39094     39096     39098     39097     39099
     39101     39100     39102     39104     39103     39105     39107     39106     39108
     39110     39109     39111     39113     39112     39114     39116     39115     39117
     39119     39118     39120     39122     39121     39123     39125     39124     39126
     39128     39127     39129     39131     39130     39132     39134     39133     39135
     39137     39136     39138     39140     39139     39141     39143     39142     39144
     39146     39145     39147     39149     39148     39150     39152     39151     39153
     39155     39154     39156     39158     39157     39159     39161     39160     39162
     39164     39163     39165     39167     39166     39168     39170     39169     39171
     39173     39172     39174     39176     39175     39177     39179     39178     39180
     39182     39181     39183     39185     39184     39186     39188     39187     39189
     39191     39190     39192     39194     39193     39195     39197     39196     39198
     39200     39199     39201     39203     39202     39204     39206     39205     39207
     39209     39208     39210     39212     39211     39213     39215     39214     39216
     39218     39217     39219     39221     39220     39222     39224     39223     39225
     39227     39226     39228     39230     39229     39231     39233     39232     39234
     39236     39235     39237     39239     39238     39240     39242     39241     39243
     39245     39244     39246     39248     39247     39249     39251     39250     39252
     39254     39253     39255     39257     39256     39258     39260     39259     39261
     39263     39262     39264     39266     39265     39267     39269     39268     39270
     39272     39271     39273     39275     39274     39276     39278     39277     39279
     39281     39280     39282     39284     39283     39285     39287     39286     39288
     39290     39289     39291     39293     39292     39294     39296     39295     39297
     39299     39298     39300     39302     39301     39303     39305     39304     39306
     39308     39307     39309     39311     39310     39312     39314     39313     39315
     39317     39316     39318     39320     39319     39321     39323     39322     39324
     39326     39325     39327     39329     39328     39330     39332     39331     39333
     39335     39334     39336     39338     39337     39339     39341     39340     39342
     39344     39343     39345     39347     39346     39348     39350     39349     39351
     39353     39352     39354     39356     39355     39357     39359     39358     39360
     39362     39361     39363     39365     39364     39366     39368     39367     39369
     39371     39370     39372     39374     39373     39375     39377     39376     39378
     39380     39379     39381     39383     39382     39384     39386     39385     39387
     39389     39388     39390     39392     39391     39393     39395     39394     39396
     39398     39397     39399     39401     39400     39402     39404     39403     39405
     39407     39406     39408     39410     39409     39411     39413     39412     39414
     39416     39415     39417     39419     39418     39420     39422     39421     39423
     39425     39424     39426     39428     39427     39429     39431     39430     39432
     39434     39433     39435     39437     39436     39438     39440     39439     39441
     39443     39442     39444     39446     39445     39447     39449     39448     39450
     39452     39451     39453     39455     39454     39456     39458     39457     39459
     39461     39460     39462     39464     39463     39465     39467     39466     39468
     39470     39469     39471     39473     39472     39474     39476     39475     39477
     39479     39478     39480     39482     39481     39483     39485     39484     39486
     39488     39487     39489     39491     39490     39492     39494     39493     39495
     39497     39496     39498     39500     39499     39501     39503     39502     39504
     39506     39505     39507     39509     39508     39510     39512     39511     39513
     39515     39514     39516     39518     39517     39519     39521     39520     39522
     39524     39523     39525     39527     39526     39528     39530     39529     39531
     39533     39532     39534     39536     39535     39537     39539     39538     39540
     39542     39541     39543     39545     39544     39546     39548     39547     39549
     39551     39550     39552     39554     39553     39555     39557     39556     39558
     39560     39559     39561     39563     39562     39564     39566     39565     39567
     39569     39568     39570     39572     39571     39573     39575     39574     39576
     39578     39577     39579     39581     39580     39582     39584     39583     39585
     39587     39586     39588     39590     39589     39591     39593     39592     39594
     39596     39595     39597     39599     39598     39600     39602     39601     39603
     39605     39604     39606     39608     39607     39609     39611     39610     39612
     39614     39613     39615     39617     39616     39618     39620     39619     39621
     39623     39622     39624     39626     39625     39627     39629     39628     39630
     39632     39631     39633     39635     39634     39636     39638     39637     39639
     39641     39640     39642     39644     39643     39645     39647     39646     39648
     39650     39649     39651     39653     39652     39654     39656     39655     39657
     39659     39658     39660     39662     39661     39663     39665     39664     39666
     39668     39667     39669     39671     39670     39672     39674     39673     39675
     39677     39676     39678     39680     39679     39681     39683     39682     39684
     39686     39685     39687     39689     39688     39690     39692     39691     39693
     39695     39694     39696     39698     39697     39699     39701     39700     39702
     39704     39703     39705     39707     39706     39708     39710     39709     39711
     39713     39712     39714     39716     39715     39717     39719     39718     39720
     39722     39721     39723     39725     39724     39726     39728     39727     39729
     39731     39730     39732     39734     39733     39735     39737     39736     39738
     39740     39739     39741     39743     39742     39744     39746     39745     39747
     39749     39748     39750     39752     39751     39753     39755     39754     39756
     39758     39757     39759     39761     39760     39762     39764     39763     39765
     39767     39766     39768     39770     39769     39771     39773     39772     39774
     39776     39775     39777     39779     39778     39780     39782     39781     39783
     39785     39784     39786     39788     39787     39789     39791     39790     39792
     39794     39793     39795     39797     39796     39798     39800     39799     39801
     39803     39802     39804     39806     39805     39807     39809     39808     39810
     39812     39811     39813     39815     39814     39816     39818     39817     39819
     39821     39820     39822     39824     39823     39825     39827     39826     39828
     39830     39829     39831     39833     39832     39834     39836     39835     39837
     39839     39838     39840     39842     39841     39843     39845     39844     39846
     39848     39847     39849     39851     39850     39852     39854     39853     39855
     39857     39856     39858     39860     39859     39861     39863     39862     39864
     39866     39865     39867     39869     39868     39870     39872     39871     39873
     39875     39874     39876     39878     39877     39879     39881     39880     39882
     39884     39883     39885     39887     39886     39888     39890     39889     39891
     39893     39892     39894     39896     39895     39897     39899     39898     39900
     39902     39901     39903     39905     39904     39906     39908     39907     39909
     39911     39910     39912     39914     39913     39915     39917     39916     39918
     39920     39919     39921     39923     39922     39924     39926     39925     39927
     39929     39928     39930     39932     39931     39933     39935     39934     39936
     39938     39937     39939     39941     39940     39942     39944     39943     39945
     39947     39946     39948     39950     39949     39951     39953     39952     39954
     39956     39955     39957     39959     39958     39960     39962     39961     39963
     39965     39964     39966     39968     39967     39969     39971     39970     39972
     39974     39973     39975     39977     39976     39978     39980     39979     39981
     39983     39982     39984     39986     39985     39987     39989     39988     39990
     39992     39991     39993     39995     39994     39996     39998     39997     39999
     40001     40000     40002     40004     40003     40005     40007     40006     40008
     40010     40009     40011     40013     40012     40014     40016     40015     40017
     40019     40018     40020     40022     40021     40023     40025     40024     40026
     40028     40027     40029     40031     40030     40032     40034     40033     40035
     40037     40036     40038     40040     40039     40041     40043     40042     40044
     40046     40045     40047     40049     40048     40050     40052     40051     40053
     40055     40054     40056     40058     40057     40059     40061     40060     40062
     40064     40063     40065     40067     40066     40068     40070     40069     40071
     40073     40072     40074     40076     40075     40077     40079     40078     40080
     40082     40081     40083     40085     40084     40086     40088     40087     40089
     40091     40090     40092     40094     40093     40095     40097     40096     40098
     40100     40099     40101     40103     40102     40104     40106     40105     40107
     40109     40108     40110     40112     40111     40113     40115     40114     40116
     40118     40117     40119     40121     40120     40122     40124     40123     40125
     40127     40126     40128     40130     40129     40131     40133     40132     40134
     40136     40135     40137     40139     40138     40140     40142     40141     40143
     40145     40144     40146     40148     40147     40149     40151     40150     40152
     40154     40153     40155     40157     40156     40158     40160     40159     40161
     40163     40162     40164     40166     40165     40167     40169     40168     40170
     40172     40171     40173     40175     40174     40176     40178     40177     40179
     40181     40180     40182     40184     40183     40185     40187     40186     40188
     40190     40189     40191     40193     40192     40194     40196     40195     40197
     40199     40198     40200     40202     40201     40203     40205     40204     40206
     40208     40207     40209     40211     40210     40212     40214     40213     40215
     40217     40216     40218     40220     40219     40221     40223     40222     40224
     40226     40225     40227     40229     40228     40230     40232     40231     40233
     40235     40234     40236     40238     40237     40239     40241     40240     40242
     40244     40243     40245     40247     40246     40248     40250     40249     40251
     40253     40252     40254     40256     40255     40257     40259     40258     40260
     40262     40261     40263     40265     40264     40266     40268     40267     40269
     40271     40270     40272     40274     40273     40275     40277     40276     40278
     40280     40279     40281     40283     40282     40284     40286     40285     40287
     40289     40288     40290     40292     40291     40293     40295     40294     40296
     40298     40297     40299     40301     40300     40302     40304     40303     40305
     40307     40306     40308     40310     40309     40311     40313     40312     40314
     40316     40315     40317     40319     40318     40320     40322     40321     40323
     40325     40324     40326     40328     40327     40329     40331     40330     40332
     40334     40333     40335     40337     40336     40338     40340     40339     40341
     40343     40342     40344     40346     40345     40347     40349     40348     40350
     40352     40351     40353     40355     40354     40356     40358     40357     40359
     40361     40360     40362     40364     40363     40365     40367     40366     40368
     40370     40369     40371     40373     40372     40374     40376     40375     40377
     40379     40378     40380     40382     40381     40383     40385     40384     40386
     40388     40387     40389     40391     40390     40392     40394     40393     40395
     40397     40396     40398     40400     40399     40401     40403     40402     40404
     40406     40405     40407     40409     40408     40410     40412     40411     40413
     40415     40414     40416     40418     40417     40419     40421     40420     40422
     40424     40423     40425     40427     40426     40428     40430     40429     40431
     40433     40432     40434     40436     40435     40437     40439     40438     40440
     40442     40441     40443     40445     40444     40446     40448     40447     40449
     40451     40450     40452     40454     40453     40455     40457     40456     40458
     40460     40459     40461     40463     40462     40464     40466     40465     40467
     40469     40468     40470     40472     40471     40473     40475     40474     40476
     40478     40477     40479     40481     40480     40482     40484     40483     40485
     40487     40486     40488     40490     40489     40491     40493     40492     40494
     40496     40495     40497     40499     40498     40500     40502     40501     40503
     40505     40504     40506     40508     40507     40509     40511     40510     40512
     40514     40513     40515     40517     40516     40518     40520     40519     40521
     40523     40522     40524     40526     40525     40527     40529     40528     40530
     40532     40531     40533     40535     40534     40536     40538     40537     40539
     40541     40540     40542     40544     40543     40545     40547     40546     40548
     40550     40549     40551     40553     40552     40554     40556     40555     40557
     40559     40558     40560     40562     40561     40563     40565     40564     40566
     40568     40567     40569     40571     40570     40572     40574     40573     40575
     40577     40576     40578     40580     40579     40581     40583     40582     40584
     40586     40585     40587     40589     40588     40590     40592     40591     40593
     40595     40594     40596     40598     40597     40599     40601     40600     40602
     40604     40603     40605     40607     40606     40608     40610     40609     40611
     40613     40612     40614     40616     40615     40617     40619     40618     40620
     40622     40621     40623     40625     40624     40626     40628     40627     40629
     40631     40630     40632     40634     40633     40635     40637     40636     40638
     40640     40639     40641     40643     40642     40644     40646     40645     40647
     40649     40648     40650     40652     40651     40653     40655     40654     40656
     40658     40657     40659     40661     40660     40662     40664     40663     40665
     40667     40666     40668     40670     40669     40671     40673     40672     40674
     40676     40675     40677     40679     40678     40680     40682     40681     40683
     40685     40684     40686     40688     40687     40689     40691     40690     40692
     40694     40693     40695     40697     40696     40698     40700     40699     40701
     40703     40702     40704     40706     40705     40707     40709     40708     40710
     40712     40711     40713     40715     40714     40716     40718     40717     40719
     40721     40720     40722     40724     40723     40725     40727     40726     40728
     40730     40729     40731     40733     40732     40734     40736     40735     40737
     40739     40738     40740     40742     40741     40743     40745     40744     40746
     40748     40747     40749     40751     40750     40752     40754     40753     40755
     40757     40756     40758     40760     40759     40761     40763     40762     40764
     40766     40765     40767     40769     40768     40770     40772     40771     40773
     40775     40774     40776     40778     40777     40779     40781     40780     40782
     40784     40783     40785     40787     40786     40788     40790     40789     40791
     40793     40792     40794     40796     40795     40797     40799     40798     40800
     40802     40801     40803     40805     40804     40806     40808     40807     40809
     40811     40810     40812     40814     40813     40815     40817     40816     40818
     40820     40819     40821     40823     40822     40824     40826     40825     40827
     40829     40828     40830     40832     40831     40833     40835     40834     40836
     40838     40837     40839     40841     40840     40842     40844     40843     40845
     40847     40846     40848     40850     40849     40851     40853     40852     40854
     40856     40855     40857     40859     40858     40860     40862     40861     40863
     40865     40864     40866     40868     40867     40869     40871     40870     40872
     40874     40873     40875     40877     40876     40878     40880     40879     40881
     40883     40882     40884     40886     40885     40887     40889     40888     40890
     40892     40891     40893     40895     40894     40896     40898     40897     40899
     40901     40900     40902     40904     40903     40905     40907     40906     40908
     40910     40909     40911     40913     40912     40914     40916     40915     40917
     40919     40918     40920     40922     40921     40923     40925     40924     40926
     40928     40927     40929     40931     40930     40932     40934     40933     40935
     40937     40936     40938     40940     40939     40941     40943     40942     40944
     40946     40945     40947     40949     40948     40950     40952     40951     40953
     40955     40954     40956     40958     40957     40959     40961     40960     40962
     40964     40963     40965     40967     40966     40968     40970     40969     40971
     40973     40972     40974     40976     40975     40977     40979     40978     40980
     40982     40981     40983     40985     40984     40986     40988     40987     40989
     40991     40990     40992     40994     40993     40995     40997     40996     40998
     41000     40999     41001     41003     41002     41004     41006     41005     41007
     41009     41008     41010     41012     41011     41013     41015     41014     41016
     41018     41017     41019     41021     41020     41022     41024     41023     41025
     41027     41026     41028     41030     41029     41031     41033     41032     41034
     41036     41035     41037     41039     41038     41040     41042     41041     41043
     41045     41044     41046     41048     41047     41049     41051     41050     41052
     41054     41053     41055     41057     41056     41058     41060     41059     41061
     41063     41062     41064     41066     41065     41067     41069     41068     41070
     41072     41071     41073     41075     41074     41076     41078     41077     41079
     41081     41080     41082     41084     41083     41085     41087     41086     41088
     41090     41089     41091     41093     41092     41094     41096     41095     41097
     41099     41098     41100     41102     41101     41103     41105     41104     41106
     41108     41107     41109     41111     41110     41112     41114     41113     41115
     41117     41116     41118     41120     41119     41121     41123     41122     41124
     41126     41125     41127     41129     41128     41130     41132     41131     41133
     41135     41134     41136     41138     41137     41139     41141     41140     41142
     41144     41143     41145     41147     41146     41148     41150     41149     41151
     41153     41152     41154     41156     41155     41157     41159     41158     41160
     41162     41161     41163     41165     41164     41166     41168     41167     41169
     41171     41170     41172     41174     41173     41175     41177     41176     41178
     41180     41179     41181     41183     41182     41184     41186     41185     41187
     41189     41188     41190     41192     41191     41193     41195     41194     41196
     41198     41197     41199     41201     41200     41202     41204     41203     41205
     41207     41206     41208     41210     41209     41211     41213     41212     41214
     41216     41215     41217     41219     41218     41220     41222     41221     41223
     41225     41224     41226     41228     41227     41229     41231     41230     41232
     41234     41233     41235     41237     41236     41238     41240     41239     41241
     41243     41242     41244     41246     41245     41247     41249     41248     41250
     41252     41251     41253     41255     41254     41256     41258     41257     41259
     41261     41260     41262     41264     41263     41265     41267     41266     41268
     41270     41269     41271     41273     41272     41274     41276     41275     41277
     41279     41278     41280     41282     41281     41283     41285     41284     41286
     41288     41287     41289     41291     41290     41292     41294     41293     41295
     41297     41296     41298     41300     41299     41301     41303     41302     41304
     41306     41305     41307     41309     41308     41310     41312     41311     41313
     41315     41314     41316     41318     41317     41319     41321     41320     41322
     41324     41323     41325     41327     41326     41328     41330     41329     41331
     41333     41332     41334     41336     41335     41337     41339     41338     41340
     41342     41341     41343     41345     41344     41346     41348     41347     41349
     41351     41350     41352     41354     41353     41355     41357     41356     41358
     41360     41359     41361     41363     41362     41364     41366     41365     41367
     41369     41368     41370     41372     41371     41373     41375     41374     41376
     41378     41377     41379     41381     41380     41382     41384     41383     41385
     41387     41386     41388     41390     41389     41391     41393     41392     41394
     41396     41395     41397     41399     41398     41400     41402     41401     41403
     41405     41404     41406     41408     41407     41409     41411     41410     41412
     41414     41413     41415     41417     41416     41418     41420     41419     41421
     41423     41422     41424     41426     41425     41427     41429     41428     41430
     41432     41431     41433     41435     41434     41436     41438     41437     41439
     41441     41440     41442     41444     41443     41445     41447     41446     41448
     41450     41449     41451     41453     41452     41454     41456     41455     41457
     41459     41458     41460     41462     41461     41463     41465     41464     41466
     41468     41467     41469     41471     41470     41472     41474     41473     41475
     41477     41476     41478     41480     41479     41481     41483     41482     41484
     41486     41485     41487     41489     41488     41490     41492     41491     41493
     41495     41494     41496     41498     41497     41499     41501     41500     41502
     41504     41503     41505     41507     41506     41508     41510     41509     41511
     41513     41512     41514     41516     41515     41517     41519     41518     41520
     41522     41521     41523     41525     41524     41526     41528     41527     41529
     41531     41530     41532     41534     41533     41535     41537     41536     41538
     41540     41539     41541     41543     41542     41544     41546     41545     41547
     41549     41548     41550     41552     41551     41553     41555     41554     41556
     41558     41557     41559     41561     41560     41562     41564     41563     41565
     41567     41566     41568     41570     41569     41571     41573     41572     41574
     41576     41575     41577     41579     41578     41580     41582     41581     41583
     41585     41584     41586     41588     41587     41589     41591     41590     41592
     41594     41593     41595     41597     41596     41598     41600     41599     41601
     41603     41602     41604     41606     41605     41607     41609     41608     41610
     41612     41611     41613     41615     41614     41616     41618     41617     41619
     41621     41620     41622     41624     41623     41625     41627     41626     41628
     41630     41629     41631     41633     41632     41634     41636     41635     41637
     41639     41638     41640     41642     41641     41643     41645     41644     41646
     41648     41647     41649     41651     41650     41652     41654     41653     41655
     41657     41656     41658     41660     41659     41661     41663     41662     41664
     41666     41665     41667     41669     41668     41670     41672     41671     41673
     41675     41674     41676     41678     41677     41679     41681     41680     41682
     41684     41683     41685     41687     41686     41688     41690     41689     41691
     41693     41692     41694     41696     41695     41697     41699     41698     41700
     41702     41701     41703     41705     41704     41706     41708     41707     41709
     41711     41710     41712     41714     41713     41715     41717     41716     41718
     41720     41719     41721     41723     41722     41724     41726     41725     41727
     41729     41728     41730     41732     41731     41733     41735     41734     41736
     41738     41737     41739     41741     41740     41742     41744     41743     41745
     41747     41746     41748     41750     41749     41751     41753     41752     41754
     41756     41755     41757     41759     41758     41760     41762     41761     41763
     41765     41764     41766     41768     41767     41769     41771     41770     41772
     41774     41773     41775     41777     41776     41778     41780     41779     41781
     41783     41782     41784     41786     41785     41787     41789     41788     41790
     41792     41791     41793     41795     41794     41796     41798     41797     41799
     41801     41800     41802     41804     41803     41805     41807     41806     41808
     41810     41809     41811     41813     41812     41814     41816     41815     41817
     41819     41818     41820     41822     41821     41823     41825     41824     41826
     41828     41827     41829     41831     41830     41832     41834     41833     41835
     41837     41836     41838     41840     41839     41841     41843     41842     41844
     41846     41845     41847     41849     41848     41850     41852     41851     41853
     41855     41854     41856     41858     41857     41859     41861     41860     41862
     41864     41863     41865     41867     41866     41868     41870     41869     41871
     41873     41872     41874     41876     41875     41877     41879     41878     41880
     41882     41881     41883     41885     41884     41886     41888     41887     41889
     41891     41890     41892     41894     41893     41895     41897     41896     41898
     41900     41899     41901     41903     41902     41904     41906     41905     41907
     41909     41908     41910     41912     41911     41913     41915     41914     41916
     41918     41917     41919     41921     41920     41922     41924     41923     41925
     41927     41926     41928     41930     41929     41931     41933     41932     41934
     41936     41935     41937     41939     41938     41940     41942     41941     41943
     41945     41944     41946     41948     41947     41949     41951     41950     41952
     41954     41953     41955     41957     41956     41958     41960     41959     41961
     41963     41962     41964     41966     41965     41967     41969     41968     41970
     41972     41971     41973     41975     41974     41976     41978     41977     41979
     41981     41980     41982     41984     41983     41985     41987     41986     41988
     41990     41989     41991     41993     41992     41994     41996     41995     41997
     41999     41998     42000     42002     42001     42003     42005     42004     42006
     42008     42007     42009     42011     42010     42012     42014     42013     42015
     42017     42016     42018     42020     42019     42021     42023     42022     42024
     42026     42025     42027     42029     42028     42030     42032     42031     42033
     42035     42034     42036     42038     42037     42039     42041     42040     42042
     42044     42043     42045     42047     42046     42048     42050     42049     42051
     42053     42052     42054     42056     42055     42057     42059     42058     42060
     42062     42061     42063     42065     42064     42066     42068     42067     42069
     42071     42070     42072     42074     42073     42075     42077     42076     42078
     42080     42079     42081     42083     42082     42084     42086     42085     42087
     42089     42088     42090     42092     42091     42093     42095     42094     42096
     42098     42097     42099     42101     42100     42102     42104     42103     42105
     42107     42106     42108     42110     42109     42111     42113     42112     42114
     42116     42115     42117     42119     42118     42120     42122     42121     42123
     42125     42124     42126     42128     42127     42129     42131     42130     42132
     42134     42133     42135     42137     42136     42138     42140     42139     42141
     42143     42142     42144     42146     42145     42147     42149     42148     42150
     42152     42151     42153     42155     42154     42156     42158     42157     42159
     42161     42160     42162     42164     42163     42165     42167     42166     42168
     42170     42169     42171     42173     42172     42174     42176     42175     42177
     42179     42178     42180     42182     42181     42183     42185     42184     42186
     42188     42187     42189     42191     42190     42192     42194     42193     42195
     42197     42196     42198     42200     42199     42201     42203     42202     42204
     42206     42205     42207     42209     42208     42210     42212     42211     42213
     42215     42214     42216     42218     42217     42219     42221     42220     42222
     42224     42223     42225     42227     42226     42228     42230     42229     42231
     42233     42232     42234     42236     42235     42237     42239     42238     42240
     42242     42241     42243     42245     42244     42246     42248     42247     42249
     42251     42250     42252     42254     42253     42255     42257     42256     42258
     42260     42259     42261     42263     42262     42264     42266     42265     42267
     42269     42268     42270     42272     42271     42273     42275     42274     42276
     42278     42277     42279     42281     42280     42282     42284     42283     42285
     42287     42286     42288     42290     42289     42291     42293     42292     42294
     42296     42295     42297     42299     42298     42300     42302     42301     42303
     42305     42304     42306     42308     42307     42309     42311     42310     42312
     42314     42313     42315     42317     42316     42318     42320     42319     42321
     42323     42322     42324     42326     42325     42327     42329     42328     42330
     42332     42331     42333     42335     42334     42336     42338     42337     42339
     42341     42340     42342     42344     42343     42345     42347     42346     42348
     42350     42349     42351     42353     42352     42354     42356     42355     42357
     42359     42358     42360     42362     42361     42363     42365     42364     42366
     42368     42367     42369     42371     42370     42372     42374     42373     42375
     42377     42376     42378     42380     42379     42381     42383     42382     42384
     42386     42385     42387     42389     42388     42390     42392     42391     42393
     42395     42394     42396     42398     42397     42399     42401     42400     42402
     42404     42403     42405     42407     42406     42408     42410     42409     42411
     42413     42412     42414     42416     42415     42417     42419     42418     42420
     42422     42421     42423     42425     42424     42426     42428     42427     42429
     42431     42430     42432     42434     42433     42435     42437     42436     42438
     42440     42439     42441     42443     42442     42444     42446     42445     42447
     42449     42448     42450     42452     42451     42453     42455     42454     42456
     42458     42457     42459     42461     42460     42462     42464     42463     42465
     42467     42466     42468     42470     42469     42471     42473     42472     42474
     42476     42475     42477     42479     42478     42480     42482     42481     42483
     42485     42484     42486     42488     42487     42489     42491     42490     42492
     42494     42493     42495     42497     42496     42498     42500     42499     42501
     42503     42502     42504     42506     42505     42507     42509     42508     42510
     42512     42511     42513     42515     42514     42516     42518     42517     42519
     42521     42520     42522     42524     42523     42525     42527     42526     42528
     42530     42529     42531     42533     42532     42534     42536     42535     42537
     42539     42538     42540     42542     42541     42543     42545     42544     42546
     42548     42547     42549     42551     42550     42552     42554     42553     42555
     42557     42556     42558     42560     42559     42561     42563     42562     42564
     42566     42565     42567     42569     42568     42570     42572     42571     42573
     42575     42574     42576     42578     42577     42579     42581     42580     42582
     42584     42583     42585     42587     42586     42588     42590     42589     42591
     42593     42592     42594     42596     42595     42597     42599     42598     42600
     42602     42601     42603     42605     42604     42606     42608     42607     42609
     42611     42610     42612     42614     42613     42615     42617     42616     42618
     42620     42619     42621     42623     42622     42624     42626     42625     42627
     42629     42628     42630     42632     42631     42633     42635     42634     42636
     42638     42637     42639     42641     42640     42642     42644     42643     42645
     42647     42646     42648     42650     42649     42651     42653     42652     42654
     42656     42655     42657     42659     42658     42660     42662     42661     42663
     42665     42664     42666     42668     42667     42669     42671     42670     42672
     42674     42673     42675     42677     42676     42678     42680     42679     42681
     42683     42682     42684     42686     42685     42687     42689     42688     42690
     42692     42691     42693     42695     42694     42696     42698     42697     42699
     42701     42700     42702     42704     42703     42705     42707     42706     42708
     42710     42709     42711     42713     42712     42714     42716     42715     42717
     42719     42718     42720     42722     42721     42723     42725     42724     42726
     42728     42727     42729     42731     42730     42732     42734     42733     42735
     42737     42736     42738     42740     42739     42741     42743     42742     42744
     42746     42745     42747     42749     42748     42750     42752     42751     42753
     42755     42754     42756     42758     42757     42759     42761     42760     42762
     42764     42763     42765     42767     42766     42768     42770     42769     42771
     42773     42772     42774     42776     42775     42777     42779     42778     42780
     42782     42781     42783     42785     42784     42786     42788     42787     42789
     42791     42790     42792     42794     42793     42795     42797     42796     42798
     42800     42799     42801     42803     42802     42804     42806     42805     42807
     42809     42808     42810     42812     42811     42813     42815     42814     42816
     42818     42817     42819     42821     42820     42822     42824     42823     42825
     42827     42826     42828     42830     42829     42831     42833     42832     42834
     42836     42835     42837     42839     42838     42840     42842     42841     42843
     42845     42844     42846     42848     42847     42849     42851     42850     42852
     42854     42853     42855     42857     42856     42858     42860     42859     42861
     42863     42862     42864     42866     42865     42867     42869     42868     42870
     42872     42871     42873     42875     42874     42876     42878     42877     42879
     42881     42880     42882     42884     42883     42885     42887     42886     42888
     42890     42889     42891     42893     42892     42894     42896     42895     42897
     42899     42898     42900     42902     42901     42903     42905     42904     42906
     42908     42907     42909     42911     42910     42912     42914     42913     42915
     42917     42916     42918     42920     42919     42921     42923     42922     42924
     42926     42925     42927     42929     42928     42930     42932     42931     42933
     42935     42934     42936     42938     42937     42939     42941     42940     42942
     42944     42943     42945     42947     42946     42948     42950     42949     42951
     42953     42952     42954     42956     42955     42957     42959     42958     42960
     42962     42961     42963     42965     42964     42966     42968     42967     42969
     42971     42970     42972     42974     42973     42975     42977     42976     42978
     42980     42979     42981     42983     42982     42984     42986     42985     42987
     42989     42988     42990     42992     42991     42993     42995     42994     42996
     42998     42997     42999     43001     43000     43002     43004     43003     43005
     43007     43006     43008     43010     43009     43011     43013     43012     43014
     43016     43015     43017     43019     43018     43020     43022     43021     43023
     43025     43024     43026     43028     43027     43029     43031     43030     43032
     43034     43033     43035     43037     43036     43038     43040     43039     43041
     43043     43042     43044     43046     43045     43047     43049     43048     43050
     43052     43051     43053     43055     43054     43056     43058     43057     43059
     43061     43060     43062     43064     43063     43065     43067     43066     43068
     43070     43069     43071     43073     43072     43074     43076     43075     43077
     43079     43078     43080     43082     43081     43083     43085     43084     43086
     43088     43087     43089     43091     43090     43092     43094     43093     43095
     43097     43096     43098     43100     43099     43101     43103     43102     43104
     43106     43105     43107     43109     43108     43110     43112     43111     43113
     43115     43114     43116     43118     43117     43119     43121     43120     43122
     43124     43123     43125     43127     43126     43128     43130     43129     43131
     43133     43132     43134     43136     43135     43137     43139     43138     43140
     43142     43141     43143     43145     43144     43146     43148     43147     43149
     43151     43150     43152     43154     43153     43155     43157     43156     43158
     43160     43159     43161     43163     43162     43164     43166     43165     43167
     43169     43168     43170     43172     43171     43173     43175     43174     43176
     43178     43177     43179     43181     43180     43182     43184     43183     43185
     43187     43186     43188     43190     43189     43191     43193     43192     43194
     43196     43195     43197     43199     43198     43200     43202     43201     43203
     43205     43204     43206     43208     43207     43209     43211     43210     43212
     43214     43213     43215     43217     43216     43218     43220     43219     43221
     43223     43222     43224     43226     43225     43227     43229     43228     43230
     43232     43231     43233     43235     43234     43236     43238     43237     43239
     43241     43240     43242     43244     43243     43245     43247     43246     43248
     43250     43249     43251     43253     43252     43254     43256     43255     43257
     43259     43258     43260     43262     43261     43263     43265     43264     43266
     43268     43267     43269     43271     43270     43272     43274     43273     43275
     43277     43276     43278     43280     43279     43281     43283     43282     43284
     43286     43285     43287     43289     43288     43290     43292     43291     43293
     43295     43294     43296     43298     43297     43299     43301     43300     43302
     43304     43303     43305     43307     43306     43308     43310     43309     43311
     43313     43312     43314     43316     43315     43317     43319     43318     43320
     43322     43321     43323     43325     43324     43326     43328     43327     43329
     43331     43330     43332     43334     43333     43335     43337     43336     43338
     43340     43339     43341     43343     43342     43344     43346     43345     43347
     43349     43348     43350     43352     43351     43353     43355     43354     43356
     43358     43357     43359     43361     43360     43362     43364     43363     43365
     43367     43366     43368     43370     43369     43371     43373     43372     43374
     43376     43375     43377     43379     43378     43380     43382     43381     43383
     43385     43384     43386     43388     43387     43389     43391     43390     43392
     43394     43393     43395     43397     43396     43398     43400     43399     43401
     43403     43402     43404     43406     43405     43407     43409     43408     43410
     43412     43411     43413     43415     43414     43416     43418     43417     43419
     43421     43420     43422     43424     43423     43425     43427     43426     43428
     43430     43429     43431     43433     43432     43434     43436     43435     43437
     43439     43438     43440     43442     43441     43443     43445     43444     43446
     43448     43447     43449     43451     43450     43452     43454     43453     43455
     43457     43456     43458     43460     43459     43461     43463     43462     43464
     43466     43465     43467     43469     43468     43470     43472     43471     43473
     43475     43474     43476     43478     43477     43479     43481     43480     43482
     43484     43483     43485     43487     43486     43488     43490     43489     43491
     43493     43492     43494     43496     43495     43497     43499     43498     43500
     43502     43501     43503     43505     43504     43506     43508     43507     43509
     43511     43510     43512     43514     43513     43515     43517     43516     43518
     43520     43519     43521     43523     43522     43524     43526     43525     43527
     43529     43528     43530     43532     43531     43533     43535     43534     43536
     43538     43537     43539     43541     43540     43542     43544     43543     43545
     43547     43546     43548     43550     43549     43551     43553     43552     43554
     43556     43555     43557     43559     43558     43560     43562     43561     43563
     43565     43564     43566     43568     43567     43569     43571     43570     43572
     43574     43573     43575     43577     43576     43578     43580     43579     43581
     43583     43582     43584     43586     43585     43587     43589     43588     43590
     43592     43591     43593     43595     43594     43596     43598     43597     43599
     43601     43600     43602     43604     43603     43605     43607     43606     43608
     43610     43609     43611     43613     43612     43614     43616     43615     43617
     43619     43618     43620     43622     43621     43623     43625     43624     43626
     43628     43627     43629     43631     43630     43632     43634     43633     43635
     43637     43636     43638     43640     43639     43641     43643     43642     43644
     43646     43645     43647     43649     43648     43650     43652     43651     43653
     43655     43654     43656     43658     43657     43659     43661     43660     43662
     43664     43663     43665     43667     43666     43668     43670     43669     43671
     43673     43672     43674     43676     43675     43677     43679     43678     43680
     43682     43681     43683     43685     43684     43686     43688     43687     43689
     43691     43690     43692     43694     43693     43695     43697     43696     43698
     43700     43699     43701     43703     43702     43704     43706     43705     43707
     43709     43708     43710     43712     43711     43713     43715     43714     43716
     43718     43717     43719     43721     43720     43722     43724     43723     43725
     43727     43726     43728     43730     43729     43731     43733     43732     43734
     43736     43735     43737     43739     43738     43740     43742     43741     43743
     43745     43744     43746     43748     43747     43749     43751     43750     43752
     43754     43753     43755     43757     43756     43758     43760     43759     43761
     43763     43762     43764     43766     43765     43767     43769     43768     43770
     43772     43771     43773     43775     43774     43776     43778     43777     43779
     43781     43780     43782     43784     43783     43785     43787     43786     43788
     43790     43789     43791     43793     43792     43794     43796     43795     43797
     43799     43798     43800     43802     43801     43803     43805     43804     43806
     43808     43807     43809     43811     43810     43812     43814     43813     43815
     43817     43816     43818     43820     43819     43821     43823     43822     43824
     43826     43825     43827     43829     43828     43830     43832     43831     43833
     43835     43834     43836     43838     43837     43839     43841     43840     43842
     43844     43843     43845     43847     43846     43848     43850     43849     43851
     43853     43852     43854     43856     43855     43857     43859     43858     43860
     43862     43861     43863     43865     43864     43866     43868     43867     43869
     43871     43870     43872     43874     43873     43875     43877     43876     43878
     43880     43879     43881     43883     43882     43884     43886     43885     43887
     43889     43888     43890     43892     43891     43893     43895     43894     43896
     43898     43897     43899     43901     43900     43902     43904     43903     43905
     43907     43906     43908     43910     43909     43911     43913     43912     43914
     43916     43915     43917     43919     43918     43920     43922     43921     43923
     43925     43924     43926     43928     43927     43929     43931     43930     43932
     43934     43933     43935     43937     43936     43938     43940     43939     43941
     43943     43942     43944     43946     43945     43947     43949     43948     43950
     43952     43951     43953     43955     43954     43956     43958     43957     43959
     43961     43960     43962     43964     43963     43965     43967     43966     43968
     43970     43969     43971     43973     43972     43974     43976     43975     43977
     43979     43978     43980     43982     43981     43983     43985     43984     43986
     43988     43987     43989     43991     43990     43992     43994     43993     43995
     43997     43996     43998     44000     43999     44001     44003     44002     44004
     44006     44005     44007     44009     44008     44010     44012     44011     44013
     44015     44014     44016     44018     44017     44019     44021     44020     44022
     44024     44023     44025     44027     44026     44028     44030     44029     44031
     44033     44032     44034     44036     44035     44037     44039     44038     44040
     44042     44041     44043     44045     44044     44046     44048     44047     44049
     44051     44050     44052     44054     44053     44055     44057     44056     44058
     44060     44059     44061     44063     44062     44064     44066     44065     44067
     44069     44068     44070     44072     44071     44073     44075     44074     44076
     44078     44077     44079     44081     44080     44082     44084     44083     44085
     44087     44086     44088     44090     44089     44091     44093     44092     44094
     44096     44095     44097     44099     44098     44100     44102     44101     44103
     44105     44104     44106     44108     44107     44109     44111     44110     44112
     44114     44113     44115     44117     44116     44118     44120     44119     44121
     44123     44122     44124     44126     44125     44127     44129     44128     44130
     44132     44131     44133     44135     44134     44136     44138     44137     44139
     44141     44140     44142     44144     44143     44145     44147     44146     44148
     44150     44149     44151     44153     44152     44154     44156     44155     44157
     44159     44158     44160     44162     44161     44163     44165     44164     44166
     44168     44167     44169     44171     44170     44172     44174     44173     44175
     44177     44176     44178     44180     44179     44181     44183     44182     44184
     44186     44185     44187     44189     44188     44190     44192     44191     44193
     44195     44194     44196     44198     44197     44199     44201     44200     44202
     44204     44203     44205     44207     44206     44208     44210     44209     44211
     44213     44212     44214     44216     44215     44217     44219     44218     44220
     44222     44221     44223     44225     44224     44226     44228     44227     44229
     44231     44230     44232     44234     44233     44235     44237     44236     44238
     44240     44239     44241     44243     44242     44244     44246     44245     44247
     44249     44248     44250     44252     44251     44253     44255     44254     44256
     44258     44257     44259     44261     44260     44262     44264     44263     44265
     44267     44266     44268     44270     44269     44271     44273     44272     44274
     44276     44275     44277     44279     44278     44280     44282     44281     44283
     44285     44284     44286     44288     44287     44289     44291     44290     44292
     44294     44293     44295     44297     44296     44298     44300     44299     44301
     44303     44302     44304     44306     44305     44307     44309     44308     44310
     44312     44311     44313     44315     44314     44316     44318     44317     44319
     44321     44320     44322     44324     44323     44325     44327     44326     44328
     44330     44329     44331     44333     44332     44334     44336     44335     44337
     44339     44338     44340     44342     44341     44343     44345     44344     44346
     44348     44347     44349     44351     44350     44352     44354     44353     44355
     44357     44356     44358     44360     44359     44361     44363     44362     44364
     44366     44365     44367     44369     44368     44370     44372     44371     44373
     44375     44374     44376     44378     44377     44379     44381     44380     44382
     44384     44383     44385     44387     44386     44388     44390     44389     44391
     44393     44392     44394     44396     44395     44397     44399     44398     44400
     44402     44401     44403     44405     44404     44406     44408     44407     44409
     44411     44410     44412     44414     44413     44415     44417     44416     44418
     44420     44419     44421     44423     44422     44424     44426     44425     44427
     44429     44428     44430     44432     44431     44433     44435     44434     44436
     44438     44437     44439     44441     44440     44442     44444     44443     44445
     44447     44446     44448     44450     44449     44451     44453     44452     44454
     44456     44455     44457     44459     44458     44460     44462     44461     44463
     44465     44464     44466     44468     44467     44469     44471     44470     44472
     44474     44473     44475     44477     44476     44478     44480     44479     44481
     44483     44482     44484     44486     44485     44487     44489     44488     44490
     44492     44491     44493     44495     44494     44496     44498     44497     44499
     44501     44500     44502     44504     44503     44505     44507     44506     44508
     44510     44509     44511     44513     44512     44514     44516     44515     44517
     44519     44518     44520     44522     44521     44523     44525     44524     44526
     44528     44527     44529     44531     44530     44532     44534     44533     44535
     44537     44536     44538     44540     44539     44541     44543     44542     44544
     44546     44545     44547     44549     44548     44550     44552     44551     44553
     44555     44554     44556     44558     44557     44559     44561     44560     44562
     44564     44563     44565     44567     44566     44568     44570     44569     44571
     44573     44572     44574     44576     44575     44577     44579     44578     44580
     44582     44581     44583     44585     44584     44586     44588     44587     44589
     44591     44590     44592     44594     44593     44595     44597     44596     44598
     44600     44599     44601     44603     44602     44604     44606     44605     44607
     44609     44608     44610     44612     44611     44613     44615     44614     44616
     44618     44617     44619     44621     44620     44622     44624     44623     44625
     44627     44626     44628     44630     44629     44631     44633     44632     44634
     44636     44635     44637     44639     44638     44640     44642     44641     44643
     44645     44644     44646     44648     44647     44649     44651     44650     44652
     44654     44653     44655     44657     44656     44658     44660     44659     44661
     44663     44662     44664     44666     44665     44667     44669     44668     44670
     44672     44671     44673     44675     44674     44676     44678     44677     44679
     44681     44680     44682     44684     44683     44685     44687     44686     44688
     44690     44689     44691     44693     44692     44694     44696     44695     44697
     44699     44698     44700     44702     44701     44703     44705     44704     44706
     44708     44707     44709     44711     44710     44712     44714     44713     44715
     44717     44716     44718     44720     44719     44721     44723     44722     44724
     44726     44725     44727     44729     44728     44730     44732     44731     44733
     44735     44734     44736     44738     44737     44739     44741     44740     44742
     44744     44743     44745     44747     44746     44748     44750     44749     44751
     44753     44752     44754     44756     44755     44757     44759     44758     44760
     44762     44761     44763     44765     44764     44766     44768     44767     44769
     44771     44770     44772     44774     44773     44775     44777     44776     44778
     44780     44779     44781     44783     44782     44784     44786     44785     44787
     44789     44788     44790     44792     44791     44793     44795     44794     44796
     44798     44797     44799     44801     44800     44802     44804     44803     44805
     44807     44806     44808     44810     44809     44811     44813     44812     44814
     44816     44815     44817     44819     44818     44820     44822     44821     44823
     44825     44824     44826     44828     44827     44829     44831     44830     44832
     44834     44833     44835     44837     44836     44838     44840     44839     44841
     44843     44842     44844     44846     44845     44847     44849     44848     44850
     44852     44851     44853     44855     44854     44856     44858     44857     44859
     44861     44860     44862     44864     44863     44865     44867     44866     44868
     44870     44869     44871     44873     44872     44874     44876     44875     44877
     44879     44878     44880     44882     44881     44883     44885     44884     44886
     44888     44887     44889     44891     44890     44892     44894     44893     44895
     44897     44896     44898     44900     44899     44901     44903     44902     44904
     44906     44905     44907     44909     44908     44910     44912     44911     44913
     44915     44914     44916     44918     44917     44919     44921     44920     44922
     44924     44923     44925     44927     44926     44928     44930     44929     44931
     44933     44932     44934     44936     44935     44937     44939     44938     44940
     44942     44941     44943     44945     44944     44946     44948     44947     44949
     44951     44950     44952     44954     44953     44955     44957     44956     44958
     44960     44959     44961     44963     44962     44964     44966     44965     44967
     44969     44968     44970     44972     44971     44973     44975     44974     44976
     44978     44977     44979     44981     44980     44982     44984     44983     44985
     44987     44986     44988     44990     44989     44991     44993     44992     44994
     44996     44995     44997     44999     44998     45000     45002     45001     45003
     45005     45004     45006     45008     45007     45009     45011     45010     45012
     45014     45013     45015     45017     45016     45018     45020     45019     45021
     45023     45022     45024     45026     45025     45027     45029     45028     45030
     45032     45031     45033     45035     45034     45036     45038     45037     45039
     45041     45040     45042     45044     45043     45045     45047     45046     45048
     45050     45049     45051     45053     45052     45054     45056     45055     45057
     45059     45058     45060     45062     45061     45063     45065     45064     45066
     45068     45067     45069     45071     45070     45072     45074     45073     45075
     45077     45076     45078     45080     45079     45081     45083     45082     45084
     45086     45085     45087     45089     45088     45090     45092     45091     45093
     45095     45094     45096     45098     45097     45099     45101     45100     45102
     45104     45103     45105     45107     45106     45108     45110     45109     45111
     45113     45112     45114     45116     45115     45117     45119     45118     45120
     45122     45121     45123     45125     45124     45126     45128     45127     45129
     45131     45130     45132     45134     45133     45135     45137     45136     45138
     45140     45139     45141     45143     45142     45144     45146     45145     45147
     45149     45148     45150     45152     45151     45153     45155     45154     45156
     45158     45157     45159     45161     45160     45162     45164     45163     45165
     45167     45166     45168     45170     45169     45171     45173     45172     45174
     45176     45175     45177     45179     45178     45180     45182     45181     45183
     45185     45184     45186     45188     45187     45189     45191     45190     45192
     45194     45193     45195     45197     45196     45198     45200     45199     45201
     45203     45202     45204     45206     45205     45207     45209     45208     45210
     45212     45211     45213     45215     45214     45216     45218     45217     45219
     45221     45220     45222     45224     45223     45225     45227     45226     45228
     45230     45229     45231     45233     45232     45234     45236     45235     45237
     45239     45238     45240     45242     45241     45243     45245     45244     45246
     45248     45247     45249     45251     45250     45252     45254     45253     45255
     45257     45256     45258     45260     45259     45261     45263     45262     45264
     45266     45265     45267     45269     45268     45270     45272     45271     45273
     45275     45274     45276     45278     45277     45279     45281     45280     45282
     45284     45283     45285     45287     45286     45288     45290     45289     45291
     45293     45292     45294     45296     45295     45297     45299     45298     45300
     45302     45301     45303     45305     45304     45306     45308     45307     45309
     45311     45310     45312     45314     45313     45315     45317     45316     45318
     45320     45319     45321     45323     45322     45324     45326     45325     45327
     45329     45328     45330     45332     45331     45333     45335     45334     45336
     45338     45337     45339     45341     45340     45342     45344     45343     45345
     45347     45346     45348     45350     45349     45351     45353     45352     45354
     45356     45355     45357     45359     45358     45360     45362     45361     45363
     45365     45364     45366     45368     45367     45369     45371     45370     45372
     45374     45373     45375     45377     45376     45378     45380     45379     45381
     45383     45382     45384     45386     45385     45387     45389     45388     45390
     45392     45391     45393     45395     45394     45396     45398     45397     45399
     45401     45400     45402     45404     45403     45405     45407     45406     45408
     45410     45409     45411     45413     45412     45414     45416     45415     45417
     45419     45418     45420     45422     45421     45423     45425     45424     45426
     45428     45427     45429     45431     45430     45432     45434     45433     45435
     45437     45436     45438     45440     45439     45441     45443     45442     45444
     45446     45445     45447     45449     45448     45450     45452     45451     45453
     45455     45454     45456     45458     45457     45459     45461     45460     45462
     45464     45463     45465     45467     45466     45468     45470     45469     45471
     45473     45472     45474     45476     45475     45477     45479     45478     45480
     45482     45481     45483     45485     45484     45486     45488     45487     45489
     45491     45490     45492     45494     45493     45495     45497     45496     45498
     45500     45499     45501     45503     45502     45504     45506     45505     45507
     45509     45508     45510     45512     45511     45513     45515     45514     45516
     45518     45517     45519     45521     45520     45522     45524     45523     45525
     45527     45526     45528     45530     45529     45531     45533     45532     45534
     45536     45535     45537     45539     45538     45540     45542     45541     45543
     45545     45544     45546     45548     45547     45549     45551     45550     45552
     45554     45553     45555     45557     45556     45558     45560     45559     45561
     45563     45562     45564     45566     45565     45567     45569     45568     45570
     45572     45571     45573     45575     45574     45576     45578     45577     45579
     45581     45580     45582     45584     45583     45585     45587     45586     45588
     45590     45589     45591     45593     45592     45594     45596     45595     45597
     45599     45598     45600     45602     45601     45603     45605     45604     45606
     45608     45607     45609     45611     45610     45612     45614     45613     45615
     45617     45616     45618     45620     45619     45621     45623     45622     45624
     45626     45625     45627     45629     45628     45630     45632     45631     45633
     45635     45634     45636     45638     45637     45639     45641     45640     45642
     45644     45643     45645     45647     45646     45648     45650     45649     45651
     45653     45652     45654     45656     45655     45657     45659     45658     45660
     45662     45661     45663     45665     45664     45666     45668     45667     45669
     45671     45670     45672     45674     45673     45675     45677     45676     45678
     45680     45679     45681     45683     45682     45684     45686     45685     45687
     45689     45688     45690     45692     45691     45693     45695     45694     45696
     45698     45697     45699     45701     45700     45702     45704     45703     45705
     45707     45706     45708     45710     45709     45711     45713     45712     45714
     45716     45715     45717     45719     45718     45720     45722     45721     45723
     45725     45724     45726     45728     45727     45729     45731     45730     45732
     45734     45733     45735     45737     45736     45738     45740     45739     45741
     45743     45742     45744     45746     45745     45747     45749     45748     45750
     45752     45751     45753     45755     45754     45756     45758     45757     45759
     45761     45760     45762     45764     45763     45765     45767     45766     45768
     45770     45769     45771     45773     45772     45774     45776     45775     45777
     45779     45778     45780     45782     45781     45783     45785     45784     45786
     45788     45787     45789     45791     45790     45792     45794     45793     45795
     45797     45796     45798     45800     45799     45801     45803     45802     45804
     45806     45805     45807     45809     45808     45810     45812     45811     45813
     45815     45814     45816     45818     45817     45819     45821     45820     45822
     45824     45823     45825     45827     45826     45828     45830     45829     45831
     45833     45832     45834     45836     45835     45837     45839     45838     45840
     45842     45841     45843     45845     45844     45846     45848     45847     45849
     45851     45850     45852     45854     45853     45855     45857     45856     45858
     45860     45859     45861     45863     45862     45864     45866     45865     45867
     45869     45868     45870     45872     45871     45873     45875     45874     45876
     45878     45877     45879     45881     45880     45882     45884     45883     45885
     45887     45886     45888     45890     45889     45891     45893     45892     45894
     45896     45895     45897     45899     45898     45900     45902     45901     45903
     45905     45904     45906     45908     45907     45909     45911     45910     45912
     45914     45913     45915     45917     45916     45918     45920     45919     45921
     45923     45922     45924     45926     45925     45927     45929     45928     45930
     45932     45931     45933     45935     45934     45936     45938     45937     45939
     45941     45940     45942     45944     45943     45945     45947     45946     45948
     45950     45949     45951     45953     45952     45954     45956     45955     45957
     45959     45958     45960     45962     45961     45963     45965     45964     45966
     45968     45967     45969     45971     45970     45972     45974     45973     45975
     45977     45976     45978     45980     45979     45981     45983     45982     45984
     45986     45985     45987     45989     45988     45990     45992     45991     45993
     45995     45994     45996     45998     45997     45999     46001     46000     46002
     46004     46003     46005     46007     46006     46008     46010     46009     46011
     46013     46012     46014     46016     46015     46017     46019     46018     46020
     46022     46021     46023     46025     46024     46026     46028     46027     46029
     46031     46030     46032     46034     46033     46035     46037     46036     46038
     46040     46039     46041     46043     46042     46044     46046     46045     46047
     46049     46048     46050     46052     46051     46053     46055     46054     46056
     46058     46057     46059     46061     46060     46062     46064     46063     46065
     46067     46066     46068     46070     46069     46071     46073     46072     46074
     46076     46075     46077     46079     46078     46080     46082     46081     46083
     46085     46084     46086     46088     46087     46089     46091     46090     46092
     46094     46093     46095     46097     46096     46098     46100     46099     46101
     46103     46102     46104     46106     46105     46107     46109     46108     46110
     46112     46111     46113     46115     46114     46116     46118     46117     46119
     46121     46120     46122     46124     46123     46125     46127     46126     46128
     46130     46129     46131     46133     46132     46134     46136     46135     46137
     46139     46138     46140     46142     46141     46143     46145     46144     46146
     46148     46147     46149     46151     46150     46152     46154     46153     46155
     46157     46156     46158     46160     46159     46161     46163     46162     46164
     46166     46165     46167     46169     46168     46170     46172     46171     46173
     46175     46174     46176     46178     46177     46179     46181     46180     46182
     46184     46183     46185     46187     46186     46188     46190     46189     46191
     46193     46192     46194     46196     46195     46197     46199     46198     46200
     46202     46201     46203     46205     46204     46206     46208     46207     46209
     46211     46210     46212     46214     46213     46215     46217     46216     46218
     46220     46219     46221     46223     46222     46224     46226     46225     46227
     46229     46228     46230     46232     46231     46233     46235     46234     46236
     46238     46237     46239     46241     46240     46242     46244     46243     46245
     46247     46246     46248     46250     46249     46251     46253     46252     46254
     46256     46255     46257     46259     46258     46260     46262     46261     46263
     46265     46264     46266     46268     46267     46269     46271     46270     46272
     46274     46273     46275     46277     46276     46278     46280     46279     46281
     46283     46282     46284     46286     46285     46287     46289     46288     46290
     46292     46291     46293     46295     46294     46296     46298     46297     46299
     46301     46300     46302     46304     46303     46305     46307     46306     46308
     46310     46309     46311     46313     46312     46314     46316     46315     46317
     46319     46318     46320     46322     46321     46323     46325     46324     46326
     46328     46327     46329     46331     46330     46332     46334     46333     46335
     46337     46336     46338     46340     46339     46341     46343     46342     46344
     46346     46345     46347     46349     46348     46350     46352     46351     46353
     46355     46354     46356     46358     46357     46359     46361     46360     46362
     46364     46363     46365     46367     46366     46368     46370     46369     46371
     46373     46372     46374     46376     46375     46377     46379     46378     46380
     46382     46381     46383     46385     46384     46386     46388     46387     46389
     46391     46390     46392     46394     46393     46395     46397     46396     46398
     46400     46399     46401     46403     46402     46404     46406     46405     46407
     46409     46408     46410     46412     46411     46413     46415     46414     46416
     46418     46417     46419     46421     46420     46422     46424     46423     46425
     46427     46426     46428     46430     46429     46431     46433     46432     46434
     46436     46435     46437     46439     46438     46440     46442     46441     46443
     46445     46444     46446     46448     46447     46449     46451     46450     46452
     46454     46453     46455     46457     46456     46458     46460     46459     46461
     46463     46462     46464     46466     46465     46467     46469     46468     46470
     46472     46471     46473     46475     46474     46476     46478     46477     46479
     46481     46480     46482     46484     46483     46485     46487     46486     46488
     46490     46489     46491     46493     46492     46494     46496     46495     46497
     46499     46498     46500     46502     46501     46503     46505     46504     46506
     46508     46507     46509     46511     46510     46512     46514     46513     46515
     46517     46516     46518     46520     46519     46521     46523     46522     46524
     46526     46525     46527     46529     46528     46530     46532     46531     46533
     46535     46534     46536     46538     46537     46539     46541     46540     46542
     46544     46543     46545     46547     46546     46548     46550     46549     46551
     46553     46552     46554     46556     46555     46557     46559     46558     46560
     46562     46561     46563     46565     46564     46566     46568     46567     46569
     46571     46570     46572     46574     46573     46575     46577     46576     46578
     46580     46579     46581     46583     46582     46584     46586     46585     46587
     46589     46588     46590     46592     46591     46593     46595     46594     46596
     46598     46597     46599     46601     46600     46602     46604     46603     46605
     46607     46606     46608     46610     46609     46611     46613     46612     46614
     46616     46615     46617     46619     46618     46620     46622     46621     46623
     46625     46624     46626     46628     46627     46629     46631     46630     46632
     46634     46633     46635     46637     46636     46638     46640     46639     46641
     46643     46642     46644     46646     46645     46647     46649     46648     46650
     46652     46651     46653     46655     46654     46656     46658     46657     46659
     46661     46660     46662     46664     46663     46665     46667     46666     46668
     46670     46669     46671     46673     46672     46674     46676     46675     46677
     46679     46678     46680     46682     46681     46683     46685     46684     46686
     46688     46687     46689     46691     46690     46692     46694     46693     46695
     46697     46696     46698     46700     46699     46701     46703     46702     46704
     46706     46705     46707     46709     46708     46710     46712     46711     46713
     46715     46714     46716     46718     46717     46719     46721     46720     46722
     46724     46723     46725     46727     46726     46728     46730     46729     46731
     46733     46732     46734     46736     46735     46737     46739     46738     46740
     46742     46741     46743     46745     46744     46746     46748     46747     46749
     46751     46750     46752     46754     46753     46755     46757     46756     46758
     46760     46759     46761     46763     46762     46764     46766     46765     46767
     46769     46768     46770     46772     46771     46773     46775     46774     46776
     46778     46777     46779     46781     46780     46782     46784     46783     46785
     46787     46786     46788     46790     46789     46791     46793     46792     46794
     46796     46795     46797     46799     46798     46800     46802     46801     46803
     46805     46804     46806     46808     46807     46809     46811     46810     46812
     46814     46813     46815     46817     46816     46818     46820     46819     46821
     46823     46822     46824     46826     46825     46827     46829     46828     46830
     46832     46831     46833     46835     46834     46836     46838     46837     46839
     46841     46840     46842     46844     46843     46845     46847     46846     46848
     46850     46849     46851     46853     46852     46854     46856     46855     46857
     46859     46858     46860     46862     46861     46863     46865     46864     46866
     46868     46867     46869     46871     46870     46872     46874     46873     46875
     46877     46876     46878     46880     46879     46881     46883     46882     46884
     46886     46885     46887     46889     46888     46890     46892     46891     46893
     46895     46894     46896     46898     46897     46899     46901     46900     46902
     46904     46903     46905     46907     46906     46908     46910     46909     46911
     46913     46912     46914     46916     46915     46917     46919     46918     46920
     46922     46921     46923     46925     46924     46926     46928     46927     46929
     46931     46930     46932     46934     46933     46935     46937     46936     46938
     46940     46939     46941     46943     46942     46944     46946     46945     46947
     46949     46948     46950     46952     46951     46953     46955     46954     46956
     46958     46957     46959     46961     46960     46962     46964     46963     46965
     46967     46966     46968     46970     46969     46971     46973     46972     46974
     46976     46975     46977     46979     46978     46980     46982     46981     46983
     46985     46984     46986     46988     46987     46989     46991     46990     46992
     46994     46993     46995     46997     46996     46998     47000     46999     47001
     47003     47002     47004     47006     47005     47007     47009     47008     47010
     47012     47011     47013     47015     47014     47016     47018     47017     47019
     47021     47020     47022     47024     47023     47025     47027     47026     47028
     47030     47029     47031     47033     47032     47034     47036     47035     47037
     47039     47038     47040     47042     47041     47043     47045     47044     47046
     47048     47047     47049     47051     47050     47052     47054     47053     47055
     47057     47056     47058     47060     47059     47061     47063     47062     47064
     47066     47065     47067     47069     47068     47070     47072     47071     47073
     47075     47074     47076     47078     47077     47079     47081     47080     47082
     47084     47083     47085     47087     47086     47088     47090     47089     47091
     47093     47092     47094     47096     47095     47097     47099     47098     47100
     47102     47101     47103     47105     47104     47106     47108     47107     47109
     47111     47110     47112     47114     47113     47115     47117     47116     47118
     47120     47119     47121     47123     47122     47124     47126     47125     47127
     47129     47128     47130     47132     47131     47133     47135     47134     47136
     47138     47137     47139     47141     47140     47142     47144     47143     47145
     47147     47146     47148     47150     47149     47151     47153     47152     47154
     47156     47155     47157     47159     47158     47160     47162     47161     47163
     47165     47164     47166     47168     47167     47169     47171     47170     47172
     47174     47173     47175     47177     47176     47178     47180     47179     47181
     47183     47182     47184     47186     47185     47187     47189     47188     47190
     47192     47191     47193     47195     47194     47196     47198     47197     47199
     47201     47200     47202     47204     47203     47205     47207     47206     47208
     47210     47209     47211     47213     47212     47214     47216     47215     47217
     47219     47218     47220     47222     47221     47223     47225     47224     47226
     47228     47227     47229     47231     47230     47232     47234     47233     47235
     47237     47236     47238     47240     47239     47241     47243     47242     47244
     47246     47245     47247     47249     47248     47250     47252     47251     47253
     47255     47254     47256     47258     47257     47259     47261     47260     47262
     47264     47263     47265     47267     47266     47268     47270     47269     47271
     47273     47272     47274     47276     47275     47277     47279     47278     47280
     47282     47281     47283     47285     47284     47286     47288     47287     47289
     47291     47290     47292     47294     47293     47295     47297     47296     47298
     47300     47299     47301     47303     47302     47304     47306     47305     47307
     47309     47308     47310     47312     47311     47313     47315     47314     47316
     47318     47317     47319     47321     47320     47322     47324     47323     47325
     47327     47326     47328     47330     47329     47331     47333     47332     47334
     47336     47335     47337     47339     47338     47340     47342     47341     47343
     47345     47344     47346     47348     47347     47349     47351     47350     47352
     47354     47353     47355     47357     47356     47358     47360     47359     47361
     47363     47362     47364     47366     47365     47367     47369     47368     47370
     47372     47371     47373     47375     47374     47376     47378     47377     47379
     47381     47380     47382     47384     47383     47385     47387     47386     47388
     47390     47389     47391     47393     47392     47394     47396     47395     47397
     47399     47398     47400     47402     47401     47403     47405     47404     47406
     47408     47407     47409     47411     47410     47412     47414     47413     47415
     47417     47416     47418     47420     47419     47421     47423     47422     47424
     47426     47425     47427     47429     47428     47430     47432     47431     47433
     47435     47434     47436     47438     47437     47439     47441     47440     47442
     47444     47443     47445     47447     47446     47448     47450     47449     47451
     47453     47452     47454     47456     47455     47457     47459     47458     47460
     47462     47461     47463     47465     47464     47466     47468     47467     47469
     47471     47470     47472     47474     47473     47475     47477     47476     47478
     47480     47479     47481     47483     47482     47484     47486     47485     47487
     47489     47488     47490     47492     47491     47493     47495     47494     47496
     47498     47497     47499     47501     47500     47502     47504     47503     47505
     47507     47506     47508     47510     47509     47511     47513     47512     47514
     47516     47515     47517     47519     47518     47520     47522     47521     47523
     47525     47524     47526     47528     47527     47529     47531     47530     47532
     47534     47533     47535     47537     47536     47538     47540     47539     47541
     47543     47542     47544     47546     47545     47547     47549     47548     47550
     47552     47551     47553     47555     47554     47556     47558     47557     47559
     47561     47560     47562     47564     47563     47565     47567     47566     47568
     47570     47569     47571     47573     47572     47574     47576     47575     47577
     47579     47578     47580     47582     47581     47583     47585     47584     47586
     47588     47587     47589     47591     47590     47592     47594     47593     47595
     47597     47596     47598     47600     47599     47601     47603     47602     47604
     47606     47605     47607     47609     47608     47610     47612     47611     47613
     47615     47614     47616     47618     47617     47619     47621     47620     47622
     47624     47623     47625     47627     47626     47628     47630     47629     47631
     47633     47632     47634     47636     47635     47637     47639     47638     47640
     47642     47641     47643     47645     47644     47646     47648     47647     47649
     47651     47650     47652     47654     47653     47655     47657     47656     47658
     47660     47659     47661     47663     47662     47664     47666     47665     47667
     47669     47668     47670     47672     47671     47673     47675     47674     47676
     47678     47677     47679     47681     47680     47682     47684     47683     47685
     47687     47686     47688     47690     47689     47691     47693     47692     47694
     47696     47695     47697     47699     47698     47700     47702     47701     47703
     47705     47704     47706     47708     47707     47709     47711     47710     47712
     47714     47713     47715     47717     47716     47718     47720     47719     47721
     47723     47722     47724     47726     47725     47727     47729     47728     47730
     47732     47731     47733     47735     47734     47736     47738     47737     47739
     47741     47740     47742     47744     47743     47745     47747     47746     47748
     47750     47749     47751     47753     47752     47754     47756     47755     47757
     47759     47758     47760     47762     47761     47763     47765     47764     47766
     47768     47767     47769     47771     47770     47772     47774     47773     47775
     47777     47776     47778     47780     47779     47781     47783     47782     47784
     47786     47785     47787     47789     47788     47790     47792     47791     47793
     47795     47794     47796     47798     47797     47799     47801     47800     47802
     47804     47803     47805     47807     47806     47808     47810     47809     47811
     47813     47812     47814     47816     47815     47817     47819     47818     47820
     47822     47821     47823     47825     47824     47826     47828     47827     47829
     47831     47830     47832     47834     47833     47835     47837     47836     47838
     47840     47839     47841     47843     47842     47844     47846     47845     47847
     47849     47848     47850     47852     47851     47853     47855     47854     47856
     47858     47857     47859     47861     47860     47862     47864     47863     47865
     47867     47866     47868     47870     47869     47871     47873     47872     47874
     47876     47875     47877     47879     47878     47880     47882     47881     47883
     47885     47884     47886     47888     47887     47889     47891     47890     47892
     47894     47893     47895     47897     47896     47898     47900     47899     47901
     47903     47902     47904     47906     47905     47907     47909     47908     47910
     47912     47911     47913     47915     47914     47916     47918     47917     47919
     47921     47920     47922     47924     47923     47925     47927     47926     47928
     47930     47929     47931     47933     47932     47934     47936     47935     47937
     47939     47938     47940     47942     47941     47943     47945     47944     47946
     47948     47947     47949     47951     47950     47952     47954     47953     47955
     47957     47956     47958     47960     47959     47961     47963     47962     47964
     47966     47965     47967     47969     47968     47970     47972     47971     47973
     47975     47974     47976     47978     47977     47979     47981     47980     47982
     47984     47983     47985     47987     47986     47988     47990     47989     47991
     47993     47992     47994     47996     47995     47997     47999     47998     48000
     48002     48001     48003     48005     48004     48006     48008     48007     48009
     48011     48010     48012     48014     48013     48015     48017     48016     48018
     48020     48019     48021     48023     48022     48024     48026     48025     48027
     48029     48028     48030     48032     48031     48033     48035     48034     48036
     48038     48037     48039     48041     48040     48042     48044     48043     48045
     48047     48046     48048     48050     48049     48051     48053     48052     48054
     48056     48055     48057     48059     48058     48060     48062     48061     48063
     48065     48064     48066     48068     48067     48069     48071     48070     48072
     48074     48073     48075     48077     48076     48078     48080     48079     48081
     48083     48082     48084     48086     48085     48087     48089     48088     48090
     48092     48091     48093     48095     48094     48096     48098     48097     48099
     48101     48100     48102     48104     48103     48105     48107     48106     48108
     48110     48109     48111     48113     48112     48114     48116     48115     48117
     48119     48118     48120     48122     48121     48123     48125     48124     48126
     48128     48127     48129     48131     48130     48132     48134     48133     48135
     48137     48136     48138     48140     48139     48141     48143     48142     48144
     48146     48145     48147     48149     48148     48150     48152     48151     48153
     48155     48154     48156     48158     48157     48159     48161     48160     48162
     48164     48163     48165     48167     48166     48168     48170     48169     48171
     48173     48172     48174     48176     48175     48177     48179     48178     48180
     48182     48181     48183     48185     48184     48186     48188     48187     48189
     48191     48190     48192     48194     48193     48195     48197     48196     48198
     48200     48199     48201     48203     48202     48204     48206     48205     48207
     48209     48208     48210     48212     48211     48213     48215     48214     48216
     48218     48217     48219     48221     48220     48222     48224     48223     48225
     48227     48226     48228     48230     48229     48231     48233     48232     48234
     48236     48235     48237     48239     48238     48240     48242     48241     48243
     48245     48244     48246     48248     48247     48249     48251     48250     48252
     48254     48253     48255     48257     48256     48258     48260     48259     48261
     48263     48262     48264     48266     48265     48267     48269     48268     48270
     48272     48271     48273     48275     48274     48276     48278     48277     48279
     48281     48280     48282     48284     48283     48285     48287     48286     48288
     48290     48289     48291     48293     48292     48294     48296     48295     48297
     48299     48298     48300     48302     48301     48303     48305     48304     48306
     48308     48307     48309     48311     48310     48312     48314     48313     48315
     48317     48316     48318     48320     48319     48321     48323     48322     48324
     48326     48325     48327     48329     48328     48330     48332     48331     48333
     48335     48334     48336     48338     48337     48339     48341     48340     48342
     48344     48343     48345     48347     48346     48348     48350     48349     48351
     48353     48352     48354     48356     48355     48357     48359     48358     48360
     48362     48361     48363     48365     48364     48366     48368     48367     48369
     48371     48370     48372     48374     48373     48375     48377     48376     48378
     48380     48379     48381     48383     48382     48384     48386     48385     48387
     48389     48388     48390     48392     48391     48393     48395     48394     48396
     48398     48397     48399     48401     48400     48402     48404     48403     48405
     48407     48406     48408     48410     48409     48411     48413     48412     48414
     48416     48415     48417     48419     48418     48420     48422     48421     48423
     48425     48424     48426     48428     48427     48429     48431     48430     48432
     48434     48433     48435     48437     48436     48438     48440     48439     48441
     48443     48442     48444     48446     48445     48447     48449     48448     48450
     48452     48451     48453     48455     48454     48456     48458     48457     48459
     48461     48460     48462     48464     48463     48465     48467     48466     48468
     48470     48469     48471     48473     48472     48474     48476     48475     48477
     48479     48478     48480     48482     48481     48483     48485     48484     48486
     48488     48487     48489     48491     48490     48492     48494     48493     48495
     48497     48496     48498     48500     48499     48501     48503     48502     48504
     48506     48505     48507     48509     48508     48510     48512     48511     48513
     48515     48514     48516     48518     48517     48519     48521     48520     48522
     48524     48523     48525     48527     48526     48528     48530     48529     48531
     48533     48532     48534     48536     48535     48537     48539     48538     48540
     48542     48541     48543     48545     48544     48546     48548     48547     48549
     48551     48550     48552     48554     48553     48555     48557     48556     48558
     48560     48559     48561     48563     48562     48564     48566     48565     48567
     48569     48568     48570     48572     48571     48573     48575     48574     48576
     48578     48577     48579     48581     48580     48582     48584     48583     48585
     48587     48586     48588     48590     48589     48591     48593     48592     48594
     48596     48595     48597     48599     48598     48600     48602     48601     48603
     48605     48604     48606     48608     48607     48609     48611     48610     48612
     48614     48613     48615     48617     48616     48618     48620     48619     48621
     48623     48622     48624     48626     48625     48627     48629     48628     48630
     48632     48631     48633     48635     48634     48636     48638     48637     48639
     48641     48640     48642     48644     48643     48645     48647     48646     48648
     48650     48649     48651     48653     48652     48654     48656     48655     48657
     48659     48658     48660     48662     48661     48663     48665     48664     48666
     48668     48667     48669     48671     48670     48672     48674     48673     48675
     48677     48676     48678     48680     48679     48681     48683     48682     48684
     48686     48685     48687     48689     48688     48690     48692     48691     48693
     48695     48694     48696     48698     48697     48699     48701     48700     48702
     48704     48703     48705     48707     48706     48708     48710     48709     48711
     48713     48712     48714     48716     48715     48717     48719     48718     48720
     48722     48721     48723     48725     48724     48726     48728     48727     48729
     48731     48730     48732     48734     48733     48735     48737     48736     48738
     48740     48739     48741     48743     48742     48744     48746     48745     48747
     48749     48748     48750     48752     48751     48753     48755     48754     48756
     48758     48757     48759     48761     48760     48762     48764     48763     48765
     48767     48766     48768     48770     48769     48771     48773     48772     48774
     48776     48775     48777     48779     48778     48780     48782     48781     48783
     48785     48784     48786     48788     48787     48789     48791     48790     48792
     48794     48793     48795     48797     48796     48798     48800     48799     48801
     48803     48802     48804     48806     48805     48807     48809     48808     48810
     48812     48811     48813     48815     48814     48816     48818     48817     48819
     48821     48820     48822     48824     48823     48825     48827     48826     48828
     48830     48829     48831     48833     48832     48834     48836     48835     48837
     48839     48838     48840     48842     48841     48843     48845     48844     48846
     48848     48847     48849     48851     48850     48852     48854     48853     48855
     48857     48856     48858     48860     48859     48861     48863     48862     48864
     48866     48865     48867     48869     48868     48870     48872     48871     48873
     48875     48874     48876     48878     48877     48879     48881     48880     48882
     48884     48883     48885     48887     48886     48888     48890     48889     48891
     48893     48892     48894     48896     48895     48897     48899     48898     48900
     48902     48901     48903     48905     48904     48906     48908     48907     48909
     48911     48910     48912     48914     48913     48915     48917     48916     48918
     48920     48919     48921     48923     48922     48924     48926     48925     48927
     48929     48928     48930     48932     48931     48933     48935     48934     48936
     48938     48937     48939     48941     48940     48942     48944     48943     48945
     48947     48946     48948     48950     48949     48951     48953     48952     48954
     48956     48955     48957     48959     48958     48960     48962     48961     48963
     48965     48964     48966     48968     48967     48969     48971     48970     48972
     48974     48973     48975     48977     48976     48978     48980     48979     48981
     48983     48982     48984     48986     48985     48987     48989     48988     48990
     48992     48991     48993     48995     48994     48996     48998     48997     48999
     49001     49000     49002     49004     49003     49005     49007     49006     49008
     49010     49009     49011     49013     49012     49014     49016     49015     49017
     49019     49018     49020     49022     49021     49023     49025     49024     49026
     49028     49027     49029     49031     49030     49032     49034     49033     49035
     49037     49036     49038     49040     49039     49041     49043     49042     49044
     49046     49045     49047     49049     49048     49050     49052     49051     49053
     49055     49054     49056     49058     49057     49059     49061     49060     49062
     49064     49063     49065     49067     49066     49068     49070     49069     49071
     49073     49072     49074     49076     49075     49077     49079     49078     49080
     49082     49081     49083     49085     49084     49086     49088     49087     49089
     49091     49090     49092     49094     49093     49095     49097     49096     49098
     49100     49099     49101     49103     49102     49104     49106     49105     49107
     49109     49108     49110     49112     49111     49113     49115     49114     49116
     49118     49117     49119     49121     49120     49122     49124     49123     49125
     49127     49126     49128     49130     49129     49131     49133     49132     49134
     49136     49135     49137     49139     49138     49140     49142     49141     49143
     49145     49144     49146     49148     49147     49149     49151     49150     49152
     49154     49153     49155     49157     49156     49158     49160     49159     49161
     49163     49162     49164     49166     49165     49167     49169     49168     49170
     49172     49171     49173     49175     49174     49176     49178     49177     49179
     49181     49180     49182     49184     49183     49185     49187     49186     49188
     49190     49189     49191     49193     49192     49194     49196     49195     49197
     49199     49198     49200     49202     49201     49203     49205     49204     49206
     49208     49207     49209     49211     49210     49212     49214     49213     49215
     49217     49216     49218     49220     49219     49221     49223     49222     49224
     49226     49225     49227     49229     49228     49230     49232     49231     49233
     49235     49234     49236     49238     49237     49239     49241     49240     49242
     49244     49243     49245     49247     49246     49248     49250     49249     49251
     49253     49252     49254     49256     49255     49257     49259     49258     49260
     49262     49261     49263     49265     49264     49266     49268     49267     49269
     49271     49270     49272     49274     49273     49275     49277     49276     49278
     49280     49279     49281     49283     49282     49284     49286     49285     49287
     49289     49288     49290     49292     49291     49293     49295     49294     49296
     49298     49297     49299     49301     49300     49302     49304     49303     49305
     49307     49306     49308     49310     49309     49311     49313     49312     49314
     49316     49315     49317     49319     49318     49320     49322     49321     49323
     49325     49324     49326     49328     49327     49329     49331     49330     49332
     49334     49333     49335     49337     49336     49338     49340     49339     49341
     49343     49342     49344     49346     49345     49347     49349     49348     49350
     49352     49351     49353     49355     49354     49356     49358     49357     49359
     49361     49360     49362     49364     49363     49365     49367     49366     49368
     49370     49369     49371     49373     49372     49374     49376     49375     49377
     49379     49378     49380     49382     49381     49383     49385     49384     49386
     49388     49387     49389     49391     49390     49392     49394     49393     49395
     49397     49396     49398     49400     49399     49401     49403     49402     49404
     49406     49405     49407     49409     49408     49410     49412     49411     49413
     49415     49414     49416     49418     49417     49419     49421     49420     49422
     49424     49423     49425     49427     49426     49428     49430     49429     49431
     49433     49432     49434     49436     49435     49437     49439     49438     49440
     49442     49441     49443     49445     49444     49446     49448     49447     49449
     49451     49450     49452     49454     49453     49455     49457     49456     49458
     49460     49459     49461     49463     49462     49464     49466     49465     49467
     49469     49468     49470     49472     49471     49473     49475     49474     49476
     49478     49477     49479     49481     49480     49482     49484     49483     49485
     49487     49486     49488     49490     49489     49491     49493     49492     49494
     49496     49495     49497     49499     49498     49500     49502     49501     49503
     49505     49504     49506     49508     49507     49509     49511     49510     49512
     49514     49513     49515     49517     49516     49518     49520     49519     49521
     49523     49522     49524     49526     49525     49527     49529     49528     49530
     49532     49531     49533     49535     49534     49536     49538     49537     49539
     49541     49540     49542     49544     49543     49545     49547     49546     49548
     49550     49549     49551     49553     49552     49554     49556     49555     49557
     49559     49558     49560     49562     49561     49563     49565     49564     49566
     49568     49567     49569     49571     49570     49572     49574     49573     49575
     49577     49576     49578     49580     49579     49581     49583     49582     49584
     49586     49585     49587     49589     49588     49590     49592     49591     49593
     49595     49594     49596     49598     49597     49599     49601     49600     49602
     49604     49603     49605     49607     49606     49608     49610     49609     49611
     49613     49612     49614     49616     49615     49617     49619     49618     49620
     49622     49621     49623     49625     49624     49626     49628     49627     49629
     49631     49630     49632     49634     49633     49635     49637     49636     49638
     49640     49639     49641     49643     49642     49644     49646     49645     49647
     49649     49648     49650     49652     49651     49653     49655     49654     49656
     49658     49657     49659     49661     49660     49662     49664     49663     49665
     49667     49666     49668     49670     49669     49671     49673     49672     49674
     49676     49675     49677     49679     49678     49680     49682     49681     49683
     49685     49684     49686     49688     49687     49689     49691     49690     49692
     49694     49693     49695     49697     49696     49698     49700     49699     49701
     49703     49702     49704     49706     49705     49707     49709     49708     49710
     49712     49711     49713     49715     49714     49716     49718     49717     49719
     49721     49720     49722     49724     49723     49725     49727     49726     49728
     49730     49729     49731     49733     49732     49734     49736     49735     49737
     49739     49738     49740     49742     49741     49743     49745     49744     49746
     49748     49747     49749     49751     49750     49752     49754     49753     49755
     49757     49756     49758     49760     49759     49761     49763     49762     49764
     49766     49765     49767     49769     49768     49770     49772     49771     49773
     49775     49774     49776     49778     49777     49779     49781     49780     49782
     49784     49783     49785     49787     49786     49788     49790     49789     49791
     49793     49792     49794     49796     49795     49797     49799     49798     49800
     49802     49801     49803     49805     49804     49806     49808     49807     49809
     49811     49810     49812     49814     49813     49815     49817     49816     49818
     49820     49819     49821     49823     49822     49824     49826     49825     49827
     49829     49828     49830     49832     49831     49833     49835     49834     49836
     49838     49837     49839     49841     49840     49842     49844     49843     49845
     49847     49846     49848     49850     49849     49851     49853     49852     49854
     49856     49855     49857     49859     49858     49860     49862     49861     49863
     49865     49864     49866     49868     49867     49869     49871     49870     49872
     49874     49873     49875     49877     49876     49878     49880     49879     49881
     49883     49882     49884     49886     49885     49887     49889     49888     49890
     49892     49891     49893     49895     49894     49896     49898     49897     49899
     49901     49900     49902     49904     49903     49905     49907     49906     49908
     49910     49909     49911     49913     49912     49914     49916     49915     49917
     49919     49918     49920     49922     49921     49923     49925     49924     49926
     49928     49927     49929     49931     49930     49932     49934     49933     49935
     49937     49936     49938     49940     49939     49941     49943     49942     49944
     49946     49945     49947     49949     49948     49950     49952     49951     49953
     49955     49954     49956     49958     49957     49959     49961     49960     49962
     49964     49963     49965     49967     49966     49968     49970     49969     49971
     49973     49972     49974     49976     49975     49977     49979     49978     49980
     49982     49981     49983     49985     49984     49986     49988     49987     49989
     49991     49990     49992     49994     49993     49995     49997     49996     49998
     50000     49999     50001     50003     50002     50004     50006     50005     50007
     50009     50008     50010     50012     50011     50013     50015     50014     50016
     50018     50017     50019     50021     50020     50022     50024     50023     50025
     50027     50026     50028     50030     50029     50031     50033     50032     50034
     50036     50035     50037     50039     50038     50040     50042     50041     50043
     50045     50044     50046     50048     50047     50049     50051     50050     50052
     50054     50053     50055     50057     50056     50058     50060     50059     50061
     50063     50062     50064     50066     50065     50067     50069     50068     50070
     50072     50071     50073     50075     50074     50076     50078     50077     50079
     50081     50080     50082     50084     50083     50085     50087     50086     50088
     50090     50089     50091     50093     50092     50094     50096     50095     50097
     50099     50098     50100     50102     50101     50103     50105     50104     50106
     50108     50107     50109     50111     50110     50112     50114     50113     50115
     50117     50116     50118     50120     50119     50121     50123     50122     50124
     50126     50125     50127     50129     50128     50130     50132     50131     50133
     50135     50134     50136     50138     50137     50139     50141     50140     50142
     50144     50143     50145     50147     50146     50148     50150     50149     50151
     50153     50152     50154     50156     50155     50157     50159     50158     50160
     50162     50161     50163     50165     50164     50166     50168     50167     50169
     50171     50170     50172     50174     50173     50175     50177     50176     50178
     50180     50179     50181     50183     50182     50184     50186     50185     50187
     50189     50188     50190     50192     50191     50193     50195     50194     50196
     50198     50197     50199     50201     50200     50202     50204     50203     50205
     50207     50206     50208     50210     50209     50211     50213     50212     50214
     50216     50215     50217     50219     50218     50220     50222     50221     50223
     50225     50224     50226     50228     50227     50229     50231     50230     50232
     50234     50233     50235     50237     50236     50238     50240     50239     50241
     50243     50242     50244     50246     50245     50247     50249     50248     50250
     50252     50251     50253     50255     50254     50256     50258     50257     50259
     50261     50260     50262     50264     50263     50265     50267     50266     50268
     50270     50269     50271     50273     50272     50274     50276     50275     50277
     50279     50278     50280     50282     50281     50283     50285     50284     50286
     50288     50287     50289     50291     50290     50292     50294     50293     50295
     50297     50296     50298     50300     50299     50301     50303     50302     50304
     50306     50305     50307     50309     50308     50310     50312     50311     50313
     50315     50314     50316     50318     50317     50319     50321     50320     50322
     50324     50323     50325     50327     50326     50328     50330     50329     50331
     50333     50332     50334     50336     50335     50337     50339     50338     50340
     50342     50341     50343     50345     50344     50346     50348     50347     50349
     50351     50350     50352     50354     50353     50355     50357     50356     50358
     50360     50359     50361     50363     50362     50364     50366     50365     50367
     50369     50368     50370     50372     50371     50373     50375     50374     50376
     50378     50377     50379     50381     50380     50382     50384     50383     50385
     50387     50386     50388     50390     50389     50391     50393     50392     50394
     50396     50395     50397     50399     50398     50400     50402     50401     50403
     50405     50404     50406     50408     50407     50409     50411     50410     50412
     50414     50413     50415     50417     50416     50418     50420     50419     50421
     50423     50422     50424     50426     50425     50427     50429     50428     50430
     50432     50431     50433     50435     50434     50436     50438     50437     50439
     50441     50440     50442     50444     50443     50445     50447     50446     50448
     50450     50449     50451     50453     50452     50454     50456     50455     50457
     50459     50458     50460     50462     50461     50463     50465     50464     50466
     50468     50467     50469     50471     50470     50472     50474     50473     50475
     50477     50476     50478     50480     50479     50481     50483     50482     50484
     50486     50485     50487     50489     50488     50490     50492     50491     50493
     50495     50494     50496     50498     50497     50499     50501     50500     50502
     50504     50503     50505     50507     50506     50508     50510     50509     50511
     50513     50512     50514     50516     50515     50517     50519     50518     50520
     50522     50521     50523     50525     50524     50526     50528     50527     50529
     50531     50530     50532     50534     50533     50535     50537     50536     50538
     50540     50539     50541     50543     50542     50544     50546     50545     50547
     50549     50548     50550     50552     50551     50553     50555     50554     50556
     50558     50557     50559     50561     50560     50562     50564     50563     50565
     50567     50566     50568     50570     50569     50571     50573     50572     50574
     50576     50575     50577     50579     50578     50580     50582     50581     50583
     50585     50584     50586     50588     50587     50589     50591     50590     50592
     50594     50593     50595     50597     50596     50598     50600     50599     50601
     50603     50602     50604     50606     50605     50607     50609     50608     50610
     50612     50611     50613     50615     50614     50616     50618     50617     50619
     50621     50620     50622     50624     50623     50625     50627     50626     50628
     50630     50629     50631     50633     50632     50634     50636     50635     50637
     50639     50638     50640     50642     50641     50643     50645     50644     50646
     50648     50647     50649     50651     50650     50652     50654     50653     50655
     50657     50656     50658     50660     50659     50661     50663     50662     50664
     50666     50665     50667     50669     50668     50670     50672     50671     50673
     50675     50674     50676     50678     50677     50679     50681     50680     50682
     50684     50683     50685     50687     50686     50688     50690     50689     50691
     50693     50692     50694     50696     50695     50697     50699     50698     50700
     50702     50701     50703     50705     50704     50706     50708     50707     50709
     50711     50710     50712     50714     50713     50715     50717     50716     50718
     50720     50719     50721     50723     50722     50724     50726     50725     50727
     50729     50728     50730     50732     50731     50733     50735     50734     50736
     50738     50737     50739     50741     50740     50742     50744     50743     50745
     50747     50746     50748     50750     50749     50751     50753     50752     50754
     50756     50755     50757     50759     50758     50760     50762     50761     50763
     50765     50764     50766     50768     50767     50769     50771     50770     50772
     50774     50773     50775     50777     50776     50778     50780     50779     50781
     50783     50782     50784     50786     50785     50787     50789     50788     50790
     50792     50791     50793     50795     50794     50796     50798     50797     50799
     50801     50800     50802     50804     50803     50805     50807     50806     50808
     50810     50809     50811     50813     50812     50814     50816     50815     50817
     50819     50818     50820     50822     50821     50823     50825     50824     50826
     50828     50827     50829     50831     50830     50832     50834     50833     50835
     50837     50836     50838     50840     50839     50841     50843     50842     50844
     50846     50845     50847     50849     50848     50850     50852     50851     50853
     50855     50854     50856     50858     50857     50859     50861     50860     50862
     50864     50863     50865     50867     50866     50868     50870     50869     50871
     50873     50872     50874     50876     50875     50877     50879     50878     50880
     50882     50881     50883     50885     50884     50886     50888     50887     50889
     50891     50890     50892     50894     50893     50895     50897     50896     50898
     50900     50899     50901     50903     50902     50904     50906     50905     50907
     50909     50908     50910     50912     50911     50913     50915     50914     50916
     50918     50917     50919     50921     50920     50922     50924     50923     50925
     50927     50926     50928     50930     50929     50931     50933     50932     50934
     50936     50935     50937     50939     50938     50940     50942     50941     50943
     50945     50944     50946     50948     50947     50949     50951     50950     50952
     50954     50953     50955     50957     50956     50958     50960     50959     50961
     50963     50962     50964     50966     50965     50967     50969     50968     50970
     50972     50971     50973     50975     50974     50976     50978     50977     50979
     50981     50980     50982     50984     50983     50985     50987     50986     50988
     50990     50989     50991     50993     50992     50994     50996     50995     50997
     50999     50998     51000     51002     51001     51003     51005     51004     51006
     51008     51007     51009     51011     51010     51012     51014     51013     51015
     51017     51016     51018     51020     51019     51021     51023     51022     51024
     51026     51025     51027     51029     51028     51030     51032     51031     51033
     51035     51034     51036     51038     51037     51039     51041     51040     51042
     51044     51043     51045     51047     51046     51048     51050     51049     51051
     51053     51052     51054     51056     51055     51057     51059     51058     51060
     51062     51061     51063     51065     51064     51066     51068     51067     51069
     51071     51070     51072     51074     51073     51075     51077     51076     51078
     51080     51079     51081     51083     51082     51084     51086     51085     51087
     51089     51088     51090     51092     51091     51093     51095     51094     51096
     51098     51097     51099     51101     51100     51102     51104     51103     51105
     51107     51106     51108     51110     51109     51111     51113     51112     51114
     51116     51115     51117     51119     51118     51120     51122     51121     51123
     51125     51124     51126     51128     51127     51129     51131     51130     51132
     51134     51133     51135     51137     51136     51138     51140     51139     51141
     51143     51142     51144     51146     51145     51147     51149     51148     51150
     51152     51151     51153     51155     51154     51156     51158     51157     51159
     51161     51160     51162     51164     51163     51165     51167     51166     51168
     51170     51169     51171     51173     51172     51174     51176     51175     51177
     51179     51178     51180     51182     51181     51183     51185     51184     51186
     51188     51187     51189     51191     51190     51192     51194     51193     51195
     51197     51196     51198     51200     51199     51201     51203     51202     51204
     51206     51205     51207     51209     51208     51210     51212     51211     51213
     51215     51214     51216     51218     51217     51219     51221     51220     51222
     51224     51223     51225     51227     51226     51228     51230     51229     51231
     51233     51232     51234     51236     51235     51237     51239     51238     51240
     51242     51241     51243     51245     51244     51246     51248     51247     51249
     51251     51250     51252     51254     51253     51255     51257     51256     51258
     51260     51259     51261     51263     51262     51264     51266     51265     51267
     51269     51268     51270     51272     51271     51273     51275     51274     51276
     51278     51277     51279     51281     51280     51282     51284     51283     51285
     51287     51286     51288     51290     51289     51291     51293     51292     51294
     51296     51295     51297     51299     51298     51300     51302     51301     51303
     51305     51304     51306     51308     51307     51309     51311     51310     51312
     51314     51313     51315     51317     51316     51318     51320     51319     51321
     51323     51322     51324     51326     51325     51327     51329     51328     51330
     51332     51331     51333     51335     51334     51336     51338     51337     51339
     51341     51340     51342     51344     51343     51345     51347     51346     51348
     51350     51349     51351     51353     51352     51354     51356     51355     51357
     51359     51358     51360     51362     51361     51363     51365     51364     51366
     51368     51367     51369     51371     51370     51372     51374     51373     51375
     51377     51376     51378     51380     51379     51381     51383     51382     51384
     51386     51385     51387     51389     51388     51390     51392     51391     51393
     51395     51394     51396     51398     51397     51399     51401     51400     51402
     51404     51403     51405     51407     51406     51408     51410     51409     51411
     51413     51412     51414     51416     51415     51417     51419     51418     51420
     51422     51421     51423     51425     51424     51426     51428     51427     51429
     51431     51430     51432     51434     51433     51435     51437     51436     51438
     51440     51439     51441     51443     51442     51444     51446     51445     51447
     51449     51448     51450     51452     51451     51453     51455     51454     51456
     51458     51457     51459     51461     51460     51462     51464     51463     51465
     51467     51466     51468     51470     51469     51471     51473     51472     51474
     51476     51475     51477     51479     51478     51480     51482     51481     51483
     51485     51484     51486     51488     51487     51489     51491     51490     51492
     51494     51493     51495     51497     51496     51498     51500     51499     51501
     51503     51502     51504     51506     51505     51507     51509     51508     51510
     51512     51511     51513     51515     51514     51516     51518     51517     51519
     51521     51520     51522     51524     51523     51525     51527     51526     51528
     51530     51529     51531     51533     51532     51534     51536     51535     51537
     51539     51538     51540     51542     51541     51543     51545     51544     51546
     51548     51547     51549     51551     51550     51552     51554     51553     51555
     51557     51556     51558     51560     51559     51561     51563     51562     51564
     51566     51565     51567     51569     51568     51570     51572     51571     51573
     51575     51574     51576     51578     51577     51579     51581     51580     51582
     51584     51583     51585     51587     51586     51588     51590     51589     51591
     51593     51592     51594     51596     51595     51597     51599     51598     51600
     51602     51601     51603     51605     51604     51606     51608     51607     51609
     51611     51610     51612     51614     51613     51615     51617     51616     51618
     51620     51619     51621     51623     51622     51624     51626     51625     51627
     51629     51628     51630     51632     51631     51633     51635     51634     51636
     51638     51637     51639     51641     51640     51642     51644     51643     51645
     51647     51646     51648     51650     51649     51651     51653     51652     51654
     51656     51655     51657     51659     51658     51660     51662     51661     51663
     51665     51664     51666     51668     51667     51669     51671     51670     51672
     51674     51673     51675     51677     51676     51678     51680     51679     51681
     51683     51682     51684     51686     51685     51687     51689     51688     51690
     51692     51691     51693     51695     51694     51696     51698     51697     51699
     51701     51700     51702     51704     51703     51705     51707     51706     51708
     51710     51709     51711     51713     51712     51714     51716     51715     51717
     51719     51718     51720     51722     51721     51723     51725     51724     51726
     51728     51727     51729     51731     51730     51732     51734     51733     51735
     51737     51736     51738     51740     51739     51741     51743     51742     51744
     51746     51745     51747     51749     51748     51750     51752     51751     51753
     51755     51754     51756     51758     51757     51759     51761     51760     51762
     51764     51763     51765     51767     51766     51768     51770     51769     51771
     51773     51772     51774     51776     51775     51777     51779     51778     51780
     51782     51781     51783     51785     51784     51786     51788     51787     51789
     51791     51790     51792     51794     51793     51795     51797     51796     51798
     51800     51799     51801     51803     51802     51804     51806     51805     51807
     51809     51808     51810     51812     51811     51813     51815     51814     51816
     51818     51817     51819     51821     51820     51822     51824     51823     51825
     51827     51826     51828     51830     51829     51831     51833     51832     51834
     51836     51835     51837     51839     51838     51840     51842     51841     51843
     51845     51844     51846     51848     51847     51849     51851     51850     51852
     51854     51853     51855     51857     51856     51858     51860     51859     51861
     51863     51862     51864     51866     51865     51867     51869     51868     51870
     51872     51871     51873     51875     51874     51876     51878     51877     51879
     51881     51880     51882     51884     51883     51885     51887     51886     51888
     51890     51889     51891     51893     51892     51894     51896     51895     51897
     51899     51898     51900     51902     51901     51903     51905     51904     51906
     51908     51907     51909     51911     51910     51912     51914     51913     51915
     51917     51916     51918     51920     51919     51921     51923     51922     51924
     51926     51925     51927     51929     51928     51930     51932     51931     51933
     51935     51934     51936     51938     51937     51939     51941     51940     51942
     51944     51943     51945     51947     51946     51948     51950     51949     51951
     51953     51952     51954     51956     51955     51957     51959     51958     51960
     51962     51961     51963     51965     51964     51966     51968     51967     51969
     51971     51970     51972     51974     51973     51975     51977     51976     51978
     51980     51979     51981     51983     51982     51984     51986     51985     51987
     51989     51988     51990     51992     51991     51993     51995     51994     51996
     51998     51997     51999     52001     52000     52002     52004     52003     52005
     52007     52006     52008     52010     52009     52011     52013     52012     52014
     52016     52015     52017     52019     52018     52020     52022     52021     52023
     52025     52024     52026     52028     52027     52029     52031     52030     52032
     52034     52033     52035     52037     52036     52038     52040     52039     52041
     52043     52042     52044     52046     52045     52047     52049     52048     52050
     52052     52051     52053     52055     52054     52056     52058     52057     52059
     52061     52060     52062     52064     52063     52065     52067     52066     52068
     52070     52069     52071     52073     52072     52074     52076     52075     52077
     52079     52078     52080     52082     52081     52083     52085     52084     52086
     52088     52087     52089     52091     52090     52092     52094     52093     52095
     52097     52096     52098     52100     52099     52101     52103     52102     52104
     52106     52105     52107     52109     52108     52110     52112     52111     52113
     52115     52114     52116     52118     52117     52119     52121     52120     52122
     52124     52123     52125     52127     52126     52128     52130     52129     52131
     52133     52132     52134     52136     52135     52137     52139     52138     52140
     52142     52141     52143     52145     52144     52146     52148     52147     52149
     52151     52150     52152     52154     52153     52155     52157     52156     52158
     52160     52159     52161     52163     52162     52164     52166     52165     52167
     52169     52168     52170     52172     52171     52173     52175     52174     52176
     52178     52177     52179     52181     52180     52182     52184     52183     52185
     52187     52186     52188     52190     52189     52191     52193     52192     52194
     52196     52195     52197     52199     52198     52200     52202     52201     52203
     52205     52204     52206     52208     52207     52209     52211     52210     52212
     52214     52213     52215     52217     52216     52218     52220     52219     52221
     52223     52222     52224     52226     52225     52227     52229     52228     52230
     52232     52231     52233     52235     52234     52236     52238     52237     52239
     52241     52240     52242     52244     52243     52245     52247     52246     52248
     52250     52249     52251     52253     52252     52254     52256     52255     52257
     52259     52258     52260     52262     52261     52263     52265     52264     52266
     52268     52267     52269     52271     52270     52272     52274     52273     52275
     52277     52276     52278     52280     52279     52281     52283     52282     52284
     52286     52285     52287     52289     52288     52290     52292     52291     52293
     52295     52294     52296     52298     52297     52299     52301     52300     52302
     52304     52303     52305     52307     52306     52308     52310     52309     52311
     52313     52312     52314     52316     52315     52317     52319     52318     52320
     52322     52321     52323     52325     52324     52326     52328     52327     52329
     52331     52330     52332     52334     52333     52335     52337     52336     52338
     52340     52339     52341     52343     52342     52344     52346     52345     52347
     52349     52348     52350     52352     52351     52353     52355     52354     52356
     52358     52357     52359     52361     52360     52362     52364     52363     52365
     52367     52366     52368     52370     52369     52371     52373     52372     52374
     52376     52375     52377     52379     52378     52380     52382     52381     52383
     52385     52384     52386     52388     52387     52389     52391     52390     52392
     52394     52393     52395     52397     52396     52398     52400     52399     52401
     52403     52402     52404     52406     52405     52407     52409     52408     52410
     52412     52411     52413     52415     52414     52416     52418     52417     52419
     52421     52420     52422     52424     52423     52425     52427     52426     52428
     52430     52429     52431     52433     52432     52434     52436     52435     52437
     52439     52438     52440     52442     52441     52443     52445     52444     52446
     52448     52447     52449     52451     52450     52452     52454     52453     52455
     52457     52456     52458     52460     52459     52461     52463     52462     52464
     52466     52465     52467     52469     52468     52470     52472     52471     52473
     52475     52474     52476     52478     52477     52479     52481     52480     52482
     52484     52483     52485     52487     52486     52488     52490     52489     52491
     52493     52492     52494     52496     52495     52497     52499     52498     52500
     52502     52501     52503     52505     52504     52506     52508     52507     52509
     52511     52510     52512     52514     52513     52515     52517     52516     52518
     52520     52519     52521     52523     52522     52524     52526     52525     52527
     52529     52528     52530     52532     52531     52533     52535     52534     52536
     52538     52537     52539     52541     52540     52542     52544     52543     52545
     52547     52546     52548     52550     52549     52551     52553     52552     52554
     52556     52555     52557     52559     52558     52560     52562     52561     52563
     52565     52564     52566     52568     52567     52569     52571     52570     52572
     52574     52573     52575     52577     52576     52578     52580     52579     52581
     52583     52582     52584     52586     52585     52587     52589     52588     52590
     52592     52591     52593     52595     52594     52596     52598     52597     52599
     52601     52600     52602     52604     52603     52605     52607     52606     52608
     52610     52609     52611     52613     52612     52614     52616     52615     52617
     52619     52618     52620     52622     52621     52623     52625     52624     52626
     52628     52627     52629     52631     52630     52632     52634     52633     52635
     52637     52636     52638     52640     52639     52641     52643     52642     52644
     52646     52645     52647     52649     52648     52650     52652     52651     52653
     52655     52654     52656     52658     52657     52659     52661     52660     52662
     52664     52663     52665     52667     52666     52668     52670     52669     52671
     52673     52672     52674     52676     52675     52677     52679     52678     52680
     52682     52681     52683     52685     52684     52686     52688     52687     52689
     52691     52690     52692     52694     52693     52695     52697     52696     52698
     52700     52699     52701     52703     52702     52704     52706     52705     52707
     52709     52708     52710     52712     52711     52713     52715     52714     52716
     52718     52717     52719     52721     52720     52722     52724     52723     52725
     52727     52726     52728     52730     52729     52731     52733     52732     52734
     52736     52735     52737     52739     52738     52740     52742     52741     52743
     52745     52744     52746     52748     52747     52749     52751     52750     52752
     52754     52753     52755     52757     52756     52758     52760     52759     52761
     52763     52762     52764     52766     52765     52767     52769     52768     52770
     52772     52771     52773     52775     52774     52776     52778     52777     52779
     52781     52780     52782     52784     52783     52785     52787     52786     52788
     52790     52789     52791     52793     52792     52794     52796     52795     52797
     52799     52798     52800     52802     52801     52803     52805     52804     52806
     52808     52807     52809     52811     52810     52812     52814     52813     52815
     52817     52816     52818     52820     52819     52821     52823     52822     52824
     52826     52825     52827     52829     52828     52830     52832     52831     52833
     52835     52834     52836     52838     52837     52839     52841     52840     52842
     52844     52843     52845     52847     52846     52848     52850     52849     52851
     52853     52852     52854     52856     52855     52857     52859     52858     52860
     52862     52861     52863     52865     52864     52866     52868     52867     52869
     52871     52870     52872     52874     52873     52875     52877     52876     52878
     52880     52879     52881     52883     52882     52884     52886     52885     52887
     52889     52888     52890     52892     52891     52893     52895     52894     52896
     52898     52897     52899     52901     52900     52902     52904     52903     52905
     52907     52906     52908     52910     52909     52911     52913     52912     52914
     52916     52915     52917     52919     52918     52920     52922     52921     52923
     52925     52924     52926     52928     52927     52929     52931     52930     52932
     52934     52933     52935     52937     52936     52938     52940     52939     52941
     52943     52942     52944     52946     52945     52947     52949     52948     52950
     52952     52951     52953     52955     52954     52956     52958     52957     52959
     52961     52960     52962     52964     52963     52965     52967     52966     52968
     52970     52969     52971     52973     52972     52974     52976     52975     52977
     52979     52978     52980     52982     52981     52983     52985     52984     52986
     52988     52987     52989     52991     52990     52992     52994     52993     52995
     52997     52996     52998     53000     52999     53001     53003     53002     53004
     53006     53005     53007     53009     53008     53010     53012     53011     53013
     53015     53014     53016     53018     53017     53019     53021     53020     53022
     53024     53023     53025     53027     53026     53028     53030     53029     53031
     53033     53032     53034     53036     53035     53037     53039     53038     53040
     53042     53041     53043     53045     53044     53046     53048     53047     53049
     53051     53050     53052     53054     53053     53055     53057     53056     53058
     53060     53059     53061     53063     53062     53064     53066     53065     53067
     53069     53068     53070     53072     53071     53073     53075     53074     53076
     53078     53077     53079     53081     53080     53082     53084     53083     53085
     53087     53086     53088     53090     53089     53091     53093     53092     53094
     53096     53095     53097     53099     53098     53100     53102     53101     53103
     53105     53104     53106     53108     53107     53109     53111     53110     53112
     53114     53113     53115     53117     53116     53118     53120     53119     53121
     53123     53122     53124     53126     53125     53127     53129     53128     53130
     53132     53131     53133     53135     53134     53136     53138     53137     53139
     53141     53140     53142     53144     53143     53145     53147     53146     53148
     53150     53149     53151     53153     53152     53154     53156     53155     53157
     53159     53158     53160     53162     53161     53163     53165     53164     53166
     53168     53167     53169     53171     53170     53172     53174     53173     53175
     53177     53176     53178     53180     53179     53181     53183     53182     53184
     53186     53185     53187     53189     53188     53190     53192     53191     53193
     53195     53194     53196     53198     53197     53199     53201     53200     53202
     53204     53203     53205     53207     53206     53208     53210     53209     53211
     53213     53212     53214     53216     53215     53217     53219     53218     53220
     53222     53221     53223     53225     53224     53226     53228     53227     53229
     53231     53230     53232     53234     53233     53235     53237     53236     53238
     53240     53239     53241     53243     53242     53244     53246     53245     53247
     53249     53248     53250     53252     53251     53253     53255     53254     53256
     53258     53257     53259     53261     53260     53262     53264     53263     53265
     53267     53266     53268     53270     53269     53271     53273     53272     53274
     53276     53275     53277     53279     53278     53280     53282     53281     53283
     53285     53284     53286     53288     53287     53289     53291     53290     53292
     53294     53293     53295     53297     53296     53298     53300     53299     53301
     53303     53302     53304     53306     53305     53307     53309     53308     53310
     53312     53311     53313     53315     53314     53316     53318     53317     53319
     53321     53320     53322     53324     53323     53325     53327     53326     53328
     53330     53329     53331     53333     53332     53334     53336     53335     53337
     53339     53338     53340     53342     53341     53343     53345     53344     53346
     53348     53347     53349     53351     53350     53352     53354     53353     53355
     53357     53356     53358     53360     53359     53361     53363     53362     53364
     53366     53365     53367     53369     53368     53370     53372     53371     53373
     53375     53374     53376     53378     53377     53379     53381     53380     53382
     53384     53383     53385     53387     53386     53388     53390     53389     53391
     53393     53392     53394     53396     53395     53397     53399     53398     53400
     53402     53401     53403     53405     53404     53406     53408     53407     53409
     53411     53410     53412     53414     53413     53415     53417     53416     53418
     53420     53419     53421     53423     53422     53424     53426     53425     53427
     53429     53428     53430     53432     53431     53433     53435     53434     53436
     53438     53437     53439     53441     53440     53442     53444     53443     53445
     53447     53446     53448     53450     53449     53451     53453     53452     53454
     53456     53455     53457     53459     53458     53460     53462     53461     53463
     53465     53464     53466     53468     53467     53469     53471     53470     53472
     53474     53473     53475     53477     53476     53478     53480     53479     53481
     53483     53482     53484     53486     53485     53487     53489     53488     53490
     53492     53491     53493     53495     53494     53496     53498     53497     53499
     53501     53500     53502     53504     53503     53505     53507     53506     53508
     53510     53509     53511     53513     53512     53514     53516     53515     53517
     53519     53518     53520     53522     53521     53523     53525     53524     53526
     53528     53527     53529     53531     53530     53532     53534     53533     53535
     53537     53536     53538     53540     53539     53541     53543     53542     53544
     53546     53545     53547     53549     53548     53550     53552     53551     53553
     53555     53554     53556     53558     53557     53559     53561     53560     53562
     53564     53563     53565     53567     53566     53568     53570     53569     53571
     53573     53572     53574     53576     53575     53577     53579     53578     53580
     53582     53581     53583     53585     53584     53586     53588     53587     53589
     53591     53590     53592     53594     53593     53595     53597     53596     53598
     53600     53599     53601     53603     53602     53604     53606     53605     53607
     53609     53608     53610     53612     53611     53613     53615     53614     53616
     53618     53617     53619     53621     53620     53622     53624     53623     53625
     53627     53626     53628     53630     53629     53631     53633     53632     53634
     53636     53635     53637     53639     53638     53640     53642     53641     53643
     53645     53644     53646     53648     53647     53649     53651     53650     53652
     53654     53653     53655     53657     53656     53658     53660     53659     53661
     53663     53662     53664     53666     53665     53667     53669     53668     53670
     53672     53671     53673     53675     53674     53676     53678     53677     53679
     53681     53680     53682     53684     53683     53685     53687     53686     53688
     53690     53689     53691     53693     53692     53694     53696     53695     53697
     53699     53698     53700     53702     53701     53703     53705     53704     53706
     53708     53707     53709     53711     53710     53712     53714     53713     53715
     53717     53716     53718     53720     53719     53721     53723     53722     53724
     53726     53725     53727     53729     53728     53730     53732     53731     53733
     53735     53734     53736     53738     53737     53739     53741     53740     53742
     53744     53743     53745     53747     53746     53748     53750     53749     53751
     53753     53752     53754     53756     53755     53757     53759     53758     53760
     53762     53761     53763     53765     53764     53766     53768     53767     53769
     53771     53770     53772     53774     53773     53775     53777     53776     53778
     53780     53779     53781     53783     53782     53784     53786     53785     53787
     53789     53788     53790     53792     53791     53793     53795     53794     53796
     53798     53797     53799     53801     53800     53802     53804     53803     53805
     53807     53806     53808     53810     53809     53811     53813     53812     53814
     53816     53815     53817     53819     53818     53820     53822     53821     53823
     53825     53824     53826     53828     53827     53829     53831     53830     53832
     53834     53833     53835     53837     53836     53838     53840     53839     53841
     53843     53842     53844     53846     53845     53847     53849     53848     53850
     53852     53851     53853     53855     53854     53856     53858     53857     53859
     53861     53860     53862     53864     53863     53865     53867     53866     53868
     53870     53869     53871     53873     53872     53874     53876     53875     53877
     53879     53878     53880     53882     53881     53883     53885     53884     53886
     53888     53887     53889     53891     53890     53892     53894     53893     53895
     53897     53896     53898     53900     53899     53901     53903     53902     53904
     53906     53905     53907     53909     53908     53910     53912     53911     53913
     53915     53914     53916     53918     53917     53919     53921     53920     53922
     53924     53923     53925     53927     53926     53928     53930     53929     53931
     53933     53932     53934     53936     53935     53937     53939     53938     53940
     53942     53941     53943     53945     53944     53946     53948     53947     53949
     53951     53950     53952     53954     53953     53955     53957     53956     53958
     53960     53959     53961     53963     53962     53964     53966     53965     53967
     53969     53968     53970     53972     53971     53973     53975     53974     53976
     53978     53977     53979     53981     53980     53982     53984     53983     53985
     53987     53986     53988     53990     53989     53991     53993     53992     53994
     53996     53995     53997     53999     53998     54000     54002     54001     54003
     54005     54004     54006     54008     54007     54009     54011     54010     54012
     54014     54013     54015     54017     54016     54018     54020     54019     54021
     54023     54022     54024     54026     54025     54027     54029     54028     54030
     54032     54031     54033     54035     54034     54036     54038     54037     54039
     54041     54040     54042     54044     54043     54045     54047     54046     54048
     54050     54049     54051     54053     54052     54054     54056     54055     54057
     54059     54058     54060     54062     54061     54063     54065     54064     54066
     54068     54067     54069     54071     54070     54072     54074     54073     54075
     54077     54076     54078     54080     54079     54081     54083     54082     54084
     54086     54085     54087     54089     54088     54090     54092     54091     54093
     54095     54094     54096     54098     54097     54099     54101     54100     54102
     54104     54103     54105     54107     54106     54108     54110     54109     54111
     54113     54112     54114     54116     54115     54117     54119     54118     54120
     54122     54121     54123     54125     54124     54126     54128     54127     54129
     54131     54130     54132     54134     54133     54135     54137     54136     54138
     54140     54139     54141     54143     54142     54144     54146     54145     54147
     54149     54148     54150     54152     54151     54153     54155     54154     54156
     54158     54157     54159     54161     54160     54162     54164     54163     54165
     54167     54166     54168     54170     54169     54171     54173     54172     54174
     54176     54175     54177     54179     54178     54180     54182     54181     54183
     54185     54184     54186     54188     54187     54189     54191     54190     54192
     54194     54193     54195     54197     54196     54198     54200     54199     54201
     54203     54202     54204     54206     54205     54207     54209     54208     54210
     54212     54211     54213     54215     54214     54216     54218     54217     54219
     54221     54220     54222     54224     54223     54225     54227     54226     54228
     54230     54229     54231     54233     54232     54234     54236     54235     54237
     54239     54238     54240     54242     54241     54243     54245     54244     54246
     54248     54247     54249     54251     54250     54252     54254     54253     54255
     54257     54256     54258     54260     54259     54261     54263     54262     54264
     54266     54265     54267     54269     54268     54270     54272     54271     54273
     54275     54274     54276     54278     54277     54279     54281     54280     54282
     54284     54283     54285     54287     54286     54288     54290     54289     54291
     54293     54292     54294     54296     54295     54297     54299     54298     54300
     54302     54301     54303     54305     54304     54306     54308     54307     54309
     54311     54310     54312     54314     54313     54315     54317     54316     54318
     54320     54319     54321     54323     54322     54324     54326     54325     54327
     54329     54328     54330     54332     54331     54333     54335     54334     54336
     54338     54337     54339     54341     54340     54342     54344     54343     54345
     54347     54346     54348     54350     54349     54351     54353     54352     54354
     54356     54355     54357     54359     54358     54360     54362     54361     54363
     54365     54364     54366     54368     54367     54369     54371     54370     54372
     54374     54373     54375     54377     54376     54378     54380     54379     54381
     54383     54382     54384     54386     54385     54387     54389     54388     54390
     54392     54391     54393     54395     54394     54396     54398     54397     54399
     54401     54400     54402     54404     54403     54405     54407     54406     54408
     54410     54409     54411     54413     54412     54414     54416     54415     54417
     54419     54418     54420     54422     54421     54423     54425     54424     54426
     54428     54427     54429     54431     54430     54432     54434     54433     54435
     54437     54436     54438     54440     54439     54441     54443     54442     54444
     54446     54445     54447     54449     54448     54450     54452     54451     54453
     54455     54454     54456     54458     54457     54459     54461     54460     54462
     54464     54463     54465     54467     54466     54468     54470     54469     54471
     54473     54472     54474     54476     54475     54477     54479     54478     54480
     54482     54481     54483     54485     54484     54486     54488     54487     54489
     54491     54490     54492     54494     54493     54495     54497     54496     54498
     54500     54499     54501     54503     54502     54504     54506     54505     54507
     54509     54508     54510     54512     54511     54513     54515     54514     54516
     54518     54517     54519     54521     54520     54522     54524     54523     54525
     54527     54526     54528     54530     54529     54531     54533     54532     54534
     54536     54535     54537     54539     54538     54540     54542     54541     54543
     54545     54544     54546     54548     54547     54549     54551     54550     54552
     54554     54553     54555     54557     54556     54558     54560     54559     54561
     54563     54562     54564     54566     54565     54567     54569     54568     54570
     54572     54571     54573     54575     54574     54576     54578     54577     54579
     54581     54580     54582     54584     54583     54585     54587     54586     54588
     54590     54589     54591     54593     54592     54594     54596     54595     54597
     54599     54598     54600     54602     54601     54603     54605     54604     54606
     54608     54607     54609     54611     54610     54612     54614     54613     54615
     54617     54616     54618     54620     54619     54621     54623     54622     54624
     54626     54625     54627     54629     54628     54630     54632     54631     54633
     54635     54634     54636     54638     54637     54639     54641     54640     54642
     54644     54643     54645     54647     54646     54648     54650     54649     54651
     54653     54652     54654     54656     54655     54657     54659     54658     54660
     54662     54661     54663     54665     54664     54666     54668     54667     54669
     54671     54670     54672     54674     54673     54675     54677     54676     54678
     54680     54679     54681     54683     54682     54684     54686     54685     54687
     54689     54688     54690     54692     54691     54693     54695     54694     54696
     54698     54697     54699     54701     54700     54702     54704     54703     54705
     54707     54706     54708     54710     54709     54711     54713     54712     54714
     54716     54715     54717     54719     54718     54720     54722     54721     54723
     54725     54724     54726     54728     54727     54729     54731     54730     54732
     54734     54733     54735     54737     54736     54738     54740     54739     54741
     54743     54742     54744     54746     54745     54747     54749     54748     54750
     54752     54751     54753     54755     54754     54756     54758     54757     54759
     54761     54760     54762     54764     54763     54765     54767     54766     54768
     54770     54769     54771     54773     54772     54774     54776     54775     54777
     54779     54778     54780     54782     54781     54783     54785     54784     54786
     54788     54787     54789     54791     54790     54792     54794     54793     54795
     54797     54796     54798     54800     54799     54801     54803     54802     54804
     54806     54805     54807     54809     54808     54810     54812     54811     54813
     54815     54814     54816     54818     54817     54819     54821     54820     54822
     54824     54823     54825     54827     54826     54828     54830     54829     54831
     54833     54832     54834     54836     54835     54837     54839     54838     54840
     54842     54841     54843     54845     54844     54846     54848     54847     54849
     54851     54850     54852     54854     54853     54855     54857     54856     54858
     54860     54859     54861     54863     54862     54864     54866     54865     54867
     54869     54868     54870     54872     54871     54873     54875     54874     54876
     54878     54877     54879     54881     54880     54882     54884     54883     54885
     54887     54886     54888     54890     54889     54891     54893     54892     54894
     54896     54895     54897     54899     54898     54900     54902     54901     54903
     54905     54904     54906     54908     54907     54909     54911     54910     54912
     54914     54913     54915     54917     54916     54918     54920     54919     54921
     54923     54922     54924     54926     54925     54927     54929     54928     54930
     54932     54931     54933     54935     54934     54936     54938     54937     54939
     54941     54940     54942     54944     54943     54945     54947     54946     54948
     54950     54949     54951     54953     54952     54954     54956     54955     54957
     54959     54958     54960     54962     54961     54963     54965     54964     54966
     54968     54967     54969     54971     54970     54972     54974     54973     54975
     54977     54976     54978     54980     54979     54981     54983     54982     54984
     54986     54985     54987     54989     54988     54990     54992     54991     54993
     54995     54994     54996     54998     54997     54999     55001     55000     55002
     55004     55003     55005     55007     55006     55008     55010     55009     55011
     55013     55012     55014     55016     55015     55017     55019     55018     55020
     55022     55021     55023     55025     55024     55026     55028     55027     55029
     55031     55030     55032     55034     55033     55035     55037     55036     55038
     55040     55039     55041     55043     55042     55044     55046     55045     55047
     55049     55048     55050     55052     55051     55053     55055     55054     55056
     55058     55057     55059     55061     55060     55062     55064     55063     55065
     55067     55066     55068     55070     55069     55071     55073     55072     55074
     55076     55075     55077     55079     55078     55080     55082     55081     55083
     55085     55084     55086     55088     55087     55089     55091     55090     55092
     55094     55093     55095     55097     55096     55098     55100     55099     55101
     55103     55102     55104     55106     55105     55107     55109     55108     55110
     55112     55111     55113     55115     55114     55116     55118     55117     55119
     55121     55120     55122     55124     55123     55125     55127     55126     55128
     55130     55129     55131     55133     55132     55134     55136     55135     55137
     55139     55138     55140     55142     55141     55143     55145     55144     55146
     55148     55147     55149     55151     55150     55152     55154     55153     55155
     55157     55156     55158     55160     55159     55161     55163     55162     55164
     55166     55165     55167     55169     55168     55170     55172     55171     55173
     55175     55174     55176     55178     55177     55179     55181     55180     55182
     55184     55183     55185     55187     55186     55188     55190     55189     55191
     55193     55192     55194     55196     55195     55197     55199     55198     55200
     55202     55201     55203     55205     55204     55206     55208     55207     55209
     55211     55210     55212     55214     55213     55215     55217     55216     55218
     55220     55219     55221     55223     55222     55224     55226     55225     55227
     55229     55228     55230     55232     55231     55233     55235     55234     55236
     55238     55237     55239     55241     55240     55242     55244     55243     55245
     55247     55246     55248     55250     55249     55251     55253     55252     55254
     55256     55255     55257     55259     55258     55260     55262     55261     55263
     55265     55264     55266     55268     55267     55269     55271     55270     55272
     55274     55273     55275     55277     55276     55278     55280     55279     55281
     55283     55282     55284     55286     55285     55287     55289     55288     55290
     55292     55291     55293     55295     55294     55296     55298     55297     55299
     55301     55300     55302     55304     55303     55305     55307     55306     55308
     55310     55309     55311     55313     55312     55314     55316     55315     55317
     55319     55318     55320     55322     55321     55323     55325     55324     55326
     55328     55327     55329     55331     55330     55332     55334     55333     55335
     55337     55336     55338     55340     55339     55341     55343     55342     55344
     55346     55345     55347     55349     55348     55350     55352     55351     55353
     55355     55354     55356     55358     55357     55359     55361     55360     55362
     55364     55363     55365     55367     55366     55368     55370     55369     55371
     55373     55372     55374     55376     55375     55377     55379     55378     55380
     55382     55381     55383     55385     55384     55386     55388     55387     55389
     55391     55390     55392     55394     55393     55395     55397     55396     55398
     55400     55399     55401     55403     55402     55404     55406     55405     55407
     55409     55408     55410     55412     55411     55413     55415     55414     55416
     55418     55417     55419     55421     55420     55422     55424     55423     55425
     55427     55426     55428     55430     55429     55431     55433     55432     55434
     55436     55435     55437     55439     55438     55440     55442     55441     55443
     55445     55444     55446     55448     55447     55449     55451     55450     55452
     55454     55453     55455     55457     55456     55458     55460     55459     55461
     55463     55462     55464     55466     55465     55467     55469     55468     55470
     55472     55471     55473     55475     55474     55476     55478     55477     55479
     55481     55480     55482     55484     55483     55485     55487     55486     55488
     55490     55489     55491     55493     55492     55494     55496     55495     55497
     55499     55498     55500     55502     55501     55503     55505     55504     55506
     55508     55507     55509     55511     55510     55512     55514     55513     55515
     55517     55516     55518     55520     55519     55521     55523     55522     55524
     55526     55525     55527     55529     55528     55530     55532     55531     55533
     55535     55534     55536     55538     55537     55539     55541     55540     55542
     55544     55543     55545     55547     55546     55548     55550     55549     55551
     55553     55552     55554     55556     55555     55557     55559     55558     55560
     55562     55561     55563     55565     55564     55566     55568     55567     55569
     55571     55570     55572     55574     55573     55575     55577     55576     55578
     55580     55579     55581     55583     55582     55584     55586     55585     55587
     55589     55588     55590     55592     55591     55593     55595     55594     55596
     55598     55597     55599     55601     55600     55602     55604     55603     55605
     55607     55606     55608     55610     55609     55611     55613     55612     55614
     55616     55615     55617     55619     55618     55620     55622     55621     55623
     55625     55624     55626     55628     55627     55629     55631     55630     55632
     55634     55633     55635     55637     55636     55638     55640     55639     55641
     55643     55642     55644     55646     55645     55647     55649     55648     55650
     55652     55651     55653     55655     55654     55656     55658     55657     55659
     55661     55660     55662     55664     55663     55665     55667     55666     55668
     55670     55669     55671     55673     55672     55674     55676     55675     55677
     55679     55678     55680     55682     55681     55683     55685     55684     55686
     55688     55687     55689     55691     55690     55692     55694     55693     55695
     55697     55696     55698     55700     55699     55701     55703     55702     55704
     55706     55705     55707     55709     55708     55710     55712     55711     55713
     55715     55714     55716     55718     55717     55719     55721     55720     55722
     55724     55723     55725     55727     55726     55728     55730     55729     55731
     55733     55732     55734     55736     55735     55737     55739     55738     55740
     55742     55741     55743     55745     55744     55746     55748     55747     55749
     55751     55750     55752     55754     55753     55755     55757     55756     55758
     55760     55759     55761     55763     55762     55764     55766     55765     55767
     55769     55768     55770     55772     55771     55773     55775     55774     55776
     55778     55777     55779     55781     55780     55782     55784     55783     55785
     55787     55786     55788     55790     55789     55791     55793     55792     55794
     55796     55795     55797     55799     55798     55800     55802     55801     55803
     55805     55804     55806     55808     55807     55809     55811     55810     55812
     55814     55813     55815     55817     55816     55818     55820     55819     55821
     55823     55822     55824     55826     55825     55827     55829     55828     55830
     55832     55831     55833     55835     55834     55836     55838     55837     55839
     55841     55840     55842     55844     55843     55845     55847     55846     55848
     55850     55849     55851     55853     55852     55854     55856     55855     55857
     55859     55858     55860     55862     55861     55863     55865     55864     55866
     55868     55867     55869     55871     55870     55872     55874     55873     55875
     55877     55876     55878     55880     55879     55881     55883     55882     55884
     55886     55885     55887     55889     55888     55890     55892     55891     55893
     55895     55894     55896     55898     55897     55899     55901     55900     55902
     55904     55903     55905     55907     55906     55908     55910     55909     55911
     55913     55912     55914     55916     55915     55917     55919     55918     55920
     55922     55921     55923     55925     55924     55926     55928     55927     55929
     55931     55930     55932     55934     55933     55935     55937     55936     55938
     55940     55939     55941     55943     55942     55944     55946     55945     55947
     55949     55948     55950     55952     55951     55953     55955     55954     55956
     55958     55957     55959     55961     55960     55962     55964     55963     55965
     55967     55966     55968     55970     55969     55971     55973     55972     55974
     55976     55975     55977     55979     55978     55980     55982     55981     55983
     55985     55984     55986     55988     55987     55989     55991     55990     55992
     55994     55993     55995     55997     55996     55998     56000     55999     56001
     56003     56002     56004     56006     56005     56007     56009     56008     56010
     56012     56011     56013     56015     56014     56016     56018     56017     56019
     56021     56020     56022     56024     56023     56025     56027     56026     56028
     56030     56029     56031     56033     56032     56034     56036     56035     56037
     56039     56038     56040     56042     56041     56043     56045     56044     56046
     56048     56047     56049     56051     56050     56052     56054     56053     56055
     56057     56056     56058     56060     56059     56061     56063     56062     56064
     56066     56065     56067     56069     56068     56070     56072     56071     56073
     56075     56074     56076     56078     56077     56079     56081     56080     56082
     56084     56083     56085     56087     56086     56088     56090     56089     56091
     56093     56092     56094     56096     56095     56097     56099     56098     56100
     56102     56101     56103     56105     56104     56106     56108     56107     56109
     56111     56110     56112     56114     56113     56115     56117     56116     56118
     56120     56119     56121     56123     56122     56124     56126     56125     56127
     56129     56128     56130     56132     56131     56133     56135     56134     56136
     56138     56137     56139     56141     56140     56142     56144     56143     56145
     56147     56146     56148     56150     56149     56151     56153     56152     56154
     56156     56155     56157     56159     56158     56160     56162     56161     56163
     56165     56164     56166     56168     56167     56169     56171     56170     56172
     56174     56173     56175     56177     56176     56178     56180     56179     56181
     56183     56182     56184     56186     56185     56187     56189     56188     56190
     56192     56191     56193     56195     56194     56196     56198     56197     56199
     56201     56200     56202     56204     56203     56205     56207     56206     56208
     56210     56209     56211     56213     56212     56214     56216     56215     56217
     56219     56218     56220     56222     56221     56223     56225     56224     56226
     56228     56227     56229     56231     56230     56232     56234     56233     56235
     56237     56236     56238     56240     56239     56241     56243     56242     56244
     56246     56245     56247     56249     56248     56250     56252     56251     56253
     56255     56254     56256     56258     56257     56259     56261     56260     56262
     56264     56263     56265     56267     56266     56268     56270     56269     56271
     56273     56272     56274     56276     56275     56277     56279     56278     56280
     56282     56281     56283     56285     56284     56286     56288     56287     56289
     56291     56290     56292     56294     56293     56295     56297     56296     56298
     56300     56299     56301     56303     56302     56304     56306     56305     56307
     56309     56308     56310     56312     56311     56313     56315     56314     56316
     56318     56317     56319     56321     56320     56322     56324     56323     56325
     56327     56326     56328     56330     56329     56331     56333     56332     56334
     56336     56335     56337     56339     56338     56340     56342     56341     56343
     56345     56344     56346     56348     56347     56349     56351     56350     56352
     56354     56353     56355     56357     56356     56358     56360     56359     56361
     56363     56362     56364     56366     56365     56367     56369     56368     56370
     56372     56371     56373     56375     56374     56376     56378     56377     56379
     56381     56380     56382     56384     56383     56385     56387     56386     56388
     56390     56389     56391     56393     56392     56394     56396     56395     56397
     56399     56398     56400     56402     56401     56403     56405     56404     56406
     56408     56407     56409     56411     56410     56412     56414     56413     56415
     56417     56416     56418     56420     56419     56421     56423     56422     56424
     56426     56425     56427     56429     56428     56430     56432     56431     56433
     56435     56434     56436     56438     56437     56439     56441     56440     56442
     56444     56443     56445     56447     56446     56448     56450     56449     56451
     56453     56452     56454     56456     56455     56457     56459     56458     56460
     56462     56461     56463     56465     56464     56466     56468     56467     56469
     56471     56470     56472     56474     56473     56475     56477     56476     56478
     56480     56479     56481     56483     56482     56484     56486     56485     56487
     56489     56488     56490     56492     56491     56493     56495     56494     56496
     56498     56497     56499     56501     56500     56502     56504     56503     56505
     56507     56506     56508     56510     56509     56511     56513     56512     56514
     56516     56515     56517     56519     56518     56520     56522     56521     56523
     56525     56524     56526     56528     56527     56529     56531     56530     56532
     56534     56533     56535     56537     56536     56538     56540     56539     56541
     56543     56542     56544     56546     56545     56547     56549     56548     56550
     56552     56551     56553     56555     56554     56556     56558     56557     56559
     56561     56560     56562     56564     56563     56565     56567     56566     56568
     56570     56569     56571     56573     56572     56574     56576     56575     56577
     56579     56578     56580     56582     56581     56583     56585     56584     56586
     56588     56587     56589     56591     56590     56592     56594     56593     56595
     56597     56596     56598     56600     56599     56601     56603     56602     56604
     56606     56605     56607     56609     56608     56610     56612     56611     56613
     56615     56614     56616     56618     56617     56619     56621     56620     56622
     56624     56623     56625     56627     56626     56628     56630     56629     56631
     56633     56632     56634     56636     56635     56637     56639     56638     56640
     56642     56641     56643     56645     56644     56646     56648     56647     56649
     56651     56650     56652     56654     56653     56655     56657     56656     56658
     56660     56659     56661     56663     56662     56664     56666     56665     56667
     56669     56668     56670     56672     56671     56673     56675     56674     56676
     56678     56677     56679     56681     56680     56682     56684     56683     56685
     56687     56686     56688     56690     56689     56691     56693     56692     56694
     56696     56695     56697     56699     56698     56700     56702     56701     56703
     56705     56704     56706     56708     56707     56709     56711     56710     56712
     56714     56713     56715     56717     56716     56718     56720     56719     56721
     56723     56722     56724     56726     56725     56727     56729     56728     56730
     56732     56731     56733     56735     56734     56736     56738     56737     56739
     56741     56740     56742     56744     56743     56745     56747     56746     56748
     56750     56749     56751     56753     56752     56754     56756     56755     56757
     56759     56758     56760     56762     56761     56763     56765     56764     56766
     56768     56767     56769     56771     56770     56772     56774     56773     56775
     56777     56776     56778     56780     56779     56781     56783     56782     56784
     56786     56785     56787     56789     56788     56790     56792     56791     56793
     56795     56794     56796     56798     56797     56799     56801     56800     56802
     56804     56803     56805     56807     56806     56808     56810     56809     56811
     56813     56812     56814     56816     56815     56817     56819     56818     56820
     56822     56821     56823     56825     56824     56826     56828     56827     56829
     56831     56830     56832     56834     56833     56835     56837     56836     56838
     56840     56839     56841     56843     56842     56844     56846     56845     56847
     56849     56848     56850     56852     56851     56853     56855     56854     56856
     56858     56857     56859     56861     56860     56862     56864     56863     56865
     56867     56866     56868     56870     56869     56871     56873     56872     56874
     56876     56875     56877     56879     56878     56880     56882     56881     56883
     56885     56884     56886     56888     56887     56889     56891     56890     56892
     56894     56893     56895     56897     56896     56898     56900     56899     56901
     56903     56902     56904     56906     56905     56907     56909     56908     56910
     56912     56911     56913     56915     56914     56916     56918     56917     56919
     56921     56920     56922     56924     56923     56925     56927     56926     56928
     56930     56929     56931     56933     56932     56934     56936     56935     56937
     56939     56938     56940     56942     56941     56943     56945     56944     56946
     56948     56947     56949     56951     56950     56952     56954     56953     56955
     56957     56956     56958     56960     56959     56961     56963     56962     56964
     56966     56965     56967     56969     56968     56970     56972     56971     56973
     56975     56974     56976     56978     56977     56979     56981     56980     56982
     56984     56983     56985     56987     56986     56988     56990     56989     56991
     56993     56992     56994     56996     56995     56997     56999     56998     57000
     57002     57001     57003     57005     57004     57006     57008     57007     57009
     57011     57010     57012     57014     57013     57015     57017     57016     57018
     57020     57019     57021     57023     57022     57024     57026     57025     57027
     57029     57028     57030     57032     57031     57033     57035     57034     57036
     57038     57037     57039     57041     57040     57042     57044     57043     57045
     57047     57046     57048     57050     57049     57051     57053     57052     57054
     57056     57055     57057     57059     57058     57060     57062     57061     57063
     57065     57064     57066     57068     57067     57069     57071     57070     57072
     57074     57073     57075     57077     57076     57078     57080     57079     57081
     57083     57082     57084     57086     57085     57087     57089     57088     57090
     57092     57091     57093     57095     57094     57096     57098     57097     57099
     57101     57100     57102     57104     57103     57105     57107     57106     57108
     57110     57109     57111     57113     57112     57114     57116     57115     57117
     57119     57118     57120     57122     57121     57123     57125     57124     57126
     57128     57127     57129     57131     57130     57132     57134     57133     57135
     57137     57136     57138     57140     57139     57141     57143     57142     57144
     57146     57145     57147     57149     57148     57150     57152     57151     57153
     57155     57154     57156     57158     57157     57159     57161     57160     57162
     57164     57163     57165     57167     57166     57168     57170     57169     57171
     57173     57172     57174     57176     57175     57177     57179     57178     57180
     57182     57181     57183     57185     57184     57186     57188     57187     57189
     57191     57190     57192     57194     57193     57195     57197     57196     57198
     57200     57199     57201     57203     57202     57204     57206     57205     57207
     57209     57208     57210     57212     57211     57213     57215     57214     57216
     57218     57217     57219     57221     57220     57222     57224     57223     57225
     57227     57226     57228     57230     57229     57231     57233     57232     57234
     57236     57235     57237     57239     57238     57240     57242     57241     57243
     57245     57244     57246     57248     57247     57249     57251     57250     57252
     57254     57253     57255     57257     57256     57258     57260     57259     57261
     57263     57262     57264     57266     57265     57267     57269     57268     57270
     57272     57271     57273     57275     57274     57276     57278     57277     57279
     57281     57280     57282     57284     57283     57285     57287     57286     57288
     57290     57289     57291     57293     57292     57294     57296     57295     57297
     57299     57298     57300     57302     57301     57303     57305     57304     57306
     57308     57307     57309     57311     57310     57312     57314     57313     57315
     57317     57316     57318     57320     57319     57321     57323     57322     57324
     57326     57325     57327     57329     57328     57330     57332     57331     57333
     57335     57334     57336     57338     57337     57339     57341     57340     57342
     57344     57343     57345     57347     57346     57348     57350     57349     57351
     57353     57352     57354     57356     57355     57357     57359     57358     57360
     57362     57361     57363     57365     57364     57366     57368     57367     57369
     57371     57370     57372     57374     57373     57375     57377     57376     57378
     57380     57379     57381     57383     57382     57384     57386     57385     57387
     57389     57388     57390     57392     57391     57393     57395     57394     57396
     57398     57397     57399     57401     57400     57402     57404     57403     57405
     57407     57406     57408     57410     57409     57411     57413     57412     57414
     57416     57415     57417     57419     57418     57420     57422     57421     57423
     57425     57424     57426     57428     57427     57429     57431     57430     57432
     57434     57433     57435     57437     57436     57438     57440     57439     57441
     57443     57442     57444     57446     57445     57447     57449     57448     57450
     57452     57451     57453     57455     57454     57456     57458     57457     57459
     57461     57460     57462     57464     57463     57465     57467     57466     57468
     57470     57469     57471     57473     57472     57474     57476     57475     57477
     57479     57478     57480     57482     57481     57483     57485     57484     57486
     57488     57487     57489     57491     57490     57492     57494     57493     57495
     57497     57496     57498     57500     57499     57501     57503     57502     57504
     57506     57505     57507     57509     57508     57510     57512     57511     57513
     57515     57514     57516     57518     57517     57519     57521     57520     57522
     57524     57523     57525     57527     57526     57528     57530     57529     57531
     57533     57532     57534     57536     57535     57537     57539     57538     57540
     57542     57541     57543     57545     57544     57546     57548     57547     57549
     57551     57550     57552     57554     57553     57555     57557     57556     57558
     57560     57559     57561     57563     57562     57564     57566     57565     57567
     57569     57568     57570     57572     57571     57573     57575     57574     57576
     57578     57577     57579     57581     57580     57582     57584     57583     57585
     57587     57586     57588     57590     57589     57591     57593     57592     57594
     57596     57595     57597     57599     57598     57600     57602     57601     57603
     57605     57604     57606     57608     57607     57609     57611     57610     57612
     57614     57613     57615     57617     57616     57618     57620     57619     57621
     57623     57622     57624     57626     57625     57627     57629     57628     57630
     57632     57631     57633     57635     57634     57636     57638     57637     57639
     57641     57640     57642     57644     57643     57645     57647     57646     57648
     57650     57649     57651     57653     57652     57654     57656     57655     57657
     57659     57658     57660     57662     57661     57663     57665     57664     57666
     57668     57667     57669     57671     57670     57672     57674     57673     57675
     57677     57676     57678     57680     57679     57681     57683     57682     57684
     57686     57685     57687     57689     57688     57690     57692     57691     57693
     57695     57694     57696     57698     57697     57699     57701     57700     57702
     57704     57703     57705     57707     57706     57708     57710     57709     57711
     57713     57712     57714     57716     57715     57717     57719     57718     57720
     57722     57721     57723     57725     57724     57726     57728     57727     57729
     57731     57730     57732     57734     57733     57735     57737     57736     57738
     57740     57739     57741     57743     57742     57744     57746     57745     57747
     57749     57748     57750     57752     57751     57753     57755     57754     57756
     57758     57757     57759     57761     57760     57762     57764     57763     57765
     57767     57766     57768     57770     57769     57771     57773     57772     57774
     57776     57775     57777     57779     57778     57780     57782     57781     57783
     57785     57784     57786     57788     57787     57789     57791     57790     57792
     57794     57793     57795     57797     57796     57798     57800     57799     57801
     57803     57802     57804     57806     57805     57807     57809     57808     57810
     57812     57811     57813     57815     57814     57816     57818     57817     57819
     57821     57820     57822     57824     57823     57825     57827     57826     57828
     57830     57829     57831     57833     57832     57834     57836     57835     57837
     57839     57838     57840     57842     57841     57843     57845     57844     57846
     57848     57847     57849     57851     57850     57852     57854     57853     57855
     57857     57856     57858     57860     57859     57861     57863     57862     57864
     57866     57865     57867     57869     57868     57870     57872     57871     57873
     57875     57874     57876     57878     57877     57879     57881     57880     57882
     57884     57883     57885     57887     57886     57888     57890     57889     57891
     57893     57892     57894     57896     57895     57897     57899     57898     57900
     57902     57901     57903     57905     57904     57906     57908     57907     57909
     57911     57910     57912     57914     57913     57915     57917     57916     57918
     57920     57919     57921     57923     57922     57924     57926     57925     57927
     57929     57928     57930     57932     57931     57933     57935     57934     57936
     57938     57937     57939     57941     57940     57942     57944     57943     57945
     57947     57946     57948     57950     57949     57951     57953     57952     57954
     57956     57955     57957     57959     57958     57960     57962     57961     57963
     57965     57964     57966     57968     57967     57969     57971     57970     57972
     57974     57973     57975     57977     57976     57978     57980     57979     57981
     57983     57982     57984     57986     57985     57987     57989     57988     57990
     57992     57991     57993     57995     57994     57996     57998     57997     57999
     58001     58000     58002     58004     58003     58005     58007     58006     58008
     58010     58009     58011     58013     58012     58014     58016     58015     58017
     58019     58018     58020     58022     58021     58023     58025     58024     58026
     58028     58027     58029     58031     58030     58032     58034     58033     58035
     58037     58036     58038     58040     58039     58041     58043     58042     58044
     58046     58045     58047     58049     58048     58050     58052     58051     58053
     58055     58054     58056     58058     58057     58059     58061     58060     58062
     58064     58063     58065     58067     58066     58068     58070     58069     58071
     58073     58072     58074     58076     58075     58077     58079     58078     58080
     58082     58081     58083     58085     58084     58086     58088     58087     58089
     58091     58090     58092     58094     58093     58095     58097     58096     58098
     58100     58099     58101     58103     58102     58104     58106     58105     58107
     58109     58108     58110     58112     58111     58113     58115     58114     58116
     58118     58117     58119     58121     58120     58122     58124     58123     58125
     58127     58126     58128     58130     58129     58131     58133     58132     58134
     58136     58135     58137     58139     58138     58140     58142     58141     58143
     58145     58144     58146     58148     58147     58149     58151     58150     58152
     58154     58153     58155     58157     58156     58158     58160     58159     58161
     58163     58162     58164     58166     58165     58167     58169     58168     58170
     58172     58171     58173     58175     58174     58176     58178     58177     58179
     58181     58180     58182     58184     58183     58185     58187     58186     58188
     58190     58189     58191     58193     58192     58194     58196     58195     58197
     58199     58198     58200     58202     58201     58203     58205     58204     58206
     58208     58207     58209     58211     58210     58212     58214     58213     58215
     58217     58216     58218     58220     58219     58221     58223     58222     58224
     58226     58225     58227     58229     58228     58230     58232     58231     58233
     58235     58234     58236     58238     58237     58239     58241     58240     58242
     58244     58243     58245     58247     58246     58248     58250     58249     58251
     58253     58252     58254     58256     58255     58257     58259     58258     58260
     58262     58261     58263     58265     58264     58266     58268     58267     58269
     58271     58270     58272     58274     58273     58275     58277     58276     58278
     58280     58279     58281     58283     58282     58284     58286     58285     58287
     58289     58288     58290     58292     58291     58293     58295     58294     58296
     58298     58297     58299     58301     58300     58302     58304     58303     58305
     58307     58306     58308     58310     58309     58311     58313     58312     58314
     58316     58315     58317     58319     58318     58320     58322     58321     58323
     58325     58324     58326     58328     58327     58329     58331     58330     58332
     58334     58333     58335     58337     58336     58338     58340     58339     58341
     58343     58342     58344     58346     58345     58347     58349     58348     58350
     58352     58351     58353     58355     58354     58356     58358     58357     58359
     58361     58360     58362     58364     58363     58365     58367     58366     58368
     58370     58369     58371     58373     58372     58374     58376     58375     58377
     58379     58378     58380     58382     58381     58383     58385     58384     58386
     58388     58387     58389     58391     58390     58392     58394     58393     58395
     58397     58396     58398     58400     58399     58401     58403     58402     58404
     58406     58405     58407     58409     58408     58410     58412     58411     58413
     58415     58414     58416     58418     58417     58419     58421     58420     58422
     58424     58423     58425     58427     58426     58428     58430     58429     58431
     58433     58432     58434     58436     58435     58437     58439     58438     58440
     58442     58441     58443     58445     58444     58446     58448     58447     58449
     58451     58450     58452     58454     58453     58455     58457     58456     58458
     58460     58459     58461     58463     58462     58464     58466     58465     58467
     58469     58468     58470     58472     58471     58473     58475     58474     58476
     58478     58477     58479     58481     58480     58482     58484     58483     58485
     58487     58486     58488     58490     58489     58491     58493     58492     58494
     58496     58495     58497     58499     58498     58500     58502     58501     58503
     58505     58504     58506     58508     58507     58509     58511     58510     58512
     58514     58513     58515     58517     58516     58518     58520     58519     58521
     58523     58522     58524     58526     58525     58527     58529     58528     58530
     58532     58531     58533     58535     58534     58536     58538     58537     58539
     58541     58540     58542     58544     58543     58545     58547     58546     58548
     58550     58549     58551     58553     58552     58554     58556     58555     58557
     58559     58558     58560     58562     58561     58563     58565     58564     58566
     58568     58567     58569     58571     58570     58572     58574     58573     58575
     58577     58576     58578     58580     58579     58581     58583     58582     58584
     58586     58585     58587     58589     58588     58590     58592     58591     58593
     58595     58594     58596     58598     58597     58599     58601     58600     58602
     58604     58603     58605     58607     58606     58608     58610     58609     58611
     58613     58612     58614     58616     58615     58617     58619     58618     58620
     58622     58621     58623     58625     58624     58626     58628     58627     58629
     58631     58630     58632     58634     58633     58635     58637     58636     58638
     58640     58639     58641     58643     58642     58644     58646     58645     58647
     58649     58648     58650     58652     58651     58653     58655     58654     58656
     58658     58657     58659     58661     58660     58662     58664     58663     58665
     58667     58666     58668     58670     58669     58671     58673     58672     58674
     58676     58675     58677     58679     58678     58680     58682     58681     58683
     58685     58684     58686     58688     58687     58689     58691     58690     58692
     58694     58693     58695     58697     58696     58698     58700     58699     58701
     58703     58702     58704     58706     58705     58707     58709     58708     58710
     58712     58711     58713     58715     58714     58716     58718     58717     58719
     58721     58720     58722     58724     58723     58725     58727     58726     58728
     58730     58729     58731     58733     58732     58734     58736     58735     58737
     58739     58738     58740     58742     58741     58743     58745     58744     58746
     58748     58747     58749     58751     58750     58752     58754     58753     58755
     58757     58756     58758     58760     58759     58761     58763     58762     58764
     58766     58765     58767     58769     58768     58770     58772     58771     58773
     58775     58774     58776     58778     58777     58779     58781     58780     58782
     58784     58783     58785     58787     58786     58788     58790     58789     58791
     58793     58792     58794     58796     58795     58797     58799     58798     58800
     58802     58801     58803     58805     58804     58806     58808     58807     58809
     58811     58810     58812     58814     58813     58815     58817     58816     58818
     58820     58819     58821     58823     58822     58824     58826     58825     58827
     58829     58828     58830     58832     58831     58833     58835     58834     58836
     58838     58837     58839     58841     58840     58842     58844     58843     58845
     58847     58846     58848     58850     58849     58851     58853     58852     58854
     58856     58855     58857     58859     58858     58860     58862     58861     58863
     58865     58864     58866     58868     58867     58869     58871     58870     58872
     58874     58873     58875     58877     58876     58878     58880     58879     58881
     58883     58882     58884     58886     58885     58887     58889     58888     58890
     58892     58891     58893     58895     58894     58896     58898     58897     58899
     58901     58900     58902     58904     58903     58905     58907     58906     58908
     58910     58909     58911     58913     58912     58914     58916     58915     58917
     58919     58918     58920     58922     58921     58923     58925     58924     58926
     58928     58927     58929     58931     58930     58932     58934     58933     58935
     58937     58936     58938     58940     58939     58941     58943     58942     58944
     58946     58945     58947     58949     58948     58950     58952     58951     58953
     58955     58954     58956     58958     58957     58959     58961     58960     58962
     58964     58963     58965     58967     58966     58968     58970     58969     58971
     58973     58972     58974     58976     58975     58977     58979     58978     58980
     58982     58981     58983     58985     58984     58986     58988     58987     58989
     58991     58990     58992     58994     58993     58995     58997     58996     58998
     59000     58999     59001     59003     59002     59004     59006     59005     59007
     59009     59008     59010     59012     59011     59013     59015     59014     59016
     59018     59017     59019     59021     59020     59022     59024     59023     59025
     59027     59026     59028     59030     59029     59031     59033     59032     59034
     59036     59035     59037     59039     59038     59040     59042     59041     59043
     59045     59044     59046     59048     59047     59049     59051     59050     59052
     59054     59053     59055     59057     59056     59058     59060     59059     59061
     59063     59062     59064     59066     59065     59067     59069     59068     59070
     59072     59071     59073     59075     59074     59076     59078     59077     59079
     59081     59080     59082     59084     59083     59085     59087     59086     59088
     59090     59089     59091     59093     59092     59094     59096     59095     59097
     59099     59098     59100     59102     59101     59103     59105     59104     59106
     59108     59107     59109     59111     59110     59112     59114     59113     59115
     59117     59116     59118     59120     59119     59121     59123     59122     59124
     59126     59125     59127     59129     59128     59130     59132     59131     59133
     59135     59134     59136     59138     59137     59139     59141     59140     59142
     59144     59143     59145     59147     59146     59148     59150     59149     59151
     59153     59152     59154     59156     59155     59157     59159     59158     59160
     59162     59161     59163     59165     59164     59166     59168     59167     59169
     59171     59170     59172     59174     59173     59175     59177     59176     59178
     59180     59179     59181     59183     59182     59184     59186     59185     59187
     59189     59188     59190     59192     59191     59193     59195     59194     59196
     59198     59197     59199     59201     59200     59202     59204     59203     59205
     59207     59206     59208     59210     59209     59211     59213     59212     59214
     59216     59215     59217     59219     59218     59220     59222     59221     59223
     59225     59224     59226     59228     59227     59229     59231     59230     59232
     59234     59233     59235     59237     59236     59238     59240     59239     59241
     59243     59242     59244     59246     59245     59247     59249     59248     59250
     59252     59251     59253     59255     59254     59256     59258     59257     59259
     59261     59260     59262     59264     59263     59265     59267     59266     59268
     59270     59269     59271     59273     59272     59274     59276     59275     59277
     59279     59278     59280     59282     59281     59283     59285     59284     59286
     59288     59287     59289     59291     59290     59292     59294     59293     59295
     59297     59296     59298     59300     59299     59301     59303     59302     59304
     59306     59305     59307     59309     59308     59310     59312     59311     59313
     59315     59314     59316     59318     59317     59319     59321     59320     59322
     59324     59323     59325     59327     59326     59328     59330     59329     59331
     59333     59332     59334     59336     59335     59337     59339     59338     59340
     59342     59341     59343     59345     59344     59346     59348     59347     59349
     59351     59350     59352     59354     59353     59355     59357     59356     59358
     59360     59359     59361     59363     59362     59364     59366     59365     59367
     59369     59368     59370     59372     59371     59373     59375     59374     59376
     59378     59377     59379     59381     59380     59382     59384     59383     59385
     59387     59386     59388     59390     59389     59391     59393     59392     59394
     59396     59395     59397     59399     59398     59400     59402     59401     59403
     59405     59404     59406     59408     59407     59409     59411     59410     59412
     59414     59413     59415     59417     59416     59418     59420     59419     59421
     59423     59422     59424     59426     59425     59427     59429     59428     59430
     59432     59431     59433     59435     59434     59436     59438     59437     59439
     59441     59440     59442     59444     59443     59445     59447     59446     59448
     59450     59449     59451     59453     59452     59454     59456     59455     59457
     59459     59458     59460     59462     59461     59463     59465     59464     59466
     59468     59467     59469     59471     59470     59472     59474     59473     59475
     59477     59476     59478     59480     59479     59481     59483     59482     59484
     59486     59485     59487     59489     59488     59490     59492     59491     59493
     59495     59494     59496     59498     59497     59499     59501     59500     59502
     59504     59503     59505     59507     59506     59508     59510     59509     59511
     59513     59512     59514     59516     59515     59517     59519     59518     59520
     59522     59521     59523     59525     59524     59526     59528     59527     59529
     59531     59530     59532     59534     59533     59535     59537     59536     59538
     59540     59539     59541     59543     59542     59544     59546     59545     59547
     59549     59548     59550     59552     59551     59553     59555     59554     59556
     59558     59557     59559     59561     59560     59562     59564     59563     59565
     59567     59566     59568     59570     59569     59571     59573     59572     59574
     59576     59575     59577     59579     59578     59580     59582     59581     59583
     59585     59584     59586     59588     59587     59589     59591     59590     59592
     59594     59593     59595     59597     59596     59598     59600     59599     59601
     59603     59602     59604     59606     59605     59607     59609     59608     59610
     59612     59611     59613     59615     59614     59616     59618     59617     59619
     59621     59620     59622     59624     59623     59625     59627     59626     59628
     59630     59629     59631     59633     59632     59634     59636     59635     59637
     59639     59638     59640     59642     59641     59643     59645     59644     59646
     59648     59647     59649     59651     59650     59652     59654     59653     59655
     59657     59656     59658     59660     59659     59661     59663     59662     59664
     59666     59665     59667     59669     59668     59670     59672     59671     59673
     59675     59674     59676     59678     59677     59679     59681     59680     59682
     59684     59683     59685     59687     59686     59688     59690     59689     59691
     59693     59692     59694     59696     59695     59697     59699     59698     59700
     59702     59701     59703     59705     59704     59706     59708     59707     59709
     59711     59710     59712     59714     59713     59715     59717     59716     59718
     59720     59719     59721     59723     59722     59724     59726     59725     59727
     59729     59728     59730     59732     59731     59733     59735     59734     59736
     59738     59737     59739     59741     59740     59742     59744     59743     59745
     59747     59746     59748     59750     59749     59751     59753     59752     59754
     59756     59755     59757     59759     59758     59760     59762     59761     59763
     59765     59764     59766     59768     59767     59769     59771     59770     59772
     59774     59773     59775     59777     59776     59778     59780     59779     59781
     59783     59782     59784     59786     59785     59787     59789     59788     59790
     59792     59791     59793     59795     59794     59796     59798     59797     59799
     59801     59800     59802     59804     59803     59805     59807     59806     59808
     59810     59809     59811     59813     59812     59814     59816     59815     59817
     59819     59818     59820     59822     59821     59823     59825     59824     59826
     59828     59827     59829     59831     59830     59832     59834     59833     59835
     59837     59836     59838     59840     59839     59841     59843     59842     59844
     59846     59845     59847     59849     59848     59850     59852     59851     59853
     59855     59854     59856     59858     59857     59859     59861     59860     59862
     59864     59863     59865     59867     59866     59868     59870     59869     59871
     59873     59872     59874     59876     59875     59877     59879     59878     59880
     59882     59881     59883     59885     59884     59886     59888     59887     59889
     59891     59890     59892     59894     59893     59895     59897     59896     59898
     59900     59899     59901     59903     59902     59904     59906     59905     59907
     59909     59908     59910     59912     59911     59913     59915     59914     59916
     59918     59917     59919     59921     59920     59922     59924     59923     59925
     59927     59926     59928     59930     59929     59931     59933     59932     59934
     59936     59935     59937     59939     59938     59940     59942     59941     59943
     59945     59944     59946     59948     59947     59949     59951     59950     59952
     59954     59953     59955     59957     59956     59958     59960     59959     59961
     59963     59962     59964     59966     59965     59967     59969     59968     59970
     59972     59971     59973     59975     59974     59976     59978     59977     59979
     59981     59980     59982     59984     59983     59985     59987     59986     59988
     59990     59989     59991     59993     59992     59994     59996     59995     59997
     59999     59998     60000     60002     60001     60003     60005     60004     60006
     60008     60007     60009     60011     60010     60012     60014     60013     60015
     60017     60016     60018     60020     60019     60021     60023     60022     60024
     60026     60025     60027     60029     60028     60030     60032     60031     60033
     60035     60034     60036     60038     60037     60039     60041     60040     60042
     60044     60043     60045     60047     60046     60048     60050     60049     60051
     60053     60052     60054     60056     60055     60057     60059     60058     60060
     60062     60061     60063     60065     60064     60066     60068     60067     60069
     60071     60070     60072     60074     60073     60075     60077     60076     60078
     60080     60079     60081     60083     60082     60084     60086     60085     60087
     60089     60088     60090     60092     60091     60093     60095     60094     60096
     60098     60097     60099     60101     60100     60102     60104     60103     60105
     60107     60106     60108     60110     60109     60111     60113     60112     60114
     60116     60115     60117     60119     60118     60120     60122     60121     60123
     60125     60124     60126     60128     60127     60129     60131     60130     60132
     60134     60133     60135     60137     60136     60138     60140     60139     60141
     60143     60142     60144     60146     60145     60147     60149     60148     60150
     60152     60151     60153     60155     60154     60156     60158     60157     60159
     60161     60160     60162     60164     60163     60165     60167     60166     60168
     60170     60169     60171     60173     60172     60174     60176     60175     60177
     60179     60178     60180     60182     60181     60183     60185     60184     60186
     60188     60187     60189     60191     60190     60192     60194     60193     60195
     60197     60196     60198     60200     60199     60201     60203     60202     60204
     60206     60205     60207     60209     60208     60210     60212     60211     60213
     60215     60214     60216     60218     60217     60219     60221     60220     60222
     60224     60223     60225     60227     60226     60228     60230     60229     60231
     60233     60232     60234     60236     60235     60237     60239     60238     60240
     60242     60241     60243     60245     60244     60246     60248     60247     60249
     60251     60250     60252     60254     60253     60255     60257     60256     60258
     60260     60259     60261     60263     60262     60264     60266     60265     60267
     60269     60268     60270     60272     60271     60273     60275     60274     60276
     60278     60277     60279     60281     60280     60282     60284     60283     60285
     60287     60286     60288     60290     60289     60291     60293     60292     60294
     60296     60295     60297     60299     60298     60300     60302     60301     60303
     60305     60304     60306     60308     60307     60309     60311     60310     60312
     60314     60313     60315     60317     60316     60318     60320     60319     60321
     60323     60322     60324     60326     60325     60327     60329     60328     60330
     60332     60331     60333     60335     60334     60336     60338     60337     60339
     60341     60340     60342     60344     60343     60345     60347     60346     60348
     60350     60349     60351     60353     60352     60354     60356     60355     60357
     60359     60358     60360     60362     60361     60363     60365     60364     60366
     60368     60367     60369     60371     60370     60372     60374     60373     60375
     60377     60376     60378     60380     60379     60381     60383     60382     60384
     60386     60385     60387     60389     60388     60390     60392     60391     60393
     60395     60394     60396     60398     60397     60399     60401     60400     60402
     60404     60403     60405     60407     60406     60408     60410     60409     60411
     60413     60412     60414     60416     60415     60417     60419     60418     60420
     60422     60421     60423     60425     60424     60426     60428     60427     60429
     60431     60430     60432     60434     60433     60435     60437     60436     60438
     60440     60439     60441     60443     60442     60444     60446     60445     60447
     60449     60448     60450     60452     60451     60453     60455     60454     60456
     60458     60457     60459     60461     60460     60462     60464     60463     60465
     60467     60466     60468     60470     60469     60471     60473     60472     60474
     60476     60475     60477     60479     60478     60480     60482     60481     60483
     60485     60484     60486     60488     60487     60489     60491     60490     60492
     60494     60493     60495     60497     60496     60498     60500     60499     60501
     60503     60502     60504     60506     60505     60507     60509     60508     60510
     60512     60511     60513     60515     60514     60516     60518     60517     60519
     60521     60520     60522     60524     60523     60525     60527     60526     60528
     60530     60529     60531     60533     60532     60534     60536     60535     60537
     60539     60538     60540     60542     60541     60543     60545     60544     60546
     60548     60547     60549     60551     60550     60552     60554     60553     60555
     60557     60556     60558     60560     60559     60561     60563     60562     60564
     60566     60565     60567     60569     60568     60570     60572     60571     60573
     60575     60574     60576     60578     60577     60579     60581     60580     60582
     60584     60583     60585     60587     60586     60588     60590     60589     60591
     60593     60592     60594     60596     60595     60597     60599     60598     60600
     60602     60601     60603     60605     60604     60606     60608     60607     60609
     60611     60610     60612     60614     60613     60615     60617     60616     60618
     60620     60619     60621     60623     60622     60624     60626     60625     60627
     60629     60628     60630     60632     60631     60633     60635     60634     60636
     60638     60637     60639     60641     60640     60642     60644     60643     60645
     60647     60646     60648     60650     60649     60651     60653     60652     60654
     60656     60655     60657     60659     60658     60660     60662     60661     60663
     60665     60664     60666     60668     60667     60669     60671     60670     60672
     60674     60673     60675     60677     60676     60678     60680     60679     60681
     60683     60682     60684     60686     60685     60687     60689     60688     60690
     60692     60691     60693     60695     60694     60696     60698     60697     60699
     60701     60700     60702     60704     60703     60705     60707     60706     60708
     60710     60709     60711     60713     60712     60714     60716     60715     60717
     60719     60718     60720     60722     60721     60723     60725     60724     60726
     60728     60727     60729     60731     60730     60732     60734     60733     60735
     60737     60736     60738     60740     60739     60741     60743     60742     60744
     60746     60745     60747     60749     60748     60750     60752     60751     60753
     60755     60754     60756     60758     60757     60759     60761     60760     60762
     60764     60763     60765     60767     60766     60768     60770     60769     60771
     60773     60772     60774     60776     60775     60777     60779     60778     60780
     60782     60781     60783     60785     60784     60786     60788     60787     60789
     60791     60790     60792     60794     60793     60795     60797     60796     60798
     60800     60799     60801     60803     60802     60804     60806     60805     60807
     60809     60808     60810     60812     60811     60813     60815     60814     60816
     60818     60817     60819     60821     60820     60822     60824     60823     60825
     60827     60826     60828     60830     60829     60831     60833     60832     60834
     60836     60835     60837     60839     60838     60840     60842     60841     60843
     60845     60844     60846     60848     60847     60849     60851     60850     60852
     60854     60853     60855     60857     60856     60858     60860     60859     60861
     60863     60862     60864     60866     60865     60867     60869     60868     60870
     60872     60871     60873     60875     60874     60876     60878     60877     60879
     60881     60880     60882     60884     60883     60885     60887     60886     60888
     60890     60889     60891     60893     60892     60894     60896     60895     60897
     60899     60898     60900     60902     60901     60903     60905     60904     60906
     60908     60907     60909     60911     60910     60912     60914     60913     60915
     60917     60916     60918     60920     60919     60921     60923     60922     60924
     60926     60925     60927     60929     60928     60930     60932     60931     60933
     60935     60934     60936     60938     60937     60939     60941     60940     60942
     60944     60943     60945     60947     60946     60948     60950     60949     60951
     60953     60952     60954     60956     60955     60957     60959     60958     60960
     60962     60961     60963     60965     60964     60966     60968     60967     60969
     60971     60970     60972     60974     60973     60975     60977     60976     60978
     60980     60979     60981     60983     60982     60984     60986     60985     60987
     60989     60988     60990     60992     60991     60993     60995     60994     60996
     60998     60997     60999     61001     61000     61002     61004     61003     61005
     61007     61006     61008     61010     61009     61011     61013     61012     61014
     61016     61015     61017     61019     61018     61020     61022     61021     61023
     61025     61024     61026     61028     61027     61029     61031     61030     61032
     61034     61033     61035     61037     61036     61038     61040     61039     61041
     61043     61042     61044     61046     61045     61047     61049     61048     61050
     61052     61051     61053     61055     61054     61056     61058     61057     61059
     61061     61060     61062     61064     61063     61065     61067     61066     61068
     61070     61069     61071     61073     61072     61074     61076     61075     61077
     61079     61078     61080     61082     61081     61083     61085     61084     61086
     61088     61087     61089     61091     61090     61092     61094     61093     61095
     61097     61096     61098     61100     61099     61101     61103     61102     61104
     61106     61105     61107     61109     61108     61110     61112     61111     61113
     61115     61114     61116     61118     61117     61119     61121     61120     61122
     61124     61123     61125     61127     61126     61128     61130     61129     61131
     61133     61132     61134     61136     61135     61137     61139     61138     61140
     61142     61141     61143     61145     61144     61146     61148     61147     61149
     61151     61150     61152     61154     61153     61155     61157     61156     61158
     61160     61159     61161     61163     61162     61164     61166     61165     61167
     61169     61168     61170     61172     61171     61173     61175     61174     61176
     61178     61177     61179     61181     61180     61182     61184     61183     61185
     61187     61186     61188     61190     61189     61191     61193     61192     61194
     61196     61195     61197     61199     61198     61200     61202     61201     61203
     61205     61204     61206     61208     61207     61209     61211     61210     61212
     61214     61213     61215     61217     61216     61218     61220     61219     61221
     61223     61222     61224     61226     61225     61227     61229     61228     61230
     61232     61231     61233     61235     61234     61236     61238     61237     61239
     61241     61240     61242     61244     61243     61245     61247     61246     61248
     61250     61249     61251     61253     61252     61254     61256     61255     61257
     61259     61258     61260     61262     61261     61263     61265     61264     61266
     61268     61267     61269     61271     61270     61272     61274     61273     61275
     61277     61276     61278     61280     61279     61281     61283     61282     61284
     61286     61285     61287     61289     61288     61290     61292     61291     61293
     61295     61294     61296     61298     61297     61299     61301     61300     61302
     61304     61303     61305     61307     61306     61308     61310     61309     61311
     61313     61312     61314     61316     61315     61317     61319     61318     61320
     61322     61321     61323     61325     61324     61326     61328     61327     61329
     61331     61330     61332     61334     61333     61335     61337     61336     61338
     61340     61339     61341     61343     61342     61344     61346     61345     61347
     61349     61348     61350     61352     61351     61353     61355     61354     61356
     61358     61357     61359     61361     61360     61362     61364     61363     61365
     61367     61366     61368     61370     61369     61371     61373     61372     61374
     61376     61375     61377     61379     61378     61380     61382     61381     61383
     61385     61384     61386     61388     61387     61389     61391     61390     61392
     61394     61393     61395     61397     61396     61398     61400     61399     61401
     61403     61402     61404     61406     61405     61407     61409     61408     61410
     61412     61411     61413     61415     61414     61416     61418     61417     61419
     61421     61420     61422     61424     61423     61425     61427     61426     61428
     61430     61429     61431     61433     61432     61434     61436     61435     61437
     61439     61438     61440     61442     61441     61443     61445     61444     61446
     61448     61447     61449     61451     61450     61452     61454     61453     61455
     61457     61456     61458     61460     61459     61461     61463     61462     61464
     61466     61465     61467     61469     61468     61470     61472     61471     61473
     61475     61474     61476     61478     61477     61479     61481     61480     61482
     61484     61483     61485     61487     61486     61488     61490     61489     61491
     61493     61492     61494     61496     61495     61497     61499     61498     61500
     61502     61501     61503     61505     61504     61506     61508     61507     61509
     61511     61510     61512     61514     61513     61515     61517     61516     61518
     61520     61519     61521     61523     61522     61524     61526     61525     61527
     61529     61528     61530     61532     61531     61533     61535     61534     61536
     61538     61537     61539     61541     61540     61542     61544     61543     61545
     61547     61546     61548     61550     61549     61551     61553     61552     61554
     61556     61555     61557     61559     61558     61560     61562     61561     61563
     61565     61564     61566     61568     61567     61569     61571     61570     61572
     61574     61573     61575     61577     61576     61578     61580     61579     61581
     61583     61582     61584     61586     61585     61587     61589     61588     61590
     61592     61591     61593     61595     61594     61596     61598     61597     61599
     61601     61600     61602     61604     61603     61605     61607     61606     61608
     61610     61609     61611     61613     61612     61614     61616     61615     61617
     61619     61618     61620     61622     61621     61623     61625     61624     61626
     61628     61627     61629     61631     61630     61632     61634     61633     61635
     61637     61636     61638     61640     61639     61641     61643     61642     61644
     61646     61645     61647     61649     61648     61650     61652     61651     61653
     61655     61654     61656     61658     61657     61659     61661     61660     61662
     61664     61663     61665     61667     61666     61668     61670     61669     61671
     61673     61672     61674     61676     61675     61677     61679     61678     61680
     61682     61681     61683     61685     61684     61686     61688     61687     61689
     61691     61690     61692     61694     61693     61695     61697     61696     61698
     61700     61699     61701     61703     61702     61704     61706     61705     61707
     61709     61708     61710     61712     61711     61713     61715     61714     61716
     61718     61717     61719     61721     61720     61722     61724     61723     61725
     61727     61726     61728     61730     61729     61731     61733     61732     61734
     61736     61735     61737     61739     61738     61740     61742     61741     61743
     61745     61744     61746     61748     61747     61749     61751     61750     61752
     61754     61753     61755     61757     61756     61758     61760     61759     61761
     61763     61762     61764     61766     61765     61767     61769     61768     61770
     61772     61771     61773     61775     61774     61776     61778     61777     61779
     61781     61780     61782     61784     61783     61785     61787     61786     61788
     61790     61789     61791     61793     61792     61794     61796     61795     61797
     61799     61798     61800     61802     61801     61803     61805     61804     61806
     61808     61807     61809     61811     61810     61812     61814     61813     61815
     61817     61816     61818     61820     61819     61821     61823     61822     61824
     61826     61825     61827     61829     61828     61830     61832     61831     61833
     61835     61834     61836     61838     61837     61839     61841     61840     61842
     61844     61843     61845     61847     61846     61848     61850     61849     61851
     61853     61852     61854     61856     61855     61857     61859     61858     61860
     61862     61861     61863     61865     61864     61866     61868     61867     61869
     61871     61870     61872     61874     61873     61875     61877     61876     61878
     61880     61879     61881     61883     61882     61884     61886     61885     61887
     61889     61888     61890     61892     61891     61893     61895     61894     61896
     61898     61897     61899     61901     61900     61902     61904     61903     61905
     61907     61906     61908     61910     61909     61911     61913     61912     61914
     61916     61915     61917     61919     61918     61920     61922     61921     61923
     61925     61924     61926     61928     61927     61929     61931     61930     61932
     61934     61933     61935     61937     61936     61938     61940     61939     61941
     61943     61942     61944     61946     61945     61947     61949     61948     61950
     61952     61951     61953     61955     61954     61956     61958     61957     61959
     61961     61960     61962     61964     61963     61965     61967     61966     61968
     61970     61969     61971     61973     61972     61974     61976     61975     61977
     61979     61978     61980     61982     61981     61983     61985     61984     61986
     61988     61987     61989     61991     61990     61992     61994     61993     61995
     61997     61996     61998     62000     61999     62001     62003     62002     62004
     62006     62005     62007     62009     62008     62010     62012     62011     62013
     62015     62014     62016     62018     62017     62019     62021     62020     62022
     62024     62023     62025     62027     62026     62028     62030     62029     62031
     62033     62032     62034     62036     62035     62037     62039     62038     62040
     62042     62041     62043     62045     62044     62046     62048     62047     62049
     62051     62050     62052     62054     62053     62055     62057     62056     62058
     62060     62059     62061     62063     62062     62064     62066     62065     62067
     62069     62068     62070     62072     62071     62073     62075     62074     62076
     62078     62077     62079     62081     62080     62082     62084     62083     62085
     62087     62086     62088     62090     62089     62091     62093     62092     62094
     62096     62095     62097     62099     62098     62100     62102     62101     62103
     62105     62104     62106     62108     62107     62109     62111     62110     62112
     62114     62113     62115     62117     62116     62118     62120     62119     62121
     62123     62122     62124     62126     62125     62127     62129     62128     62130
     62132     62131     62133     62135     62134     62136     62138     62137     62139
     62141     62140     62142     62144     62143     62145     62147     62146     62148
     62150     62149     62151     62153     62152     62154     62156     62155     62157
     62159     62158     62160     62162     62161     62163     62165     62164     62166
     62168     62167     62169     62171     62170     62172     62174     62173     62175
     62177     62176     62178     62180     62179     62181     62183     62182     62184
     62186     62185     62187     62189     62188     62190     62192     62191     62193
     62195     62194     62196     62198     62197     62199     62201     62200     62202
     62204     62203     62205     62207     62206     62208     62210     62209     62211
     62213     62212     62214     62216     62215     62217     62219     62218     62220
     62222     62221     62223     62225     62224     62226     62228     62227     62229
     62231     62230     62232     62234     62233     62235     62237     62236     62238
     62240     62239     62241     62243     62242     62244     62246     62245     62247
     62249     62248     62250     62252     62251     62253     62255     62254     62256
     62258     62257     62259     62261     62260     62262     62264     62263     62265
     62267     62266     62268     62270     62269     62271     62273     62272     62274
     62276     62275     62277     62279     62278     62280     62282     62281     62283
     62285     62284     62286     62288     62287     62289     62291     62290     62292
     62294     62293     62295     62297     62296     62298     62300     62299     62301
     62303     62302     62304     62306     62305     62307     62309     62308     62310
     62312     62311     62313     62315     62314     62316     62318     62317     62319
     62321     62320     62322     62324     62323     62325     62327     62326     62328
     62330     62329     62331     62333     62332     62334     62336     62335     62337
     62339     62338     62340     62342     62341     62343     62345     62344     62346
     62348     62347     62349     62351     62350     62352     62354     62353     62355
     62357     62356     62358     62360     62359     62361     62363     62362     62364
     62366     62365     62367     62369     62368     62370     62372     62371     62373
     62375     62374     62376     62378     62377     62379     62381     62380     62382
     62384     62383     62385     62387     62386     62388     62390     62389     62391
     62393     62392     62394     62396     62395     62397     62399     62398     62400
     62402     62401     62403     62405     62404     62406     62408     62407     62409
     62411     62410     62412     62414     62413     62415     62417     62416     62418
     62420     62419     62421     62423     62422     62424     62426     62425     62427
     62429     62428     62430     62432     62431     62433     62435     62434     62436
     62438     62437     62439     62441     62440     62442     62444     62443     62445
     62447     62446     62448     62450     62449     62451     62453     62452     62454
     62456     62455     62457     62459     62458     62460     62462     62461     62463
     62465     62464     62466     62468     62467     62469     62471     62470     62472
     62474     62473     62475     62477     62476     62478     62480     62479     62481
     62483     62482     62484     62486     62485     62487     62489     62488     62490
     62492     62491     62493     62495     62494     62496     62498     62497     62499
     62501     62500     62502     62504     62503     62505     62507     62506     62508
     62510     62509     62511     62513     62512     62514     62516     62515     62517
     62519     62518     62520     62522     62521     62523     62525     62524     62526
     62528     62527     62529     62531     62530     62532     62534     62533     62535
     62537     62536     62538     62540     62539     62541     62543     62542     62544
     62546     62545     62547     62549     62548     62550     62552     62551     62553
     62555     62554     62556     62558     62557     62559     62561     62560     62562
     62564     62563     62565     62567     62566     62568     62570     62569     62571
     62573     62572     62574     62576     62575     62577     62579     62578     62580
     62582     62581     62583     62585     62584     62586     62588     62587     62589
     62591     62590     62592     62594     62593     62595     62597     62596     62598
     62600     62599     62601     62603     62602     62604     62606     62605     62607
     62609     62608     62610     62612     62611     62613     62615     62614     62616
     62618     62617     62619     62621     62620     62622     62624     62623     62625
     62627     62626     62628     62630     62629     62631     62633     62632     62634
     62636     62635     62637     62639     62638     62640     62642     62641     62643
     62645     62644     62646     62648     62647     62649     62651     62650     62652
     62654     62653     62655     62657     62656     62658     62660     62659     62661
     62663     62662     62664     62666     62665     62667     62669     62668     62670
     62672     62671     62673     62675     62674     62676     62678     62677     62679
     62681     62680     62682     62684     62683     62685     62687     62686     62688
     62690     62689     62691     62693     62692     62694     62696     62695     62697
     62699     62698     62700     62702     62701     62703     62705     62704     62706
     62708     62707     62709     62711     62710     62712     62714     62713     62715
     62717     62716     62718     62720     62719     62721     62723     62722     62724
     62726     62725     62727     62729     62728     62730     62732     62731     62733
     62735     62734     62736     62738     62737     62739     62741     62740     62742
     62744     62743     62745     62747     62746     62748     62750     62749     62751
     62753     62752     62754     62756     62755     62757     62759     62758     62760
     62762     62761     62763     62765     62764     62766     62768     62767     62769
     62771     62770     62772     62774     62773     62775     62777     62776     62778
     62780     62779     62781     62783     62782     62784     62786     62785     62787
     62789     62788     62790     62792     62791     62793     62795     62794     62796
     62798     62797     62799     62801     62800     62802     62804     62803     62805
     62807     62806     62808     62810     62809     62811     62813     62812     62814
     62816     62815     62817     62819     62818     62820     62822     62821     62823
     62825     62824     62826     62828     62827     62829     62831     62830     62832
     62834     62833     62835     62837     62836     62838     62840     62839     62841
     62843     62842     62844     62846     62845     62847     62849     62848     62850
     62852     62851     62853     62855     62854     62856     62858     62857     62859
     62861     62860     62862     62864     62863     62865     62867     62866     62868
     62870     62869     62871     62873     62872     62874     62876     62875     62877
     62879     62878     62880     62882     62881     62883     62885     62884     62886
     62888     62887     62889     62891     62890     62892     62894     62893     62895
     62897     62896     62898     62900     62899     62901     62903     62902     62904
     62906     62905     62907     62909     62908     62910     62912     62911     62913
     62915     62914     62916     62918     62917     62919     62921     62920     62922
     62924     62923     62925     62927     62926     62928     62930     62929     62931
     62933     62932     62934     62936     62935     62937     62939     62938     62940
     62942     62941     62943     62945     62944     62946     62948     62947     62949
     62951     62950     62952     62954     62953     62955     62957     62956     62958
     62960     62959     62961     62963     62962     62964     62966     62965     62967
     62969     62968     62970     62972     62971     62973     62975     62974     62976
     62978     62977     62979     62981     62980     62982     62984     62983     62985
     62987     62986     62988     62990     62989     62991     62993     62992     62994
     62996     62995     62997     62999     62998     63000     63002     63001     63003
     63005     63004     63006     63008     63007     63009     63011     63010     63012
     63014     63013     63015     63017     63016     63018     63020     63019     63021
     63023     63022     63024     63026     63025     63027     63029     63028     63030
     63032     63031     63033     63035     63034     63036     63038     63037     63039
     63041     63040     63042     63044     63043     63045     63047     63046     63048
     63050     63049     63051     63053     63052     63054     63056     63055     63057
     63059     63058     63060     63062     63061     63063     63065     63064     63066
     63068     63067     63069     63071     63070     63072     63074     63073     63075
     63077     63076     63078     63080     63079     63081     63083     63082     63084
     63086     63085     63087     63089     63088     63090     63092     63091     63093
     63095     63094     63096     63098     63097     63099     63101     63100     63102
     63104     63103     63105     63107     63106     63108     63110     63109     63111
     63113     63112     63114     63116     63115     63117     63119     63118     63120
     63122     63121     63123     63125     63124     63126     63128     63127     63129
     63131     63130     63132     63134     63133     63135     63137     63136     63138
     63140     63139     63141     63143     63142     63144     63146     63145     63147
     63149     63148     63150     63152     63151     63153     63155     63154     63156
     63158     63157     63159     63161     63160     63162     63164     63163     63165
     63167     63166     63168     63170     63169     63171     63173     63172     63174
     63176     63175     63177     63179     63178     63180     63182     63181     63183
     63185     63184     63186     63188     63187     63189     63191     63190     63192
     63194     63193     63195     63197     63196     63198     63200     63199     63201
     63203     63202     63204     63206     63205     63207     63209     63208     63210
     63212     63211     63213     63215     63214     63216     63218     63217     63219
     63221     63220     63222     63224     63223     63225     63227     63226     63228
     63230     63229     63231     63233     63232     63234     63236     63235     63237
     63239     63238     63240     63242     63241     63243     63245     63244     63246
     63248     63247     63249     63251     63250     63252     63254     63253     63255
     63257     63256     63258     63260     63259     63261     63263     63262     63264
     63266     63265     63267     63269     63268     63270     63272     63271     63273
     63275     63274     63276     63278     63277     63279     63281     63280     63282
     63284     63283     63285     63287     63286     63288     63290     63289     63291
     63293     63292     63294     63296     63295     63297     63299     63298     63300
     63302     63301     63303     63305     63304     63306     63308     63307     63309
     63311     63310     63312     63314     63313     63315     63317     63316     63318
     63320     63319     63321     63323     63322     63324     63326     63325     63327
     63329     63328     63330     63332     63331     63333     63335     63334     63336
     63338     63337     63339     63341     63340     63342     63344     63343     63345
     63347     63346     63348     63350     63349     63351     63353     63352     63354
     63356     63355     63357     63359     63358     63360     63362     63361     63363
     63365     63364     63366     63368     63367     63369     63371     63370     63372
     63374     63373     63375     63377     63376     63378     63380     63379     63381
     63383     63382     63384     63386     63385     63387     63389     63388     63390
     63392     63391     63393     63395     63394     63396     63398     63397     63399
     63401     63400     63402     63404     63403     63405     63407     63406     63408
     63410     63409     63411     63413     63412     63414     63416     63415     63417
     63419     63418     63420     63422     63421     63423     63425     63424     63426
     63428     63427     63429     63431     63430     63432     63434     63433     63435
     63437     63436     63438     63440     63439     63441     63443     63442     63444
     63446     63445     63447     63449     63448     63450     63452     63451     63453
     63455     63454     63456     63458     63457     63459     63461     63460     63462
     63464     63463     63465     63467     63466     63468     63470     63469     63471
     63473     63472     63474     63476     63475     63477     63479     63478     63480
     63482     63481     63483     63485     63484     63486     63488     63487     63489
     63491     63490     63492     63494     63493     63495     63497     63496     63498
     63500     63499     63501     63503     63502     63504     63506     63505     63507
     63509     63508     63510     63512     63511     63513     63515     63514     63516
     63518     63517     63519     63521     63520     63522     63524     63523     63525
     63527     63526     63528     63530     63529     63531     63533     63532     63534
     63536     63535     63537     63539     63538     63540     63542     63541     63543
     63545     63544     63546     63548     63547     63549     63551     63550     63552
     63554     63553     63555     63557     63556     63558     63560     63559     63561
     63563     63562     63564     63566     63565     63567     63569     63568     63570
     63572     63571     63573     63575     63574     63576     63578     63577     63579
     63581     63580     63582     63584     63583     63585     63587     63586     63588
     63590     63589     63591     63593     63592     63594     63596     63595     63597
     63599     63598     63600     63602     63601     63603     63605     63604     63606
     63608     63607     63609     63611     63610     63612     63614     63613     63615
     63617     63616     63618     63620     63619     63621     63623     63622     63624
     63626     63625     63627     63629     63628     63630     63632     63631     63633
     63635     63634     63636     63638     63637     63639     63641     63640     63642
     63644     63643     63645     63647     63646     63648     63650     63649     63651
     63653     63652     63654     63656     63655     63657     63659     63658     63660
     63662     63661     63663     63665     63664     63666     63668     63667     63669
     63671     63670     63672     63674     63673     63675     63677     63676     63678
     63680     63679     63681     63683     63682     63684     63686     63685     63687
     63689     63688     63690     63692     63691     63693     63695     63694     63696
     63698     63697     63699     63701     63700     63702     63704     63703     63705
     63707     63706     63708     63710     63709     63711     63713     63712     63714
     63716     63715     63717     63719     63718     63720     63722     63721     63723
     63725     63724     63726     63728     63727     63729     63731     63730     63732
     63734     63733     63735     63737     63736     63738     63740     63739     63741
     63743     63742     63744     63746     63745     63747     63749     63748     63750
     63752     63751     63753     63755     63754     63756     63758     63757     63759
     63761     63760     63762     63764     63763     63765     63767     63766     63768
     63770     63769     63771     63773     63772     63774     63776     63775     63777
     63779     63778     63780     63782     63781     63783     63785     63784     63786
     63788     63787     63789     63791     63790     63792     63794     63793     63795
     63797     63796     63798     63800     63799     63801     63803     63802     63804
     63806     63805     63807     63809     63808     63810     63812     63811     63813
     63815     63814     63816     63818     63817     63819     63821     63820     63822
     63824     63823     63825     63827     63826     63828     63830     63829     63831
     63833     63832     63834     63836     63835     63837     63839     63838     63840
     63842     63841     63843     63845     63844     63846     63848     63847     63849
     63851     63850     63852     63854     63853     63855     63857     63856     63858
     63860     63859     63861     63863     63862     63864     63866     63865     63867
     63869     63868     63870     63872     63871     63873     63875     63874     63876
     63878     63877     63879     63881     63880     63882     63884     63883     63885
     63887     63886     63888     63890     63889     63891     63893     63892     63894
     63896     63895     63897     63899     63898     63900     63902     63901     63903
     63905     63904     63906     63908     63907     63909     63911     63910     63912
     63914     63913     63915     63917     63916     63918     63920     63919     63921
     63923     63922     63924     63926     63925     63927     63929     63928     63930
     63932     63931     63933     63935     63934     63936     63938     63937     63939
     63941     63940     63942     63944     63943     63945     63947     63946     63948
     63950     63949     63951     63953     63952     63954     63956     63955     63957
     63959     63958     63960     63962     63961     63963     63965     63964     63966
     63968     63967     63969     63971     63970     63972     63974     63973     63975
     63977     63976     63978     63980     63979     63981     63983     63982     63984
     63986     63985     63987     63989     63988     63990     63992     63991     63993
     63995     63994     63996     63998     63997     63999     64001     64000     64002
     64004     64003     64005     64007     64006     64008     64010     64009     64011
     64013     64012     64014     64016     64015     64017     64019     64018     64020
     64022     64021     64023     64025     64024     64026     64028     64027     64029
     64031     64030     64032     64034     64033     64035     64037     64036     64038
     64040     64039     64041     64043     64042     64044     64046     64045     64047
     64049     64048     64050     64052     64051     64053     64055     64054     64056
     64058     64057     64059     64061     64060     64062     64064     64063     64065
     64067     64066     64068     64070     64069     64071     64073     64072     64074
     64076     64075     64077     64079     64078     64080     64082     64081     64083
     64085     64084     64086     64088     64087     64089     64091     64090     64092
     64094     64093     64095     64097     64096     64098     64100     64099     64101
     64103     64102     64104     64106     64105     64107     64109     64108     64110
     64112     64111     64113     64115     64114     64116     64118     64117     64119
     64121     64120     64122     64124     64123     64125     64127     64126     64128
     64130     64129     64131     64133     64132     64134     64136     64135     64137
     64139     64138     64140     64142     64141     64143     64145     64144     64146
     64148     64147     64149     64151     64150     64152     64154     64153     64155
     64157     64156     64158     64160     64159     64161     64163     64162     64164
     64166     64165     64167     64169     64168     64170     64172     64171     64173
     64175     64174     64176     64178     64177     64179     64181     64180     64182
     64184     64183     64185     64187     64186     64188     64190     64189     64191
     64193     64192     64194     64196     64195     64197     64199     64198     64200
     64202     64201     64203     64205     64204     64206     64208     64207     64209
     64211     64210     64212     64214     64213     64215     64217     64216     64218
     64220     64219     64221     64223     64222     64224     64226     64225     64227
     64229     64228     64230     64232     64231     64233     64235     64234     64236
     64238     64237     64239     64241     64240     64242     64244     64243     64245
     64247     64246     64248     64250     64249     64251     64253     64252     64254
     64256     64255     64257     64259     64258     64260     64262     64261     64263
     64265     64264     64266     64268     64267     64269     64271     64270     64272
     64274     64273     64275     64277     64276     64278     64280     64279     64281
     64283     64282     64284     64286     64285     64287     64289     64288     64290
     64292     64291     64293     64295     64294     64296     64298     64297     64299
     64301     64300     64302     64304     64303     64305     64307     64306     64308
     64310     64309     64311     64313     64312     64314     64316     64315     64317
     64319     64318     64320     64322     64321     64323     64325     64324     64326
     64328     64327     64329     64331     64330     64332     64334     64333     64335
     64337     64336     64338     64340     64339     64341     64343     64342     64344
     64346     64345     64347     64349     64348     64350     64352     64351     64353
     64355     64354     64356     64358     64357     64359     64361     64360     64362
     64364     64363     64365     64367     64366     64368     64370     64369     64371
     64373     64372     64374     64376     64375     64377     64379     64378     64380
     64382     64381     64383     64385     64384     64386     64388     64387     64389
     64391     64390     64392     64394     64393     64395     64397     64396     64398
     64400     64399     64401     64403     64402     64404     64406     64405     64407
     64409     64408     64410     64412     64411     64413     64415     64414     64416
     64418     64417     64419     64421     64420     64422     64424     64423     64425
     64427     64426     64428     64430     64429     64431     64433     64432     64434
     64436     64435     64437     64439     64438     64440     64442     64441     64443
     64445     64444     64446     64448     64447     64449     64451     64450     64452
     64454     64453     64455     64457     64456     64458     64460     64459     64461
     64463     64462     64464     64466     64465     64467     64469     64468     64470
     64472     64471     64473     64475     64474     64476     64478     64477     64479
     64481     64480     64482     64484     64483     64485     64487     64486     64488
     64490     64489     64491     64493     64492     64494     64496     64495     64497
     64499     64498     64500     64502     64501     64503     64505     64504     64506
     64508     64507     64509     64511     64510     64512     64514     64513     64515
     64517     64516     64518     64520     64519     64521     64523     64522     64524
     64526     64525     64527     64529     64528     64530     64532     64531     64533
     64535     64534     64536     64538     64537     64539     64541     64540     64542
     64544     64543     64545     64547     64546     64548     64550     64549     64551
     64553     64552     64554     64556     64555     64557     64559     64558     64560
     64562     64561     64563     64565     64564     64566     64568     64567     64569
     64571     64570     64572     64574     64573     64575     64577     64576     64578
     64580     64579     64581     64583     64582     64584     64586     64585     64587
     64589     64588     64590     64592     64591     64593     64595     64594     64596
     64598     64597     64599     64601     64600     64602     64604     64603     64605
     64607     64606     64608     64610     64609     64611     64613     64612     64614
     64616     64615     64617     64619     64618     64620     64622     64621     64623
     64625     64624     64626     64628     64627     64629     64631     64630     64632
     64634     64633     64635     64637     64636     64638     64640     64639     64641
     64643     64642     64644     64646     64645     64647     64649     64648     64650
     64652     64651     64653     64655     64654     64656     64658     64657     64659
     64661     64660     64662     64664     64663     64665     64667     64666     64668
     64670     64669     64671     64673     64672     64674     64676     64675     64677
     64679     64678     64680     64682     64681     64683     64685     64684     64686
     64688     64687     64689     64691     64690     64692     64694     64693     64695
     64697     64696     64698     64700     64699     64701     64703     64702     64704
     64706     64705     64707     64709     64708     64710     64712     64711     64713
     64715     64714     64716     64718     64717     64719     64721     64720     64722
     64724     64723     64725     64727     64726     64728     64730     64729     64731
     64733     64732     64734     64736     64735     64737     64739     64738     64740
     64742     64741     64743     64745     64744     64746     64748     64747     64749
     64751     64750     64752     64754     64753     64755     64757     64756     64758
     64760     64759     64761     64763     64762     64764     64766     64765     64767
     64769     64768     64770     64772     64771     64773     64775     64774     64776
     64778     64777     64779     64781     64780     64782     64784     64783     64785
     64787     64786     64788     64790     64789     64791     64793     64792     64794
     64796     64795     64797     64799     64798     64800     64802     64801     64803
     64805     64804     64806     64808     64807     64809     64811     64810     64812
     64814     64813     64815     64817     64816     64818     64820     64819     64821
     64823     64822     64824     64826     64825     64827     64829     64828     64830
     64832     64831     64833     64835     64834     64836     64838     64837     64839
     64841     64840     64842     64844     64843     64845     64847     64846     64848
     64850     64849     64851     64853     64852     64854     64856     64855     64857
     64859     64858     64860     64862     64861     64863     64865     64864     64866
     64868     64867     64869     64871     64870     64872     64874     64873     64875
     64877     64876     64878     64880     64879     64881     64883     64882     64884
     64886     64885     64887     64889     64888     64890     64892     64891     64893
     64895     64894     64896     64898     64897     64899     64901     64900     64902
     64904     64903     64905     64907     64906     64908     64910     64909     64911
     64913     64912     64914     64916     64915     64917     64919     64918     64920
     64922     64921     64923     64925     64924     64926     64928     64927     64929
     64931     64930     64932     64934     64933     64935     64937     64936     64938
     64940     64939     64941     64943     64942     64944     64946     64945     64947
     64949     64948     64950     64952     64951     64953     64955     64954     64956
     64958     64957     64959     64961     64960     64962     64964     64963     64965
     64967     64966     64968     64970     64969     64971     64973     64972     64974
     64976     64975     64977     64979     64978     64980     64982     64981     64983
     64985     64984     64986     64988     64987     64989     64991     64990     64992
     64994     64993     64995     64997     64996     64998     65000     64999     65001
     65003     65002     65004     65006     65005     65007     65009     65008     65010
     65012     65011     65013     65015     65014     65016     65018     65017     65019
     65021     65020     65022     65024     65023     65025     65027     65026     65028
     65030     65029     65031     65033     65032     65034     65036     65035     65037
     65039     65038     65040     65042     65041     65043     65045     65044     65046
     65048     65047     65049     65051     65050     65052     65054     65053     65055
     65057     65056     65058     65060     65059     65061     65063     65062     65064
     65066     65065     65067     65069     65068     65070     65072     65071     65073
     65075     65074     65076     65078     65077     65079     65081     65080     65082
     65084     65083     65085     65087     65086     65088     65090     65089     65091
     65093     65092     65094     65096     65095     65097     65099     65098     65100
     65102     65101     65103     65105     65104     65106     65108     65107     65109
     65111     65110     65112     65114     65113     65115     65117     65116     65118
     65120     65119     65121     65123     65122     65124     65126     65125     65127
     65129     65128     65130     65132     65131     65133     65135     65134     65136
     65138     65137     65139     65141     65140     65142     65144     65143     65145
     65147     65146     65148     65150     65149     65151     65153     65152     65154
     65156     65155     65157     65159     65158     65160     65162     65161     65163
     65165     65164     65166     65168     65167     65169     65171     65170     65172
     65174     65173     65175     65177     65176     65178     65180     65179     65181
     65183     65182     65184     65186     65185     65187     65189     65188     65190
     65192     65191     65193     65195     65194     65196     65198     65197     65199
     65201     65200     65202     65204     65203     65205     65207     65206     65208
     65210     65209     65211     65213     65212     65214     65216     65215     65217
     65219     65218     65220     65222     65221     65223     65225     65224     65226
     65228     65227     65229     65231     65230     65232     65234     65233     65235
     65237     65236     65238     65240     65239     65241     65243     65242     65244
     65246     65245     65247     65249     65248     65250     65252     65251     65253
     65255     65254     65256     65258     65257     65259     65261     65260     65262
     65264     65263     65265     65267     65266     65268     65270     65269     65271
     65273     65272     65274     65276     65275     65277     65279     65278     65280
     65282     65281     65283     65285     65284     65286     65288     65287     65289
     65291     65290     65292     65294     65293     65295     65297     65296     65298
     65300     65299     65301     65303     65302     65304     65306     65305     65307
     65309     65308     65310     65312     65311     65313     65315     65314     65316
     65318     65317     65319     65321     65320     65322     65324     65323     65325
     65327     65326     65328     65330     65329     65331     65333     65332     65334
     65336     65335     65337     65339     65338     65340     65342     65341     65343
     65345     65344     65346     65348     65347     65349     65351     65350     65352
     65354     65353     65355     65357     65356     65358     65360     65359     65361
     65363     65362     65364     65366     65365     65367     65369     65368     65370
     65372     65371     65373     65375     65374     65376     65378     65377     65379
     65381     65380     65382     65384     65383     65385     65387     65386     65388
     65390     65389     65391     65393     65392     65394     65396     65395     65397
     65399     65398     65400     65402     65401     65403     65405     65404     65406
     65408     65407     65409     65411     65410     65412     65414     65413     65415
     65417     65416     65418     65420     65419     65421     65423     65422     65424
     65426     65425     65427     65429     65428     65430     65432     65431     65433
     65435     65434     65436     65438     65437     65439     65441     65440     65442
     65444     65443     65445     65447     65446     65448     65450     65449     65451
     65453     65452     65454     65456     65455     65457     65459     65458     65460
     65462     65461     65463     65465     65464     65466     65468     65467     65469
     65471     65470     65472     65474     65473     65475     65477     65476     65478
     65480     65479     65481     65483     65482     65484     65486     65485     65487
     65489     65488     65490     65492     65491     65493     65495     65494     65496
     65498     65497     65499     65501     65500     65502     65504     65503     65505
     65507     65506     65508     65510     65509     65511     65513     65512     65514
     65516     65515     65517     65519     65518     65520     65522     65521     65523
     65525     65524     65526     65528     65527     65529     65531     65530     65532
     65534     65533     65535     65537     65536     65538     65540     65539     65541
     65543     65542     65544     65546     65545     65547     65549     65548     65550
     65552     65551     65553     65555     65554     65556     65558     65557     65559
     65561     65560     65562     65564     65563     65565     65567     65566     65568
     65570     65569     65571     65573     65572     65574     65576     65575     65577
     65579     65578     65580     65582     65581     65583     65585     65584     65586
     65588     65587     65589     65591     65590     65592     65594     65593     65595
     65597     65596     65598     65600     65599     65601     65603     65602     65604
     65606     65605     65607     65609     65608     65610     65612     65611     65613
     65615     65614     65616     65618     65617     65619     65621     65620     65622
     65624     65623     65625     65627     65626     65628     65630     65629     65631
     65633     65632     65634     65636     65635     65637     65639     65638     65640
     65642     65641     65643     65645     65644     65646     65648     65647     65649
     65651     65650     65652     65654     65653     65655     65657     65656     65658
     65660     65659     65661     65663     65662     65664     65666     65665     65667
     65669     65668     65670     65672     65671     65673     65675     65674     65676
     65678     65677     65679     65681     65680     65682     65684     65683     65685
     65687     65686     65688     65690     65689     65691     65693     65692     65694
     65696     65695     65697     65699     65698     65700     65702     65701     65703
     65705     65704     65706     65708     65707     65709     65711     65710     65712
     65714     65713     65715     65717     65716     65718     65720     65719     65721
     65723     65722     65724     65726     65725     65727     65729     65728     65730
     65732     65731     65733     65735     65734     65736     65738     65737     65739
     65741     65740     65742     65744     65743     65745     65747     65746     65748
     65750     65749     65751     65753     65752     65754     65756     65755     65757
     65759     65758     65760     65762     65761     65763     65765     65764     65766
     65768     65767     65769     65771     65770     65772     65774     65773     65775
     65777     65776     65778     65780     65779     65781     65783     65782     65784
     65786     65785     65787     65789     65788     65790     65792     65791     65793
     65795     65794     65796     65798     65797     65799     65801     65800     65802
     65804     65803     65805     65807     65806     65808     65810     65809     65811
     65813     65812     65814     65816     65815     65817     65819     65818     65820
     65822     65821     65823     65825     65824     65826     65828     65827     65829
     65831     65830     65832     65834     65833     65835     65837     65836     65838
     65840     65839     65841     65843     65842     65844     65846     65845     65847
     65849     65848     65850     65852     65851     65853     65855     65854     65856
     65858     65857     65859     65861     65860     65862     65864     65863     65865
     65867     65866     65868     65870     65869     65871     65873     65872     65874
     65876     65875     65877     65879     65878     65880     65882     65881     65883
     65885     65884     65886     65888     65887     65889     65891     65890     65892
     65894     65893     65895     65897     65896     65898     65900     65899     65901
     65903     65902     65904     65906     65905     65907     65909     65908     65910
     65912     65911     65913     65915     65914     65916     65918     65917     65919
     65921     65920     65922     65924     65923     65925     65927     65926     65928
     65930     65929     65931     65933     65932     65934     65936     65935     65937
     65939     65938     65940     65942     65941     65943     65945     65944     65946
     65948     65947     65949     65951     65950     65952     65954     65953     65955
     65957     65956     65958     65960     65959     65961     65963     65962     65964
     65966     65965     65967     65969     65968     65970     65972     65971     65973
     65975     65974     65976     65978     65977     65979     65981     65980     65982
     65984     65983     65985     65987     65986     65988     65990     65989     65991
     65993     65992     65994     65996     65995     65997     65999     65998     66000
     66002     66001     66003     66005     66004     66006     66008     66007     66009
     66011     66010     66012     66014     66013     66015     66017     66016     66018
     66020     66019     66021     66023     66022     66024     66026     66025     66027
     66029     66028     66030     66032     66031     66033     66035     66034     66036
     66038     66037     66039     66041     66040     66042     66044     66043     66045
     66047     66046     66048     66050     66049     66051     66053     66052     66054
     66056     66055     66057     66059     66058     66060     66062     66061     66063
     66065     66064     66066     66068     66067     66069     66071     66070     66072
     66074     66073     66075     66077     66076     66078     66080     66079     66081
     66083     66082     66084     66086     66085     66087     66089     66088     66090
     66092     66091     66093     66095     66094     66096     66098     66097     66099
     66101     66100     66102     66104     66103     66105     66107     66106     66108
     66110     66109     66111     66113     66112     66114     66116     66115     66117
     66119     66118     66120     66122     66121     66123     66125     66124     66126
     66128     66127     66129     66131     66130     66132     66134     66133     66135
     66137     66136     66138     66140     66139     66141     66143     66142     66144
     66146     66145     66147     66149     66148     66150     66152     66151     66153
     66155     66154     66156     66158     66157     66159     66161     66160     66162
     66164     66163     66165     66167     66166     66168     66170     66169     66171
     66173     66172     66174     66176     66175     66177     66179     66178     66180
     66182     66181     66183     66185     66184     66186     66188     66187     66189
     66191     66190     66192     66194     66193     66195     66197     66196     66198
     66200     66199     66201     66203     66202     66204     66206     66205     66207
     66209     66208     66210     66212     66211     66213     66215     66214     66216
     66218     66217     66219     66221     66220     66222     66224     66223     66225
     66227     66226     66228     66230     66229     66231     66233     66232     66234
     66236     66235     66237     66239     66238     66240     66242     66241     66243
     66245     66244     66246     66248     66247     66249     66251     66250     66252
     66254     66253     66255     66257     66256     66258     66260     66259     66261
     66263     66262     66264     66266     66265     66267     66269     66268     66270
     66272     66271     66273     66275     66274     66276     66278     66277     66279
     66281     66280     66282     66284     66283     66285     66287     66286     66288
     66290     66289     66291     66293     66292     66294     66296     66295     66297
     66299     66298     66300     66302     66301     66303     66305     66304     66306
     66308     66307     66309     66311     66310     66312     66314     66313     66315
     66317     66316     66318     66320     66319     66321     66323     66322     66324
     66326     66325     66327     66329     66328     66330     66332     66331     66333
     66335     66334     66336     66338     66337     66339     66341     66340     66342
     66344     66343     66345     66347     66346     66348     66350     66349     66351
     66353     66352     66354     66356     66355     66357     66359     66358     66360
     66362     66361     66363     66365     66364     66366     66368     66367     66369
     66371     66370     66372     66374     66373     66375     66377     66376     66378
     66380     66379     66381     66383     66382     66384     66386     66385     66387
     66389     66388     66390     66392     66391     66393     66395     66394     66396
     66398     66397     66399     66401     66400     66402     66404     66403     66405
     66407     66406     66408     66410     66409     66411     66413     66412     66414
     66416     66415     66417     66419     66418     66420     66422     66421     66423
     66425     66424     66426     66428     66427     66429     66431     66430     66432
     66434     66433     66435     66437     66436     66438     66440     66439     66441
     66443     66442     66444     66446     66445     66447     66449     66448     66450
     66452     66451     66453     66455     66454     66456     66458     66457     66459
     66461     66460     66462     66464     66463     66465     66467     66466     66468
     66470     66469     66471     66473     66472     66474     66476     66475     66477
     66479     66478     66480     66482     66481     66483     66485     66484     66486
     66488     66487     66489     66491     66490     66492     66494     66493     66495
     66497     66496     66498     66500     66499     66501     66503     66502     66504
     66506     66505     66507     66509     66508     66510     66512     66511     66513
     66515     66514     66516     66518     66517     66519     66521     66520     66522
     66524     66523     66525     66527     66526     66528     66530     66529     66531
     66533     66532     66534     66536     66535     66537     66539     66538     66540
     66542     66541     66543     66545     66544     66546     66548     66547     66549
     66551     66550     66552     66554     66553     66555     66557     66556     66558
     66560     66559     66561     66563     66562     66564     66566     66565     66567
     66569     66568     66570     66572     66571     66573     66575     66574     66576
     66578     66577     66579     66581     66580     66582     66584     66583     66585
     66587     66586     66588     66590     66589     66591     66593     66592     66594
     66596     66595     66597     66599     66598     66600     66602     66601     66603
     66605     66604     66606     66608     66607     66609     66611     66610     66612
     66614     66613     66615     66617     66616     66618     66620     66619     66621
     66623     66622     66624     66626     66625     66627     66629     66628     66630
     66632     66631     66633     66635     66634     66636     66638     66637     66639
     66641     66640     66642     66644     66643     66645     66647     66646     66648
     66650     66649     66651     66653     66652     66654     66656     66655     66657
     66659     66658     66660     66662     66661     66663     66665     66664     66666
     66668     66667     66669     66671     66670     66672     66674     66673     66675
     66677     66676     66678     66680     66679     66681     66683     66682     66684
     66686     66685     66687     66689     66688     66690     66692     66691     66693
     66695     66694     66696     66698     66697     66699     66701     66700     66702
     66704     66703     66705     66707     66706     66708     66710     66709     66711
     66713     66712     66714     66716     66715     66717     66719     66718     66720
     66722     66721     66723     66725     66724     66726     66728     66727     66729
     66731     66730     66732     66734     66733     66735     66737     66736     66738
     66740     66739     66741     66743     66742     66744     66746     66745     66747
     66749     66748     66750     66752     66751     66753     66755     66754     66756
     66758     66757     66759     66761     66760     66762     66764     66763     66765
     66767     66766     66768     66770     66769     66771     66773     66772     66774
     66776     66775     66777     66779     66778     66780     66782     66781     66783
     66785     66784     66786     66788     66787     66789     66791     66790     66792
     66794     66793     66795     66797     66796     66798     66800     66799     66801
     66803     66802     66804     66806     66805     66807     66809     66808     66810
     66812     66811     66813     66815     66814     66816     66818     66817     66819
     66821     66820     66822     66824     66823     66825     66827     66826     66828
     66830     66829     66831     66833     66832     66834     66836     66835     66837
     66839     66838     66840     66842     66841     66843     66845     66844     66846
     66848     66847     66849     66851     66850     66852     66854     66853     66855
     66857     66856     66858     66860     66859     66861     66863     66862     66864
     66866     66865     66867     66869     66868     66870     66872     66871     66873
     66875     66874     66876     66878     66877     66879     66881     66880     66882
     66884     66883     66885     66887     66886     66888     66890     66889     66891
     66893     66892     66894     66896     66895     66897     66899     66898     66900
     66902     66901     66903     66905     66904     66906     66908     66907     66909
     66911     66910     66912     66914     66913     66915     66917     66916     66918
     66920     66919     66921     66923     66922     66924     66926     66925     66927
     66929     66928     66930     66932     66931     66933     66935     66934     66936
     66938     66937     66939     66941     66940     66942     66944     66943     66945
     66947     66946     66948     66950     66949     66951     66953     66952     66954
     66956     66955     66957     66959     66958     66960     66962     66961     66963
     66965     66964     66966     66968     66967     66969     66971     66970     66972
     66974     66973     66975     66977     66976     66978     66980     66979     66981
     66983     66982     66984     66986     66985     66987     66989     66988     66990
     66992     66991     66993     66995     66994     66996     66998     66997     66999
     67001     67000     67002     67004     67003     67005     67007     67006     67008
     67010     67009     67011     67013     67012     67014     67016     67015     67017
     67019     67018     67020     67022     67021     67023     67025     67024     67026
     67028     67027     67029     67031     67030     67032     67034     67033     67035
     67037     67036     67038     67040     67039     67041     67043     67042     67044
     67046     67045     67047     67049     67048     67050     67052     67051     67053
     67055     67054     67056     67058     67057     67059     67061     67060     67062
     67064     67063     67065     67067     67066     67068     67070     67069     67071
     67073     67072     67074     67076     67075     67077     67079     67078     67080
     67082     67081     67083     67085     67084     67086     67088     67087     67089
     67091     67090     67092     67094     67093     67095     67097     67096     67098
     67100     67099     67101     67103     67102     67104     67106     67105     67107
     67109     67108     67110     67112     67111     67113     67115     67114     67116
     67118     67117     67119     67121     67120     67122     67124     67123     67125
     67127     67126     67128     67130     67129     67131     67133     67132     67134
     67136     67135     67137     67139     67138     67140     67142     67141     67143
     67145     67144     67146     67148     67147     67149     67151     67150     67152
     67154     67153     67155     67157     67156     67158     67160     67159     67161
     67163     67162     67164     67166     67165     67167     67169     67168     67170
     67172     67171     67173     67175     67174     67176     67178     67177     67179
     67181     67180     67182     67184     67183     67185     67187     67186     67188
     67190     67189     67191     67193     67192     67194     67196     67195     67197
     67199     67198     67200     67202     67201     67203     67205     67204     67206
     67208     67207     67209     67211     67210     67212     67214     67213     67215
     67217     67216     67218     67220     67219     67221     67223     67222     67224
     67226     67225     67227     67229     67228     67230     67232     67231     67233
     67235     67234     67236     67238     67237     67239     67241     67240     67242
     67244     67243     67245     67247     67246     67248     67250     67249     67251
     67253     67252     67254     67256     67255     67257     67259     67258     67260
     67262     67261     67263     67265     67264     67266     67268     67267     67269
     67271     67270     67272     67274     67273     67275     67277     67276     67278
     67280     67279     67281     67283     67282     67284     67286     67285     67287
     67289     67288     67290     67292     67291     67293     67295     67294     67296
     67298     67297     67299     67301     67300     67302     67304     67303     67305
     67307     67306     67308     67310     67309     67311     67313     67312     67314
     67316     67315     67317     67319     67318     67320     67322     67321     67323
     67325     67324     67326     67328     67327     67329     67331     67330     67332
     67334     67333     67335     67337     67336     67338     67340     67339     67341
     67343     67342     67344     67346     67345     67347     67349     67348     67350
     67352     67351     67353     67355     67354     67356     67358     67357     67359
     67361     67360     67362     67364     67363     67365     67367     67366     67368
     67370     67369     67371     67373     67372     67374     67376     67375     67377
     67379     67378     67380     67382     67381     67383     67385     67384     67386
     67388     67387     67389     67391     67390     67392     67394     67393     67395
     67397     67396     67398     67400     67399     67401     67403     67402     67404
     67406     67405     67407     67409     67408     67410     67412     67411     67413
     67415     67414     67416     67418     67417     67419     67421     67420     67422
     67424     67423     67425     67427     67426     67428     67430     67429     67431
     67433     67432     67434     67436     67435     67437     67439     67438     67440
     67442     67441     67443     67445     67444     67446     67448     67447     67449
     67451     67450     67452     67454     67453     67455     67457     67456     67458
     67460     67459     67461     67463     67462     67464     67466     67465     67467
     67469     67468     67470     67472     67471     67473     67475     67474     67476
     67478     67477     67479     67481     67480     67482     67484     67483     67485
     67487     67486     67488     67490     67489     67491     67493     67492     67494
     67496     67495     67497     67499     67498     67500     67502     67501     67503
     67505     67504     67506     67508     67507     67509     67511     67510     67512
     67514     67513     67515     67517     67516     67518     67520     67519     67521
     67523     67522     67524     67526     67525     67527     67529     67528     67530
     67532     67531     67533     67535     67534     67536     67538     67537     67539
     67541     67540     67542     67544     67543     67545     67547     67546     67548
     67550     67549     67551     67553     67552     67554     67556     67555     67557
     67559     67558     67560     67562     67561     67563     67565     67564     67566
     67568     67567     67569     67571     67570     67572     67574     67573     67575
     67577     67576     67578     67580     67579     67581     67583     67582     67584
     67586     67585     67587     67589     67588     67590     67592     67591     67593
     67595     67594     67596     67598     67597     67599     67601     67600     67602
     67604     67603     67605     67607     67606     67608     67610     67609     67611
     67613     67612     67614     67616     67615     67617     67619     67618     67620
     67622     67621     67623     67625     67624     67626     67628     67627     67629
     67631     67630     67632     67634     67633     67635     67637     67636     67638
     67640     67639     67641     67643     67642     67644     67646     67645     67647
     67649     67648     67650     67652     67651     67653     67655     67654     67656
     67658     67657     67659     67661     67660     67662     67664     67663     67665
     67667     67666     67668     67670     67669     67671     67673     67672     67674
     67676     67675     67677     67679     67678     67680     67682     67681     67683
     67685     67684     67686     67688     67687     67689     67691     67690     67692
     67694     67693     67695     67697     67696     67698     67700     67699     67701
     67703     67702     67704     67706     67705     67707     67709     67708     67710
     67712     67711     67713     67715     67714     67716     67718     67717     67719
     67721     67720     67722     67724     67723     67725     67727     67726     67728
     67730     67729     67731     67733     67732     67734     67736     67735     67737
     67739     67738     67740     67742     67741     67743     67745     67744     67746
     67748     67747     67749     67751     67750     67752     67754     67753     67755
     67757     67756     67758     67760     67759     67761     67763     67762     67764
     67766     67765     67767     67769     67768     67770     67772     67771     67773
     67775     67774     67776     67778     67777     67779     67781     67780     67782
     67784     67783     67785     67787     67786     67788     67790     67789     67791
     67793     67792     67794     67796     67795     67797     67799     67798     67800
     67802     67801     67803     67805     67804     67806     67808     67807     67809
     67811     67810     67812     67814     67813     67815     67817     67816     67818
     67820     67819     67821     67823     67822     67824     67826     67825     67827
     67829     67828     67830     67832     67831     67833     67835     67834     67836
     67838     67837     67839     67841     67840     67842     67844     67843     67845
     67847     67846     67848     67850     67849     67851     67853     67852     67854
     67856     67855     67857     67859     67858     67860     67862     67861     67863
     67865     67864     67866     67868     67867     67869     67871     67870     67872
     67874     67873     67875     67877     67876     67878     67880     67879     67881
     67883     67882     67884     67886     67885     67887     67889     67888     67890
     67892     67891     67893     67895     67894     67896     67898     67897     67899
     67901     67900     67902     67904     67903     67905     67907     67906     67908
     67910     67909     67911     67913     67912     67914     67916     67915     67917
     67919     67918     67920     67922     67921     67923     67925     67924     67926
     67928     67927     67929     67931     67930     67932     67934     67933     67935
     67937     67936     67938     67940     67939     67941     67943     67942     67944
     67946     67945     67947     67949     67948     67950     67952     67951     67953
     67955     67954     67956     67958     67957     67959     67961     67960     67962
     67964     67963     67965     67967     67966     67968     67970     67969     67971
     67973     67972     67974     67976     67975     67977     67979     67978     67980
     67982     67981     67983     67985     67984     67986     67988     67987     67989
     67991     67990     67992     67994     67993     67995     67997     67996     67998
     68000     67999     68001     68003     68002     68004     68006     68005     68007
     68009     68008     68010     68012     68011     68013     68015     68014     68016
     68018     68017     68019     68021     68020     68022     68024     68023     68025
     68027     68026     68028     68030     68029     68031     68033     68032     68034
     68036     68035     68037     68039     68038     68040     68042     68041     68043
     68045     68044     68046     68048     68047     68049     68051     68050     68052
     68054     68053     68055     68057     68056     68058     68060     68059     68061
     68063     68062     68064     68066     68065     68067     68069     68068     68070
     68072     68071     68073     68075     68074     68076     68078     68077     68079
     68081     68080     68082     68084     68083     68085     68087     68086     68088
     68090     68089     68091     68093     68092     68094     68096     68095     68097
     68099     68098     68100     68102     68101     68103     68105     68104     68106
     68108     68107     68109     68111     68110     68112     68114     68113     68115
     68117     68116     68118     68120     68119     68121     68123     68122     68124
     68126     68125     68127     68129     68128     68130     68132     68131     68133
     68135     68134     68136     68138     68137     68139     68141     68140     68142
     68144     68143     68145     68147     68146     68148     68150     68149     68151
     68153     68152     68154     68156     68155     68157     68159     68158     68160
     68162     68161     68163     68165     68164     68166     68168     68167     68169
     68171     68170     68172     68174     68173     68175     68177     68176     68178
     68180     68179     68181     68183     68182     68184     68186     68185     68187
     68189     68188     68190     68192     68191     68193     68195     68194     68196
     68198     68197     68199     68201     68200     68202     68204     68203     68205
     68207     68206     68208     68210     68209     68211     68213     68212     68214
     68216     68215     68217     68219     68218     68220     68222     68221     68223
     68225     68224     68226     68228     68227     68229     68231     68230     68232
     68234     68233     68235     68237     68236     68238     68240     68239     68241
     68243     68242     68244     68246     68245     68247     68249     68248     68250
     68252     68251     68253     68255     68254     68256     68258     68257     68259
     68261     68260     68262     68264     68263     68265     68267     68266     68268
     68270     68269     68271     68273     68272     68274     68276     68275     68277
     68279     68278     68280     68282     68281     68283     68285     68284     68286
     68288     68287     68289     68291     68290     68292     68294     68293     68295
     68297     68296     68298     68300     68299     68301     68303     68302     68304
     68306     68305     68307     68309     68308     68310     68312     68311     68313
     68315     68314     68316     68318     68317     68319     68321     68320     68322
     68324     68323     68325     68327     68326     68328     68330     68329     68331
     68333     68332     68334     68336     68335     68337     68339     68338     68340
     68342     68341     68343     68345     68344     68346     68348     68347     68349
     68351     68350     68352     68354     68353     68355     68357     68356     68358
     68360     68359     68361     68363     68362     68364     68366     68365     68367
     68369     68368     68370     68372     68371     68373     68375     68374     68376
     68378     68377     68379     68381     68380     68382     68384     68383     68385
     68387     68386     68388     68390     68389     68391     68393     68392     68394
     68396     68395     68397     68399     68398     68400     68402     68401     68403
     68405     68404     68406     68408     68407     68409     68411     68410     68412
     68414     68413     68415     68417     68416     68418     68420     68419     68421
     68423     68422     68424     68426     68425     68427     68429     68428     68430
     68432     68431     68433     68435     68434     68436     68438     68437     68439
     68441     68440     68442     68444     68443     68445     68447     68446     68448
     68450     68449     68451     68453     68452     68454     68456     68455     68457
     68459     68458     68460     68462     68461     68463     68465     68464     68466
     68468     68467     68469     68471     68470     68472     68474     68473     68475
     68477     68476     68478     68480     68479     68481     68483     68482     68484
     68486     68485     68487     68489     68488     68490     68492     68491     68493
     68495     68494     68496     68498     68497     68499     68501     68500     68502
     68504     68503     68505     68507     68506     68508     68510     68509     68511
     68513     68512     68514     68516     68515     68517     68519     68518     68520
     68522     68521     68523     68525     68524     68526     68528     68527     68529
     68531     68530     68532     68534     68533     68535     68537     68536     68538
     68540     68539     68541     68543     68542     68544     68546     68545     68547
     68549     68548     68550     68552     68551     68553     68555     68554     68556
     68558     68557     68559     68561     68560     68562     68564     68563     68565
     68567     68566     68568     68570     68569     68571     68573     68572     68574
     68576     68575     68577     68579     68578     68580     68582     68581     68583
     68585     68584     68586     68588     68587     68589     68591     68590     68592
     68594     68593     68595     68597     68596     68598     68600     68599     68601
     68603     68602     68604     68606     68605     68607     68609     68608     68610
     68612     68611     68613     68615     68614     68616     68618     68617     68619
     68621     68620     68622     68624     68623     68625     68627     68626     68628
     68630     68629     68631     68633     68632     68634     68636     68635     68637
     68639     68638     68640     68642     68641     68643     68645     68644     68646
     68648     68647     68649     68651     68650     68652     68654     68653     68655
     68657     68656     68658     68660     68659     68661     68663     68662     68664
     68666     68665     68667     68669     68668     68670     68672     68671     68673
     68675     68674     68676     68678     68677     68679     68681     68680     68682
     68684     68683     68685     68687     68686     68688     68690     68689     68691
     68693     68692     68694     68696     68695     68697     68699     68698     68700
     68702     68701     68703     68705     68704     68706     68708     68707     68709
     68711     68710     68712     68714     68713     68715     68717     68716     68718
     68720     68719     68721     68723     68722     68724     68726     68725     68727
     68729     68728     68730     68732     68731     68733     68735     68734     68736
     68738     68737     68739     68741     68740     68742     68744     68743     68745
     68747     68746     68748     68750     68749     68751     68753     68752     68754
     68756     68755     68757     68759     68758     68760     68762     68761     68763
     68765     68764     68766     68768     68767     68769     68771     68770     68772
     68774     68773     68775     68777     68776     68778     68780     68779     68781
     68783     68782     68784     68786     68785     68787     68789     68788     68790
     68792     68791     68793     68795     68794     68796     68798     68797     68799
     68801     68800     68802     68804     68803     68805     68807     68806     68808
     68810     68809     68811     68813     68812     68814     68816     68815     68817
     68819     68818     68820     68822     68821     68823     68825     68824     68826
     68828     68827     68829     68831     68830     68832     68834     68833     68835
     68837     68836     68838     68840     68839     68841     68843     68842     68844
     68846     68845     68847     68849     68848     68850     68852     68851     68853
     68855     68854     68856     68858     68857     68859     68861     68860     68862
     68864     68863     68865     68867     68866     68868     68870     68869     68871
     68873     68872     68874     68876     68875     68877     68879     68878     68880
     68882     68881     68883     68885     68884     68886     68888     68887     68889
     68891     68890     68892     68894     68893     68895     68897     68896     68898
     68900     68899     68901     68903     68902     68904     68906     68905     68907
     68909     68908     68910     68912     68911     68913     68915     68914     68916
     68918     68917     68919     68921     68920     68922     68924     68923     68925
     68927     68926     68928     68930     68929     68931     68933     68932     68934
     68936     68935     68937     68939     68938     68940     68942     68941     68943
     68945     68944     68946     68948     68947     68949     68951     68950     68952
     68954     68953     68955     68957     68956     68958     68960     68959     68961
     68963     68962     68964     68966     68965     68967     68969     68968     68970
     68972     68971     68973     68975     68974     68976     68978     68977     68979
     68981     68980     68982     68984     68983     68985     68987     68986     68988
     68990     68989     68991     68993     68992     68994     68996     68995     68997
     68999     68998     69000     69002     69001     69003     69005     69004     69006
     69008     69007     69009     69011     69010     69012     69014     69013     69015
     69017     69016     69018     69020     69019     69021     69023     69022     69024
     69026     69025     69027     69029     69028     69030     69032     69031     69033
     69035     69034     69036     69038     69037     69039     69041     69040     69042
     69044     69043     69045     69047     69046     69048     69050     69049     69051
     69053     69052     69054     69056     69055     69057     69059     69058     69060
     69062     69061     69063     69065     69064     69066     69068     69067     69069
     69071     69070     69072     69074     69073     69075     69077     69076     69078
     69080     69079     69081     69083     69082     69084     69086     69085     69087
     69089     69088     69090     69092     69091     69093     69095     69094     69096
     69098     69097     69099     69101     69100     69102     69104     69103     69105
     69107     69106     69108     69110     69109     69111     69113     69112     69114
     69116     69115     69117     69119     69118     69120     69122     69121     69123
     69125     69124     69126     69128     69127     69129     69131     69130     69132
     69134     69133     69135     69137     69136     69138     69140     69139     69141
     69143     69142     69144     69146     69145     69147     69149     69148     69150
     69152     69151     69153     69155     69154     69156     69158     69157     69159
     69161     69160     69162     69164     69163     69165     69167     69166     69168
     69170     69169     69171     69173     69172     69174     69176     69175     69177
     69179     69178     69180     69182     69181     69183     69185     69184     69186
     69188     69187     69189     69191     69190     69192     69194     69193     69195
     69197     69196     69198     69200     69199     69201     69203     69202     69204
     69206     69205     69207     69209     69208     69210     69212     69211     69213
     69215     69214     69216     69218     69217     69219     69221     69220     69222
     69224     69223     69225     69227     69226     69228     69230     69229     69231
     69233     69232     69234     69236     69235     69237     69239     69238     69240
     69242     69241     69243     69245     69244     69246     69248     69247     69249
     69251     69250     69252     69254     69253     69255     69257     69256     69258
     69260     69259     69261     69263     69262     69264     69266     69265     69267
     69269     69268     69270     69272     69271     69273     69275     69274     69276
     69278     69277     69279     69281     69280     69282     69284     69283     69285
     69287     69286     69288     69290     69289     69291     69293     69292     69294
     69296     69295     69297     69299     69298     69300     69302     69301     69303
     69305     69304     69306     69308     69307     69309     69311     69310     69312
     69314     69313     69315     69317     69316     69318     69320     69319     69321
     69323     69322     69324     69326     69325     69327     69329     69328     69330
     69332     69331     69333     69335     69334     69336     69338     69337     69339
     69341     69340     69342     69344     69343     69345     69347     69346     69348
     69350     69349     69351     69353     69352     69354     69356     69355     69357
     69359     69358     69360     69362     69361     69363     69365     69364     69366
     69368     69367     69369     69371     69370     69372     69374     69373     69375
     69377     69376     69378     69380     69379     69381     69383     69382     69384
     69386     69385     69387     69389     69388     69390     69392     69391     69393
     69395     69394     69396     69398     69397     69399     69401     69400     69402
     69404     69403     69405     69407     69406     69408     69410     69409     69411
     69413     69412     69414     69416     69415     69417     69419     69418     69420
     69422     69421     69423     69425     69424     69426     69428     69427     69429
     69431     69430     69432     69434     69433     69435     69437     69436     69438
     69440     69439     69441     69443     69442     69444     69446     69445     69447
     69449     69448     69450     69452     69451     69453     69455     69454     69456
     69458     69457     69459     69461     69460     69462     69464     69463     69465
     69467     69466     69468     69470     69469     69471     69473     69472     69474
     69476     69475     69477     69479     69478     69480     69482     69481     69483
     69485     69484     69486     69488     69487     69489     69491     69490     69492
     69494     69493     69495     69497     69496     69498     69500     69499     69501
     69503     69502     69504     69506     69505     69507     69509     69508     69510
     69512     69511     69513     69515     69514     69516     69518     69517     69519
     69521     69520     69522     69524     69523     69525     69527     69526     69528
     69530     69529     69531     69533     69532     69534     69536     69535     69537
     69539     69538     69540     69542     69541     69543     69545     69544     69546
     69548     69547     69549     69551     69550     69552     69554     69553     69555
     69557     69556     69558     69560     69559     69561     69563     69562     69564
     69566     69565     69567     69569     69568     69570     69572     69571     69573
     69575     69574     69576     69578     69577     69579     69581     69580     69582
     69584     69583     69585     69587     69586     69588     69590     69589     69591
     69593     69592     69594     69596     69595     69597     69599     69598     69600
     69602     69601     69603     69605     69604     69606     69608     69607     69609
     69611     69610     69612     69614     69613     69615     69617     69616     69618
     69620     69619     69621     69623     69622     69624     69626     69625     69627
     69629     69628     69630     69632     69631     69633     69635     69634     69636
     69638     69637     69639     69641     69640     69642     69644     69643     69645
     69647     69646     69648     69650     69649     69651     69653     69652     69654
     69656     69655     69657     69659     69658     69660     69662     69661     69663
     69665     69664     69666     69668     69667     69669     69671     69670     69672
     69674     69673     69675     69677     69676     69678     69680     69679     69681
     69683     69682     69684     69686     69685     69687     69689     69688     69690
     69692     69691     69693     69695     69694     69696     69698     69697     69699
     69701     69700     69702     69704     69703     69705     69707     69706     69708
     69710     69709     69711     69713     69712     69714     69716     69715     69717
     69719     69718     69720     69722     69721     69723     69725     69724     69726
     69728     69727     69729     69731     69730     69732     69734     69733     69735
     69737     69736     69738     69740     69739     69741     69743     69742     69744
     69746     69745     69747     69749     69748     69750     69752     69751     69753
     69755     69754     69756     69758     69757     69759     69761     69760     69762
     69764     69763     69765     69767     69766     69768     69770     69769     69771
     69773     69772     69774     69776     69775     69777     69779     69778     69780
     69782     69781     69783     69785     69784     69786     69788     69787     69789
     69791     69790     69792     69794     69793     69795     69797     69796     69798
     69800     69799     69801     69803     69802     69804     69806     69805     69807
     69809     69808     69810     69812     69811     69813     69815     69814     69816
     69818     69817     69819     69821     69820     69822     69824     69823     69825
     69827     69826     69828     69830     69829     69831     69833     69832     69834
     69836     69835     69837     69839     69838     69840     69842     69841     69843
     69845     69844     69846     69848     69847     69849     69851     69850     69852
     69854     69853     69855     69857     69856     69858     69860     69859     69861
     69863     69862     69864     69866     69865     69867     69869     69868     69870
     69872     69871     69873     69875     69874     69876     69878     69877     69879
     69881     69880     69882     69884     69883     69885     69887     69886     69888
     69890     69889     69891     69893     69892     69894     69896     69895     69897
     69899     69898     69900     69902     69901     69903     69905     69904     69906
     69908     69907     69909     69911     69910     69912     69914     69913     69915
     69917     69916     69918     69920     69919     69921     69923     69922     69924
     69926     69925     69927     69929     69928     69930     69932     69931     69933
     69935     69934     69936     69938     69937     69939     69941     69940     69942
     69944     69943     69945     69947     69946     69948     69950     69949     69951
     69953     69952     69954     69956     69955     69957     69959     69958     69960
     69962     69961     69963     69965     69964     69966     69968     69967     69969
     69971     69970     69972     69974     69973     69975     69977     69976     69978
     69980     69979     69981     69983     69982     69984     69986     69985     69987
     69989     69988     69990     69992     69991     69993     69995     69994     69996
     69998     69997     69999     70001     70000     70002     70004     70003     70005
     70007     70006     70008     70010     70009     70011     70013     70012     70014
     70016     70015     70017     70019     70018     70020     70022     70021     70023
     70025     70024     70026     70028     70027     70029     70031     70030     70032
     70034     70033     70035     70037     70036     70038     70040     70039     70041
     70043     70042     70044     70046     70045     70047     70049     70048     70050
     70052     70051     70053     70055     70054     70056     70058     70057     70059
     70061     70060     70062     70064     70063     70065     70067     70066     70068
     70070     70069     70071     70073     70072     70074     70076     70075     70077
     70079     70078     70080     70082     70081     70083     70085     70084     70086
     70088     70087     70089     70091     70090     70092     70094     70093     70095
     70097     70096     70098     70100     70099     70101     70103     70102     70104
     70106     70105     70107     70109     70108     70110     70112     70111     70113
     70115     70114     70116     70118     70117     70119     70121     70120     70122
     70124     70123     70125     70127     70126     70128     70130     70129     70131
     70133     70132     70134     70136     70135     70137     70139     70138     70140
     70142     70141     70143     70145     70144     70146     70148     70147     70149
     70151     70150     70152     70154     70153     70155     70157     70156     70158
     70160     70159     70161     70163     70162     70164     70166     70165     70167
     70169     70168     70170     70172     70171     70173     70175     70174     70176
     70178     70177     70179     70181     70180     70182     70184     70183     70185
     70187     70186     70188     70190     70189     70191     70193     70192     70194
     70196     70195     70197     70199     70198     70200     70202     70201     70203
     70205     70204     70206     70208     70207     70209     70211     70210     70212
     70214     70213     70215     70217     70216     70218     70220     70219     70221
     70223     70222     70224     70226     70225     70227     70229     70228     70230
     70232     70231     70233     70235     70234     70236     70238     70237     70239
     70241     70240     70242     70244     70243     70245     70247     70246     70248
     70250     70249     70251     70253     70252     70254     70256     70255     70257
     70259     70258     70260     70262     70261     70263     70265     70264     70266
     70268     70267     70269     70271     70270     70272     70274     70273     70275
     70277     70276     70278     70280     70279     70281     70283     70282     70284
     70286     70285     70287     70289     70288     70290     70292     70291     70293
     70295     70294     70296     70298     70297     70299     70301     70300     70302
     70304     70303     70305     70307     70306     70308     70310     70309     70311
     70313     70312     70314     70316     70315     70317     70319     70318     70320
     70322     70321     70323     70325     70324     70326     70328     70327     70329
     70331     70330     70332     70334     70333     70335     70337     70336     70338
     70340     70339     70341     70343     70342     70344     70346     70345     70347
     70349     70348     70350     70352     70351     70353     70355     70354     70356
     70358     70357     70359     70361     70360     70362     70364     70363     70365
     70367     70366     70368     70370     70369     70371     70373     70372     70374
     70376     70375     70377     70379     70378     70380     70382     70381     70383
     70385     70384     70386     70388     70387     70389     70391     70390     70392
     70394     70393     70395     70397     70396     70398     70400     70399     70401
     70403     70402     70404     70406     70405     70407     70409     70408     70410
     70412     70411     70413     70415     70414     70416     70418     70417     70419
     70421     70420     70422     70424     70423     70425     70427     70426     70428
     70430     70429     70431     70433     70432     70434     70436     70435     70437
     70439     70438     70440     70442     70441     70443     70445     70444     70446
     70448     70447     70449     70451     70450     70452     70454     70453     70455
     70457     70456     70458     70460     70459     70461     70463     70462     70464
     70466     70465     70467     70469     70468     70470     70472     70471     70473
     70475     70474     70476     70478     70477     70479     70481     70480     70482
     70484     70483     70485     70487     70486     70488     70490     70489     70491
     70493     70492     70494     70496     70495     70497     70499     70498     70500
     70502     70501     70503     70505     70504     70506     70508     70507     70509
     70511     70510     70512     70514     70513     70515     70517     70516     70518
     70520     70519     70521     70523     70522     70524     70526     70525     70527
     70529     70528     70530     70532     70531     70533     70535     70534     70536
     70538     70537     70539     70541     70540     70542     70544     70543     70545
     70547     70546     70548     70550     70549     70551     70553     70552     70554
     70556     70555     70557     70559     70558     70560     70562     70561     70563
     70565     70564     70566     70568     70567     70569     70571     70570     70572
     70574     70573     70575     70577     70576     70578     70580     70579     70581
     70583     70582     70584     70586     70585     70587     70589     70588     70590
     70592     70591     70593     70595     70594     70596     70598     70597     70599
     70601     70600     70602     70604     70603     70605     70607     70606     70608
     70610     70609     70611     70613     70612     70614     70616     70615     70617
     70619     70618     70620     70622     70621     70623     70625     70624     70626
     70628     70627     70629     70631     70630     70632     70634     70633     70635
     70637     70636     70638     70640     70639     70641     70643     70642     70644
     70646     70645     70647     70649     70648     70650     70652     70651     70653
     70655     70654     70656     70658     70657     70659     70661     70660     70662
     70664     70663     70665     70667     70666     70668     70670     70669     70671
     70673     70672     70674     70676     70675     70677     70679     70678     70680
     70682     70681     70683     70685     70684     70686     70688     70687     70689
     70691     70690     70692     70694     70693     70695     70697     70696     70698
     70700     70699     70701     70703     70702     70704     70706     70705     70707
     70709     70708     70710     70712     70711     70713     70715     70714     70716
     70718     70717     70719     70721     70720     70722     70724     70723     70725
     70727     70726     70728     70730     70729     70731     70733     70732     70734
     70736     70735     70737     70739     70738     70740     70742     70741     70743
     70745     70744     70746     70748     70747     70749     70751     70750     70752
     70754     70753     70755     70757     70756     70758     70760     70759     70761
     70763     70762     70764     70766     70765     70767     70769     70768     70770
     70772     70771     70773     70775     70774     70776     70778     70777     70779
     70781     70780     70782     70784     70783     70785     70787     70786     70788
     70790     70789     70791     70793     70792     70794     70796     70795     70797
     70799     70798     70800     70802     70801     70803     70805     70804     70806
     70808     70807     70809     70811     70810     70812     70814     70813     70815
     70817     70816     70818     70820     70819     70821     70823     70822     70824
     70826     70825     70827     70829     70828     70830     70832     70831     70833
     70835     70834     70836     70838     70837     70839     70841     70840     70842
     70844     70843     70845     70847     70846     70848     70850     70849     70851
     70853     70852     70854     70856     70855     70857     70859     70858     70860
     70862     70861     70863     70865     70864     70866     70868     70867     70869
     70871     70870     70872     70874     70873     70875     70877     70876     70878
     70880     70879     70881     70883     70882     70884     70886     70885     70887
     70889     70888     70890     70892     70891     70893     70895     70894     70896
     70898     70897     70899     70901     70900     70902     70904     70903     70905
     70907     70906     70908     70910     70909     70911     70913     70912     70914
     70916     70915     70917     70919     70918     70920     70922     70921     70923
     70925     70924     70926     70928     70927     70929     70931     70930     70932
     70934     70933     70935     70937     70936     70938     70940     70939     70941
     70943     70942     70944     70946     70945     70947     70949     70948     70950
     70952     70951     70953     70955     70954     70956     70958     70957     70959
     70961     70960     70962     70964     70963     70965     70967     70966     70968
     70970     70969     70971     70973     70972     70974     70976     70975     70977
     70979     70978     70980     70982     70981     70983     70985     70984     70986
     70988     70987     70989     70991     70990     70992     70994     70993     70995
     70997     70996     70998     71000     70999     71001     71003     71002     71004
     71006     71005     71007     71009     71008     71010     71012     71011     71013
     71015     71014     71016     71018     71017     71019     71021     71020     71022
     71024     71023     71025     71027     71026     71028     71030     71029     71031
     71033     71032     71034     71036     71035     71037     71039     71038     71040
     71042     71041     71043     71045     71044     71046     71048     71047     71049
     71051     71050     71052     71054     71053     71055     71057     71056     71058
     71060     71059     71061     71063     71062     71064     71066     71065     71067
     71069     71068     71070     71072     71071     71073     71075     71074     71076
     71078     71077     71079     71081     71080     71082     71084     71083     71085
     71087     71086     71088     71090     71089     71091     71093     71092     71094
     71096     71095     71097     71099     71098     71100     71102     71101     71103
     71105     71104     71106     71108     71107     71109     71111     71110     71112
     71114     71113     71115     71117     71116     71118     71120     71119     71121
     71123     71122     71124     71126     71125     71127     71129     71128     71130
     71132     71131     71133     71135     71134     71136     71138     71137     71139
     71141     71140     71142     71144     71143     71145     71147     71146     71148
     71150     71149     71151     71153     71152     71154     71156     71155     71157
     71159     71158     71160     71162     71161     71163     71165     71164     71166
     71168     71167     71169     71171     71170     71172     71174     71173     71175
     71177     71176     71178     71180     71179     71181     71183     71182     71184
     71186     71185     71187     71189     71188     71190     71192     71191     71193
     71195     71194     71196     71198     71197     71199     71201     71200     71202
     71204     71203     71205     71207     71206     71208     71210     71209     71211
     71213     71212     71214     71216     71215     71217     71219     71218     71220
     71222     71221     71223     71225     71224     71226     71228     71227     71229
     71231     71230     71232     71234     71233     71235     71237     71236     71238
     71240     71239     71241     71243     71242     71244     71246     71245     71247
     71249     71248     71250     71252     71251     71253     71255     71254     71256
     71258     71257     71259     71261     71260     71262     71264     71263     71265
     71267     71266     71268     71270     71269     71271     71273     71272     71274
     71276     71275     71277     71279     71278     71280     71282     71281     71283
     71285     71284     71286     71288     71287     71289     71291     71290     71292
     71294     71293     71295     71297     71296     71298     71300     71299     71301
     71303     71302     71304     71306     71305     71307     71309     71308     71310
     71312     71311     71313     71315     71314     71316     71318     71317     71319
     71321     71320     71322     71324     71323     71325     71327     71326     71328
     71330     71329     71331     71333     71332     71334     71336     71335     71337
     71339     71338     71340     71342     71341     71343     71345     71344     71346
     71348     71347     71349     71351     71350     71352     71354     71353     71355
     71357     71356     71358     71360     71359     71361     71363     71362     71364
     71366     71365     71367     71369     71368     71370     71372     71371     71373
     71375     71374     71376     71378     71377     71379     71381     71380     71382
     71384     71383     71385     71387     71386     71388     71390     71389     71391
     71393     71392     71394     71396     71395     71397     71399     71398     71400
     71402     71401     71403     71405     71404     71406     71408     71407     71409
     71411     71410     71412     71414     71413     71415     71417     71416     71418
     71420     71419     71421     71423     71422     71424     71426     71425     71427
     71429     71428     71430     71432     71431     71433     71435     71434     71436
     71438     71437     71439     71441     71440     71442     71444     71443     71445
     71447     71446     71448     71450     71449     71451     71453     71452     71454
     71456     71455     71457     71459     71458     71460     71462     71461     71463
     71465     71464     71466     71468     71467     71469     71471     71470     71472
     71474     71473     71475     71477     71476     71478     71480     71479     71481
     71483     71482     71484     71486     71485     71487     71489     71488     71490
     71492     71491     71493     71495     71494     71496     71498     71497     71499
     71501     71500     71502     71504     71503     71505     71507     71506     71508
     71510     71509     71511     71513     71512     71514     71516     71515     71517
     71519     71518     71520     71522     71521     71523     71525     71524     71526
     71528     71527     71529     71531     71530     71532     71534     71533     71535
     71537     71536     71538     71540     71539     71541     71543     71542     71544
     71546     71545     71547     71549     71548     71550     71552     71551     71553
     71555     71554     71556     71558     71557     71559     71561     71560     71562
     71564     71563     71565     71567     71566     71568     71570     71569     71571
     71573     71572     71574     71576     71575     71577     71579     71578     71580
     71582     71581     71583     71585     71584     71586     71588     71587     71589
     71591     71590     71592     71594     71593     71595     71597     71596     71598
     71600     71599     71601     71603     71602     71604     71606     71605     71607
     71609     71608     71610     71612     71611     71613     71615     71614     71616
     71618     71617     71619     71621     71620     71622     71624     71623     71625
     71627     71626     71628     71630     71629     71631     71633     71632     71634
     71636     71635     71637     71639     71638     71640     71642     71641     71643
     71645     71644     71646     71648     71647     71649     71651     71650     71652
     71654     71653     71655     71657     71656     71658     71660     71659     71661
     71663     71662     71664     71666     71665     71667     71669     71668     71670
     71672     71671     71673     71675     71674     71676     71678     71677     71679
     71681     71680     71682     71684     71683     71685     71687     71686     71688
     71690     71689     71691     71693     71692     71694     71696     71695     71697
     71699     71698     71700     71702     71701     71703     71705     71704     71706
     71708     71707     71709     71711     71710     71712     71714     71713     71715
     71717     71716     71718     71720     71719     71721     71723     71722     71724
     71726     71725     71727     71729     71728     71730     71732     71731     71733
     71735     71734     71736     71738     71737     71739     71741     71740     71742
     71744     71743     71745     71747     71746     71748     71750     71749     71751
     71753     71752     71754     71756     71755     71757     71759     71758     71760
     71762     71761     71763     71765     71764     71766     71768     71767     71769
     71771     71770     71772     71774     71773     71775     71777     71776     71778
     71780     71779     71781     71783     71782     71784     71786     71785     71787
     71789     71788     71790     71792     71791     71793     71795     71794     71796
     71798     71797     71799     71801     71800     71802     71804     71803     71805
     71807     71806     71808     71810     71809     71811     71813     71812     71814
     71816     71815     71817     71819     71818     71820     71822     71821     71823
     71825     71824     71826     71828     71827     71829     71831     71830     71832
     71834     71833     71835     71837     71836     71838     71840     71839     71841
     71843     71842     71844     71846     71845     71847     71849     71848     71850
     71852     71851     71853     71855     71854     71856     71858     71857     71859
     71861     71860     71862     71864     71863     71865     71867     71866     71868
     71870     71869     71871     71873     71872     71874     71876     71875     71877
     71879     71878     71880     71882     71881     71883     71885     71884     71886
     71888     71887     71889     71891     71890     71892     71894     71893     71895
     71897     71896     71898     71900     71899     71901     71903     71902     71904
     71906     71905     71907     71909     71908     71910     71912     71911     71913
     71915     71914     71916     71918     71917     71919     71921     71920     71922
     71924     71923     71925     71927     71926     71928     71930     71929     71931
     71933     71932     71934     71936     71935     71937     71939     71938     71940
     71942     71941     71943     71945     71944     71946     71948     71947     71949
     71951     71950     71952     71954     71953     71955     71957     71956     71958
     71960     71959     71961     71963     71962     71964     71966     71965     71967
     71969     71968     71970     71972     71971     71973     71975     71974     71976
     71978     71977     71979     71981     71980     71982     71984     71983     71985
     71987     71986     71988     71990     71989     71991     71993     71992     71994
     71996     71995     71997     71999     71998     72000     72002     72001     72003
     72005     72004     72006     72008     72007     72009     72011     72010     72012
     72014     72013     72015     72017     72016     72018     72020     72019     72021
     72023     72022     72024     72026     72025     72027     72029     72028     72030
     72032     72031     72033     72035     72034     72036     72038     72037     72039
     72041     72040     72042     72044     72043     72045     72047     72046     72048
     72050     72049     72051     72053     72052     72054     72056     72055     72057
     72059     72058     72060     72062     72061     72063     72065     72064     72066
     72068     72067     72069     72071     72070     72072     72074     72073     72075
     72077     72076     72078     72080     72079     72081     72083     72082     72084
     72086     72085     72087     72089     72088     72090     72092     72091     72093
     72095     72094     72096     72098     72097     72099     72101     72100     72102
     72104     72103     72105     72107     72106     72108     72110     72109     72111
     72113     72112     72114     72116     72115     72117     72119     72118     72120
     72122     72121     72123     72125     72124     72126     72128     72127     72129
     72131     72130     72132     72134     72133     72135     72137     72136     72138
     72140     72139     72141     72143     72142     72144     72146     72145     72147
     72149     72148     72150     72152     72151     72153     72155     72154     72156
     72158     72157     72159     72161     72160     72162     72164     72163     72165
     72167     72166     72168     72170     72169     72171     72173     72172     72174
     72176     72175     72177     72179     72178     72180     72182     72181     72183
     72185     72184     72186     72188     72187     72189     72191     72190     72192
     72194     72193     72195     72197     72196     72198     72200     72199     72201
     72203     72202     72204     72206     72205     72207     72209     72208     72210
     72212     72211     72213     72215     72214     72216     72218     72217     72219
     72221     72220     72222     72224     72223     72225     72227     72226     72228
     72230     72229     72231     72233     72232     72234     72236     72235     72237
     72239     72238     72240     72242     72241     72243     72245     72244     72246
     72248     72247     72249     72251     72250     72252     72254     72253     72255
     72257     72256     72258     72260     72259     72261     72263     72262     72264
     72266     72265     72267     72269     72268     72270     72272     72271     72273
     72275     72274     72276     72278     72277     72279     72281     72280     72282
     72284     72283     72285     72287     72286     72288     72290     72289     72291
     72293     72292     72294     72296     72295     72297     72299     72298     72300
     72302     72301     72303     72305     72304     72306     72308     72307     72309
     72311     72310     72312     72314     72313     72315     72317     72316     72318
     72320     72319     72321     72323     72322     72324     72326     72325     72327
     72329     72328     72330     72332     72331     72333     72335     72334     72336
     72338     72337     72339     72341     72340     72342     72344     72343     72345
     72347     72346     72348     72350     72349     72351     72353     72352     72354
     72356     72355     72357     72359     72358     72360     72362     72361     72363
     72365     72364     72366     72368     72367     72369     72371     72370     72372
     72374     72373     72375     72377     72376     72378     72380     72379     72381
     72383     72382     72384     72386     72385     72387     72389     72388     72390
     72392     72391     72393     72395     72394     72396     72398     72397     72399
     72401     72400     72402     72404     72403     72405     72407     72406     72408
     72410     72409     72411     72413     72412     72414     72416     72415     72417
     72419     72418     72420     72422     72421     72423     72425     72424     72426
     72428     72427     72429     72431     72430     72432     72434     72433     72435
     72437     72436     72438     72440     72439     72441     72443     72442     72444
     72446     72445     72447     72449     72448     72450     72452     72451     72453
     72455     72454     72456     72458     72457     72459     72461     72460     72462
     72464     72463     72465     72467     72466     72468     72470     72469     72471
     72473     72472     72474     72476     72475     72477     72479     72478     72480
     72482     72481     72483     72485     72484     72486     72488     72487     72489
     72491     72490     72492     72494     72493     72495     72497     72496     72498
     72500     72499     72501     72503     72502     72504     72506     72505     72507
     72509     72508     72510     72512     72511     72513     72515     72514     72516
     72518     72517     72519     72521     72520     72522     72524     72523     72525
     72527     72526     72528     72530     72529     72531     72533     72532     72534
     72536     72535     72537     72539     72538     72540     72542     72541     72543
     72545     72544     72546     72548     72547     72549     72551     72550     72552
     72554     72553     72555     72557     72556     72558     72560     72559     72561
     72563     72562     72564     72566     72565     72567     72569     72568     72570
     72572     72571     72573     72575     72574     72576     72578     72577     72579
     72581     72580     72582     72584     72583     72585     72587     72586     72588
     72590     72589     72591     72593     72592     72594     72596     72595     72597
     72599     72598     72600     72602     72601     72603     72605     72604     72606
     72608     72607     72609     72611     72610     72612     72614     72613     72615
     72617     72616     72618     72620     72619     72621     72623     72622     72624
     72626     72625     72627     72629     72628     72630     72632     72631     72633
     72635     72634     72636     72638     72637     72639     72641     72640     72642
     72644     72643     72645     72647     72646     72648     72650     72649     72651
     72653     72652     72654     72656     72655     72657     72659     72658     72660
     72662     72661     72663     72665     72664     72666     72668     72667     72669
     72671     72670     72672     72674     72673     72675     72677     72676     72678
     72680     72679     72681     72683     72682     72684     72686     72685     72687
     72689     72688     72690     72692     72691     72693     72695     72694     72696
     72698     72697     72699     72701     72700     72702     72704     72703     72705
     72707     72706     72708     72710     72709     72711     72713     72712     72714
     72716     72715     72717     72719     72718     72720     72722     72721     72723
     72725     72724     72726     72728     72727     72729     72731     72730     72732
     72734     72733     72735     72737     72736     72738     72740     72739     72741
     72743     72742     72744     72746     72745     72747     72749     72748     72750
     72752     72751     72753     72755     72754     72756     72758     72757     72759
     72761     72760     72762     72764     72763     72765     72767     72766     72768
     72770     72769     72771     72773     72772     72774     72776     72775     72777
     72779     72778     72780     72782     72781     72783     72785     72784     72786
     72788     72787     72789     72791     72790     72792     72794     72793     72795
     72797     72796     72798     72800     72799     72801     72803     72802     72804
     72806     72805     72807     72809     72808     72810     72812     72811     72813
     72815     72814     72816     72818     72817     72819     72821     72820     72822
     72824     72823     72825     72827     72826     72828     72830     72829     72831
     72833     72832     72834     72836     72835     72837     72839     72838     72840
     72842     72841     72843     72845     72844     72846     72848     72847     72849
     72851     72850     72852     72854     72853     72855     72857     72856     72858
     72860     72859     72861     72863     72862     72864     72866     72865     72867
     72869     72868     72870     72872     72871     72873     72875     72874     72876
     72878     72877     72879     72881     72880     72882     72884     72883     72885
     72887     72886     72888     72890     72889     72891     72893     72892     72894
     72896     72895     72897     72899     72898     72900     72902     72901     72903
     72905     72904     72906     72908     72907     72909     72911     72910     72912
     72914     72913     72915     72917     72916     72918     72920     72919     72921
     72923     72922     72924     72926     72925     72927     72929     72928     72930
     72932     72931     72933     72935     72934     72936     72938     72937     72939
     72941     72940     72942     72944     72943     72945     72947     72946     72948
     72950     72949     72951     72953     72952     72954     72956     72955     72957
     72959     72958     72960     72962     72961     72963     72965     72964     72966
     72968     72967     72969     72971     72970     72972     72974     72973     72975
     72977     72976     72978     72980     72979     72981     72983     72982     72984
     72986     72985     72987     72989     72988     72990     72992     72991     72993
     72995     72994     72996     72998     72997     72999     73001     73000     73002
     73004     73003     73005     73007     73006     73008     73010     73009     73011
     73013     73012     73014     73016     73015     73017     73019     73018     73020
     73022     73021     73023     73025     73024     73026     73028     73027     73029
     73031     73030     73032     73034     73033     73035     73037     73036     73038
     73040     73039     73041     73043     73042     73044     73046     73045     73047
     73049     73048     73050     73052     73051     73053     73055     73054     73056
     73058     73057     73059     73061     73060     73062     73064     73063     73065
     73067     73066     73068     73070     73069     73071     73073     73072     73074
     73076     73075     73077     73079     73078     73080     73082     73081     73083
     73085     73084     73086     73088     73087     73089     73091     73090     73092
     73094     73093     73095     73097     73096     73098     73100     73099     73101
     73103     73102     73104     73106     73105     73107     73109     73108     73110
     73112     73111     73113     73115     73114     73116     73118     73117     73119
     73121     73120     73122     73124     73123     73125     73127     73126     73128
     73130     73129     73131     73133     73132     73134     73136     73135     73137
     73139     73138     73140     73142     73141     73143     73145     73144     73146
     73148     73147     73149     73151     73150     73152     73154     73153     73155
     73157     73156     73158     73160     73159     73161     73163     73162     73164
     73166     73165     73167     73169     73168     73170     73172     73171     73173
     73175     73174     73176     73178     73177     73179     73181     73180     73182
     73184     73183     73185     73187     73186     73188     73190     73189     73191
     73193     73192     73194     73196     73195     73197     73199     73198     73200
     73202     73201     73203     73205     73204     73206     73208     73207     73209
     73211     73210     73212     73214     73213     73215     73217     73216     73218
     73220     73219     73221     73223     73222     73224     73226     73225     73227
     73229     73228     73230     73232     73231     73233     73235     73234     73236
     73238     73237     73239     73241     73240     73242     73244     73243     73245
     73247     73246     73248     73250     73249     73251     73253     73252     73254
     73256     73255     73257     73259     73258     73260     73262     73261     73263
     73265     73264     73266     73268     73267     73269     73271     73270     73272
     73274     73273     73275     73277     73276     73278     73280     73279     73281
     73283     73282     73284     73286     73285     73287     73289     73288     73290
     73292     73291     73293     73295     73294     73296     73298     73297     73299
     73301     73300     73302     73304     73303     73305     73307     73306     73308
     73310     73309     73311     73313     73312     73314     73316     73315     73317
     73319     73318     73320     73322     73321     73323     73325     73324     73326
     73328     73327     73329     73331     73330     73332     73334     73333     73335
     73337     73336     73338     73340     73339     73341     73343     73342     73344
     73346     73345     73347     73349     73348     73350     73352     73351     73353
     73355     73354     73356     73358     73357     73359     73361     73360     73362
     73364     73363     73365     73367     73366     73368     73370     73369     73371
     73373     73372     73374     73376     73375     73377     73379     73378     73380
     73382     73381     73383     73385     73384     73386     73388     73387     73389
     73391     73390     73392     73394     73393     73395     73397     73396     73398
     73400     73399     73401     73403     73402     73404     73406     73405     73407
     73409     73408     73410     73412     73411     73413     73415     73414     73416
     73418     73417     73419     73421     73420     73422     73424     73423     73425
     73427     73426     73428     73430     73429     73431     73433     73432     73434
     73436     73435     73437     73439     73438     73440     73442     73441     73443
     73445     73444     73446     73448     73447     73449     73451     73450     73452
     73454     73453     73455     73457     73456     73458     73460     73459     73461
     73463     73462     73464     73466     73465     73467     73469     73468     73470
     73472     73471     73473     73475     73474     73476     73478     73477     73479
     73481     73480     73482     73484     73483     73485     73487     73486     73488
     73490     73489     73491     73493     73492     73494     73496     73495     73497
     73499     73498     73500     73502     73501     73503     73505     73504     73506
     73508     73507     73509     73511     73510     73512     73514     73513     73515
     73517     73516     73518     73520     73519     73521     73523     73522     73524
     73526     73525     73527     73529     73528     73530     73532     73531     73533
     73535     73534     73536     73538     73537     73539     73541     73540     73542
     73544     73543     73545     73547     73546     73548     73550     73549     73551
     73553     73552     73554     73556     73555     73557     73559     73558     73560
     73562     73561     73563     73565     73564     73566     73568     73567     73569
     73571     73570     73572     73574     73573     73575     73577     73576     73578
     73580     73579     73581     73583     73582     73584     73586     73585     73587
     73589     73588     73590     73592     73591     73593     73595     73594     73596
     73598     73597     73599     73601     73600     73602     73604     73603     73605
     73607     73606     73608     73610     73609     73611     73613     73612     73614
     73616     73615     73617     73619     73618     73620     73622     73621     73623
     73625     73624     73626     73628     73627     73629     73631     73630     73632
     73634     73633     73635     73637     73636     73638     73640     73639     73641
     73643     73642     73644     73646     73645     73647     73649     73648     73650
     73652     73651     73653     73655     73654     73656     73658     73657     73659
     73661     73660     73662     73664     73663     73665     73667     73666     73668
     73670     73669     73671     73673     73672     73674     73676     73675     73677
     73679     73678     73680     73682     73681     73683     73685     73684     73686
     73688     73687     73689     73691     73690     73692     73694     73693     73695
     73697     73696     73698     73700     73699     73701     73703     73702     73704
     73706     73705     73707     73709     73708     73710     73712     73711     73713
     73715     73714     73716     73718     73717     73719     73721     73720     73722
     73724     73723     73725     73727     73726     73728     73730     73729     73731
     73733     73732     73734     73736     73735     73737     73739     73738     73740
     73742     73741     73743     73745     73744     73746     73748     73747     73749
     73751     73750     73752     73754     73753     73755     73757     73756     73758
     73760     73759     73761     73763     73762     73764     73766     73765     73767
     73769     73768     73770     73772     73771     73773     73775     73774     73776
     73778     73777     73779     73781     73780     73782     73784     73783     73785
     73787     73786     73788     73790     73789     73791     73793     73792     73794
     73796     73795     73797     73799     73798     73800     73802     73801     73803
     73805     73804     73806     73808     73807     73809     73811     73810     73812
     73814     73813     73815     73817     73816     73818     73820     73819     73821
     73823     73822     73824     73826     73825     73827     73829     73828     73830
     73832     73831     73833     73835     73834     73836     73838     73837     73839
     73841     73840     73842     73844     73843     73845     73847     73846     73848
     73850     73849     73851     73853     73852     73854     73856     73855     73857
     73859     73858     73860     73862     73861     73863     73865     73864     73866
     73868     73867     73869     73871     73870     73872     73874     73873     73875
     73877     73876     73878     73880     73879     73881     73883     73882     73884
     73886     73885     73887     73889     73888     73890     73892     73891     73893
     73895     73894     73896     73898     73897     73899     73901     73900     73902
     73904     73903     73905     73907     73906     73908     73910     73909     73911
     73913     73912     73914     73916     73915     73917     73919     73918     73920
     73922     73921     73923     73925     73924     73926     73928     73927     73929
     73931     73930     73932     73934     73933     73935     73937     73936     73938
     73940     73939     73941     73943     73942     73944     73946     73945     73947
     73949     73948     73950     73952     73951     73953     73955     73954     73956
     73958     73957     73959     73961     73960     73962     73964     73963     73965
     73967     73966     73968     73970     73969     73971     73973     73972     73974
     73976     73975     73977     73979     73978     73980     73982     73981     73983
     73985     73984     73986     73988     73987     73989     73991     73990     73992
     73994     73993     73995     73997     73996     73998     74000     73999     74001
     74003     74002     74004     74006     74005     74007     74009     74008     74010
     74012     74011     74013     74015     74014     74016     74018     74017     74019
     74021     74020     74022     74024     74023     74025     74027     74026     74028
     74030     74029     74031     74033     74032     74034     74036     74035     74037
     74039     74038     74040     74042     74041     74043     74045     74044     74046
     74048     74047     74049     74051     74050     74052     74054     74053     74055
     74057     74056     74058     74060     74059     74061     74063     74062     74064
     74066     74065     74067     74069     74068     74070     74072     74071     74073
     74075     74074     74076     74078     74077     74079     74081     74080     74082
     74084     74083     74085     74087     74086     74088     74090     74089     74091
     74093     74092     74094     74096     74095     74097     74099     74098     74100
     74102     74101     74103     74105     74104     74106     74108     74107     74109
     74111     74110     74112     74114     74113     74115     74117     74116     74118
     74120     74119     74121     74123     74122     74124     74126     74125     74127
     74129     74128     74130     74132     74131     74133     74135     74134     74136
     74138     74137     74139     74141     74140     74142     74144     74143     74145
     74147     74146     74148     74150     74149     74151     74153     74152     74154
     74156     74155     74157     74159     74158     74160     74162     74161     74163
     74165     74164     74166     74168     74167     74169     74171     74170     74172
     74174     74173     74175     74177     74176     74178     74180     74179     74181
     74183     74182     74184     74186     74185     74187     74189     74188     74190
     74192     74191     74193     74195     74194     74196     74198     74197     74199
     74201     74200     74202     74204     74203     74205     74207     74206     74208
     74210     74209     74211     74213     74212     74214     74216     74215     74217
     74219     74218     74220     74222     74221     74223     74225     74224     74226
     74228     74227     74229     74231     74230     74232     74234     74233     74235
     74237     74236     74238     74240     74239     74241     74243     74242     74244
     74246     74245     74247     74249     74248     74250     74252     74251     74253
     74255     74254     74256     74258     74257     74259     74261     74260     74262
     74264     74263     74265     74267     74266     74268     74270     74269     74271
     74273     74272     74274     74276     74275     74277     74279     74278     74280
     74282     74281     74283     74285     74284     74286     74288     74287     74289
     74291     74290     74292     74294     74293     74295     74297     74296     74298
     74300     74299     74301     74303     74302     74304     74306     74305     74307
     74309     74308     74310     74312     74311     74313     74315     74314     74316
     74318     74317     74319     74321     74320     74322     74324     74323     74325
     74327     74326     74328     74330     74329     74331     74333     74332     74334
     74336     74335     74337     74339     74338     74340     74342     74341     74343
     74345     74344     74346     74348     74347     74349     74351     74350     74352
     74354     74353     74355     74357     74356     74358     74360     74359     74361
     74363     74362     74364     74366     74365     74367     74369     74368     74370
     74372     74371     74373     74375     74374     74376     74378     74377     74379
     74381     74380     74382     74384     74383     74385     74387     74386     74388
     74390     74389     74391     74393     74392     74394     74396     74395     74397
     74399     74398     74400     74402     74401     74403     74405     74404     74406
     74408     74407     74409     74411     74410     74412     74414     74413     74415
     74417     74416     74418     74420     74419     74421     74423     74422     74424
     74426     74425     74427     74429     74428     74430     74432     74431     74433
     74435     74434     74436     74438     74437     74439     74441     74440     74442
     74444     74443     74445     74447     74446     74448     74450     74449     74451
     74453     74452     74454     74456     74455     74457     74459     74458     74460
     74462     74461     74463     74465     74464     74466     74468     74467     74469
     74471     74470     74472     74474     74473     74475     74477     74476     74478
     74480     74479     74481     74483     74482     74484     74486     74485     74487
     74489     74488     74490     74492     74491     74493     74495     74494     74496
     74498     74497     74499     74501     74500     74502     74504     74503     74505
     74507     74506     74508     74510     74509     74511     74513     74512     74514
     74516     74515     74517     74519     74518     74520     74522     74521     74523
     74525     74524     74526     74528     74527     74529     74531     74530     74532
     74534     74533     74535     74537     74536     74538     74540     74539     74541
     74543     74542     74544     74546     74545     74547     74549     74548     74550
     74552     74551     74553     74555     74554     74556     74558     74557     74559
     74561     74560     74562     74564     74563     74565     74567     74566     74568
     74570     74569     74571     74573     74572     74574     74576     74575     74577
     74579     74578     74580     74582     74581     74583     74585     74584     74586
     74588     74587     74589     74591     74590     74592     74594     74593     74595
     74597     74596     74598     74600     74599     74601     74603     74602     74604
     74606     74605     74607     74609     74608     74610     74612     74611     74613
     74615     74614     74616     74618     74617     74619     74621     74620     74622
     74624     74623     74625     74627     74626     74628     74630     74629     74631
     74633     74632     74634     74636     74635     74637     74639     74638     74640
     74642     74641     74643     74645     74644     74646     74648     74647     74649
     74651     74650     74652     74654     74653     74655     74657     74656     74658
     74660     74659     74661     74663     74662     74664     74666     74665     74667
     74669     74668     74670     74672     74671     74673     74675     74674     74676
     74678     74677     74679     74681     74680     74682     74684     74683     74685
     74687     74686     74688     74690     74689     74691     74693     74692     74694
     74696     74695     74697     74699     74698     74700     74702     74701     74703
     74705     74704     74706     74708     74707     74709     74711     74710     74712
     74714     74713     74715     74717     74716     74718     74720     74719     74721
     74723     74722     74724     74726     74725     74727     74729     74728     74730
     74732     74731     74733     74735     74734     74736     74738     74737     74739
     74741     74740     74742     74744     74743     74745     74747     74746     74748
     74750     74749     74751     74753     74752     74754     74756     74755     74757
     74759     74758     74760     74762     74761     74763     74765     74764     74766
     74768     74767     74769     74771     74770     74772     74774     74773     74775
     74777     74776     74778     74780     74779     74781     74783     74782     74784
     74786     74785     74787     74789     74788     74790     74792     74791     74793
     74795     74794     74796     74798     74797     74799     74801     74800     74802
     74804     74803     74805     74807     74806     74808     74810     74809     74811
     74813     74812     74814     74816     74815     74817     74819     74818     74820
     74822     74821     74823     74825     74824     74826     74828     74827     74829
     74831     74830     74832     74834     74833     74835     74837     74836     74838
     74840     74839     74841     74843     74842     74844     74846     74845     74847
     74849     74848     74850     74852     74851     74853     74855     74854     74856
     74858     74857     74859     74861     74860     74862     74864     74863     74865
     74867     74866     74868     74870     74869     74871     74873     74872     74874
     74876     74875     74877     74879     74878     74880     74882     74881     74883
     74885     74884     74886     74888     74887     74889     74891     74890     74892
     74894     74893     74895     74897     74896     74898     74900     74899     74901
     74903     74902     74904     74906     74905     74907     74909     74908     74910
     74912     74911     74913     74915     74914     74916     74918     74917     74919
     74921     74920     74922     74924     74923     74925     74927     74926     74928
     74930     74929     74931     74933     74932     74934     74936     74935     74937
     74939     74938     74940     74942     74941     74943     74945     74944     74946
     74948     74947     74949     74951     74950     74952     74954     74953     74955
     74957     74956     74958     74960     74959     74961     74963     74962     74964
     74966     74965     74967     74969     74968     74970     74972     74971     74973
     74975     74974     74976     74978     74977     74979     74981     74980     74982
     74984     74983     74985     74987     74986     74988     74990     74989     74991
     74993     74992     74994     74996     74995     74997     74999     74998     75000
     75002     75001     75003     75005     75004     75006     75008     75007     75009
     75011     75010     75012     75014     75013     75015     75017     75016     75018
     75020     75019     75021     75023     75022     75024     75026     75025     75027
     75029     75028     75030     75032     75031     75033     75035     75034     75036
     75038     75037     75039     75041     75040     75042     75044     75043     75045
     75047     75046     75048     75050     75049     75051     75053     75052     75054
     75056     75055     75057     75059     75058     75060     75062     75061     75063
     75065     75064     75066     75068     75067     75069     75071     75070     75072
     75074     75073     75075     75077     75076     75078     75080     75079     75081
     75083     75082     75084     75086     75085     75087     75089     75088     75090
     75092     75091     75093     75095     75094     75096     75098     75097     75099
     75101     75100     75102     75104     75103     75105     75107     75106     75108
     75110     75109     75111     75113     75112     75114     75116     75115     75117
     75119     75118     75120     75122     75121     75123     75125     75124     75126
     75128     75127     75129     75131     75130     75132     75134     75133     75135
     75137     75136     75138     75140     75139     75141     75143     75142     75144
     75146     75145     75147     75149     75148     75150     75152     75151     75153
     75155     75154     75156     75158     75157     75159     75161     75160     75162
     75164     75163     75165     75167     75166     75168     75170     75169     75171
     75173     75172     75174     75176     75175     75177     75179     75178     75180
     75182     75181     75183     75185     75184     75186     75188     75187     75189
     75191     75190     75192     75194     75193     75195     75197     75196     75198
     75200     75199     75201     75203     75202     75204     75206     75205     75207
     75209     75208     75210     75212     75211     75213     75215     75214     75216
     75218     75217     75219     75221     75220     75222     75224     75223     75225
     75227     75226     75228     75230     75229     75231     75233     75232     75234
     75236     75235     75237     75239     75238     75240     75242     75241     75243
     75245     75244     75246     75248     75247     75249     75251     75250     75252
     75254     75253     75255     75257     75256     75258     75260     75259     75261
     75263     75262     75264     75266     75265     75267     75269     75268     75270
     75272     75271     75273     75275     75274     75276     75278     75277     75279
     75281     75280     75282     75284     75283     75285     75287     75286     75288
     75290     75289     75291     75293     75292     75294     75296     75295     75297
     75299     75298     75300     75302     75301     75303     75305     75304     75306
     75308     75307     75309     75311     75310     75312     75314     75313     75315
     75317     75316     75318     75320     75319     75321     75323     75322     75324
     75326     75325     75327     75329     75328     75330     75332     75331     75333
     75335     75334     75336     75338     75337     75339     75341     75340     75342
     75344     75343     75345     75347     75346     75348     75350     75349     75351
     75353     75352     75354     75356     75355     75357     75359     75358     75360
     75362     75361     75363     75365     75364     75366     75368     75367     75369
     75371     75370     75372     75374     75373     75375     75377     75376     75378
     75380     75379     75381     75383     75382     75384     75386     75385     75387
     75389     75388     75390     75392     75391     75393     75395     75394     75396
     75398     75397     75399     75401     75400     75402     75404     75403     75405
     75407     75406     75408     75410     75409     75411     75413     75412     75414
     75416     75415     75417     75419     75418     75420     75422     75421     75423
     75425     75424     75426     75428     75427     75429     75431     75430     75432
     75434     75433     75435     75437     75436     75438     75440     75439     75441
     75443     75442     75444     75446     75445     75447     75449     75448     75450
     75452     75451     75453     75455     75454     75456     75458     75457     75459
     75461     75460     75462     75464     75463     75465     75467     75466     75468
     75470     75469     75471     75473     75472     75474     75476     75475     75477
     75479     75478     75480     75482     75481     75483     75485     75484     75486
     75488     75487     75489     75491     75490     75492     75494     75493     75495
     75497     75496     75498     75500     75499     75501     75503     75502     75504
     75506     75505     75507     75509     75508     75510     75512     75511     75513
     75515     75514     75516     75518     75517     75519     75521     75520     75522
     75524     75523     75525     75527     75526     75528     75530     75529     75531
     75533     75532     75534     75536     75535     75537     75539     75538     75540
     75542     75541     75543     75545     75544     75546     75548     75547     75549
     75551     75550     75552     75554     75553     75555     75557     75556     75558
     75560     75559     75561     75563     75562     75564     75566     75565     75567
     75569     75568     75570     75572     75571     75573     75575     75574     75576
     75578     75577     75579     75581     75580     75582     75584     75583     75585
     75587     75586     75588     75590     75589     75591     75593     75592     75594
     75596     75595     75597     75599     75598     75600     75602     75601     75603
     75605     75604     75606     75608     75607     75609     75611     75610     75612
     75614     75613     75615     75617     75616     75618     75620     75619     75621
     75623     75622     75624     75626     75625     75627     75629     75628     75630
     75632     75631     75633     75635     75634     75636     75638     75637     75639
     75641     75640     75642     75644     75643     75645     75647     75646     75648
     75650     75649     75651     75653     75652     75654     75656     75655     75657
     75659     75658     75660     75662     75661     75663     75665     75664     75666
     75668     75667     75669     75671     75670     75672     75674     75673     75675
     75677     75676     75678     75680     75679     75681     75683     75682     75684
     75686     75685     75687     75689     75688     75690     75692     75691     75693
     75695     75694     75696     75698     75697     75699     75701     75700     75702
     75704     75703     75705     75707     75706     75708     75710     75709     75711
     75713     75712     75714     75716     75715     75717     75719     75718     75720
     75722     75721     75723     75725     75724     75726     75728     75727     75729
     75731     75730     75732     75734     75733     75735     75737     75736     75738
     75740     75739     75741     75743     75742     75744     75746     75745     75747
     75749     75748     75750     75752     75751     75753     75755     75754     75756
     75758     75757     75759     75761     75760     75762     75764     75763     75765
     75767     75766     75768     75770     75769     75771     75773     75772     75774
     75776     75775     75777     75779     75778     75780     75782     75781     75783
     75785     75784     75786     75788     75787     75789     75791     75790     75792
     75794     75793     75795     75797     75796     75798     75800     75799     75801
     75803     75802     75804     75806     75805     75807     75809     75808     75810
     75812     75811     75813     75815     75814     75816     75818     75817     75819
     75821     75820     75822     75824     75823     75825     75827     75826     75828
     75830     75829     75831     75833     75832     75834     75836     75835     75837
     75839     75838     75840     75842     75841     75843     75845     75844     75846
     75848     75847     75849     75851     75850     75852     75854     75853     75855
     75857     75856     75858     75860     75859     75861     75863     75862     75864
     75866     75865     75867     75869     75868     75870     75872     75871     75873
     75875     75874     75876     75878     75877     75879     75881     75880     75882
     75884     75883     75885     75887     75886     75888     75890     75889     75891
     75893     75892     75894     75896     75895     75897     75899     75898     75900
     75902     75901     75903     75905     75904     75906     75908     75907     75909
     75911     75910     75912     75914     75913     75915     75917     75916     75918
     75920     75919     75921     75923     75922     75924     75926     75925     75927
     75929     75928     75930     75932     75931     75933     75935     75934     75936
     75938     75937     75939     75941     75940     75942     75944     75943     75945
     75947     75946     75948     75950     75949     75951     75953     75952     75954
     75956     75955     75957     75959     75958     75960     75962     75961     75963
     75965     75964     75966     75968     75967     75969     75971     75970     75972
     75974     75973     75975     75977     75976     75978     75980     75979     75981
     75983     75982     75984     75986     75985     75987     75989     75988     75990
     75992     75991     75993     75995     75994     75996     75998     75997     75999
     76001     76000     76002     76004     76003     76005     76007     76006     76008
     76010     76009     76011     76013     76012     76014     76016     76015     76017
     76019     76018     76020     76022     76021     76023     76025     76024     76026
     76028     76027     76029     76031     76030     76032     76034     76033     76035
     76037     76036     76038     76040     76039     76041     76043     76042     76044
     76046     76045     76047     76049     76048     76050     76052     76051     76053
     76055     76054     76056     76058     76057     76059     76061     76060     76062
     76064     76063     76065     76067     76066     76068     76070     76069     76071
     76073     76072     76074     76076     76075     76077     76079     76078     76080
     76082     76081     76083     76085     76084     76086     76088     76087     76089
     76091     76090     76092     76094     76093     76095     76097     76096     76098
     76100     76099     76101     76103     76102     76104     76106     76105     76107
     76109     76108     76110     76112     76111     76113     76115     76114     76116
     76118     76117     76119     76121     76120     76122     76124     76123     76125
     76127     76126     76128     76130     76129     76131     76133     76132     76134
     76136     76135     76137     76139     76138     76140     76142     76141     76143
     76145     76144     76146     76148     76147     76149     76151     76150     76152
     76154     76153     76155     76157     76156     76158     76160     76159     76161
     76163     76162     76164     76166     76165     76167     76169     76168     76170
     76172     76171     76173     76175     76174     76176     76178     76177     76179
     76181     76180     76182     76184     76183     76185     76187     76186     76188
     76190     76189     76191     76193     76192     76194     76196     76195     76197
     76199     76198     76200     76202     76201     76203     76205     76204     76206
     76208     76207     76209     76211     76210     76212     76214     76213     76215
     76217     76216     76218     76220     76219     76221     76223     76222     76224
     76226     76225     76227     76229     76228     76230     76232     76231     76233
     76235     76234     76236     76238     76237     76239     76241     76240     76242
     76244     76243     76245     76247     76246     76248     76250     76249     76251
     76253     76252     76254     76256     76255     76257     76259     76258     76260
     76262     76261     76263     76265     76264     76266     76268     76267     76269
     76271     76270     76272     76274     76273     76275     76277     76276     76278
     76280     76279     76281     76283     76282     76284     76286     76285     76287
     76289     76288     76290     76292     76291     76293     76295     76294     76296
     76298     76297     76299     76301     76300     76302     76304     76303     76305
     76307     76306     76308     76310     76309     76311     76313     76312     76314
     76316     76315     76317     76319     76318     76320     76322     76321     76323
     76325     76324     76326     76328     76327     76329     76331     76330     76332
     76334     76333     76335     76337     76336     76338     76340     76339     76341
     76343     76342     76344     76346     76345     76347     76349     76348     76350
     76352     76351     76353     76355     76354     76356     76358     76357     76359
     76361     76360     76362     76364     76363     76365     76367     76366     76368
     76370     76369     76371     76373     76372     76374     76376     76375     76377
     76379     76378     76380     76382     76381     76383     76385     76384     76386
     76388     76387     76389     76391     76390     76392     76394     76393     76395
     76397     76396     76398     76400     76399     76401     76403     76402     76404
     76406     76405     76407     76409     76408     76410     76412     76411     76413
     76415     76414     76416     76418     76417     76419     76421     76420     76422
     76424     76423     76425     76427     76426     76428     76430     76429     76431
     76433     76432     76434     76436     76435     76437     76439     76438     76440
     76442     76441     76443     76445     76444     76446     76448     76447     76449
     76451     76450     76452     76454     76453     76455     76457     76456     76458
     76460     76459     76461     76463     76462     76464     76466     76465     76467
     76469     76468     76470     76472     76471     76473     76475     76474     76476
     76478     76477     76479     76481     76480     76482     76484     76483     76485
     76487     76486     76488     76490     76489     76491     76493     76492     76494
     76496     76495     76497     76499     76498     76500     76502     76501     76503
     76505     76504     76506     76508     76507     76509     76511     76510     76512
     76514     76513     76515     76517     76516     76518     76520     76519     76521
     76523     76522     76524     76526     76525     76527     76529     76528     76530
     76532     76531     76533     76535     76534     76536     76538     76537     76539
     76541     76540     76542     76544     76543     76545     76547     76546     76548
     76550     76549     76551     76553     76552     76554     76556     76555     76557
     76559     76558     76560     76562     76561     76563     76565     76564     76566
     76568     76567     76569     76571     76570     76572     76574     76573     76575
     76577     76576     76578     76580     76579     76581     76583     76582     76584
     76586     76585     76587     76589     76588     76590     76592     76591     76593
     76595     76594     76596     76598     76597     76599     76601     76600     76602
     76604     76603     76605     76607     76606     76608     76610     76609     76611
     76613     76612     76614     76616     76615     76617     76619     76618     76620
     76622     76621     76623     76625     76624     76626     76628     76627     76629
     76631     76630     76632     76634     76633     76635     76637     76636     76638
     76640     76639     76641     76643     76642     76644     76646     76645     76647
     76649     76648     76650     76652     76651     76653     76655     76654     76656
     76658     76657     76659     76661     76660     76662     76664     76663     76665
     76667     76666     76668     76670     76669     76671     76673     76672     76674
     76676     76675     76677     76679     76678     76680     76682     76681     76683
     76685     76684     76686     76688     76687     76689     76691     76690     76692
     76694     76693     76695     76697     76696     76698     76700     76699     76701
     76703     76702     76704     76706     76705     76707     76709     76708     76710
     76712     76711     76713     76715     76714     76716     76718     76717     76719
     76721     76720     76722     76724     76723     76725     76727     76726     76728
     76730     76729     76731     76733     76732     76734     76736     76735     76737
     76739     76738     76740     76742     76741     76743     76745     76744     76746
     76748     76747     76749     76751     76750     76752     76754     76753     76755
     76757     76756     76758     76760     76759     76761     76763     76762     76764
     76766     76765     76767     76769     76768     76770     76772     76771     76773
     76775     76774     76776     76778     76777     76779     76781     76780     76782
     76784     76783     76785     76787     76786     76788     76790     76789     76791
     76793     76792     76794     76796     76795     76797     76799     76798     76800
     76802     76801     76803     76805     76804     76806     76808     76807     76809
     76811     76810     76812     76814     76813     76815     76817     76816     76818
     76820     76819     76821     76823     76822     76824     76826     76825     76827
     76829     76828     76830     76832     76831     76833     76835     76834     76836
     76838     76837     76839     76841     76840     76842     76844     76843     76845
     76847     76846     76848     76850     76849     76851     76853     76852     76854
     76856     76855     76857     76859     76858     76860     76862     76861     76863
     76865     76864     76866     76868     76867     76869     76871     76870     76872
     76874     76873     76875     76877     76876     76878     76880     76879     76881
     76883     76882     76884     76886     76885     76887     76889     76888     76890
     76892     76891     76893     76895     76894     76896     76898     76897     76899
     76901     76900     76902     76904     76903     76905     76907     76906     76908
     76910     76909     76911     76913     76912     76914     76916     76915     76917
     76919     76918     76920     76922     76921     76923     76925     76924     76926
     76928     76927     76929     76931     76930     76932     76934     76933     76935
     76937     76936     76938     76940     76939     76941     76943     76942     76944
     76946     76945     76947     76949     76948     76950     76952     76951     76953
     76955     76954     76956     76958     76957     76959     76961     76960     76962
     76964     76963     76965     76967     76966     76968     76970     76969     76971
     76973     76972     76974     76976     76975     76977     76979     76978     76980
     76982     76981     76983     76985     76984     76986     76988     76987     76989
     76991     76990     76992     76994     76993     76995     76997     76996     76998
     77000     76999     77001     77003     77002     77004     77006     77005     77007
     77009     77008     77010     77012     77011     77013     77015     77014     77016
     77018     77017     77019     77021     77020     77022     77024     77023     77025
     77027     77026     77028     77030     77029     77031     77033     77032     77034
     77036     77035     77037     77039     77038     77040     77042     77041     77043
     77045     77044     77046     77048     77047     77049     77051     77050     77052
     77054     77053     77055     77057     77056     77058     77060     77059     77061
     77063     77062     77064     77066     77065     77067     77069     77068     77070
     77072     77071     77073     77075     77074     77076     77078     77077     77079
     77081     77080     77082     77084     77083     77085     77087     77086     77088
     77090     77089     77091     77093     77092     77094     77096     77095     77097
     77099     77098     77100     77102     77101     77103     77105     77104     77106
     77108     77107     77109     77111     77110     77112     77114     77113     77115
     77117     77116     77118     77120     77119     77121     77123     77122     77124
     77126     77125     77127     77129     77128     77130     77132     77131     77133
     77135     77134     77136     77138     77137     77139     77141     77140     77142
     77144     77143     77145     77147     77146     77148     77150     77149     77151
     77153     77152     77154     77156     77155     77157     77159     77158     77160
     77162     77161     77163     77165     77164     77166     77168     77167     77169
     77171     77170     77172     77174     77173     77175     77177     77176     77178
     77180     77179     77181     77183     77182     77184     77186     77185     77187
     77189     77188     77190     77192     77191     77193     77195     77194     77196
     77198     77197     77199     77201     77200     77202     77204     77203     77205
     77207     77206     77208     77210     77209     77211     77213     77212     77214
     77216     77215     77217     77219     77218     77220     77222     77221     77223
     77225     77224     77226     77228     77227     77229     77231     77230     77232
     77234     77233     77235     77237     77236     77238     77240     77239     77241
     77243     77242     77244     77246     77245     77247     77249     77248     77250
     77252     77251     77253     77255     77254     77256     77258     77257     77259
     77261     77260     77262     77264     77263     77265     77267     77266     77268
     77270     77269     77271     77273     77272     77274     77276     77275     77277
     77279     77278     77280     77282     77281     77283     77285     77284     77286
     77288     77287     77289     77291     77290     77292     77294     77293     77295
     77297     77296     77298     77300     77299     77301     77303     77302     77304
     77306     77305     77307     77309     77308     77310     77312     77311     77313
     77315     77314     77316     77318     77317     77319     77321     77320     77322
     77324     77323     77325     77327     77326     77328     77330     77329     77331
     77333     77332     77334     77336     77335     77337     77339     77338     77340
     77342     77341     77343     77345     77344     77346     77348     77347     77349
     77351     77350     77352     77354     77353     77355     77357     77356     77358
     77360     77359     77361     77363     77362     77364     77366     77365     77367
     77369     77368     77370     77372     77371     77373     77375     77374     77376
     77378     77377     77379     77381     77380     77382     77384     77383     77385
     77387     77386     77388     77390     77389     77391     77393     77392     77394
     77396     77395     77397     77399     77398     77400     77402     77401     77403
     77405     77404     77406     77408     77407     77409     77411     77410     77412
     77414     77413     77415     77417     77416     77418     77420     77419     77421
     77423     77422     77424     77426     77425     77427     77429     77428     77430
     77432     77431     77433     77435     77434     77436     77438     77437     77439
     77441     77440     77442     77444     77443     77445     77447     77446     77448
     77450     77449     77451     77453     77452     77454     77456     77455     77457
     77459     77458     77460     77462     77461     77463     77465     77464     77466
     77468     77467     77469     77471     77470     77472     77474     77473     77475
     77477     77476     77478     77480     77479     77481     77483     77482     77484
     77486     77485     77487     77489     77488     77490     77492     77491     77493
     77495     77494     77496     77498     77497     77499     77501     77500     77502
     77504     77503     77505     77507     77506     77508     77510     77509     77511
     77513     77512     77514     77516     77515     77517     77519     77518     77520
     77522     77521     77523     77525     77524     77526     77528     77527     77529
     77531     77530     77532     77534     77533     77535     77537     77536     77538
     77540     77539     77541     77543     77542     77544     77546     77545     77547
     77549     77548     77550     77552     77551     77553     77555     77554     77556
     77558     77557     77559     77561     77560     77562     77564     77563     77565
     77567     77566     77568     77570     77569     77571     77573     77572     77574
     77576     77575     77577     77579     77578     77580     77582     77581     77583
     77585     77584     77586     77588     77587     77589     77591     77590     77592
     77594     77593     77595     77597     77596     77598     77600     77599     77601
     77603     77602     77604     77606     77605     77607     77609     77608     77610
     77612     77611     77613     77615     77614     77616     77618     77617     77619
     77621     77620     77622     77624     77623     77625     77627     77626     77628
     77630     77629     77631     77633     77632     77634     77636     77635     77637
     77639     77638     77640     77642     77641     77643     77645     77644     77646
     77648     77647     77649     77651     77650     77652     77654     77653     77655
     77657     77656     77658     77660     77659     77661     77663     77662     77664
     77666     77665     77667     77669     77668     77670     77672     77671     77673
     77675     77674     77676     77678     77677     77679     77681     77680     77682
     77684     77683     77685     77687     77686     77688     77690     77689     77691
     77693     77692     77694     77696     77695     77697     77699     77698     77700
     77702     77701     77703     77705     77704     77706     77708     77707     77709
     77711     77710     77712     77714     77713     77715     77717     77716     77718
     77720     77719     77721     77723     77722     77724     77726     77725     77727
     77729     77728     77730     77732     77731     77733     77735     77734     77736
     77738     77737     77739     77741     77740     77742     77744     77743     77745
     77747     77746     77748     77750     77749     77751     77753     77752     77754
     77756     77755     77757     77759     77758     77760     77762     77761     77763
     77765     77764     77766     77768     77767     77769     77771     77770     77772
     77774     77773     77775     77777     77776     77778     77780     77779     77781
     77783     77782     77784     77786     77785     77787     77789     77788     77790
     77792     77791     77793     77795     77794     77796     77798     77797     77799
     77801     77800     77802     77804     77803     77805     77807     77806     77808
     77810     77809     77811     77813     77812     77814     77816     77815     77817
     77819     77818     77820     77822     77821     77823     77825     77824     77826
     77828     77827     77829     77831     77830     77832     77834     77833     77835
     77837     77836     77838     77840     77839     77841     77843     77842     77844
     77846     77845     77847     77849     77848     77850     77852     77851     77853
     77855     77854     77856     77858     77857     77859     77861     77860     77862
     77864     77863     77865     77867     77866     77868     77870     77869     77871
     77873     77872     77874     77876     77875     77877     77879     77878     77880
     77882     77881     77883     77885     77884     77886     77888     77887     77889
     77891     77890     77892     77894     77893     77895     77897     77896     77898
     77900     77899     77901     77903     77902     77904     77906     77905     77907
     77909     77908     77910     77912     77911     77913     77915     77914     77916
     77918     77917     77919     77921     77920     77922     77924     77923     77925
     77927     77926     77928     77930     77929     77931     77933     77932     77934
     77936     77935     77937     77939     77938     77940     77942     77941     77943
     77945     77944     77946     77948     77947     77949     77951     77950     77952
     77954     77953     77955     77957     77956     77958     77960     77959     77961
     77963     77962     77964     77966     77965     77967     77969     77968     77970
     77972     77971     77973     77975     77974     77976     77978     77977     77979
     77981     77980     77982     77984     77983     77985     77987     77986     77988
     77990     77989     77991     77993     77992     77994     77996     77995     77997
     77999     77998     78000     78002     78001     78003     78005     78004     78006
     78008     78007     78009     78011     78010     78012     78014     78013     78015
     78017     78016     78018     78020     78019     78021     78023     78022     78024
     78026     78025     78027     78029     78028     78030     78032     78031     78033
     78035     78034     78036     78038     78037     78039     78041     78040     78042
     78044     78043     78045     78047     78046     78048     78050     78049     78051
     78053     78052     78054     78056     78055     78057     78059     78058     78060
     78062     78061     78063     78065     78064     78066     78068     78067     78069
     78071     78070     78072     78074     78073     78075     78077     78076     78078
     78080     78079     78081     78083     78082     78084     78086     78085     78087
     78089     78088     78090     78092     78091     78093     78095     78094     78096
     78098     78097     78099     78101     78100     78102     78104     78103     78105
     78107     78106     78108     78110     78109     78111     78113     78112     78114
     78116     78115     78117     78119     78118     78120     78122     78121     78123
     78125     78124     78126     78128     78127     78129     78131     78130     78132
     78134     78133     78135     78137     78136     78138     78140     78139     78141
     78143     78142     78144     78146     78145     78147     78149     78148     78150
     78152     78151     78153     78155     78154     78156     78158     78157     78159
     78161     78160     78162     78164     78163     78165     78167     78166     78168
     78170     78169     78171     78173     78172     78174     78176     78175     78177
     78179     78178     78180     78182     78181     78183     78185     78184     78186
     78188     78187     78189     78191     78190     78192     78194     78193     78195
     78197     78196     78198     78200     78199     78201     78203     78202     78204
     78206     78205     78207     78209     78208     78210     78212     78211     78213
     78215     78214     78216     78218     78217     78219     78221     78220     78222
     78224     78223     78225     78227     78226     78228     78230     78229     78231
     78233     78232     78234     78236     78235     78237     78239     78238     78240
     78242     78241     78243     78245     78244     78246     78248     78247     78249
     78251     78250     78252     78254     78253     78255     78257     78256     78258
     78260     78259     78261     78263     78262     78264     78266     78265     78267
     78269     78268     78270     78272     78271     78273     78275     78274     78276
     78278     78277     78279     78281     78280     78282     78284     78283     78285
     78287     78286     78288     78290     78289     78291     78293     78292     78294
     78296     78295     78297     78299     78298     78300     78302     78301     78303
     78305     78304     78306     78308     78307     78309     78311     78310     78312
     78314     78313     78315     78317     78316     78318     78320     78319     78321
     78323     78322     78324     78326     78325     78327     78329     78328     78330
     78332     78331     78333     78335     78334     78336     78338     78337     78339
     78341     78340     78342     78344     78343     78345     78347     78346     78348
     78350     78349     78351     78353     78352     78354     78356     78355     78357
     78359     78358     78360     78362     78361     78363     78365     78364     78366
     78368     78367     78369     78371     78370     78372     78374     78373     78375
     78377     78376     78378     78380     78379     78381     78383     78382     78384
     78386     78385     78387     78389     78388     78390     78392     78391     78393
     78395     78394     78396     78398     78397     78399     78401     78400     78402
     78404     78403     78405     78407     78406     78408     78410     78409     78411
     78413     78412     78414     78416     78415     78417     78419     78418     78420
     78422     78421     78423     78425     78424     78426     78428     78427     78429
     78431     78430     78432     78434     78433     78435     78437     78436     78438
     78440     78439     78441     78443     78442     78444     78446     78445     78447
     78449     78448     78450     78452     78451     78453     78455     78454     78456
     78458     78457     78459     78461     78460     78462     78464     78463     78465
     78467     78466     78468     78470     78469     78471     78473     78472     78474
     78476     78475     78477     78479     78478     78480     78482     78481     78483
     78485     78484     78486     78488     78487     78489     78491     78490     78492
     78494     78493     78495     78497     78496     78498     78500     78499     78501
     78503     78502     78504     78506     78505     78507     78509     78508     78510
     78512     78511     78513     78515     78514     78516     78518     78517     78519
     78521     78520     78522     78524     78523     78525     78527     78526     78528
     78530     78529     78531     78533     78532     78534     78536     78535     78537
     78539     78538     78540     78542     78541     78543     78545     78544     78546
     78548     78547     78549     78551     78550     78552     78554     78553     78555
     78557     78556     78558     78560     78559     78561     78563     78562     78564
     78566     78565     78567     78569     78568     78570     78572     78571     78573
     78575     78574     78576     78578     78577     78579     78581     78580     78582
     78584     78583     78585     78587     78586     78588     78590     78589     78591
     78593     78592     78594     78596     78595     78597     78599     78598     78600
     78602     78601     78603     78605     78604     78606     78608     78607     78609
     78611     78610     78612     78614     78613     78615     78617     78616     78618
     78620     78619     78621     78623     78622     78624     78626     78625     78627
     78629     78628     78630     78632     78631     78633     78635     78634     78636
     78638     78637     78639     78641     78640     78642     78644     78643     78645
     78647     78646     78648     78650     78649     78651     78653     78652     78654
     78656     78655     78657     78659     78658     78660     78662     78661     78663
     78665     78664     78666     78668     78667     78669     78671     78670     78672
     78674     78673     78675     78677     78676     78678     78680     78679     78681
     78683     78682     78684     78686     78685     78687     78689     78688     78690
     78692     78691     78693     78695     78694     78696     78698     78697     78699
     78701     78700     78702     78704     78703     78705     78707     78706     78708
     78710     78709     78711     78713     78712     78714     78716     78715     78717
     78719     78718     78720     78722     78721     78723     78725     78724     78726
     78728     78727     78729     78731     78730     78732     78734     78733     78735
     78737     78736     78738     78740     78739     78741     78743     78742     78744
     78746     78745     78747     78749     78748     78750     78752     78751     78753
     78755     78754     78756     78758     78757     78759     78761     78760     78762
     78764     78763     78765     78767     78766     78768     78770     78769     78771
     78773     78772     78774     78776     78775     78777     78779     78778     78780
     78782     78781     78783     78785     78784     78786     78788     78787     78789
     78791     78790     78792     78794     78793     78795     78797     78796     78798
     78800     78799     78801     78803     78802     78804     78806     78805     78807
     78809     78808     78810     78812     78811     78813     78815     78814     78816
     78818     78817     78819     78821     78820     78822     78824     78823     78825
     78827     78826     78828     78830     78829     78831     78833     78832     78834
     78836     78835     78837     78839     78838     78840     78842     78841     78843
     78845     78844     78846     78848     78847     78849     78851     78850     78852
     78854     78853     78855     78857     78856     78858     78860     78859     78861
     78863     78862     78864     78866     78865     78867     78869     78868     78870
     78872     78871     78873     78875     78874     78876     78878     78877     78879
     78881     78880     78882     78884     78883     78885     78887     78886     78888
     78890     78889     78891     78893     78892     78894     78896     78895     78897
     78899     78898     78900     78902     78901     78903     78905     78904     78906
     78908     78907     78909     78911     78910     78912     78914     78913     78915
     78917     78916     78918     78920     78919     78921     78923     78922     78924
     78926     78925     78927     78929     78928     78930     78932     78931     78933
     78935     78934     78936     78938     78937     78939     78941     78940     78942
     78944     78943     78945     78947     78946     78948     78950     78949     78951
     78953     78952     78954     78956     78955     78957     78959     78958     78960
     78962     78961     78963     78965     78964     78966     78968     78967     78969
     78971     78970     78972     78974     78973     78975     78977     78976     78978
     78980     78979     78981     78983     78982     78984     78986     78985     78987
     78989     78988     78990     78992     78991     78993     78995     78994     78996
     78998     78997     78999     79001     79000     79002     79004     79003     79005
     79007     79006     79008     79010     79009     79011     79013     79012     79014
     79016     79015     79017     79019     79018     79020     79022     79021     79023
     79025     79024     79026     79028     79027     79029     79031     79030     79032
     79034     79033     79035     79037     79036     79038     79040     79039     79041
     79043     79042     79044     79046     79045     79047     79049     79048     79050
     79052     79051     79053     79055     79054     79056     79058     79057     79059
     79061     79060     79062     79064     79063     79065     79067     79066     79068
     79070     79069     79071     79073     79072     79074     79076     79075     79077
     79079     79078     79080     79082     79081     79083     79085     79084     79086
     79088     79087     79089     79091     79090     79092     79094     79093     79095
     79097     79096     79098     79100     79099     79101     79103     79102     79104
     79106     79105     79107     79109     79108     79110     79112     79111     79113
     79115     79114     79116     79118     79117     79119     79121     79120     79122
     79124     79123     79125     79127     79126     79128     79130     79129     79131
     79133     79132     79134     79136     79135     79137     79139     79138     79140
     79142     79141     79143     79145     79144     79146     79148     79147     79149
     79151     79150     79152     79154     79153     79155     79157     79156     79158
     79160     79159     79161     79163     79162     79164     79166     79165     79167
     79169     79168     79170     79172     79171     79173     79175     79174     79176
     79178     79177     79179     79181     79180     79182     79184     79183     79185
     79187     79186     79188     79190     79189     79191     79193     79192     79194
     79196     79195     79197     79199     79198     79200     79202     79201     79203
     79205     79204     79206     79208     79207     79209     79211     79210     79212
     79214     79213     79215     79217     79216     79218     79220     79219     79221
     79223     79222     79224     79226     79225     79227     79229     79228     79230
     79232     79231     79233     79235     79234     79236     79238     79237     79239
     79241     79240     79242     79244     79243     79245     79247     79246     79248
     79250     79249     79251     79253     79252     79254     79256     79255     79257
     79259     79258     79260     79262     79261     79263     79265     79264     79266
     79268     79267     79269     79271     79270     79272     79274     79273     79275
     79277     79276     79278     79280     79279     79281     79283     79282     79284
     79286     79285     79287     79289     79288     79290     79292     79291     79293
     79295     79294     79296     79298     79297     79299     79301     79300     79302
     79304     79303     79305     79307     79306     79308     79310     79309     79311
     79313     79312     79314     79316     79315     79317     79319     79318     79320
     79322     79321     79323     79325     79324     79326     79328     79327     79329
     79331     79330     79332     79334     79333     79335     79337     79336     79338
     79340     79339     79341     79343     79342     79344     79346     79345     79347
     79349     79348     79350     79352     79351     79353     79355     79354     79356
     79358     79357     79359     79361     79360     79362     79364     79363     79365
     79367     79366     79368     79370     79369     79371     79373     79372     79374
     79376     79375     79377     79379     79378     79380     79382     79381     79383
     79385     79384     79386     79388     79387     79389     79391     79390     79392
     79394     79393     79395     79397     79396     79398     79400     79399     79401
     79403     79402     79404     79406     79405     79407     79409     79408     79410
     79412     79411     79413     79415     79414     79416     79418     79417     79419
     79421     79420     79422     79424     79423     79425     79427     79426     79428
     79430     79429     79431     79433     79432     79434     79436     79435     79437
     79439     79438     79440     79442     79441     79443     79445     79444     79446
     79448     79447     79449     79451     79450     79452     79454     79453     79455
     79457     79456     79458     79460     79459     79461     79463     79462     79464
     79466     79465     79467     79469     79468     79470     79472     79471     79473
     79475     79474     79476     79478     79477     79479     79481     79480     79482
     79484     79483     79485     79487     79486     79488     79490     79489     79491
     79493     79492     79494     79496     79495     79497     79499     79498     79500
     79502     79501     79503     79505     79504     79506     79508     79507     79509
     79511     79510     79512     79514     79513     79515     79517     79516     79518
     79520     79519     79521     79523     79522     79524     79526     79525     79527
     79529     79528     79530     79532     79531     79533     79535     79534     79536
     79538     79537     79539     79541     79540     79542     79544     79543     79545
     79547     79546     79548     79550     79549     79551     79553     79552     79554
     79556     79555     79557     79559     79558     79560     79562     79561     79563
     79565     79564     79566     79568     79567     79569     79571     79570     79572
     79574     79573     79575     79577     79576     79578     79580     79579     79581
     79583     79582     79584     79586     79585     79587     79589     79588     79590
     79592     79591     79593     79595     79594     79596     79598     79597     79599
     79601     79600     79602     79604     79603     79605     79607     79606     79608
     79610     79609     79611     79613     79612     79614     79616     79615     79617
     79619     79618     79620     79622     79621     79623     79625     79624     79626
     79628     79627     79629     79631     79630     79632     79634     79633     79635
     79637     79636     79638     79640     79639     79641     79643     79642     79644
     79646     79645     79647     79649     79648     79650     79652     79651     79653
     79655     79654     79656     79658     79657     79659     79661     79660     79662
     79664     79663     79665     79667     79666     79668     79670     79669     79671
     79673     79672     79674     79676     79675     79677     79679     79678     79680
     79682     79681     79683     79685     79684     79686     79688     79687     79689
     79691     79690     79692     79694     79693     79695     79697     79696     79698
     79700     79699     79701     79703     79702     79704     79706     79705     79707
     79709     79708     79710     79712     79711     79713     79715     79714     79716
     79718     79717     79719     79721     79720     79722     79724     79723     79725
     79727     79726     79728     79730     79729     79731     79733     79732     79734
     79736     79735     79737     79739     79738     79740     79742     79741     79743
     79745     79744     79746     79748     79747     79749     79751     79750     79752
     79754     79753     79755     79757     79756     79758     79760     79759     79761
     79763     79762     79764     79766     79765     79767     79769     79768     79770
     79772     79771     79773     79775     79774     79776     79778     79777     79779
     79781     79780     79782     79784     79783     79785     79787     79786     79788
     79790     79789     79791     79793     79792     79794     79796     79795     79797
     79799     79798     79800     79802     79801     79803     79805     79804     79806
     79808     79807     79809     79811     79810     79812     79814     79813     79815
     79817     79816     79818     79820     79819     79821     79823     79822     79824
     79826     79825     79827     79829     79828     79830     79832     79831     79833
     79835     79834     79836     79838     79837     79839     79841     79840     79842
     79844     79843     79845     79847     79846     79848     79850     79849     79851
     79853     79852     79854     79856     79855     79857     79859     79858     79860
     79862     79861     79863     79865     79864     79866     79868     79867     79869
     79871     79870     79872     79874     79873     79875     79877     79876     79878
     79880     79879     79881     79883     79882     79884     79886     79885     79887
     79889     79888     79890     79892     79891     79893     79895     79894     79896
     79898     79897     79899     79901     79900     79902     79904     79903     79905
     79907     79906     79908     79910     79909     79911     79913     79912     79914
     79916     79915     79917     79919     79918     79920     79922     79921     79923
     79925     79924     79926     79928     79927     79929     79931     79930     79932
     79934     79933     79935     79937     79936     79938     79940     79939     79941
     79943     79942     79944     79946     79945     79947     79949     79948     79950
     79952     79951     79953     79955     79954     79956     79958     79957     79959
     79961     79960     79962     79964     79963     79965     79967     79966     79968
     79970     79969     79971     79973     79972     79974     79976     79975     79977
     79979     79978     79980     79982     79981     79983     79985     79984     79986
     79988     79987     79989     79991     79990     79992     79994     79993     79995
     79997     79996     79998     80000     79999     80001     80003     80002     80004
     80006     80005     80007     80009     80008     80010     80012     80011     80013
     80015     80014     80016     80018     80017     80019     80021     80020     80022
     80024     80023     80025     80027     80026     80028     80030     80029     80031
     80033     80032     80034     80036     80035     80037     80039     80038     80040
     80042     80041     80043     80045     80044     80046     80048     80047     80049
     80051     80050     80052     80054     80053     80055     80057     80056     80058
     80060     80059     80061     80063     80062     80064     80066     80065     80067
     80069     80068     80070     80072     80071     80073     80075     80074     80076
     80078     80077     80079     80081     80080     80082     80084     80083     80085
     80087     80086     80088     80090     80089     80091     80093     80092     80094
     80096     80095     80097     80099     80098     80100     80102     80101     80103
     80105     80104     80106     80108     80107     80109     80111     80110     80112
     80114     80113     80115     80117     80116     80118     80120     80119     80121
     80123     80122     80124     80126     80125     80127     80129     80128     80130
     80132     80131     80133     80135     80134     80136     80138     80137     80139
     80141     80140     80142     80144     80143     80145     80147     80146     80148
     80150     80149     80151     80153     80152     80154     80156     80155     80157
     80159     80158     80160     80162     80161     80163     80165     80164     80166
     80168     80167     80169     80171     80170     80172     80174     80173     80175
     80177     80176     80178     80180     80179     80181     80183     80182     80184
     80186     80185     80187     80189     80188     80190     80192     80191     80193
     80195     80194     80196     80198     80197     80199     80201     80200     80202
     80204     80203     80205     80207     80206     80208     80210     80209     80211
     80213     80212     80214     80216     80215     80217     80219     80218     80220
     80222     80221     80223     80225     80224     80226     80228     80227     80229
     80231     80230     80232     80234     80233     80235     80237     80236     80238
     80240     80239     80241     80243     80242     80244     80246     80245     80247
     80249     80248     80250     80252     80251     80253     80255     80254     80256
     80258     80257     80259     80261     80260     80262     80264     80263     80265
     80267     80266     80268     80270     80269     80271     80273     80272     80274
     80276     80275     80277     80279     80278     80280     80282     80281     80283
     80285     80284     80286     80288     80287     80289     80291     80290     80292
     80294     80293     80295     80297     80296     80298     80300     80299     80301
     80303     80302     80304     80306     80305     80307     80309     80308     80310
     80312     80311     80313     80315     80314     80316     80318     80317     80319
     80321     80320     80322     80324     80323     80325     80327     80326     80328
     80330     80329     80331     80333     80332     80334     80336     80335     80337
     80339     80338     80340     80342     80341     80343     80345     80344     80346
     80348     80347     80349     80351     80350     80352     80354     80353     80355
     80357     80356     80358     80360     80359     80361     80363     80362     80364
     80366     80365     80367     80369     80368     80370     80372     80371     80373
     80375     80374     80376     80378     80377     80379     80381     80380     80382
     80384     80383     80385     80387     80386     80388     80390     80389     80391
     80393     80392     80394     80396     80395     80397     80399     80398     80400
     80402     80401     80403     80405     80404     80406     80408     80407     80409
     80411     80410     80412     80414     80413     80415     80417     80416     80418
     80420     80419     80421     80423     80422     80424     80426     80425     80427
     80429     80428     80430     80432     80431     80433     80435     80434     80436
     80438     80437     80439     80441     80440     80442     80444     80443     80445
     80447     80446     80448     80450     80449     80451     80453     80452     80454
     80456     80455     80457     80459     80458     80460     80462     80461     80463
     80465     80464     80466     80468     80467     80469     80471     80470     80472
     80474     80473     80475     80477     80476     80478     80480     80479     80481
     80483     80482     80484     80486     80485     80487     80489     80488     80490
     80492     80491     80493     80495     80494     80496     80498     80497     80499
     80501     80500     80502     80504     80503     80505     80507     80506     80508
     80510     80509     80511     80513     80512     80514     80516     80515     80517
     80519     80518     80520     80522     80521     80523     80525     80524     80526
     80528     80527     80529     80531     80530     80532     80534     80533     80535
     80537     80536     80538     80540     80539     80541     80543     80542     80544
     80546     80545     80547     80549     80548     80550     80552     80551     80553
     80555     80554     80556     80558     80557     80559     80561     80560     80562
     80564     80563     80565     80567     80566     80568     80570     80569     80571
     80573     80572     80574     80576     80575     80577     80579     80578     80580
     80582     80581     80583     80585     80584     80586     80588     80587     80589
     80591     80590     80592     80594     80593     80595     80597     80596     80598
     80600     80599     80601     80603     80602     80604     80606     80605     80607
     80609     80608     80610     80612     80611     80613     80615     80614     80616
     80618     80617     80619     80621     80620     80622     80624     80623     80625
     80627     80626     80628     80630     80629     80631     80633     80632     80634
     80636     80635     80637     80639     80638     80640     80642     80641     80643
     80645     80644     80646     80648     80647     80649     80651     80650     80652
     80654     80653     80655     80657     80656     80658     80660     80659     80661
     80663     80662     80664     80666     80665     80667     80669     80668     80670
     80672     80671     80673     80675     80674     80676     80678     80677     80679
     80681     80680     80682     80684     80683     80685     80687     80686     80688
     80690     80689     80691     80693     80692     80694     80696     80695     80697
     80699     80698     80700     80702     80701     80703     80705     80704     80706
     80708     80707     80709     80711     80710     80712     80714     80713     80715
     80717     80716     80718     80720     80719     80721     80723     80722     80724
     80726     80725     80727     80729     80728     80730     80732     80731     80733
     80735     80734     80736     80738     80737     80739     80741     80740     80742
     80744     80743     80745     80747     80746     80748     80750     80749     80751
     80753     80752     80754     80756     80755     80757     80759     80758     80760
     80762     80761     80763     80765     80764     80766     80768     80767     80769
     80771     80770     80772     80774     80773     80775     80777     80776     80778
     80780     80779     80781     80783     80782     80784     80786     80785     80787
     80789     80788     80790     80792     80791     80793     80795     80794     80796
     80798     80797     80799     80801     80800     80802     80804     80803     80805
     80807     80806     80808     80810     80809     80811     80813     80812     80814
     80816     80815     80817     80819     80818     80820     80822     80821     80823
     80825     80824     80826     80828     80827     80829     80831     80830     80832
     80834     80833     80835     80837     80836     80838     80840     80839     80841
     80843     80842     80844     80846     80845     80847     80849     80848     80850
     80852     80851     80853     80855     80854     80856     80858     80857     80859
     80861     80860     80862     80864     80863     80865     80867     80866     80868
     80870     80869     80871     80873     80872     80874     80876     80875     80877
     80879     80878     80880     80882     80881     80883     80885     80884     80886
     80888     80887     80889     80891     80890     80892     80894     80893     80895
     80897     80896     80898     80900     80899     80901     80903     80902     80904
     80906     80905     80907     80909     80908     80910     80912     80911     80913
     80915     80914     80916     80918     80917     80919     80921     80920     80922
     80924     80923     80925     80927     80926     80928     80930     80929     80931
     80933     80932     80934     80936     80935     80937     80939     80938     80940
     80942     80941     80943     80945     80944     80946     80948     80947     80949
     80951     80950     80952     80954     80953     80955     80957     80956     80958
     80960     80959     80961     80963     80962     80964     80966     80965     80967
     80969     80968     80970     80972     80971     80973     80975     80974     80976
     80978     80977     80979     80981     80980     80982     80984     80983     80985
     80987     80986     80988     80990     80989     80991     80993     80992     80994
     80996     80995     80997     80999     80998     81000     81002     81001     81003
     81005     81004     81006     81008     81007     81009     81011     81010     81012
     81014     81013     81015     81017     81016     81018     81020     81019     81021
     81023     81022     81024     81026     81025     81027     81029     81028     81030
     81032     81031     81033     81035     81034     81036     81038     81037     81039
     81041     81040     81042     81044     81043     81045     81047     81046     81048
     81050     81049     81051     81053     81052     81054     81056     81055     81057
     81059     81058     81060     81062     81061     81063     81065     81064     81066
     81068     81067     81069     81071     81070     81072     81074     81073     81075
     81077     81076     81078     81080     81079     81081     81083     81082     81084
     81086     81085     81087     81089     81088     81090     81092     81091     81093
     81095     81094     81096     81098     81097     81099     81101     81100     81102
     81104     81103     81105     81107     81106     81108     81110     81109     81111
     81113     81112     81114     81116     81115     81117     81119     81118     81120
     81122     81121     81123     81125     81124     81126     81128     81127     81129
     81131     81130     81132     81134     81133     81135     81137     81136     81138
     81140     81139     81141     81143     81142     81144     81146     81145     81147
     81149     81148     81150     81152     81151     81153     81155     81154     81156
     81158     81157     81159     81161     81160     81162     81164     81163     81165
     81167     81166     81168     81170     81169     81171     81173     81172     81174
     81176     81175     81177     81179     81178     81180     81182     81181     81183
     81185     81184     81186     81188     81187     81189     81191     81190     81192
     81194     81193     81195     81197     81196     81198     81200     81199     81201
     81203     81202     81204     81206     81205     81207     81209     81208     81210
     81212     81211     81213     81215     81214     81216     81218     81217     81219
     81221     81220     81222     81224     81223     81225     81227     81226     81228
     81230     81229     81231     81233     81232     81234     81236     81235     81237
     81239     81238     81240     81242     81241     81243     81245     81244     81246
     81248     81247     81249     81251     81250     81252     81254     81253     81255
     81257     81256     81258     81260     81259     81261     81263     81262     81264
     81266     81265     81267     81269     81268     81270     81272     81271     81273
     81275     81274     81276     81278     81277     81279     81281     81280     81282
     81284     81283     81285     81287     81286     81288     81290     81289     81291
     81293     81292     81294     81296     81295     81297     81299     81298     81300
     81302     81301     81303     81305     81304     81306     81308     81307     81309
     81311     81310     81312     81314     81313     81315     81317     81316     81318
     81320     81319     81321     81323     81322     81324     81326     81325     81327
     81329     81328     81330     81332     81331     81333     81335     81334     81336
     81338     81337     81339     81341     81340     81342     81344     81343     81345
     81347     81346     81348     81350     81349     81351     81353     81352     81354
     81356     81355     81357     81359     81358     81360     81362     81361     81363
     81365     81364     81366     81368     81367     81369     81371     81370     81372
     81374     81373     81375     81377     81376     81378     81380     81379     81381
     81383     81382     81384     81386     81385     81387     81389     81388     81390
     81392     81391     81393     81395     81394     81396     81398     81397     81399
     81401     81400     81402     81404     81403     81405     81407     81406     81408
     81410     81409     81411     81413     81412     81414     81416     81415     81417
     81419     81418     81420     81422     81421     81423     81425     81424     81426
     81428     81427     81429     81431     81430     81432     81434     81433     81435
     81437     81436     81438     81440     81439     81441     81443     81442     81444
     81446     81445     81447     81449     81448     81450     81452     81451     81453
     81455     81454     81456     81458     81457     81459     81461     81460     81462
     81464     81463     81465     81467     81466     81468     81470     81469     81471
     81473     81472     81474     81476     81475     81477     81479     81478     81480
     81482     81481     81483     81485     81484     81486     81488     81487     81489
     81491     81490     81492     81494     81493     81495     81497     81496     81498
     81500     81499     81501     81503     81502     81504     81506     81505     81507
     81509     81508     81510     81512     81511     81513     81515     81514     81516
     81518     81517     81519     81521     81520     81522     81524     81523     81525
     81527     81526     81528     81530     81529     81531     81533     81532     81534
     81536     81535     81537     81539     81538     81540     81542     81541     81543
     81545     81544     81546     81548     81547     81549     81551     81550     81552
     81554     81553     81555     81557     81556     81558     81560     81559     81561
     81563     81562     81564     81566     81565     81567     81569     81568     81570
     81572     81571     81573     81575     81574     81576     81578     81577     81579
     81581     81580     81582     81584     81583     81585     81587     81586     81588
     81590     81589     81591     81593     81592     81594     81596     81595     81597
     81599     81598     81600     81602     81601     81603     81605     81604     81606
     81608     81607     81609     81611     81610     81612     81614     81613     81615
     81617     81616     81618     81620     81619     81621     81623     81622     81624
     81626     81625     81627     81629     81628     81630     81632     81631     81633
     81635     81634     81636     81638     81637     81639     81641     81640     81642
     81644     81643     81645     81647     81646     81648     81650     81649     81651
     81653     81652     81654     81656     81655     81657     81659     81658     81660
     81662     81661     81663     81665     81664     81666     81668     81667     81669
     81671     81670     81672     81674     81673     81675     81677     81676     81678
     81680     81679     81681     81683     81682     81684     81686     81685     81687
     81689     81688     81690     81692     81691     81693     81695     81694     81696
     81698     81697     81699     81701     81700     81702     81704     81703     81705
     81707     81706     81708     81710     81709     81711     81713     81712     81714
     81716     81715     81717     81719     81718     81720     81722     81721     81723
     81725     81724     81726     81728     81727     81729     81731     81730     81732
     81734     81733     81735     81737     81736     81738     81740     81739     81741
     81743     81742     81744     81746     81745     81747     81749     81748     81750
     81752     81751     81753     81755     81754     81756     81758     81757     81759
     81761     81760     81762     81764     81763     81765     81767     81766     81768
     81770     81769     81771     81773     81772     81774     81776     81775     81777
     81779     81778     81780     81782     81781     81783     81785     81784     81786
     81788     81787     81789     81791     81790     81792     81794     81793     81795
     81797     81796     81798     81800     81799     81801     81803     81802     81804
     81806     81805     81807     81809     81808     81810     81812     81811     81813
     81815     81814     81816     81818     81817     81819     81821     81820     81822
     81824     81823     81825     81827     81826     81828     81830     81829     81831
     81833     81832     81834     81836     81835     81837     81839     81838     81840
     81842     81841     81843     81845     81844     81846     81848     81847     81849
     81851     81850     81852     81854     81853     81855     81857     81856     81858
     81860     81859     81861     81863     81862     81864     81866     81865     81867
     81869     81868     81870     81872     81871     81873     81875     81874     81876
     81878     81877     81879     81881     81880     81882     81884     81883     81885
     81887     81886     81888     81890     81889     81891     81893     81892     81894
     81896     81895     81897     81899     81898     81900     81902     81901     81903
     81905     81904     81906     81908     81907     81909     81911     81910     81912
     81914     81913     81915     81917     81916     81918     81920     81919     81921
     81923     81922     81924     81926     81925     81927     81929     81928     81930
     81932     81931     81933     81935     81934     81936     81938     81937     81939
     81941     81940     81942     81944     81943     81945     81947     81946     81948
     81950     81949     81951     81953     81952     81954     81956     81955     81957
     81959     81958     81960     81962     81961     81963     81965     81964     81966
     81968     81967     81969     81971     81970     81972     81974     81973     81975
     81977     81976     81978     81980     81979     81981     81983     81982     81984
     81986     81985     81987     81989     81988     81990     81992     81991     81993
     81995     81994     81996     81998     81997     81999     82001     82000     82002
     82004     82003     82005     82007     82006     82008     82010     82009     82011
     82013     82012     82014     82016     82015     82017     82019     82018     82020
     82022     82021     82023     82025     82024     82026     82028     82027     82029
     82031     82030     82032     82034     82033     82035     82037     82036     82038
     82040     82039     82041     82043     82042     82044     82046     82045     82047
     82049     82048     82050     82052     82051     82053     82055     82054     82056
     82058     82057     82059     82061     82060     82062     82064     82063     82065
     82067     82066     82068     82070     82069     82071     82073     82072     82074
     82076     82075     82077     82079     82078     82080     82082     82081     82083
     82085     82084     82086     82088     82087     82089     82091     82090     82092
     82094     82093     82095     82097     82096     82098     82100     82099     82101
     82103     82102     82104     82106     82105     82107     82109     82108     82110
     82112     82111     82113     82115     82114     82116     82118     82117     82119
     82121     82120     82122     82124     82123     82125     82127     82126     82128
     82130     82129     82131     82133     82132     82134     82136     82135     82137
     82139     82138     82140     82142     82141     82143     82145     82144     82146
     82148     82147     82149     82151     82150     82152     82154     82153     82155
     82157     82156     82158     82160     82159     82161     82163     82162     82164
     82166     82165     82167     82169     82168     82170     82172     82171     82173
     82175     82174     82176     82178     82177     82179     82181     82180     82182
     82184     82183     82185     82187     82186     82188     82190     82189     82191
     82193     82192     82194     82196     82195     82197     82199     82198     82200
     82202     82201     82203     82205     82204     82206     82208     82207     82209
     82211     82210     82212     82214     82213     82215     82217     82216     82218
     82220     82219     82221     82223     82222     82224     82226     82225     82227
     82229     82228     82230     82232     82231     82233     82235     82234     82236
     82238     82237     82239     82241     82240     82242     82244     82243     82245
     82247     82246     82248     82250     82249     82251     82253     82252     82254
     82256     82255     82257     82259     82258     82260     82262     82261     82263
     82265     82264     82266     82268     82267     82269     82271     82270     82272
     82274     82273     82275     82277     82276     82278     82280     82279     82281
     82283     82282     82284     82286     82285     82287     82289     82288     82290
     82292     82291     82293     82295     82294     82296     82298     82297     82299
     82301     82300     82302     82304     82303     82305     82307     82306     82308
     82310     82309     82311     82313     82312     82314     82316     82315     82317
     82319     82318     82320     82322     82321     82323     82325     82324     82326
     82328     82327     82329     82331     82330     82332     82334     82333     82335
     82337     82336     82338     82340     82339     82341     82343     82342     82344
     82346     82345     82347     82349     82348     82350

     61940 !NPHI: dihedrals
         1         5         7         8         1         5         7         9
         1         5        10        11         1         5        10        12
         1         5        10        16         2         1         5         6
         2         1         5         7         2         1         5        10
         3         1         5         6         3         1         5         7
         3         1         5        10         4         1         5         6
         4         1         5         7         4         1         5        10
         5        10        16        13         6         5         7         8
         6         5         7         9         6         5        10        11
         6         5        10        12         6         5        10        16
         7         5        10        11         7         5        10        12
         7         5        10        16         8         7         5        10
         9         7         5        10        10        16        13        14
        10        16        13        15        10        16        13        17
        11        10        16        13        12        10        16        13
        13        17        18        19        13        17        18        20
        13        17        18        21        14        13        17        18
        15        13        17        18        16        13        17        18
        17        18        21        22        17        18        21        23
        17        18        21        29        18        21        23        24
        18        21        29        30        18        21        29        31
        18        21        29        32        19        18        21        22
        19        18        21        23        19        18        21        29
        20        18        21        22        20        18        21        23
        20        18        21        29        21        23        24        25
        21        23        24        26        21        29        32        33
        22        21        23        24        22        21        29        30
        22        21        29        31        22        21        29        32
        23        21        29        30        23        21        29        31
        23        21        29        32        23        24        26        27
        23        24        26        28        23        24        26        38
        24        23        21        29        24        26        38        39
        24        26        38        40        24        26        38        41
        25        24        26        27        25        24        26        28
        25        24        26        38        26        38        41        42
        26        38        41        43        26        38        41        44
        27        26        38        39        27        26        38        40
        27        26        38        41        28        26        38        39
        28        26        38        40        28        26        38        41
        29        32        33        34        29        32        33        35
        30        29        32        33        31        29        32        33
        32        33        35        36        32        33        35        37
        32        33        35        85        33        35        85        86
        33        35        85        87        33        35        85        88
        34        33        35        36        34        33        35        37
        34        33        35        85        35        85        88        89
        35        85        88        90        35        85        88        91
        36        35        85        86        36        35        85        87
        36        35        85        88        37        35        85        86
        37        35        85        87        37        35        85        88
        38        41        44        45        38        41        44        46
        39        38        41        42        39        38        41        43
        39        38        41        44        40        38        41        42
        40        38        41        43        40        38        41        44
        41        44        46        47        41        44        46        48
        42        41        44        45        42        41        44        46
        43        41        44        45        43        41        44        46
        44        46        48        49        44        46        48        50
        44        46        48        51        45        44        46        47
        45        44        46        48        46        48        51        52
        46        48        51        53        47        46        48        49
        47        46        48        50        47        46        48        51
        48        51        53        54        48        51        53        55
        49        48        51        52        49        48        51        53
        50        48        51        52        50        48        51        53
        51        53        55        56        51        53        55        57
        51        53        55        58        52        51        53        54
        52        51        53        55        53        55        58        59
        53        55        58        60        54        53        55        56
        54        53        55        57        54        53        55        58
        55        58        60        61        55        58        60        62
        56        55        58        59        56        55        58        60
        57        55        58        59        57        55        58        60
        58        60        62        63        58        60        62        64
        58        60        62        65        59        58        60        61
        59        58        60        62        60        62        65        66
        60        62        65        67        61        60        62        63
        61        60        62        64        61        60        62        65
        62        65        67        68        62        65        67        69
        63        62        65        66        63        62        65        67
        64        62        65        66        64        62        65        67
        65        67        69        70        65        67        69        71
        65        67        69        72        66        65        67        68
        66        65        67        69        67        69        72        73
        67        69        72        74        67        69        72        75
        68        67        69        70        68        67        69        71
        68        67        69        72        69        72        75        76
        69        72        75        77        69        72        75        78
        70        69        72        73        70        69        72        74
        70        69        72        75        71        69        72        73
        71        69        72        74        71        69        72        75
        72        75        78        79        72        75        78        80
        72        75        78        81        73        72        75        76
        73        72        75        77        73        72        75        78
        74        72        75        76        74        72        75        77
        74        72        75        78        75        78        81        82
        75        78        81        83        75        78        81        84
        76        75        78        79        76        75        78        80
        76        75        78        81        77        75        78        79
        77        75        78        80        77        75        78        81
        79        78        81        82        79        78        81        83
        79        78        81        84        80        78        81        82
        80        78        81        83        80        78        81        84
        85        88        91        92        85        88        91        93
        85        88        91        94        86        85        88        89
        86        85        88        90        86        85        88        91
        87        85        88        89        87        85        88        90
        87        85        88        91        88        91        94        95
        88        91        94        96        88        91        94        97
        89        88        91        92        89        88        91        93
        89        88        91        94        90        88        91        92
        90        88        91        93        90        88        91        94
        91        94        97        98        91        94        97        99
        91        94        97       100        92        91        94        95
        92        91        94        96        92        91        94        97
        93        91        94        95        93        91        94        96
        93        91        94        97        94        97       100       101
        94        97       100       102        94        97       100       103
        95        94        97        98        95        94        97        99
        95        94        97       100        96        94        97        98
        96        94        97        99        96        94        97       100
        97       100       103       104        97       100       103       105
        97       100       103       106        98        97       100       101
        98        97       100       102        98        97       100       103
        99        97       100       101        99        97       100       102
        99        97       100       103       100       103       106       107
       100       103       106       108       100       103       106       109
       101       100       103       104       101       100       103       105
       101       100       103       106       102       100       103       104
       102       100       103       105       102       100       103       106
       103       106       109       110       103       106       109       111
       103       106       109       112       104       103       106       107
       104       103       106       108       104       103       106       109
       105       103       106       107       105       103       106       108
       105       103       106       109       106       109       112       113
       106       109       112       114       106       109       112       115
       107       106       109       110       107       106       109       111
       107       106       109       112       108       106       109       110
       108       106       109       111       108       106       109       112
       109       112       115       116       109       112       115       117
       109       112       115       118       110       109       112       113
       110       109       112       114       110       109       112       115
       111       109       112       113       111       109       112       114
       111       109       112       115       112       115       118       119
       112       115       118       120       112       115       118       121
       113       112       115       116       113       112       115       117
       113       112       115       118       114       112       115       116
       114       112       115       117       114       112       115       118
       115       118       121       122       115       118       121       123
       115       118       121       124       116       115       118       119
       116       115       118       120       116       115       118       121
       117       115       118       119       117       115       118       120
       117       115       118       121       118       121       124       125
       118       121       124       126       118       121       124       127
       119       118       121       122       119       118       121       123
       119       118       121       124       120       118       121       122
       120       118       121       123       120       118       121       124
       121       124       127       128       121       124       127       129
       121       124       127       130       122       121       124       125
       122       121       124       126       122       121       124       127
       123       121       124       125       123       121       124       126
       123       121       124       127       124       127       130       131
       124       127       130       132       124       127       130       133
       125       124       127       128       125       124       127       129
       125       124       127       130       126       124       127       128
       126       124       127       129       126       124       127       130
       128       127       130       131       128       127       130       132
       128       127       130       133       129       127       130       131
       129       127       130       132       129       127       130       133
      2129      2130      2145      2146      2129      2130      2145      2147
      2129      2130      2145      2151      2130      2129      2133      2134
      2130      2129      2133      2135      2130      2129      2133      2136
      2130      2129      2137      2138      2130      2129      2137      2139
      2130      2129      2137      2140      2130      2129      2141      2142
      2130      2129      2141      2143      2130      2129      2141      2144
      2130      2145      2151      2148      2131      2130      2129      2133
      2131      2130      2129      2137      2131      2130      2129      2141
      2131      2130      2145      2146      2131      2130      2145      2147
      2131      2130      2145      2151      2132      2130      2129      2133
      2132      2130      2129      2137      2132      2130      2129      2141
      2132      2130      2145      2146      2132      2130      2145      2147
      2132      2130      2145      2151      2133      2129      2130      2145
      2133      2129      2137      2138      2133      2129      2137      2139
      2133      2129      2137      2140      2133      2129      2141      2142
      2133      2129      2141      2143      2133      2129      2141      2144
      2134      2133      2129      2137      2134      2133      2129      2141
      2135      2133      2129      2137      2135      2133      2129      2141
      2136      2133      2129      2137      2136      2133      2129      2141
      2137      2129      2130      2145      2137      2129      2141      2142
      2137      2129      2141      2143      2137      2129      2141      2144
      2138      2137      2129      2141      2139      2137      2129      2141
      2140      2137      2129      2141      2141      2129      2130      2145
      2145      2151      2148      2149      2145      2151      2148      2150
      2145      2151      2148      2152      2146      2145      2151      2148
      2147      2145      2151      2148      2148      2152      2153      2154
      2148      2152      2153      2155      2148      2152      2153      2156
      2149      2148      2152      2153      2150      2148      2152      2153
      2151      2148      2152      2153      2152      2153      2156      2157
      2152      2153      2156      2158      2152      2153      2156      2164
      2153      2156      2158      2159      2153      2156      2164      2165
      2153      2156      2164      2166      2153      2156      2164      2167
      2154      2153      2156      2157      2154      2153      2156      2158
      2154      2153      2156      2164      2155      2153      2156      2157
      2155      2153      2156      2158      2155      2153      2156      2164
      2156      2158      2159      2160      2156      2158      2159      2161
      2156      2164      2167      2168      2157      2156      2158      2159
      2157      2156      2164      2165      2157      2156      2164      2166
      2157      2156      2164      2167      2158      2156      2164      2165
      2158      2156      2164      2166      2158      2156      2164      2167
      2158      2159      2161      2162      2158      2159      2161      2163
      2158      2159      2161      2173      2159      2158      2156      2164
      2159      2161      2173      2174      2159      2161      2173      2175
      2159      2161      2173      2176      2160      2159      2161      2162
      2160      2159      2161      2163      2160      2159      2161      2173
      2161      2173      2176      2177      2161      2173      2176      2178
      2161      2173      2176      2179      2162      2161      2173      2174
      2162      2161      2173      2175      2162      2161      2173      2176
      2163      2161      2173      2174      2163      2161      2173      2175
      2163      2161      2173      2176      2164      2167      2168      2169
      2164      2167      2168      2170      2165      2164      2167      2168
      2166      2164      2167      2168      2167      2168      2170      2171
      2167      2168      2170      2172      2167      2168      2170      2220
      2168      2170      2220      2221      2168      2170      2220      2222
      2168      2170      2220      2223      2169      2168      2170      2171
      2169      2168      2170      2172      2169      2168      2170      2220
      2170      2220      2223      2224      2170      2220      2223      2225
      2170      2220      2223      2226      2171      2170      2220      2221
      2171      2170      2220      2222      2171      2170      2220      2223
      2172      2170      2220      2221      2172      2170      2220      2222
      2172      2170      2220      2223      2173      2176      2179      2180
      2173      2176      2179      2181      2174      2173      2176      2177
      2174      2173      2176      2178      2174      2173      2176      2179
      2175      2173      2176      2177      2175      2173      2176      2178
      2175      2173      2176      2179      2176      2179      2181      2182
      2176      2179      2181      2183      2177      2176      2179      2180
      2177      2176      2179      2181      2178      2176      2179      2180
      2178      2176      2179      2181      2179      2181      2183      2184
      2179      2181      2183      2185      2179      2181      2183      2186
      2180      2179      2181      2182      2180      2179      2181      2183
      2181      2183      2186      2187      2181      2183      2186      2188
      2182      2181      2183      2184      2182      2181      2183      2185
      2182      2181      2183      2186      2183      2186      2188      2189
      2183      2186      2188      2190      2184      2183      2186      2187
      2184      2183      2186      2188      2185      2183      2186      2187
      2185      2183      2186      2188      2186      2188      2190      2191
      2186      2188      2190      2192      2186      2188      2190      2193
      2187      2186      2188      2189      2187      2186      2188      2190
      2188      2190      2193      2194      2188      2190      2193      2195
      2189      2188      2190      2191      2189      2188      2190      2192
      2189      2188      2190      2193      2190      2193      2195      2196
      2190      2193      2195      2197      2191      2190      2193      2194
      2191      2190      2193      2195      2192      2190      2193      2194
      2192      2190      2193      2195      2193      2195      2197      2198
      2193      2195      2197      2199      2193      2195      2197      2200
      2194      2193      2195      2196      2194      2193      2195      2197
      2195      2197      2200      2201      2195      2197      2200      2202
      2196      2195      2197      2198      2196      2195      2197      2199
      2196      2195      2197      2200      2197      2200      2202      2203
      2197      2200      2202      2204      2198      2197      2200      2201
      2198      2197      2200      2202      2199      2197      2200      2201
      2199      2197      2200      2202      2200      2202      2204      2205
      2200      2202      2204      2206      2200      2202      2204      2207
      2201      2200      2202      2203      2201      2200      2202      2204
      2202      2204      2207      2208      2202      2204      2207      2209
      2202      2204      2207      2210      2203      2202      2204      2205
      2203      2202      2204      2206      2203      2202      2204      2207
      2204      2207      2210      2211      2204      2207      2210      2212
      2204      2207      2210      2213      2205      2204      2207      2208
      2205      2204      2207      2209      2205      2204      2207      2210
      2206      2204      2207      2208      2206      2204      2207      2209
      2206      2204      2207      2210      2207      2210      2213      2214
      2207      2210      2213      2215      2207      2210      2213      2216
      2208      2207      2210      2211      2208      2207      2210      2212
      2208      2207      2210      2213      2209      2207      2210      2211
      2209      2207      2210      2212      2209      2207      2210      2213
      2210      2213      2216      2217      2210      2213      2216      2218
      2210      2213      2216      2219      2211      2210      2213      2214
      2211      2210      2213      2215      2211      2210      2213      2216
      2212      2210      2213      2214      2212      2210      2213      2215
      2212      2210      2213      2216      2214      2213      2216      2217
      2214      2213      2216      2218      2214      2213      2216      2219
      2215      2213      2216      2217      2215      2213      2216      2218
      2215      2213      2216      2219      2220      2223      2226      2227
      2220      2223      2226      2228      2220      2223      2226      2229
      2221      2220      2223      2224      2221      2220      2223      2225
      2221      2220      2223      2226      2222      2220      2223      2224
      2222      2220      2223      2225      2222      2220      2223      2226
      2223      2226      2229      2230      2223      2226      2229      2231
      2223      2226      2229      2232      2224      2223      2226      2227
      2224      2223      2226      2228      2224      2223      2226      2229
      2225      2223      2226      2227      2225      2223      2226      2228
      2225      2223      2226      2229      2226      2229      2232      2233
      2226      2229      2232      2234      2226      2229      2232      2235
      2227      2226      2229      2230      2227      2226      2229      2231
      2227      2226      2229      2232      2228      2226      2229      2230
      2228      2226      2229      2231      2228      2226      2229      2232
      2229      2232      2235      2236      2229      2232      2235      2237
      2229      2232      2235      2238      2230      2229      2232      2233
      2230      2229      2232      2234      2230      2229      2232      2235
      2231      2229      2232      2233      2231      2229      2232      2234
      2231      2229      2232      2235      2232      2235      2238      2239
      2232      2235      2238      2240      2232      2235      2238      2241
      2233      2232      2235      2236      2233      2232      2235      2237
      2233      2232      2235      2238      2234      2232      2235      2236
      2234      2232      2235      2237      2234      2232      2235      2238
      2235      2238      2241      2242      2235      2238      2241      2243
      2235      2238      2241      2244      2236      2235      2238      2239
      2236      2235      2238      2240      2236      2235      2238      2241
      2237      2235      2238      2239      2237      2235      2238      2240
      2237      2235      2238      2241      2238      2241      2244      2245
      2238      2241      2244      2246      2238      2241      2244      2247
      2239      2238      2241      2242      2239      2238      2241      2243
      2239      2238      2241      2244      2240      2238      2241      2242
      2240      2238      2241      2243      2240      2238      2241      2244
      2241      2244      2247      2248      2241      2244      2247      2249
      2241      2244      2247      2250      2242      2241      2244      2245
      2242      2241      2244      2246      2242      2241      2244      2247
      2243      2241      2244      2245      2243      2241      2244      2246
      2243      2241      2244      2247      2244      2247      2250      2251
      2244      2247      2250      2252      2244      2247      2250      2253
      2245      2244      2247      2248      2245      2244      2247      2249
      2245      2244      2247      2250      2246      2244      2247      2248
      2246      2244      2247      2249      2246      2244      2247      2250
      2247      2250      2253      2254      2247      2250      2253      2255
      2247      2250      2253      2256      2248      2247      2250      2251
      2248      2247      2250      2252      2248      2247      2250      2253
      2249      2247      2250      2251      2249      2247      2250      2252
      2249      2247      2250      2253      2250      2253      2256      2257
      2250      2253      2256      2258      2250      2253      2256      2259
      2251      2250      2253      2254      2251      2250      2253      2255
      2251      2250      2253      2256      2252      2250      2253      2254
      2252      2250      2253      2255      2252      2250      2253      2256
      2253      2256      2259      2260      2253      2256      2259      2261
      2253      2256      2259      2262      2254      2253      2256      2257
      2254      2253      2256      2258      2254      2253      2256      2259
      2255      2253      2256      2257      2255      2253      2256      2258
      2255      2253      2256      2259      2256      2259      2262      2263
      2256      2259      2262      2264      2256      2259      2262      2265
      2257      2256      2259      2260      2257      2256      2259      2261
      2257      2256      2259      2262      2258      2256      2259      2260
      2258      2256      2259      2261      2258      2256      2259      2262
      2259      2262      2265      2266      2259      2262      2265      2267
      2259      2262      2265      2268      2260      2259      2262      2263
      2260      2259      2262      2264      2260      2259      2262      2265
      2261      2259      2262      2263      2261      2259      2262      2264
      2261      2259      2262      2265      2263      2262      2265      2266
      2263      2262      2265      2267      2263      2262      2265      2268
      2264      2262      2265      2266      2264      2262      2265      2267
      2264      2262      2265      2268      4369      4370      4385      4386
      4369      4370      4385      4387      4369      4370      4385      4391
      4370      4369      4373      4374      4370      4369      4373      4375
      4370      4369      4373      4376      4370      4369      4377      4378
      4370      4369      4377      4379      4370      4369      4377      4380
      4370      4369      4381      4382      4370      4369      4381      4383
      4370      4369      4381      4384      4370      4385      4391      4388
      4371      4370      4369      4373      4371      4370      4369      4377
      4371      4370      4369      4381      4371      4370      4385      4386
      4371      4370      4385      4387      4371      4370      4385      4391
      4372      4370      4369      4373      4372      4370      4369      4377
      4372      4370      4369      4381      4372      4370      4385      4386
      4372      4370      4385      4387      4372      4370      4385      4391
      4373      4369      4370      4385      4373      4369      4377      4378
      4373      4369      4377      4379      4373      4369      4377      4380
      4373      4369      4381      4382      4373      4369      4381      4383
      4373      4369      4381      4384      4374      4373      4369      4377
      4374      4373      4369      4381      4375      4373      4369      4377
      4375      4373      4369      4381      4376      4373      4369      4377
      4376      4373      4369      4381      4377      4369      4370      4385
      4377      4369      4381      4382      4377      4369      4381      4383
      4377      4369      4381      4384      4378      4377      4369      4381
      4379      4377      4369      4381      4380      4377      4369      4381
      4381      4369      4370      4385      4385      4391      4388      4389
      4385      4391      4388      4390      4385      4391      4388      4392
      4386      4385      4391      4388      4387      4385      4391      4388
      4388      4392      4393      4394      4388      4392      4393      4395
      4388      4392      4393      4396      4389      4388      4392      4393
      4390      4388      4392      4393      4391      4388      4392      4393
      4392      4393      4396      4397      4392      4393      4396      4398
      4392      4393      4396      4404      4393      4396      4398      4399
      4393      4396      4404      4405      4393      4396      4404      4406
      4393      4396      4404      4407      4394      4393      4396      4397
      4394      4393      4396      4398      4394      4393      4396      4404
      4395      4393      4396      4397      4395      4393      4396      4398
      4395      4393      4396      4404      4396      4398      4399      4400
      4396      4398      4399      4401      4396      4404      4407      4408
      4397      4396      4398      4399      4397      4396      4404      4405
      4397      4396      4404      4406      4397      4396      4404      4407
      4398      4396      4404      4405      4398      4396      4404      4406
      4398      4396      4404      4407      4398      4399      4401      4402
      4398      4399      4401      4403      4398      4399      4401      4413
      4399      4398      4396      4404      4399      4401      4413      4414
      4399      4401      4413      4415      4399      4401      4413      4416
      4400      4399      4401      4402      4400      4399      4401      4403
      4400      4399      4401      4413      4401      4413      4416      4417
      4401      4413      4416      4418      4401      4413      4416      4419
      4402      4401      4413      4414      4402      4401      4413      4415
      4402      4401      4413      4416      4403      4401      4413      4414
      4403      4401      4413      4415      4403      4401      4413      4416
      4404      4407      4408      4409      4404      4407      4408      4410
      4405      4404      4407      4408      4406      4404      4407      4408
      4407      4408      4410      4411      4407      4408      4410      4412
      4407      4408      4410      4460      4408      4410      4460      4461
      4408      4410      4460      4462      4408      4410      4460      4463
      4409      4408      4410      4411      4409      4408      4410      4412
      4409      4408      4410      4460      4410      4460      4463      4464
      4410      4460      4463      4465      4410      4460      4463      4466
      4411      4410      4460      4461      4411      4410      4460      4462
      4411      4410      4460      4463      4412      4410      4460      4461
      4412      4410      4460      4462      4412      4410      4460      4463
      4413      4416      4419      4420      4413      4416      4419      4421
      4413      4416      4419      4422      4414      4413      4416      4417
      4414      4413      4416      4418      4414      4413      4416      4419
      4415      4413      4416      4417      4415      4413      4416      4418
      4415      4413      4416      4419      4416      4419      4422      4423
      4416      4419      4422      4424      4416      4419      4422      4425
      4417      4416      4419      4420      4417      4416      4419      4421
      4417      4416      4419      4422      4418      4416      4419      4420
      4418      4416      4419      4421      4418      4416      4419      4422
      4419      4422      4425      4426      4419      4422      4425      4427
      4419      4422      4425      4428      4420      4419      4422      4423
      4420      4419      4422      4424      4420      4419      4422      4425
      4421      4419      4422      4423      4421      4419      4422      4424
      4421      4419      4422      4425      4422      4425      4428      4429
      4422      4425      4428      4430      4422      4425      4428      4431
      4423      4422      4425      4426      4423      4422      4425      4427
      4423      4422      4425      4428      4424      4422      4425      4426
      4424      4422      4425      4427      4424      4422      4425      4428
      4425      4428      4431      4432      4425      4428      4431      4433
      4426      4425      4428      4429      4426      4425      4428      4430
      4426      4425      4428      4431      4427      4425      4428      4429
      4427      4425      4428      4430      4427      4425      4428      4431
      4428      4431      4433      4434      4428      4431      4433      4435
      4429      4428      4431      4432      4429      4428      4431      4433
      4430      4428      4431      4432      4430      4428      4431      4433
      4431      4433      4435      4436      4431      4433      4435      4437
      4431      4433      4435      4438      4432      4431      4433      4434
      4432      4431      4433      4435      4433      4435      4438      4439
      4433      4435      4438      4440      4433      4435      4438      4441
      4434      4433      4435      4436      4434      4433      4435      4437
      4434      4433      4435      4438      4435      4438      4441      4442
      4435      4438      4441      4443      4435      4438      4441      4444
      4436      4435      4438      4439      4436      4435      4438      4440
      4436      4435      4438      4441      4437      4435      4438      4439
      4437      4435      4438      4440      4437      4435      4438      4441
      4438      4441      4444      4445      4438      4441      4444      4446
      4438      4441      4444      4447      4439      4438      4441      4442
      4439      4438      4441      4443      4439      4438      4441      4444
      4440      4438      4441      4442      4440      4438      4441      4443
      4440      4438      4441      4444      4441      4444      4447      4448
      4441      4444      4447      4449      4441      4444      4447      4450
      4442      4441      4444      4445      4442      4441      4444      4446
      4442      4441      4444      4447      4443      4441      4444      4445
      4443      4441      4444      4446      4443      4441      4444      4447
      4444      4447      4450      4451      4444      4447      4450      4452
      4444      4447      4450      4453      4445      4444      4447      4448
      4445      4444      4447      4449      4445      4444      4447      4450
      4446      4444      4447      4448      4446      4444      4447      4449
      4446      4444      4447      4450      4447      4450      4453      4454
      4447      4450      4453      4455      4447      4450      4453      4456
      4448      4447      4450      4451      4448      4447      4450      4452
      4448      4447      4450      4453      4449      4447      4450      4451
      4449      4447      4450      4452      4449      4447      4450      4453
      4450      4453      4456      4457      4450      4453      4456      4458
      4450      4453      4456      4459      4451      4450      4453      4454
      4451      4450      4453      4455      4451      4450      4453      4456
      4452      4450      4453      4454      4452      4450      4453      4455
      4452      4450      4453      4456      4454      4453      4456      4457
      4454      4453      4456      4458      4454      4453      4456      4459
      4455      4453      4456      4457      4455      4453      4456      4458
      4455      4453      4456      4459      4460      4463      4466      4467
      4460      4463      4466      4468      4460      4463      4466      4469
      4461      4460      4463      4464      4461      4460      4463      4465
      4461      4460      4463      4466      4462      4460      4463      4464
      4462      4460      4463      4465      4462      4460      4463      4466
      4463      4466      4469      4470      4463      4466      4469      4471
      4463      4466      4469      4472      4464      4463      4466      4467
      4464      4463      4466      4468      4464      4463      4466      4469
      4465      4463      4466      4467      4465      4463      4466      4468
      4465      4463      4466      4469      4466      4469      4472      4473
      4466      4469      4472      4474      4466      4469      4472      4475
      4467      4466      4469      4470      4467      4466      4469      4471
      4467      4466      4469      4472      4468      4466      4469      4470
      4468      4466      4469      4471      4468      4466      4469      4472
      4469      4472      4475      4476      4469      4472      4475      4477
      4469      4472      4475      4478      4470      4469      4472      4473
      4470      4469      4472      4474      4470      4469      4472      4475
      4471      4469      4472      4473      4471      4469      4472      4474
      4471      4469      4472      4475      4472      4475      4478      4479
      4472      4475      4478      4480      4472      4475      4478      4481
      4473      4472      4475      4476      4473      4472      4475      4477
      4473      4472      4475      4478      4474      4472      4475      4476
      4474      4472      4475      4477      4474      4472      4475      4478
      4475      4478      4481      4482      4475      4478      4481      4483
      4475      4478      4481      4484      4476      4475      4478      4479
      4476      4475      4478      4480      4476      4475      4478      4481
      4477      4475      4478      4479      4477      4475      4478      4480
      4477      4475      4478      4481      4478      4481      4484      4485
      4478      4481      4484      4486      4478      4481      4484      4487
      4479      4478      4481      4482      4479      4478      4481      4483
      4479      4478      4481      4484      4480      4478      4481      4482
      4480      4478      4481      4483      4480      4478      4481      4484
      4481      4484      4487      4488      4481      4484      4487      4489
      4481      4484      4487      4490      4482      4481      4484      4485
      4482      4481      4484      4486      4482      4481      4484      4487
      4483      4481      4484      4485      4483      4481      4484      4486
      4483      4481      4484      4487      4484      4487      4490      4491
      4484      4487      4490      4492      4484      4487      4490      4493
      4485      4484      4487      4488      4485      4484      4487      4489
      4485      4484      4487      4490      4486      4484      4487      4488
      4486      4484      4487      4489      4486      4484      4487      4490
      4487      4490      4493      4494      4487      4490      4493      4495
      4487      4490      4493      4496      4488      4487      4490      4491
      4488      4487      4490      4492      4488      4487      4490      4493
      4489      4487      4490      4491      4489      4487      4490      4492
      4489      4487      4490      4493      4490      4493      4496      4497
      4490      4493      4496      4498      4490      4493      4496      4499
      4491      4490      4493      4494      4491      4490      4493      4495
      4491      4490      4493      4496      4492      4490      4493      4494
      4492      4490      4493      4495      4492      4490      4493      4496
      4493      4496      4499      4500      4493      4496      4499      4501
      4493      4496      4499      4502      4494      4493      4496      4497
      4494      4493      4496      4498      4494      4493      4496      4499
      4495      4493      4496      4497      4495      4493      4496      4498
      4495      4493      4496      4499      4497      4496      4499      4500
      4497      4496      4499      4501      4497      4496      4499      4502
      4498      4496      4499      4500      4498      4496      4499      4501
      4498      4496      4499      4502      5441      5445      5448      5449
      5441      5445      5448      5479      5441      5487      5484      5479
      5441      5487      5484      5485      5441      5487      5484      5486
      5442      5441      5443      5444      5442      5441      5445      5446
      5442      5441      5445      5447      5442      5441      5445      5448
      5442      5441      5487      5484      5442      5441      5487      5488
      5442      5441      5487      5489      5443      5441      5445      5446
      5443      5441      5445      5447      5443      5441      5445      5448
      5443      5441      5487      5484      5443      5441      5487      5488
      5443      5441      5487      5489      5444      5443      5441      5445
      5444      5443      5441      5487      5445      5441      5487      5484
      5445      5441      5487      5488      5445      5441      5487      5489
      5445      5448      5449      5450      5445      5448      5449      5451
      5445      5448      5479      5477      5445      5448      5479      5480
      5445      5448      5479      5484      5446      5445      5441      5487
      5446      5445      5448      5449      5446      5445      5448      5479
      5447      5445      5441      5487      5447      5445      5448      5449
      5447      5445      5448      5479      5448      5445      5441      5487
      5448      5449      5451      5452      5448      5449      5451      5453
      5448      5449      5451      5454      5448      5479      5477      5454
      5448      5479      5477      5474      5448      5479      5477      5478
      5448      5479      5480      5481      5448      5479      5480      5482
      5448      5479      5480      5483      5448      5479      5484      5485
      5448      5479      5484      5486      5448      5479      5484      5487
      5449      5448      5479      5477      5449      5448      5479      5480
      5449      5448      5479      5484      5449      5451      5454      5455
      5449      5451      5454      5456      5449      5451      5454      5477
      5450      5449      5448      5479      5450      5449      5451      5452
      5450      5449      5451      5453      5450      5449      5451      5454
      5451      5449      5448      5479      5451      5454      5456      5457
      5451      5454      5456      5458      5451      5454      5456      5466
      5451      5454      5477      5474      5451      5454      5477      5478
      5451      5454      5477      5479      5452      5451      5454      5455
      5452      5451      5454      5456      5452      5451      5454      5477
      5453      5451      5454      5455      5453      5451      5454      5456
      5453      5451      5454      5477      5454      5456      5458      5459
      5454      5456      5458      5460      5454      5456      5458      5461
      5454      5456      5466      5464      5454      5456      5466      5467
      5454      5456      5466      5471      5454      5477      5474      5471
      5454      5477      5474      5475      5454      5477      5474      5476
      5454      5477      5479      5480      5454      5477      5479      5484
      5455      5454      5456      5457      5455      5454      5456      5458
      5455      5454      5456      5466      5455      5454      5477      5474
      5455      5454      5477      5478      5455      5454      5477      5479
      5456      5454      5477      5474      5456      5454      5477      5478
      5456      5454      5477      5479      5456      5458      5461      5462
      5456      5458      5461      5463      5456      5458      5461      5464
      5456      5466      5464      5461      5456      5466      5464      5465
      5456      5466      5464      5490      5456      5466      5467      5468
      5456      5466      5467      5469      5456      5466      5467      5470
      5456      5466      5471      5472      5456      5466      5471      5473
      5456      5466      5471      5474      5457      5456      5454      5477
      5457      5456      5458      5459      5457      5456      5458      5460
      5457      5456      5458      5461      5457      5456      5466      5464
      5457      5456      5466      5467      5457      5456      5466      5471
      5458      5456      5454      5477      5458      5456      5466      5464
      5458      5456      5466      5467      5458      5456      5466      5471
      5458      5461      5464      5465      5458      5461      5464      5466
      5458      5461      5464      5490      5459      5458      5456      5466
      5459      5458      5461      5462      5459      5458      5461      5463
      5459      5458      5461      5464      5460      5458      5456      5466
      5460      5458      5461      5462      5460      5458      5461      5463
      5460      5458      5461      5464      5461      5458      5456      5466
      5461      5464      5466      5467      5461      5464      5466      5471
      5461      5464      5490      5491      5461      5464      5490      5492
      5461      5464      5490      5496      5462      5461      5464      5465
      5462      5461      5464      5466      5462      5461      5464      5490
      5463      5461      5464      5465      5463      5461      5464      5466
      5463      5461      5464      5490      5464      5466      5467      5468
      5464      5466      5467      5469      5464      5466      5467      5470
      5464      5466      5471      5472      5464      5466      5471      5473
      5464      5466      5471      5474      5464      5490      5492      5493
      5464      5490      5492      5494      5464      5490      5492      5495
      5464      5490      5496      5497      5464      5490      5496      5498
      5464      5490      5496      5499      5465      5464      5466      5467
      5465      5464      5466      5471      5465      5464      5490      5491
      5465      5464      5490      5492      5465      5464      5490      5496
      5466      5456      5454      5477      5466      5464      5490      5491
      5466      5464      5490      5492      5466      5464      5490      5496
      5466      5471      5474      5475      5466      5471      5474      5476
      5466      5471      5474      5477      5467      5466      5464      5490
      5467      5466      5471      5472      5467      5466      5471      5473
      5467      5466      5471      5474      5468      5467      5466      5471
      5469      5467      5466      5471      5470      5467      5466      5471
      5471      5466      5464      5490      5471      5474      5477      5478
      5471      5474      5477      5479      5472      5471      5474      5475
      5472      5471      5474      5476      5472      5471      5474      5477
      5473      5471      5474      5475      5473      5471      5474      5476
      5473      5471      5474      5477      5474      5477      5479      5480
      5474      5477      5479      5484      5475      5474      5477      5478
      5475      5474      5477      5479      5476      5474      5477      5478
      5476      5474      5477      5479      5477      5479      5480      5481
      5477      5479      5480      5482      5477      5479      5480      5483
      5477      5479      5484      5485      5477      5479      5484      5486
      5477      5479      5484      5487      5478      5477      5479      5480
      5478      5477      5479      5484      5479      5484      5487      5488
      5479      5484      5487      5489      5480      5479      5484      5485
      5480      5479      5484      5486      5480      5479      5484      5487
      5481      5480      5479      5484      5482      5480      5479      5484
      5483      5480      5479      5484      5485      5484      5487      5488
      5485      5484      5487      5489      5486      5484      5487      5488
      5486      5484      5487      5489      5490      5496      5499      5500
      5490      5496      5499      5501      5490      5496      5499      5502
      5491      5490      5492      5493      5491      5490      5492      5494
      5491      5490      5492      5495      5491      5490      5496      5497
      5491      5490      5496      5498      5491      5490      5496      5499
      5492      5490      5496      5497      5492      5490      5496      5498
      5492      5490      5496      5499      5493      5492      5490      5496
      5494      5492      5490      5496      5495      5492      5490      5496
      5496      5499      5502      5503      5496      5499      5502      5504
      5496      5499      5502      5505      5497      5496      5499      5500
      5497      5496      5499      5501      5497      5496      5499      5502
      5498      5496      5499      5500      5498      5496      5499      5501
      5498      5496      5499      5502      5499      5502      5505      5506
      5499      5502      5505      5507      5499      5502      5505      5511
      5500      5499      5502      5503      5500      5499      5502      5504
      5500      5499      5502      5505      5501      5499      5502      5503
      5501      5499      5502      5504      5501      5499      5502      5505
      5502      5505      5507      5508      5502      5505      5507      5509
      5502      5505      5507      5510      5502      5505      5511      5512
      5502      5505      5511      5513      5502      5505      5511      5514
      5503      5502      5505      5506      5503      5502      5505      5507
      5503      5502      5505      5511      5504      5502      5505      5506
      5504      5502      5505      5507      5504      5502      5505      5511
      5506      5505      5507      5508      5506      5505      5507      5509
      5506      5505      5507      5510      5506      5505      5511      5512
      5506      5505      5511      5513      5506      5505      5511      5514
      5507      5505      5511      5512      5507      5505      5511      5513
      5507      5505      5511      5514      5508      5507      5505      5511
      5509      5507      5505      5511      5510      5507      5505      5511
      9585      9598      9601      9602      9585      9598      9601      9603
      9585      9598      9601      9608      9586      9585      9590      9591
      9586      9585      9590      9592      9586      9585      9590      9593
      9586      9585      9594      9595      9586      9585      9594      9596
      9586      9585      9594      9597      9586      9585      9598      9599
      9586      9585      9598      9600      9586      9585      9598      9601
      9587      9586      9585      9590      9587      9586      9585      9594
      9587      9586      9585      9598      9588      9586      9585      9590
      9588      9586      9585      9594      9588      9586      9585      9598
      9589      9586      9585      9590      9589      9586      9585      9594
      9589      9586      9585      9598      9590      9585      9594      9595
      9590      9585      9594      9596      9590      9585      9594      9597
      9590      9585      9598      9599      9590      9585      9598      9600
      9590      9585      9598      9601      9591      9590      9585      9594
      9591      9590      9585      9598      9592      9590      9585      9594
      9592      9590      9585      9598      9593      9590      9585      9594
      9593      9590      9585      9598      9594      9585      9598      9599
      9594      9585      9598      9600      9594      9585      9598      9601
      9595      9594      9585      9598      9596      9594      9585      9598
      9597      9594      9585      9598      9598      9601      9608      9604
      9599      9598      9601      9602      9599      9598      9601      9603
      9599      9598      9601      9608      9600      9598      9601      9602
      9600      9598      9601      9603      9600      9598      9601      9608
      9601      9608      9604      9605      9601      9608      9604      9606
      9601      9608      9604      9607      9602      9601      9608      9604
      9603      9601      9608      9604      9604      9607      9609      9610
      9604      9607      9609      9611      9604      9607      9609      9614
      9605      9604      9607      9609      9606      9604      9607      9609
      9607      9609      9614      9612      9607      9609      9614      9615
      9607      9609      9614      9616      9608      9604      9607      9609
      9609      9614      9612      9613      9609      9614      9612      9664
      9609      9614      9616      9617      9609      9614      9616      9618
      9609      9614      9616      9620      9610      9609      9614      9612
      9610      9609      9614      9615      9610      9609      9614      9616
      9611      9609      9614      9612      9611      9609      9614      9615
      9611      9609      9614      9616      9612      9614      9616      9617
      9612      9614      9616      9618      9612      9614      9616      9620
      9612      9664      9666      9667      9612      9664      9666      9668
      9612      9664      9666      9669      9613      9612      9614      9615
      9613      9612      9614      9616      9613      9612      9664      9665
      9613      9612      9664      9666      9614      9612      9664      9665
      9614      9612      9664      9666      9614      9616      9618      9619
      9614      9616      9620      9621      9614      9616      9620      9622
      9615      9614      9612      9664      9615      9614      9616      9617
      9615      9614      9616      9618      9615      9614      9616      9620
      9616      9614      9612      9664      9616      9620      9622      9623
      9616      9620      9622      9624      9617      9616      9618      9619
      9617      9616      9620      9621      9617      9616      9620      9622
      9618      9616      9620      9621      9618      9616      9620      9622
      9619      9618      9616      9620      9620      9622      9624      9625
      9620      9622      9624      9626      9620      9622      9624      9627
      9621      9620      9622      9623      9621      9620      9622      9624
      9622      9624      9627      9628      9622      9624      9627      9629
      9622      9624      9627      9630      9623      9622      9624      9625
      9623      9622      9624      9626      9623      9622      9624      9627
      9624      9627      9630      9631      9624      9627      9630      9632
      9624      9627      9630      9633      9625      9624      9627      9628
      9625      9624      9627      9629      9625      9624      9627      9630
      9626      9624      9627      9628      9626      9624      9627      9629
      9626      9624      9627      9630      9627      9630      9633      9634
      9627      9630      9633      9635      9627      9630      9633      9636
      9628      9627      9630      9631      9628      9627      9630      9632
      9628      9627      9630      9633      9629      9627      9630      9631
      9629      9627      9630      9632      9629      9627      9630      9633
      9630      9633      9636      9637      9630      9633      9636      9638
      9630      9633      9636      9639      9631      9630      9633      9634
      9631      9630      9633      9635      9631      9630      9633      9636
      9632      9630      9633      9634      9632      9630      9633      9635
      9632      9630      9633      9636      9633      9636      9639      9640
      9633      9636      9639      9641      9633      9636      9639      9642
      9634      9633      9636      9637      9634      9633      9636      9638
      9634      9633      9636      9639      9635      9633      9636      9637
      9635      9633      9636      9638      9635      9633      9636      9639
      9636      9639      9642      9643      9636      9639      9642      9644
      9636      9639      9642      9645      9637      9636      9639      9640
      9637      9636      9639      9641      9637      9636      9639      9642
      9638      9636      9639      9640      9638      9636      9639      9641
      9638      9636      9639      9642      9639      9642      9645      9646
      9639      9642      9645      9647      9639      9642      9645      9648
      9640      9639      9642      9643      9640      9639      9642      9644
      9640      9639      9642      9645      9641      9639      9642      9643
      9641      9639      9642      9644      9641      9639      9642      9645
      9642      9645      9648      9649      9642      9645      9648      9650
      9642      9645      9648      9651      9643      9642      9645      9646
      9643      9642      9645      9647      9643      9642      9645      9648
      9644      9642      9645      9646      9644      9642      9645      9647
      9644      9642      9645      9648      9645      9648      9651      9652
      9645      9648      9651      9653      9645      9648      9651      9654
      9646      9645      9648      9649      9646      9645      9648      9650
      9646      9645      9648      9651      9647      9645      9648      9649
      9647      9645      9648      9650      9647      9645      9648      9651
      9648      9651      9654      9655      9648      9651      9654      9656
      9648      9651      9654      9657      9649      9648      9651      9652
      9649      9648      9651      9653      9649      9648      9651      9654
      9650      9648      9651      9652      9650      9648      9651      9653
      9650      9648      9651      9654      9651      9654      9657      9658
      9651      9654      9657      9659      9651      9654      9657      9660
      9652      9651      9654      9655      9652      9651      9654      9656
      9652      9651      9654      9657      9653      9651      9654      9655
      9653      9651      9654      9656      9653      9651      9654      9657
      9654      9657      9660      9661      9654      9657      9660      9662
      9654      9657      9660      9663      9655      9654      9657      9658
      9655      9654      9657      9659      9655      9654      9657      9660
      9656      9654      9657      9658      9656      9654      9657      9659
      9656      9654      9657      9660      9658      9657      9660      9661
      9658      9657      9660      9662      9658      9657      9660      9663
      9659      9657      9660      9661      9659      9657      9660      9662
      9659      9657      9660      9663      9664      9666      9669      9670
      9664      9666      9669      9671      9664      9666      9669      9672
      9665      9664      9666      9667      9665      9664      9666      9668
      9665      9664      9666      9669      9666      9669      9672      9673
      9666      9669      9672      9674      9666      9669      9672      9675
      9667      9666      9669      9670      9667      9666      9669      9671
      9667      9666      9669      9672      9668      9666      9669      9670
      9668      9666      9669      9671      9668      9666      9669      9672
      9669      9672      9675      9676      9669      9672      9675      9677
      9669      9672      9675      9678      9670      9669      9672      9673
      9670      9669      9672      9674      9670      9669      9672      9675
      9671      9669      9672      9673      9671      9669      9672      9674
      9671      9669      9672      9675      9672      9675      9678      9679
      9672      9675      9678      9680      9672      9675      9678      9681
      9673      9672      9675      9676      9673      9672      9675      9677
      9673      9672      9675      9678      9674      9672      9675      9676
      9674      9672      9675      9677      9674      9672      9675      9678
      9675      9678      9681      9682      9675      9678      9681      9683
      9675      9678      9681      9684      9676      9675      9678      9679
      9676      9675      9678      9680      9676      9675      9678      9681
      9677      9675      9678      9679      9677      9675      9678      9680
      9677      9675      9678      9681      9678      9681      9684      9685
      9678      9681      9684      9686      9678      9681      9684      9687
      9679      9678      9681      9682      9679      9678      9681      9683
      9679      9678      9681      9684      9680      9678      9681      9682
      9680      9678      9681      9683      9680      9678      9681      9684
      9681      9684      9687      9688      9681      9684      9687      9689
      9682      9681      9684      9685      9682      9681      9684      9686
      9682      9681      9684      9687      9683      9681      9684      9685
      9683      9681      9684      9686      9683      9681      9684      9687
      9684      9687      9689      9690      9684      9687      9689      9691
      9685      9684      9687      9688      9685      9684      9687      9689
      9686      9684      9687      9688      9686      9684      9687      9689
      9687      9689      9691      9692      9687      9689      9691      9693
      9687      9689      9691      9694      9688      9687      9689      9690
      9688      9687      9689      9691      9689      9691      9694      9695
      9689      9691      9694      9696      9689      9691      9694      9697
      9690      9689      9691      9692      9690      9689      9691      9693
      9690      9689      9691      9694      9691      9694      9697      9698
      9691      9694      9697      9699      9691      9694      9697      9700
      9692      9691      9694      9695      9692      9691      9694      9696
      9692      9691      9694      9697      9693      9691      9694      9695
      9693      9691      9694      9696      9693      9691      9694      9697
      9694      9697      9700      9701      9694      9697      9700      9702
      9694      9697      9700      9703      9695      9694      9697      9698
      9695      9694      9697      9699      9695      9694      9697      9700
      9696      9694      9697      9698      9696      9694      9697      9699
      9696      9694      9697      9700      9697      9700      9703      9704
      9697      9700      9703      9705      9697      9700      9703      9706
      9698      9697      9700      9701      9698      9697      9700      9702
      9698      9697      9700      9703      9699      9697      9700      9701
      9699      9697      9700      9702      9699      9697      9700      9703
      9700      9703      9706      9707      9700      9703      9706      9708
      9700      9703      9706      9709      9701      9700      9703      9704
      9701      9700      9703      9705      9701      9700      9703      9706
      9702      9700      9703      9704      9702      9700      9703      9705
      9702      9700      9703      9706      9703      9706      9709      9710
      9703      9706      9709      9711      9703      9706      9709      9712
      9704      9703      9706      9707      9704      9703      9706      9708
      9704      9703      9706      9709      9705      9703      9706      9707
      9705      9703      9706      9708      9705      9703      9706      9709
      9706      9709      9712      9713      9706      9709      9712      9714
      9706      9709      9712      9715      9707      9706      9709      9710
      9707      9706      9709      9711      9707      9706      9709      9712
      9708      9706      9709      9710      9708      9706      9709      9711
      9708      9706      9709      9712      9710      9709      9712      9713
      9710      9709      9712      9714      9710      9709      9712      9715
      9711      9709      9712      9713      9711      9709      9712      9714
      9711      9709      9712      9715     14301     14305     14308     14309
     14301     14305     14308     14310     14301     14305     14308     14314
     14302     14301     14305     14306     14302     14301     14305     14307
     14302     14301     14305     14308     14303     14301     14305     14306
     14303     14301     14305     14307     14303     14301     14305     14308
     14304     14301     14305     14306     14304     14301     14305     14307
     14304     14301     14305     14308     14305     14308     14314     14311
     14306     14305     14308     14309     14306     14305     14308     14310
     14306     14305     14308     14314     14307     14305     14308     14309
     14307     14305     14308     14310     14307     14305     14308     14314
     14308     14314     14311     14312     14308     14314     14311     14313
     14308     14314     14311     14315     14309     14308     14314     14311
     14310     14308     14314     14311     14311     14315     14316     14317
     14311     14315     14316     14318     14311     14315     14316     14319
     14312     14311     14315     14316     14313     14311     14315     14316
     14314     14311     14315     14316     14315     14316     14319     14320
     14315     14316     14319     14321     14315     14316     14319     14327
     14316     14319     14321     14322     14316     14319     14327     14328
     14316     14319     14327     14329     14316     14319     14327     14330
     14317     14316     14319     14320     14317     14316     14319     14321
     14317     14316     14319     14327     14318     14316     14319     14320
     14318     14316     14319     14321     14318     14316     14319     14327
     14319     14321     14322     14323     14319     14321     14322     14324
     14319     14327     14330     14331     14320     14319     14321     14322
     14320     14319     14327     14328     14320     14319     14327     14329
     14320     14319     14327     14330     14321     14319     14327     14328
     14321     14319     14327     14329     14321     14319     14327     14330
     14321     14322     14324     14325     14321     14322     14324     14326
     14321     14322     14324     14336     14322     14321     14319     14327
     14322     14324     14336     14337     14322     14324     14336     14338
     14322     14324     14336     14339     14323     14322     14324     14325
     14323     14322     14324     14326     14323     14322     14324     14336
     14324     14336     14339     14340     14324     14336     14339     14341
     14324     14336     14339     14342     14325     14324     14336     14337
     14325     14324     14336     14338     14325     14324     14336     14339
     14326     14324     14336     14337     14326     14324     14336     14338
     14326     14324     14336     14339     14327     14330     14331     14332
     14327     14330     14331     14333     14328     14327     14330     14331
     14329     14327     14330     14331     14330     14331     14333     14334
     14330     14331     14333     14335     14330     14331     14333     14383
     14331     14333     14383     14384     14331     14333     14383     14385
     14331     14333     14383     14386     14332     14331     14333     14334
     14332     14331     14333     14335     14332     14331     14333     14383
     14333     14383     14386     14387     14333     14383     14386     14388
     14333     14383     14386     14389     14334     14333     14383     14384
     14334     14333     14383     14385     14334     14333     14383     14386
     14335     14333     14383     14384     14335     14333     14383     14385
     14335     14333     14383     14386     14336     14339     14342     14343
     14336     14339     14342     14344     14337     14336     14339     14340
     14337     14336     14339     14341     14337     14336     14339     14342
     14338     14336     14339     14340     14338     14336     14339     14341
     14338     14336     14339     14342     14339     14342     14344     14345
     14339     14342     14344     14346     14340     14339     14342     14343
     14340     14339     14342     14344     14341     14339     14342     14343
     14341     14339     14342     14344     14342     14344     14346     14347
     14342     14344     14346     14348     14342     14344     14346     14349
     14343     14342     14344     14345     14343     14342     14344     14346
     14344     14346     14349     14350     14344     14346     14349     14351
     14345     14344     14346     14347     14345     14344     14346     14348
     14345     14344     14346     14349     14346     14349     14351     14352
     14346     14349     14351     14353     14347     14346     14349     14350
     14347     14346     14349     14351     14348     14346     14349     14350
     14348     14346     14349     14351     14349     14351     14353     14354
     14349     14351     14353     14355     14349     14351     14353     14356
     14350     14349     14351     14352     14350     14349     14351     14353
     14351     14353     14356     14357     14351     14353     14356     14358
     14352     14351     14353     14354     14352     14351     14353     14355
     14352     14351     14353     14356     14353     14356     14358     14359
     14353     14356     14358     14360     14354     14353     14356     14357
     14354     14353     14356     14358     14355     14353     14356     14357
     14355     14353     14356     14358     14356     14358     14360     14361
     14356     14358     14360     14362     14356     14358     14360     14363
     14357     14356     14358     14359     14357     14356     14358     14360
     14358     14360     14363     14364     14358     14360     14363     14365
     14359     14358     14360     14361     14359     14358     14360     14362
     14359     14358     14360     14363     14360     14363     14365     14366
     14360     14363     14365     14367     14361     14360     14363     14364
     14361     14360     14363     14365     14362     14360     14363     14364
     14362     14360     14363     14365     14363     14365     14367     14368
     14363     14365     14367     14369     14363     14365     14367     14370
     14364     14363     14365     14366     14364     14363     14365     14367
     14365     14367     14370     14371     14365     14367     14370     14372
     14365     14367     14370     14373     14366     14365     14367     14368
     14366     14365     14367     14369     14366     14365     14367     14370
     14367     14370     14373     14374     14367     14370     14373     14375
     14367     14370     14373     14376     14368     14367     14370     14371
     14368     14367     14370     14372     14368     14367     14370     14373
     14369     14367     14370     14371     14369     14367     14370     14372
     14369     14367     14370     14373     14370     14373     14376     14377
     14370     14373     14376     14378     14370     14373     14376     14379
     14371     14370     14373     14374     14371     14370     14373     14375
     14371     14370     14373     14376     14372     14370     14373     14374
     14372     14370     14373     14375     14372     14370     14373     14376
     14373     14376     14379     14380     14373     14376     14379     14381
     14373     14376     14379     14382     14374     14373     14376     14377
     14374     14373     14376     14378     14374     14373     14376     14379
     14375     14373     14376     14377     14375     14373     14376     14378
     14375     14373     14376     14379     14377     14376     14379     14380
     14377     14376     14379     14381     14377     14376     14379     14382
     14378     14376     14379     14380     14378     14376     14379     14381
     14378     14376     14379     14382     14383     14386     14389     14390
     14383     14386     14389     14391     14383     14386     14389     14392
     14384     14383     14386     14387     14384     14383     14386     14388
     14384     14383     14386     14389     14385     14383     14386     14387
     14385     14383     14386     14388     14385     14383     14386     14389
     14386     14389     14392     14393     14386     14389     14392     14394
     14386     14389     14392     14395     14387     14386     14389     14390
     14387     14386     14389     14391     14387     14386     14389     14392
     14388     14386     14389     14390     14388     14386     14389     14391
     14388     14386     14389     14392     14389     14392     14395     14396
     14389     14392     14395     14397     14389     14392     14395     14398
     14390     14389     14392     14393     14390     14389     14392     14394
     14390     14389     14392     14395     14391     14389     14392     14393
     14391     14389     14392     14394     14391     14389     14392     14395
     14392     14395     14398     14399     14392     14395     14398     14400
     14392     14395     14398     14401     14393     14392     14395     14396
     14393     14392     14395     14397     14393     14392     14395     14398
     14394     14392     14395     14396     14394     14392     14395     14397
     14394     14392     14395     14398     14395     14398     14401     14402
     14395     14398     14401     14403     14395     14398     14401     14404
     14396     14395     14398     14399     14396     14395     14398     14400
     14396     14395     14398     14401     14397     14395     14398     14399
     14397     14395     14398     14400     14397     14395     14398     14401
     14398     14401     14404     14405     14398     14401     14404     14406
     14398     14401     14404     14407     14399     14398     14401     14402
     14399     14398     14401     14403     14399     14398     14401     14404
     14400     14398     14401     14402     14400     14398     14401     14403
     14400     14398     14401     14404     14401     14404     14407     14408
     14401     14404     14407     14409     14401     14404     14407     14410
     14402     14401     14404     14405     14402     14401     14404     14406
     14402     14401     14404     14407     14403     14401     14404     14405
     14403     14401     14404     14406     14403     14401     14404     14407
     14404     14407     14410     14411     14404     14407     14410     14412
     14404     14407     14410     14413     14405     14404     14407     14408
     14405     14404     14407     14409     14405     14404     14407     14410
     14406     14404     14407     14408     14406     14404     14407     14409
     14406     14404     14407     14410     14407     14410     14413     14414
     14407     14410     14413     14415     14407     14410     14413     14416
     14408     14407     14410     14411     14408     14407     14410     14412
     14408     14407     14410     14413     14409     14407     14410     14411
     14409     14407     14410     14412     14409     14407     14410     14413
     14410     14413     14416     14417     14410     14413     14416     14418
     14410     14413     14416     14419     14411     14410     14413     14414
     14411     14410     14413     14415     14411     14410     14413     14416
     14412     14410     14413     14414     14412     14410     14413     14415
     14412     14410     14413     14416     14413     14416     14419     14420
     14413     14416     14419     14421     14413     14416     14419     14422
     14414     14413     14416     14417     14414     14413     14416     14418
     14414     14413     14416     14419     14415     14413     14416     14417
     14415     14413     14416     14418     14415     14413     14416     14419
     14416     14419     14422     14423     14416     14419     14422     14424
     14416     14419     14422     14425     14417     14416     14419     14420
     14417     14416     14419     14421     14417     14416     14419     14422
     14418     14416     14419     14420     14418     14416     14419     14421
     14418     14416     14419     14422     14419     14422     14425     14426
     14419     14422     14425     14427     14419     14422     14425     14428
     14420     14419     14422     14423     14420     14419     14422     14424
     14420     14419     14422     14425     14421     14419     14422     14423
     14421     14419     14422     14424     14421     14419     14422     14425
     14422     14425     14428     14429     14422     14425     14428     14430
     14422     14425     14428     14431     14423     14422     14425     14426
     14423     14422     14425     14427     14423     14422     14425     14428
     14424     14422     14425     14426     14424     14422     14425     14427
     14424     14422     14425     14428     14426     14425     14428     14429
     14426     14425     14428     14430     14426     14425     14428     14431
     14427     14425     14428     14429     14427     14425     14428     14430
     14427     14425     14428     14431      5515      5519      5522      5523
      5515      5519      5522      5553      5515      5561      5558      5553
      5515      5561      5558      5559      5515      5561      5558      5560
      5516      5515      5517      5518      5516      5515      5519      5520
      5516      5515      5519      5521      5516      5515      5519      5522
      5516      5515      5561      5558      5516      5515      5561      5562
      5516      5515      5561      5563      5517      5515      5519      5520
      5517      5515      5519      5521      5517      5515      5519      5522
      5517      5515      5561      5558      5517      5515      5561      5562
      5517      5515      5561      5563      5518      5517      5515      5519
      5518      5517      5515      5561      5519      5515      5561      5558
      5519      5515      5561      5562      5519      5515      5561      5563
      5519      5522      5523      5524      5519      5522      5523      5525
      5519      5522      5553      5551      5519      5522      5553      5554
      5519      5522      5553      5558      5520      5519      5515      5561
      5520      5519      5522      5523      5520      5519      5522      5553
      5521      5519      5515      5561      5521      5519      5522      5523
      5521      5519      5522      5553      5522      5519      5515      5561
      5522      5523      5525      5526      5522      5523      5525      5527
      5522      5523      5525      5528      5522      5553      5551      5528
      5522      5553      5551      5548      5522      5553      5551      5552
      5522      5553      5554      5555      5522      5553      5554      5556
      5522      5553      5554      5557      5522      5553      5558      5559
      5522      5553      5558      5560      5522      5553      5558      5561
      5523      5522      5553      5551      5523      5522      5553      5554
      5523      5522      5553      5558      5523      5525      5528      5529
      5523      5525      5528      5530      5523      5525      5528      5551
      5524      5523      5522      5553      5524      5523      5525      5526
      5524      5523      5525      5527      5524      5523      5525      5528
      5525      5523      5522      5553      5525      5528      5530      5531
      5525      5528      5530      5532      5525      5528      5530      5540
      5525      5528      5551      5548      5525      5528      5551      5552
      5525      5528      5551      5553      5526      5525      5528      5529
      5526      5525      5528      5530      5526      5525      5528      5551
      5527      5525      5528      5529      5527      5525      5528      5530
      5527      5525      5528      5551      5528      5530      5532      5533
      5528      5530      5532      5534      5528      5530      5532      5535
      5528      5530      5540      5538      5528      5530      5540      5541
      5528      5530      5540      5545      5528      5551      5548      5545
      5528      5551      5548      5549      5528      5551      5548      5550
      5528      5551      5553      5554      5528      5551      5553      5558
      5529      5528      5530      5531      5529      5528      5530      5532
      5529      5528      5530      5540      5529      5528      5551      5548
      5529      5528      5551      5552      5529      5528      5551      5553
      5530      5528      5551      5548      5530      5528      5551      5552
      5530      5528      5551      5553      5530      5532      5535      5536
      5530      5532      5535      5537      5530      5532      5535      5538
      5530      5540      5538      5535      5530      5540      5538      5539
      5530      5540      5538      5564      5530      5540      5541      5542
      5530      5540      5541      5543      5530      5540      5541      5544
      5530      5540      5545      5546      5530      5540      5545      5547
      5530      5540      5545      5548      5531      5530      5528      5551
      5531      5530      5532      5533      5531      5530      5532      5534
      5531      5530      5532      5535      5531      5530      5540      5538
      5531      5530      5540      5541      5531      5530      5540      5545
      5532      5530      5528      5551      5532      5530      5540      5538
      5532      5530      5540      5541      5532      5530      5540      5545
      5532      5535      5538      5539      5532      5535      5538      5540
      5532      5535      5538      5564      5533      5532      5530      5540
      5533      5532      5535      5536      5533      5532      5535      5537
      5533      5532      5535      5538      5534      5532      5530      5540
      5534      5532      5535      5536      5534      5532      5535      5537
      5534      5532      5535      5538      5535      5532      5530      5540
      5535      5538      5540      5541      5535      5538      5540      5545
      5535      5538      5564      5565      5535      5538      5564      5566
      5535      5538      5564      5570      5536      5535      5538      5539
      5536      5535      5538      5540      5536      5535      5538      5564
      5537      5535      5538      5539      5537      5535      5538      5540
      5537      5535      5538      5564      5538      5540      5541      5542
      5538      5540      5541      5543      5538      5540      5541      5544
      5538      5540      5545      5546      5538      5540      5545      5547
      5538      5540      5545      5548      5538      5564      5566      5567
      5538      5564      5566      5568      5538      5564      5566      5569
      5538      5564      5570      5571      5538      5564      5570      5572
      5538      5564      5570      5573      5539      5538      5540      5541
      5539      5538      5540      5545      5539      5538      5564      5565
      5539      5538      5564      5566      5539      5538      5564      5570
      5540      5530      5528      5551      5540      5538      5564      5565
      5540      5538      5564      5566      5540      5538      5564      5570
      5540      5545      5548      5549      5540      5545      5548      5550
      5540      5545      5548      5551      5541      5540      5538      5564
      5541      5540      5545      5546      5541      5540      5545      5547
      5541      5540      5545      5548      5542      5541      5540      5545
      5543      5541      5540      5545      5544      5541      5540      5545
      5545      5540      5538      5564      5545      5548      5551      5552
      5545      5548      5551      5553      5546      5545      5548      5549
      5546      5545      5548      5550      5546      5545      5548      5551
      5547      5545      5548      5549      5547      5545      5548      5550
      5547      5545      5548      5551      5548      5551      5553      5554
      5548      5551      5553      5558      5549      5548      5551      5552
      5549      5548      5551      5553      5550      5548      5551      5552
      5550      5548      5551      5553      5551      5553      5554      5555
      5551      5553      5554      5556      5551      5553      5554      5557
      5551      5553      5558      5559      5551      5553      5558      5560
      5551      5553      5558      5561      5552      5551      5553      5554
      5552      5551      5553      5558      5553      5558      5561      5562
      5553      5558      5561      5563      5554      5553      5558      5559
      5554      5553      5558      5560      5554      5553      5558      5561
      5555      5554      5553      5558      5556      5554      5553      5558
      5557      5554      5553      5558      5559      5558      5561      5562
      5559      5558      5561      5563      5560      5558      5561      5562
      5560      5558      5561      5563      5564      5570      5573      5574
      5564      5570      5573      5575      5564      5570      5573      5576
      5565      5564      5566      5567      5565      5564      5566      5568
      5565      5564      5566      5569      5565      5564      5570      5571
      5565      5564      5570      5572      5565      5564      5570      5573
      5566      5564      5570      5571      5566      5564      5570      5572
      5566      5564      5570      5573      5567      5566      5564      5570
      5568      5566      5564      5570      5569      5566      5564      5570
      5570      5573      5576      5577      5570      5573      5576      5578
      5570      5573      5576      5579      5571      5570      5573      5574
      5571      5570      5573      5575      5571      5570      5573      5576
      5572      5570      5573      5574      5572      5570      5573      5575
      5572      5570      5573      5576      5573      5576      5579      5580
      5573      5576      5579      5581      5573      5576      5579      5585
      5574      5573      5576      5577      5574      5573      5576      5578
      5574      5573      5576      5579      5575      5573      5576      5577
      5575      5573      5576      5578      5575      5573      5576      5579
      5576      5579      5581      5582      5576      5579      5581      5583
      5576      5579      5581      5584      5576      5579      5585      5586
      5576      5579      5585      5587      5576      5579      5585      5588
      5577      5576      5579      5580      5577      5576      5579      5581
      5577      5576      5579      5585      5578      5576      5579      5580
      5578      5576      5579      5581      5578      5576      5579      5585
      5580      5579      5581      5582      5580      5579      5581      5583
      5580      5579      5581      5584      5580      5579      5585      5586
      5580      5579      5585      5587      5580      5579      5585      5588
      5581      5579      5585      5586      5581      5579      5585      5587
      5581      5579      5585      5588      5582      5581      5579      5585
      5583      5581      5579      5585      5584      5581      5579      5585
      2269      2270      2285      2286      2269      2270      2285      2287
      2269      2270      2285      2291      2270      2269      2273      2274
      2270      2269      2273      2275      2270      2269      2273      2276
      2270      2269      2277      2278      2270      2269      2277      2279
      2270      2269      2277      2280      2270      2269      2281      2282
      2270      2269      2281      2283      2270      2269      2281      2284
      2270      2285      2291      2288      2271      2270      2269      2273
      2271      2270      2269      2277      2271      2270      2269      2281
      2271      2270      2285      2286      2271      2270      2285      2287
      2271      2270      2285      2291      2272      2270      2269      2273
      2272      2270      2269      2277      2272      2270      2269      2281
      2272      2270      2285      2286      2272      2270      2285      2287
      2272      2270      2285      2291      2273      2269      2270      2285
      2273      2269      2277      2278      2273      2269      2277      2279
      2273      2269      2277      2280      2273      2269      2281      2282
      2273      2269      2281      2283      2273      2269      2281      2284
      2274      2273      2269      2277      2274      2273      2269      2281
      2275      2273      2269      2277      2275      2273      2269      2281
      2276      2273      2269      2277      2276      2273      2269      2281
      2277      2269      2270      2285      2277      2269      2281      2282
      2277      2269      2281      2283      2277      2269      2281      2284
      2278      2277      2269      2281      2279      2277      2269      2281
      2280      2277      2269      2281      2281      2269      2270      2285
      2285      2291      2288      2289      2285      2291      2288      2290
      2285      2291      2288      2292      2286      2285      2291      2288
      2287      2285      2291      2288      2288      2292      2293      2294
      2288      2292      2293      2295      2288      2292      2293      2296
      2289      2288      2292      2293      2290      2288      2292      2293
      2291      2288      2292      2293      2292      2293      2296      2297
      2292      2293      2296      2298      2292      2293      2296      2304
      2293      2296      2298      2299      2293      2296      2304      2305
      2293      2296      2304      2306      2293      2296      2304      2307
      2294      2293      2296      2297      2294      2293      2296      2298
      2294      2293      2296      2304      2295      2293      2296      2297
      2295      2293      2296      2298      2295      2293      2296      2304
      2296      2298      2299      2300      2296      2298      2299      2301
      2296      2304      2307      2308      2297      2296      2298      2299
      2297      2296      2304      2305      2297      2296      2304      2306
      2297      2296      2304      2307      2298      2296      2304      2305
      2298      2296      2304      2306      2298      2296      2304      2307
      2298      2299      2301      2302      2298      2299      2301      2303
      2298      2299      2301      2313      2299      2298      2296      2304
      2299      2301      2313      2314      2299      2301      2313      2315
      2299      2301      2313      2316      2300      2299      2301      2302
      2300      2299      2301      2303      2300      2299      2301      2313
      2301      2313      2316      2317      2301      2313      2316      2318
      2301      2313      2316      2319      2302      2301      2313      2314
      2302      2301      2313      2315      2302      2301      2313      2316
      2303      2301      2313      2314      2303      2301      2313      2315
      2303      2301      2313      2316      2304      2307      2308      2309
      2304      2307      2308      2310      2305      2304      2307      2308
      2306      2304      2307      2308      2307      2308      2310      2311
      2307      2308      2310      2312      2307      2308      2310      2360
      2308      2310      2360      2361      2308      2310      2360      2362
      2308      2310      2360      2363      2309      2308      2310      2311
      2309      2308      2310      2312      2309      2308      2310      2360
      2310      2360      2363      2364      2310      2360      2363      2365
      2310      2360      2363      2366      2311      2310      2360      2361
      2311      2310      2360      2362      2311      2310      2360      2363
      2312      2310      2360      2361      2312      2310      2360      2362
      2312      2310      2360      2363      2313      2316      2319      2320
      2313      2316      2319      2321      2314      2313      2316      2317
      2314      2313      2316      2318      2314      2313      2316      2319
      2315      2313      2316      2317      2315      2313      2316      2318
      2315      2313      2316      2319      2316      2319      2321      2322
      2316      2319      2321      2323      2317      2316      2319      2320
      2317      2316      2319      2321      2318      2316      2319      2320
      2318      2316      2319      2321      2319      2321      2323      2324
      2319      2321      2323      2325      2319      2321      2323      2326
      2320      2319      2321      2322      2320      2319      2321      2323
      2321      2323      2326      2327      2321      2323      2326      2328
      2322      2321      2323      2324      2322      2321      2323      2325
      2322      2321      2323      2326      2323      2326      2328      2329
      2323      2326      2328      2330      2324      2323      2326      2327
      2324      2323      2326      2328      2325      2323      2326      2327
      2325      2323      2326      2328      2326      2328      2330      2331
      2326      2328      2330      2332      2326      2328      2330      2333
      2327      2326      2328      2329      2327      2326      2328      2330
      2328      2330      2333      2334      2328      2330      2333      2335
      2329      2328      2330      2331      2329      2328      2330      2332
      2329      2328      2330      2333      2330      2333      2335      2336
      2330      2333      2335      2337      2331      2330      2333      2334
      2331      2330      2333      2335      2332      2330      2333      2334
      2332      2330      2333      2335      2333      2335      2337      2338
      2333      2335      2337      2339      2333      2335      2337      2340
      2334      2333      2335      2336      2334      2333      2335      2337
      2335      2337      2340      2341      2335      2337      2340      2342
      2336      2335      2337      2338      2336      2335      2337      2339
      2336      2335      2337      2340      2337      2340      2342      2343
      2337      2340      2342      2344      2338      2337      2340      2341
      2338      2337      2340      2342      2339      2337      2340      2341
      2339      2337      2340      2342      2340      2342      2344      2345
      2340      2342      2344      2346      2340      2342      2344      2347
      2341      2340      2342      2343      2341      2340      2342      2344
      2342      2344      2347      2348      2342      2344      2347      2349
      2342      2344      2347      2350      2343      2342      2344      2345
      2343      2342      2344      2346      2343      2342      2344      2347
      2344      2347      2350      2351      2344      2347      2350      2352
      2344      2347      2350      2353      2345      2344      2347      2348
      2345      2344      2347      2349      2345      2344      2347      2350
      2346      2344      2347      2348      2346      2344      2347      2349
      2346      2344      2347      2350      2347      2350      2353      2354
      2347      2350      2353      2355      2347      2350      2353      2356
      2348      2347      2350      2351      2348      2347      2350      2352
      2348      2347      2350      2353      2349      2347      2350      2351
      2349      2347      2350      2352      2349      2347      2350      2353
      2350      2353      2356      2357      2350      2353      2356      2358
      2350      2353      2356      2359      2351      2350      2353      2354
      2351      2350      2353      2355      2351      2350      2353      2356
      2352      2350      2353      2354      2352      2350      2353      2355
      2352      2350      2353      2356      2354      2353      2356      2357
      2354      2353      2356      2358      2354      2353      2356      2359
      2355      2353      2356      2357      2355      2353      2356      2358
      2355      2353      2356      2359      2360      2363      2366      2367
      2360      2363      2366      2368      2360      2363      2366      2369
      2361      2360      2363      2364      2361      2360      2363      2365
      2361      2360      2363      2366      2362      2360      2363      2364
      2362      2360      2363      2365      2362      2360      2363      2366
      2363      2366      2369      2370      2363      2366      2369      2371
      2363      2366      2369      2372      2364      2363      2366      2367
      2364      2363      2366      2368      2364      2363      2366      2369
      2365      2363      2366      2367      2365      2363      2366      2368
      2365      2363      2366      2369      2366      2369      2372      2373
      2366      2369      2372      2374      2366      2369      2372      2375
      2367      2366      2369      2370      2367      2366      2369      2371
      2367      2366      2369      2372      2368      2366      2369      2370
      2368      2366      2369      2371      2368      2366      2369      2372
      2369      2372      2375      2376      2369      2372      2375      2377
      2369      2372      2375      2378      2370      2369      2372      2373
      2370      2369      2372      2374      2370      2369      2372      2375
      2371      2369      2372      2373      2371      2369      2372      2374
      2371      2369      2372      2375      2372      2375      2378      2379
      2372      2375      2378      2380      2372      2375      2378      2381
      2373      2372      2375      2376      2373      2372      2375      2377
      2373      2372      2375      2378      2374      2372      2375      2376
      2374      2372      2375      2377      2374      2372      2375      2378
      2375      2378      2381      2382      2375      2378      2381      2383
      2375      2378      2381      2384      2376      2375      2378      2379
      2376      2375      2378      2380      2376      2375      2378      2381
      2377      2375      2378      2379      2377      2375      2378      2380
      2377      2375      2378      2381      2378      2381      2384      2385
      2378      2381      2384      2386      2378      2381      2384      2387
      2379      2378      2381      2382      2379      2378      2381      2383
      2379      2378      2381      2384      2380      2378      2381      2382
      2380      2378      2381      2383      2380      2378      2381      2384
      2381      2384      2387      2388      2381      2384      2387      2389
      2381      2384      2387      2390      2382      2381      2384      2385
      2382      2381      2384      2386      2382      2381      2384      2387
      2383      2381      2384      2385      2383      2381      2384      2386
      2383      2381      2384      2387      2384      2387      2390      2391
      2384      2387      2390      2392      2384      2387      2390      2393
      2385      2384      2387      2388      2385      2384      2387      2389
      2385      2384      2387      2390      2386      2384      2387      2388
      2386      2384      2387      2389      2386      2384      2387      2390
      2387      2390      2393      2394      2387      2390      2393      2395
      2387      2390      2393      2396      2388      2387      2390      2391
      2388      2387      2390      2392      2388      2387      2390      2393
      2389      2387      2390      2391      2389      2387      2390      2392
      2389      2387      2390      2393      2390      2393      2396      2397
      2390      2393      2396      2398      2390      2393      2396      2399
      2391      2390      2393      2394      2391      2390      2393      2395
      2391      2390      2393      2396      2392      2390      2393      2394
      2392      2390      2393      2395      2392      2390      2393      2396
      2393      2396      2399      2400      2393      2396      2399      2401
      2393      2396      2399      2402      2394      2393      2396      2397
      2394      2393      2396      2398      2394      2393      2396      2399
      2395      2393      2396      2397      2395      2393      2396      2398
      2395      2393      2396      2399      2396      2399      2402      2403
      2396      2399      2402      2404      2396      2399      2402      2405
      2397      2396      2399      2400      2397      2396      2399      2401
      2397      2396      2399      2402      2398      2396      2399      2400
      2398      2396      2399      2401      2398      2396      2399      2402
      2399      2402      2405      2406      2399      2402      2405      2407
      2399      2402      2405      2408      2400      2399      2402      2403
      2400      2399      2402      2404      2400      2399      2402      2405
      2401      2399      2402      2403      2401      2399      2402      2404
      2401      2399      2402      2405      2403      2402      2405      2406
      2403      2402      2405      2407      2403      2402      2405      2408
      2404      2402      2405      2406      2404      2402      2405      2407
      2404      2402      2405      2408      5589      5593      5596      5597
      5589      5593      5596      5627      5589      5635      5632      5627
      5589      5635      5632      5633      5589      5635      5632      5634
      5590      5589      5591      5592      5590      5589      5593      5594
      5590      5589      5593      5595      5590      5589      5593      5596
      5590      5589      5635      5632      5590      5589      5635      5636
      5590      5589      5635      5637      5591      5589      5593      5594
      5591      5589      5593      5595      5591      5589      5593      5596
      5591      5589      5635      5632      5591      5589      5635      5636
      5591      5589      5635      5637      5592      5591      5589      5593
      5592      5591      5589      5635      5593      5589      5635      5632
      5593      5589      5635      5636      5593      5589      5635      5637
      5593      5596      5597      5598      5593      5596      5597      5599
      5593      5596      5627      5625      5593      5596      5627      5628
      5593      5596      5627      5632      5594      5593      5589      5635
      5594      5593      5596      5597      5594      5593      5596      5627
      5595      5593      5589      5635      5595      5593      5596      5597
      5595      5593      5596      5627      5596      5593      5589      5635
      5596      5597      5599      5600      5596      5597      5599      5601
      5596      5597      5599      5602      5596      5627      5625      5602
      5596      5627      5625      5622      5596      5627      5625      5626
      5596      5627      5628      5629      5596      5627      5628      5630
      5596      5627      5628      5631      5596      5627      5632      5633
      5596      5627      5632      5634      5596      5627      5632      5635
      5597      5596      5627      5625      5597      5596      5627      5628
      5597      5596      5627      5632      5597      5599      5602      5603
      5597      5599      5602      5604      5597      5599      5602      5625
      5598      5597      5596      5627      5598      5597      5599      5600
      5598      5597      5599      5601      5598      5597      5599      5602
      5599      5597      5596      5627      5599      5602      5604      5605
      5599      5602      5604      5606      5599      5602      5604      5614
      5599      5602      5625      5622      5599      5602      5625      5626
      5599      5602      5625      5627      5600      5599      5602      5603
      5600      5599      5602      5604      5600      5599      5602      5625
      5601      5599      5602      5603      5601      5599      5602      5604
      5601      5599      5602      5625      5602      5604      5606      5607
      5602      5604      5606      5608      5602      5604      5606      5609
      5602      5604      5614      5612      5602      5604      5614      5615
      5602      5604      5614      5619      5602      5625      5622      5619
      5602      5625      5622      5623      5602      5625      5622      5624
      5602      5625      5627      5628      5602      5625      5627      5632
      5603      5602      5604      5605      5603      5602      5604      5606
      5603      5602      5604      5614      5603      5602      5625      5622
      5603      5602      5625      5626      5603      5602      5625      5627
      5604      5602      5625      5622      5604      5602      5625      5626
      5604      5602      5625      5627      5604      5606      5609      5610
      5604      5606      5609      5611      5604      5606      5609      5612
      5604      5614      5612      5609      5604      5614      5612      5613
      5604      5614      5612      5638      5604      5614      5615      5616
      5604      5614      5615      5617      5604      5614      5615      5618
      5604      5614      5619      5620      5604      5614      5619      5621
      5604      5614      5619      5622      5605      5604      5602      5625
      5605      5604      5606      5607      5605      5604      5606      5608
      5605      5604      5606      5609      5605      5604      5614      5612
      5605      5604      5614      5615      5605      5604      5614      5619
      5606      5604      5602      5625      5606      5604      5614      5612
      5606      5604      5614      5615      5606      5604      5614      5619
      5606      5609      5612      5613      5606      5609      5612      5614
      5606      5609      5612      5638      5607      5606      5604      5614
      5607      5606      5609      5610      5607      5606      5609      5611
      5607      5606      5609      5612      5608      5606      5604      5614
      5608      5606      5609      5610      5608      5606      5609      5611
      5608      5606      5609      5612      5609      5606      5604      5614
      5609      5612      5614      5615      5609      5612      5614      5619
      5609      5612      5638      5639      5609      5612      5638      5640
      5609      5612      5638      5644      5610      5609      5612      5613
      5610      5609      5612      5614      5610      5609      5612      5638
      5611      5609      5612      5613      5611      5609      5612      5614
      5611      5609      5612      5638      5612      5614      5615      5616
      5612      5614      5615      5617      5612      5614      5615      5618
      5612      5614      5619      5620      5612      5614      5619      5621
      5612      5614      5619      5622      5612      5638      5640      5641
      5612      5638      5640      5642      5612      5638      5640      5643
      5612      5638      5644      5645      5612      5638      5644      5646
      5612      5638      5644      5647      5613      5612      5614      5615
      5613      5612      5614      5619      5613      5612      5638      5639
      5613      5612      5638      5640      5613      5612      5638      5644
      5614      5604      5602      5625      5614      5612      5638      5639
      5614      5612      5638      5640      5614      5612      5638      5644
      5614      5619      5622      5623      5614      5619      5622      5624
      5614      5619      5622      5625      5615      5614      5612      5638
      5615      5614      5619      5620      5615      5614      5619      5621
      5615      5614      5619      5622      5616      5615      5614      5619
      5617      5615      5614      5619      5618      5615      5614      5619
      5619      5614      5612      5638      5619      5622      5625      5626
      5619      5622      5625      5627      5620      5619      5622      5623
      5620      5619      5622      5624      5620      5619      5622      5625
      5621      5619      5622      5623      5621      5619      5622      5624
      5621      5619      5622      5625      5622      5625      5627      5628
      5622      5625      5627      5632      5623      5622      5625      5626
      5623      5622      5625      5627      5624      5622      5625      5626
      5624      5622      5625      5627      5625      5627      5628      5629
      5625      5627      5628      5630      5625      5627      5628      5631
      5625      5627      5632      5633      5625      5627      5632      5634
      5625      5627      5632      5635      5626      5625      5627      5628
      5626      5625      5627      5632      5627      5632      5635      5636
      5627      5632      5635      5637      5628      5627      5632      5633
      5628      5627      5632      5634      5628      5627      5632      5635
      5629      5628      5627      5632      5630      5628      5627      5632
      5631      5628      5627      5632      5633      5632      5635      5636
      5633      5632      5635      5637      5634      5632      5635      5636
      5634      5632      5635      5637      5638      5644      5647      5648
      5638      5644      5647      5649      5638      5644      5647      5650
      5639      5638      5640      5641      5639      5638      5640      5642
      5639      5638      5640      5643      5639      5638      5644      5645
      5639      5638      5644      5646      5639      5638      5644      5647
      5640      5638      5644      5645      5640      5638      5644      5646
      5640      5638      5644      5647      5641      5640      5638      5644
      5642      5640      5638      5644      5643      5640      5638      5644
      5644      5647      5650      5651      5644      5647      5650      5652
      5644      5647      5650      5653      5645      5644      5647      5648
      5645      5644      5647      5649      5645      5644      5647      5650
      5646      5644      5647      5648      5646      5644      5647      5649
      5646      5644      5647      5650      5647      5650      5653      5654
      5647      5650      5653      5655      5647      5650      5653      5659
      5648      5647      5650      5651      5648      5647      5650      5652
      5648      5647      5650      5653      5649      5647      5650      5651
      5649      5647      5650      5652      5649      5647      5650      5653
      5650      5653      5655      5656      5650      5653      5655      5657
      5650      5653      5655      5658      5650      5653      5659      5660
      5650      5653      5659      5661      5650      5653      5659      5662
      5651      5650      5653      5654      5651      5650      5653      5655
      5651      5650      5653      5659      5652      5650      5653      5654
      5652      5650      5653      5655      5652      5650      5653      5659
      5654      5653      5655      5656      5654      5653      5655      5657
      5654      5653      5655      5658      5654      5653      5659      5660
      5654      5653      5659      5661      5654      5653      5659      5662
      5655      5653      5659      5660      5655      5653      5659      5661
      5655      5653      5659      5662      5656      5655      5653      5659
      5657      5655      5653      5659      5658      5655      5653      5659
      5663      5667      5670      5671      5663      5667      5670      5701
      5663      5709      5706      5701      5663      5709      5706      5707
      5663      5709      5706      5708      5664      5663      5665      5666
      5664      5663      5667      5668      5664      5663      5667      5669
      5664      5663      5667      5670      5664      5663      5709      5706
      5664      5663      5709      5710      5664      5663      5709      5711
      5665      5663      5667      5668      5665      5663      5667      5669
      5665      5663      5667      5670      5665      5663      5709      5706
      5665      5663      5709      5710      5665      5663      5709      5711
      5666      5665      5663      5667      5666      5665      5663      5709
      5667      5663      5709      5706      5667      5663      5709      5710
      5667      5663      5709      5711      5667      5670      5671      5672
      5667      5670      5671      5673      5667      5670      5701      5699
      5667      5670      5701      5702      5667      5670      5701      5706
      5668      5667      5663      5709      5668      5667      5670      5671
      5668      5667      5670      5701      5669      5667      5663      5709
      5669      5667      5670      5671      5669      5667      5670      5701
      5670      5667      5663      5709      5670      5671      5673      5674
      5670      5671      5673      5675      5670      5671      5673      5676
      5670      5701      5699      5676      5670      5701      5699      5696
      5670      5701      5699      5700      5670      5701      5702      5703
      5670      5701      5702      5704      5670      5701      5702      5705
      5670      5701      5706      5707      5670      5701      5706      5708
      5670      5701      5706      5709      5671      5670      5701      5699
      5671      5670      5701      5702      5671      5670      5701      5706
      5671      5673      5676      5677      5671      5673      5676      5678
      5671      5673      5676      5699      5672      5671      5670      5701
      5672      5671      5673      5674      5672      5671      5673      5675
      5672      5671      5673      5676      5673      5671      5670      5701
      5673      5676      5678      5679      5673      5676      5678      5680
      5673      5676      5678      5688      5673      5676      5699      5696
      5673      5676      5699      5700      5673      5676      5699      5701
      5674      5673      5676      5677      5674      5673      5676      5678
      5674      5673      5676      5699      5675      5673      5676      5677
      5675      5673      5676      5678      5675      5673      5676      5699
      5676      5678      5680      5681      5676      5678      5680      5682
      5676      5678      5680      5683      5676      5678      5688      5686
      5676      5678      5688      5689      5676      5678      5688      5693
      5676      5699      5696      5693      5676      5699      5696      5697
      5676      5699      5696      5698      5676      5699      5701      5702
      5676      5699      5701      5706      5677      5676      5678      5679
      5677      5676      5678      5680      5677      5676      5678      5688
      5677      5676      5699      5696      5677      5676      5699      5700
      5677      5676      5699      5701      5678      5676      5699      5696
      5678      5676      5699      5700      5678      5676      5699      5701
      5678      5680      5683      5684      5678      5680      5683      5685
      5678      5680      5683      5686      5678      5688      5686      5683
      5678      5688      5686      5687      5678      5688      5686      5712
      5678      5688      5689      5690      5678      5688      5689      5691
      5678      5688      5689      5692      5678      5688      5693      5694
      5678      5688      5693      5695      5678      5688      5693      5696
      5679      5678      5676      5699      5679      5678      5680      5681
      5679      5678      5680      5682      5679      5678      5680      5683
      5679      5678      5688      5686      5679      5678      5688      5689
      5679      5678      5688      5693      5680      5678      5676      5699
      5680      5678      5688      5686      5680      5678      5688      5689
      5680      5678      5688      5693      5680      5683      5686      5687
      5680      5683      5686      5688      5680      5683      5686      5712
      5681      5680      5678      5688      5681      5680      5683      5684
      5681      5680      5683      5685      5681      5680      5683      5686
      5682      5680      5678      5688      5682      5680      5683      5684
      5682      5680      5683      5685      5682      5680      5683      5686
      5683      5680      5678      5688      5683      5686      5688      5689
      5683      5686      5688      5693      5683      5686      5712      5713
      5683      5686      5712      5714      5683      5686      5712      5718
      5684      5683      5686      5687      5684      5683      5686      5688
      5684      5683      5686      5712      5685      5683      5686      5687
      5685      5683      5686      5688      5685      5683      5686      5712
      5686      5688      5689      5690      5686      5688      5689      5691
      5686      5688      5689      5692      5686      5688      5693      5694
      5686      5688      5693      5695      5686      5688      5693      5696
      5686      5712      5714      5715      5686      5712      5714      5716
      5686      5712      5714      5717      5686      5712      5718      5719
      5686      5712      5718      5720      5686      5712      5718      5721
      5687      5686      5688      5689      5687      5686      5688      5693
      5687      5686      5712      5713      5687      5686      5712      5714
      5687      5686      5712      5718      5688      5678      5676      5699
      5688      5686      5712      5713      5688      5686      5712      5714
      5688      5686      5712      5718      5688      5693      5696      5697
      5688      5693      5696      5698      5688      5693      5696      5699
      5689      5688      5686      5712      5689      5688      5693      5694
      5689      5688      5693      5695      5689      5688      5693      5696
      5690      5689      5688      5693      5691      5689      5688      5693
      5692      5689      5688      5693      5693      5688      5686      5712
      5693      5696      5699      5700      5693      5696      5699      5701
      5694      5693      5696      5697      5694      5693      5696      5698
      5694      5693      5696      5699      5695      5693      5696      5697
      5695      5693      5696      5698      5695      5693      5696      5699
      5696      5699      5701      5702      5696      5699      5701      5706
      5697      5696      5699      5700      5697      5696      5699      5701
      5698      5696      5699      5700      5698      5696      5699      5701
      5699      5701      5702      5703      5699      5701      5702      5704
      5699      5701      5702      5705      5699      5701      5706      5707
      5699      5701      5706      5708      5699      5701      5706      5709
      5700      5699      5701      5702      5700      5699      5701      5706
      5701      5706      5709      5710      5701      5706      5709      5711
      5702      5701      5706      5707      5702      5701      5706      5708
      5702      5701      5706      5709      5703      5702      5701      5706
      5704      5702      5701      5706      5705      5702      5701      5706
      5707      5706      5709      5710      5707      5706      5709      5711
      5708      5706      5709      5710      5708      5706      5709      5711
      5712      5718      5721      5722      5712      5718      5721      5723
      5712      5718      5721      5724      5713      5712      5714      5715
      5713      5712      5714      5716      5713      5712      5714      5717
      5713      5712      5718      5719      5713      5712      5718      5720
      5713      5712      5718      5721      5714      5712      5718      5719
      5714      5712      5718      5720      5714      5712      5718      5721
      5715      5714      5712      5718      5716      5714      5712      5718
      5717      5714      5712      5718      5718      5721      5724      5725
      5718      5721      5724      5726      5718      5721      5724      5727
      5719      5718      5721      5722      5719      5718      5721      5723
      5719      5718      5721      5724      5720      5718      5721      5722
      5720      5718      5721      5723      5720      5718      5721      5724
      5721      5724      5727      5728      5721      5724      5727      5729
      5721      5724      5727      5733      5722      5721      5724      5725
      5722      5721      5724      5726      5722      5721      5724      5727
      5723      5721      5724      5725      5723      5721      5724      5726
      5723      5721      5724      5727      5724      5727      5729      5730
      5724      5727      5729      5731      5724      5727      5729      5732
      5724      5727      5733      5734      5724      5727      5733      5735
      5724      5727      5733      5736      5725      5724      5727      5728
      5725      5724      5727      5729      5725      5724      5727      5733
      5726      5724      5727      5728      5726      5724      5727      5729
      5726      5724      5727      5733      5728      5727      5729      5730
      5728      5727      5729      5731      5728      5727      5729      5732
      5728      5727      5733      5734      5728      5727      5733      5735
      5728      5727      5733      5736      5729      5727      5733      5734
      5729      5727      5733      5735      5729      5727      5733      5736
      5730      5729      5727      5733      5731      5729      5727      5733
      5732      5729      5727      5733     17969     17973     17976     17977
     17969     17973     17976     17978     17969     17973     17976     17982
     17970     17969     17973     17974     17970     17969     17973     17975
     17970     17969     17973     17976     17971     17969     17973     17974
     17971     17969     17973     17975     17971     17969     17973     17976
     17972     17969     17973     17974     17972     17969     17973     17975
     17972     17969     17973     17976     17973     17976     17982     17979
     17974     17973     17976     17977     17974     17973     17976     17978
     17974     17973     17976     17982     17975     17973     17976     17977
     17975     17973     17976     17978     17975     17973     17976     17982
     17976     17982     17979     17980     17976     17982     17979     17981
     17976     17982     17979     17983     17977     17976     17982     17979
     17978     17976     17982     17979     17979     17983     17984     17985
     17979     17983     17984     17986     17979     17983     17984     17987
     17980     17979     17983     17984     17981     17979     17983     17984
     17982     17979     17983     17984     17983     17984     17987     17988
     17983     17984     17987     17989     17983     17984     17987     17995
     17984     17987     17989     17990     17984     17987     17995     17996
     17984     17987     17995     17997     17984     17987     17995     17998
     17985     17984     17987     17988     17985     17984     17987     17989
     17985     17984     17987     17995     17986     17984     17987     17988
     17986     17984     17987     17989     17986     17984     17987     17995
     17987     17989     17990     17991     17987     17989     17990     17992
     17987     17995     17998     17999     17988     17987     17989     17990
     17988     17987     17995     17996     17988     17987     17995     17997
     17988     17987     17995     17998     17989     17987     17995     17996
     17989     17987     17995     17997     17989     17987     17995     17998
     17989     17990     17992     17993     17989     17990     17992     17994
     17989     17990     17992     18004     17990     17989     17987     17995
     17990     17992     18004     18005     17990     17992     18004     18006
     17990     17992     18004     18007     17991     17990     17992     17993
     17991     17990     17992     17994     17991     17990     17992     18004
     17992     18004     18007     18008     17992     18004     18007     18009
     17992     18004     18007     18010     17993     17992     18004     18005
     17993     17992     18004     18006     17993     17992     18004     18007
     17994     17992     18004     18005     17994     17992     18004     18006
     17994     17992     18004     18007     17995     17998     17999     18000
     17995     17998     17999     18001     17996     17995     17998     17999
     17997     17995     17998     17999     17998     17999     18001     18002
     17998     17999     18001     18003     17998     17999     18001     18051
     17999     18001     18051     18052     17999     18001     18051     18053
     17999     18001     18051     18054     18000     17999     18001     18002
     18000     17999     18001     18003     18000     17999     18001     18051
     18001     18051     18054     18055     18001     18051     18054     18056
     18001     18051     18054     18057     18002     18001     18051     18052
     18002     18001     18051     18053     18002     18001     18051     18054
     18003     18001     18051     18052     18003     18001     18051     18053
     18003     18001     18051     18054     18004     18007     18010     18011
     18004     18007     18010     18012     18004     18007     18010     18013
     18005     18004     18007     18008     18005     18004     18007     18009
     18005     18004     18007     18010     18006     18004     18007     18008
     18006     18004     18007     18009     18006     18004     18007     18010
     18007     18010     18013     18014     18007     18010     18013     18015
     18007     18010     18013     18016     18008     18007     18010     18011
     18008     18007     18010     18012     18008     18007     18010     18013
     18009     18007     18010     18011     18009     18007     18010     18012
     18009     18007     18010     18013     18010     18013     18016     18017
     18010     18013     18016     18018     18010     18013     18016     18019
     18011     18010     18013     18014     18011     18010     18013     18015
     18011     18010     18013     18016     18012     18010     18013     18014
     18012     18010     18013     18015     18012     18010     18013     18016
     18013     18016     18019     18020     18013     18016     18019     18021
     18013     18016     18019     18022     18014     18013     18016     18017
     18014     18013     18016     18018     18014     18013     18016     18019
     18015     18013     18016     18017     18015     18013     18016     18018
     18015     18013     18016     18019     18016     18019     18022     18023
     18016     18019     18022     18024     18017     18016     18019     18020
     18017     18016     18019     18021     18017     18016     18019     18022
     18018     18016     18019     18020     18018     18016     18019     18021
     18018     18016     18019     18022     18019     18022     18024     18025
     18019     18022     18024     18026     18020     18019     18022     18023
     18020     18019     18022     18024     18021     18019     18022     18023
     18021     18019     18022     18024     18022     18024     18026     18027
     18022     18024     18026     18028     18022     18024     18026     18029
     18023     18022     18024     18025     18023     18022     18024     18026
     18024     18026     18029     18030     18024     18026     18029     18031
     18024     18026     18029     18032     18025     18024     18026     18027
     18025     18024     18026     18028     18025     18024     18026     18029
     18026     18029     18032     18033     18026     18029     18032     18034
     18026     18029     18032     18035     18027     18026     18029     18030
     18027     18026     18029     18031     18027     18026     18029     18032
     18028     18026     18029     18030     18028     18026     18029     18031
     18028     18026     18029     18032     18029     18032     18035     18036
     18029     18032     18035     18037     18029     18032     18035     18038
     18030     18029     18032     18033     18030     18029     18032     18034
     18030     18029     18032     18035     18031     18029     18032     18033
     18031     18029     18032     18034     18031     18029     18032     18035
     18032     18035     18038     18039     18032     18035     18038     18040
     18032     18035     18038     18041     18033     18032     18035     18036
     18033     18032     18035     18037     18033     18032     18035     18038
     18034     18032     18035     18036     18034     18032     18035     18037
     18034     18032     18035     18038     18035     18038     18041     18042
     18035     18038     18041     18043     18035     18038     18041     18044
     18036     18035     18038     18039     18036     18035     18038     18040
     18036     18035     18038     18041     18037     18035     18038     18039
     18037     18035     18038     18040     18037     18035     18038     18041
     18038     18041     18044     18045     18038     18041     18044     18046
     18038     18041     18044     18047     18039     18038     18041     18042
     18039     18038     18041     18043     18039     18038     18041     18044
     18040     18038     18041     18042     18040     18038     18041     18043
     18040     18038     18041     18044     18041     18044     18047     18048
     18041     18044     18047     18049     18041     18044     18047     18050
     18042     18041     18044     18045     18042     18041     18044     18046
     18042     18041     18044     18047     18043     18041     18044     18045
     18043     18041     18044     18046     18043     18041     18044     18047
     18045     18044     18047     18048     18045     18044     18047     18049
     18045     18044     18047     18050     18046     18044     18047     18048
     18046     18044     18047     18049     18046     18044     18047     18050
     18051     18054     18057     18058     18051     18054     18057     18059
     18051     18054     18057     18060     18052     18051     18054     18055
     18052     18051     18054     18056     18052     18051     18054     18057
     18053     18051     18054     18055     18053     18051     18054     18056
     18053     18051     18054     18057     18054     18057     18060     18061
     18054     18057     18060     18062     18054     18057     18060     18063
     18055     18054     18057     18058     18055     18054     18057     18059
     18055     18054     18057     18060     18056     18054     18057     18058
     18056     18054     18057     18059     18056     18054     18057     18060
     18057     18060     18063     18064     18057     18060     18063     18065
     18057     18060     18063     18066     18058     18057     18060     18061
     18058     18057     18060     18062     18058     18057     18060     18063
     18059     18057     18060     18061     18059     18057     18060     18062
     18059     18057     18060     18063     18060     18063     18066     18067
     18060     18063     18066     18068     18060     18063     18066     18069
     18061     18060     18063     18064     18061     18060     18063     18065
     18061     18060     18063     18066     18062     18060     18063     18064
     18062     18060     18063     18065     18062     18060     18063     18066
     18063     18066     18069     18070     18063     18066     18069     18071
     18063     18066     18069     18072     18064     18063     18066     18067
     18064     18063     18066     18068     18064     18063     18066     18069
     18065     18063     18066     18067     18065     18063     18066     18068
     18065     18063     18066     18069     18066     18069     18072     18073
     18066     18069     18072     18074     18066     18069     18072     18075
     18067     18066     18069     18070     18067     18066     18069     18071
     18067     18066     18069     18072     18068     18066     18069     18070
     18068     18066     18069     18071     18068     18066     18069     18072
     18069     18072     18075     18076     18069     18072     18075     18077
     18069     18072     18075     18078     18070     18069     18072     18073
     18070     18069     18072     18074     18070     18069     18072     18075
     18071     18069     18072     18073     18071     18069     18072     18074
     18071     18069     18072     18075     18072     18075     18078     18079
     18072     18075     18078     18080     18072     18075     18078     18081
     18073     18072     18075     18076     18073     18072     18075     18077
     18073     18072     18075     18078     18074     18072     18075     18076
     18074     18072     18075     18077     18074     18072     18075     18078
     18075     18078     18081     18082     18075     18078     18081     18083
     18075     18078     18081     18084     18076     18075     18078     18079
     18076     18075     18078     18080     18076     18075     18078     18081
     18077     18075     18078     18079     18077     18075     18078     18080
     18077     18075     18078     18081     18078     18081     18084     18085
     18078     18081     18084     18086     18078     18081     18084     18087
     18079     18078     18081     18082     18079     18078     18081     18083
     18079     18078     18081     18084     18080     18078     18081     18082
     18080     18078     18081     18083     18080     18078     18081     18084
     18081     18084     18087     18088     18081     18084     18087     18089
     18081     18084     18087     18090     18082     18081     18084     18085
     18082     18081     18084     18086     18082     18081     18084     18087
     18083     18081     18084     18085     18083     18081     18084     18086
     18083     18081     18084     18087     18084     18087     18090     18091
     18084     18087     18090     18092     18084     18087     18090     18093
     18085     18084     18087     18088     18085     18084     18087     18089
     18085     18084     18087     18090     18086     18084     18087     18088
     18086     18084     18087     18089     18086     18084     18087     18090
     18087     18090     18093     18094     18087     18090     18093     18095
     18087     18090     18093     18096     18088     18087     18090     18091
     18088     18087     18090     18092     18088     18087     18090     18093
     18089     18087     18090     18091     18089     18087     18090     18092
     18089     18087     18090     18093     18090     18093     18096     18097
     18090     18093     18096     18098     18090     18093     18096     18099
     18091     18090     18093     18094     18091     18090     18093     18095
     18091     18090     18093     18096     18092     18090     18093     18094
     18092     18090     18093     18095     18092     18090     18093     18096
     18094     18093     18096     18097     18094     18093     18096     18098
     18094     18093     18096     18099     18095     18093     18096     18097
     18095     18093     18096     18098     18095     18093     18096     18099
      9716      9729      9732      9733      9716      9729      9732      9734
      9716      9729      9732      9739      9717      9716      9721      9722
      9717      9716      9721      9723      9717      9716      9721      9724
      9717      9716      9725      9726      9717      9716      9725      9727
      9717      9716      9725      9728      9717      9716      9729      9730
      9717      9716      9729      9731      9717      9716      9729      9732
      9718      9717      9716      9721      9718      9717      9716      9725
      9718      9717      9716      9729      9719      9717      9716      9721
      9719      9717      9716      9725      9719      9717      9716      9729
      9720      9717      9716      9721      9720      9717      9716      9725
      9720      9717      9716      9729      9721      9716      9725      9726
      9721      9716      9725      9727      9721      9716      9725      9728
      9721      9716      9729      9730      9721      9716      9729      9731
      9721      9716      9729      9732      9722      9721      9716      9725
      9722      9721      9716      9729      9723      9721      9716      9725
      9723      9721      9716      9729      9724      9721      9716      9725
      9724      9721      9716      9729      9725      9716      9729      9730
      9725      9716      9729      9731      9725      9716      9729      9732
      9726      9725      9716      9729      9727      9725      9716      9729
      9728      9725      9716      9729      9729      9732      9739      9735
      9730      9729      9732      9733      9730      9729      9732      9734
      9730      9729      9732      9739      9731      9729      9732      9733
      9731      9729      9732      9734      9731      9729      9732      9739
      9732      9739      9735      9736      9732      9739      9735      9737
      9732      9739      9735      9738      9733      9732      9739      9735
      9734      9732      9739      9735      9735      9738      9740      9741
      9735      9738      9740      9742      9735      9738      9740      9745
      9736      9735      9738      9740      9737      9735      9738      9740
      9738      9740      9745      9743      9738      9740      9745      9746
      9738      9740      9745      9747      9739      9735      9738      9740
      9740      9745      9743      9744      9740      9745      9743      9795
      9740      9745      9747      9748      9740      9745      9747      9749
      9740      9745      9747      9751      9741      9740      9745      9743
      9741      9740      9745      9746      9741      9740      9745      9747
      9742      9740      9745      9743      9742      9740      9745      9746
      9742      9740      9745      9747      9743      9745      9747      9748
      9743      9745      9747      9749      9743      9745      9747      9751
      9743      9795      9797      9798      9743      9795      9797      9799
      9743      9795      9797      9800      9744      9743      9745      9746
      9744      9743      9745      9747      9744      9743      9795      9796
      9744      9743      9795      9797      9745      9743      9795      9796
      9745      9743      9795      9797      9745      9747      9749      9750
      9745      9747      9751      9752      9745      9747      9751      9753
      9746      9745      9743      9795      9746      9745      9747      9748
      9746      9745      9747      9749      9746      9745      9747      9751
      9747      9745      9743      9795      9747      9751      9753      9754
      9747      9751      9753      9755      9748      9747      9749      9750
      9748      9747      9751      9752      9748      9747      9751      9753
      9749      9747      9751      9752      9749      9747      9751      9753
      9750      9749      9747      9751      9751      9753      9755      9756
      9751      9753      9755      9757      9751      9753      9755      9758
      9752      9751      9753      9754      9752      9751      9753      9755
      9753      9755      9758      9759      9753      9755      9758      9760
      9753      9755      9758      9761      9754      9753      9755      9756
      9754      9753      9755      9757      9754      9753      9755      9758
      9755      9758      9761      9762      9755      9758      9761      9763
      9755      9758      9761      9764      9756      9755      9758      9759
      9756      9755      9758      9760      9756      9755      9758      9761
      9757      9755      9758      9759      9757      9755      9758      9760
      9757      9755      9758      9761      9758      9761      9764      9765
      9758      9761      9764      9766      9758      9761      9764      9767
      9759      9758      9761      9762      9759      9758      9761      9763
      9759      9758      9761      9764      9760      9758      9761      9762
      9760      9758      9761      9763      9760      9758      9761      9764
      9761      9764      9767      9768      9761      9764      9767      9769
      9761      9764      9767      9770      9762      9761      9764      9765
      9762      9761      9764      9766      9762      9761      9764      9767
      9763      9761      9764      9765      9763      9761      9764      9766
      9763      9761      9764      9767      9764      9767      9770      9771
      9764      9767      9770      9772      9764      9767      9770      9773
      9765      9764      9767      9768      9765      9764      9767      9769
      9765      9764      9767      9770      9766      9764      9767      9768
      9766      9764      9767      9769      9766      9764      9767      9770
      9767      9770      9773      9774      9767      9770      9773      9775
      9767      9770      9773      9776      9768      9767      9770      9771
      9768      9767      9770      9772      9768      9767      9770      9773
      9769      9767      9770      9771      9769      9767      9770      9772
      9769      9767      9770      9773      9770      9773      9776      9777
      9770      9773      9776      9778      9770      9773      9776      9779
      9771      9770      9773      9774      9771      9770      9773      9775
      9771      9770      9773      9776      9772      9770      9773      9774
      9772      9770      9773      9775      9772      9770      9773      9776
      9773      9776      9779      9780      9773      9776      9779      9781
      9773      9776      9779      9782      9774      9773      9776      9777
      9774      9773      9776      9778      9774      9773      9776      9779
      9775      9773      9776      9777      9775      9773      9776      9778
      9775      9773      9776      9779      9776      9779      9782      9783
      9776      9779      9782      9784      9776      9779      9782      9785
      9777      9776      9779      9780      9777      9776      9779      9781
      9777      9776      9779      9782      9778      9776      9779      9780
      9778      9776      9779      9781      9778      9776      9779      9782
      9779      9782      9785      9786      9779      9782      9785      9787
      9779      9782      9785      9788      9780      9779      9782      9783
      9780      9779      9782      9784      9780      9779      9782      9785
      9781      9779      9782      9783      9781      9779      9782      9784
      9781      9779      9782      9785      9782      9785      9788      9789
      9782      9785      9788      9790      9782      9785      9788      9791
      9783      9782      9785      9786      9783      9782      9785      9787
      9783      9782      9785      9788      9784      9782      9785      9786
      9784      9782      9785      9787      9784      9782      9785      9788
      9785      9788      9791      9792      9785      9788      9791      9793
      9785      9788      9791      9794      9786      9785      9788      9789
      9786      9785      9788      9790      9786      9785      9788      9791
      9787      9785      9788      9789      9787      9785      9788      9790
      9787      9785      9788      9791      9789      9788      9791      9792
      9789      9788      9791      9793      9789      9788      9791      9794
      9790      9788      9791      9792      9790      9788      9791      9793
      9790      9788      9791      9794      9795      9797      9800      9801
      9795      9797      9800      9802      9795      9797      9800      9803
      9796      9795      9797      9798      9796      9795      9797      9799
      9796      9795      9797      9800      9797      9800      9803      9804
      9797      9800      9803      9805      9797      9800      9803      9806
      9798      9797      9800      9801      9798      9797      9800      9802
      9798      9797      9800      9803      9799      9797      9800      9801
      9799      9797      9800      9802      9799      9797      9800      9803
      9800      9803      9806      9807      9800      9803      9806      9808
      9800      9803      9806      9809      9801      9800      9803      9804
      9801      9800      9803      9805      9801      9800      9803      9806
      9802      9800      9803      9804      9802      9800      9803      9805
      9802      9800      9803      9806      9803      9806      9809      9810
      9803      9806      9809      9811      9803      9806      9809      9812
      9804      9803      9806      9807      9804      9803      9806      9808
      9804      9803      9806      9809      9805      9803      9806      9807
      9805      9803      9806      9808      9805      9803      9806      9809
      9806      9809      9812      9813      9806      9809      9812      9814
      9806      9809      9812      9815      9807      9806      9809      9810
      9807      9806      9809      9811      9807      9806      9809      9812
      9808      9806      9809      9810      9808      9806      9809      9811
      9808      9806      9809      9812      9809      9812      9815      9816
      9809      9812      9815      9817      9809      9812      9815      9818
      9810      9809      9812      9813      9810      9809      9812      9814
      9810      9809      9812      9815      9811      9809      9812      9813
      9811      9809      9812      9814      9811      9809      9812      9815
      9812      9815      9818      9819      9812      9815      9818      9820
      9813      9812      9815      9816      9813      9812      9815      9817
      9813      9812      9815      9818      9814      9812      9815      9816
      9814      9812      9815      9817      9814      9812      9815      9818
      9815      9818      9820      9821      9815      9818      9820      9822
      9816      9815      9818      9819      9816      9815      9818      9820
      9817      9815      9818      9819      9817      9815      9818      9820
      9818      9820      9822      9823      9818      9820      9822      9824
      9818      9820      9822      9825      9819      9818      9820      9821
      9819      9818      9820      9822      9820      9822      9825      9826
      9820      9822      9825      9827      9820      9822      9825      9828
      9821      9820      9822      9823      9821      9820      9822      9824
      9821      9820      9822      9825      9822      9825      9828      9829
      9822      9825      9828      9830      9822      9825      9828      9831
      9823      9822      9825      9826      9823      9822      9825      9827
      9823      9822      9825      9828      9824      9822      9825      9826
      9824      9822      9825      9827      9824      9822      9825      9828
      9825      9828      9831      9832      9825      9828      9831      9833
      9825      9828      9831      9834      9826      9825      9828      9829
      9826      9825      9828      9830      9826      9825      9828      9831
      9827      9825      9828      9829      9827      9825      9828      9830
      9827      9825      9828      9831      9828      9831      9834      9835
      9828      9831      9834      9836      9828      9831      9834      9837
      9829      9828      9831      9832      9829      9828      9831      9833
      9829      9828      9831      9834      9830      9828      9831      9832
      9830      9828      9831      9833      9830      9828      9831      9834
      9831      9834      9837      9838      9831      9834      9837      9839
      9831      9834      9837      9840      9832      9831      9834      9835
      9832      9831      9834      9836      9832      9831      9834      9837
      9833      9831      9834      9835      9833      9831      9834      9836
      9833      9831      9834      9837      9834      9837      9840      9841
      9834      9837      9840      9842      9834      9837      9840      9843
      9835      9834      9837      9838      9835      9834      9837      9839
      9835      9834      9837      9840      9836      9834      9837      9838
      9836      9834      9837      9839      9836      9834      9837      9840
      9837      9840      9843      9844      9837      9840      9843      9845
      9837      9840      9843      9846      9838      9837      9840      9841
      9838      9837      9840      9842      9838      9837      9840      9843
      9839      9837      9840      9841      9839      9837      9840      9842
      9839      9837      9840      9843      9841      9840      9843      9844
      9841      9840      9843      9845      9841      9840      9843      9846
      9842      9840      9843      9844      9842      9840      9843      9845
      9842      9840      9843      9846      4503      4504      4519      4520
      4503      4504      4519      4521      4503      4504      4519      4525
      4504      4503      4507      4508      4504      4503      4507      4509
      4504      4503      4507      4510      4504      4503      4511      4512
      4504      4503      4511      4513      4504      4503      4511      4514
      4504      4503      4515      4516      4504      4503      4515      4517
      4504      4503      4515      4518      4504      4519      4525      4522
      4505      4504      4503      4507      4505      4504      4503      4511
      4505      4504      4503      4515      4505      4504      4519      4520
      4505      4504      4519      4521      4505      4504      4519      4525
      4506      4504      4503      4507      4506      4504      4503      4511
      4506      4504      4503      4515      4506      4504      4519      4520
      4506      4504      4519      4521      4506      4504      4519      4525
      4507      4503      4504      4519      4507      4503      4511      4512
      4507      4503      4511      4513      4507      4503      4511      4514
      4507      4503      4515      4516      4507      4503      4515      4517
      4507      4503      4515      4518      4508      4507      4503      4511
      4508      4507      4503      4515      4509      4507      4503      4511
      4509      4507      4503      4515      4510      4507      4503      4511
      4510      4507      4503      4515      4511      4503      4504      4519
      4511      4503      4515      4516      4511      4503      4515      4517
      4511      4503      4515      4518      4512      4511      4503      4515
      4513      4511      4503      4515      4514      4511      4503      4515
      4515      4503      4504      4519      4519      4525      4522      4523
      4519      4525      4522      4524      4519      4525      4522      4526
      4520      4519      4525      4522      4521      4519      4525      4522
      4522      4526      4527      4528      4522      4526      4527      4529
      4522      4526      4527      4530      4523      4522      4526      4527
      4524      4522      4526      4527      4525      4522      4526      4527
      4526      4527      4530      4531      4526      4527      4530      4532
      4526      4527      4530      4538      4527      4530      4532      4533
      4527      4530      4538      4539      4527      4530      4538      4540
      4527      4530      4538      4541      4528      4527      4530      4531
      4528      4527      4530      4532      4528      4527      4530      4538
      4529      4527      4530      4531      4529      4527      4530      4532
      4529      4527      4530      4538      4530      4532      4533      4534
      4530      4532      4533      4535      4530      4538      4541      4542
      4531      4530      4532      4533      4531      4530      4538      4539
      4531      4530      4538      4540      4531      4530      4538      4541
      4532      4530      4538      4539      4532      4530      4538      4540
      4532      4530      4538      4541      4532      4533      4535      4536
      4532      4533      4535      4537      4532      4533      4535      4547
      4533      4532      4530      4538      4533      4535      4547      4548
      4533      4535      4547      4549      4533      4535      4547      4550
      4534      4533      4535      4536      4534      4533      4535      4537
      4534      4533      4535      4547      4535      4547      4550      4551
      4535      4547      4550      4552      4535      4547      4550      4553
      4536      4535      4547      4548      4536      4535      4547      4549
      4536      4535      4547      4550      4537      4535      4547      4548
      4537      4535      4547      4549      4537      4535      4547      4550
      4538      4541      4542      4543      4538      4541      4542      4544
      4539      4538      4541      4542      4540      4538      4541      4542
      4541      4542      4544      4545      4541      4542      4544      4546
      4541      4542      4544      4594      4542      4544      4594      4595
      4542      4544      4594      4596      4542      4544      4594      4597
      4543      4542      4544      4545      4543      4542      4544      4546
      4543      4542      4544      4594      4544      4594      4597      4598
      4544      4594      4597      4599      4544      4594      4597      4600
      4545      4544      4594      4595      4545      4544      4594      4596
      4545      4544      4594      4597      4546      4544      4594      4595
      4546      4544      4594      4596      4546      4544      4594      4597
      4547      4550      4553      4554      4547      4550      4553      4555
      4547      4550      4553      4556      4548      4547      4550      4551
      4548      4547      4550      4552      4548      4547      4550      4553
      4549      4547      4550      4551      4549      4547      4550      4552
      4549      4547      4550      4553      4550      4553      4556      4557
      4550      4553      4556      4558      4550      4553      4556      4559
      4551      4550      4553      4554      4551      4550      4553      4555
      4551      4550      4553      4556      4552      4550      4553      4554
      4552      4550      4553      4555      4552      4550      4553      4556
      4553      4556      4559      4560      4553      4556      4559      4561
      4553      4556      4559      4562      4554      4553      4556      4557
      4554      4553      4556      4558      4554      4553      4556      4559
      4555      4553      4556      4557      4555      4553      4556      4558
      4555      4553      4556      4559      4556      4559      4562      4563
      4556      4559      4562      4564      4556      4559      4562      4565
      4557      4556      4559      4560      4557      4556      4559      4561
      4557      4556      4559      4562      4558      4556      4559      4560
      4558      4556      4559      4561      4558      4556      4559      4562
      4559      4562      4565      4566      4559      4562      4565      4567
      4560      4559      4562      4563      4560      4559      4562      4564
      4560      4559      4562      4565      4561      4559      4562      4563
      4561      4559      4562      4564      4561      4559      4562      4565
      4562      4565      4567      4568      4562      4565      4567      4569
      4563      4562      4565      4566      4563      4562      4565      4567
      4564      4562      4565      4566      4564      4562      4565      4567
      4565      4567      4569      4570      4565      4567      4569      4571
      4565      4567      4569      4572      4566      4565      4567      4568
      4566      4565      4567      4569      4567      4569      4572      4573
      4567      4569      4572      4574      4567      4569      4572      4575
      4568      4567      4569      4570      4568      4567      4569      4571
      4568      4567      4569      4572      4569      4572      4575      4576
      4569      4572      4575      4577      4569      4572      4575      4578
      4570      4569      4572      4573      4570      4569      4572      4574
      4570      4569      4572      4575      4571      4569      4572      4573
      4571      4569      4572      4574      4571      4569      4572      4575
      4572      4575      4578      4579      4572      4575      4578      4580
      4572      4575      4578      4581      4573      4572      4575      4576
      4573      4572      4575      4577      4573      4572      4575      4578
      4574      4572      4575      4576      4574      4572      4575      4577
      4574      4572      4575      4578      4575      4578      4581      4582
      4575      4578      4581      4583      4575      4578      4581      4584
      4576      4575      4578      4579      4576      4575      4578      4580
      4576      4575      4578      4581      4577      4575      4578      4579
      4577      4575      4578      4580      4577      4575      4578      4581
      4578      4581      4584      4585      4578      4581      4584      4586
      4578      4581      4584      4587      4579      4578      4581      4582
      4579      4578      4581      4583      4579      4578      4581      4584
      4580      4578      4581      4582      4580      4578      4581      4583
      4580      4578      4581      4584      4581      4584      4587      4588
      4581      4584      4587      4589      4581      4584      4587      4590
      4582      4581      4584      4585      4582      4581      4584      4586
      4582      4581      4584      4587      4583      4581      4584      4585
      4583      4581      4584      4586      4583      4581      4584      4587
      4584      4587      4590      4591      4584      4587      4590      4592
      4584      4587      4590      4593      4585      4584      4587      4588
      4585      4584      4587      4589      4585      4584      4587      4590
      4586      4584      4587      4588      4586      4584      4587      4589
      4586      4584      4587      4590      4588      4587      4590      4591
      4588      4587      4590      4592      4588      4587      4590      4593
      4589      4587      4590      4591      4589      4587      4590      4592
      4589      4587      4590      4593      4594      4597      4600      4601
      4594      4597      4600      4602      4594      4597      4600      4603
      4595      4594      4597      4598      4595      4594      4597      4599
      4595      4594      4597      4600      4596      4594      4597      4598
      4596      4594      4597      4599      4596      4594      4597      4600
      4597      4600      4603      4604      4597      4600      4603      4605
      4597      4600      4603      4606      4598      4597      4600      4601
      4598      4597      4600      4602      4598      4597      4600      4603
      4599      4597      4600      4601      4599      4597      4600      4602
      4599      4597      4600      4603      4600      4603      4606      4607
      4600      4603      4606      4608      4600      4603      4606      4609
      4601      4600      4603      4604      4601      4600      4603      4605
      4601      4600      4603      4606      4602      4600      4603      4604
      4602      4600      4603      4605      4602      4600      4603      4606
      4603      4606      4609      4610      4603      4606      4609      4611
      4603      4606      4609      4612      4604      4603      4606      4607
      4604      4603      4606      4608      4604      4603      4606      4609
      4605      4603      4606      4607      4605      4603      4606      4608
      4605      4603      4606      4609      4606      4609      4612      4613
      4606      4609      4612      4614      4606      4609      4612      4615
      4607      4606      4609      4610      4607      4606      4609      4611
      4607      4606      4609      4612      4608      4606      4609      4610
      4608      4606      4609      4611      4608      4606      4609      4612
      4609      4612      4615      4616      4609      4612      4615      4617
      4609      4612      4615      4618      4610      4609      4612      4613
      4610      4609      4612      4614      4610      4609      4612      4615
      4611      4609      4612      4613      4611      4609      4612      4614
      4611      4609      4612      4615      4612      4615      4618      4619
      4612      4615      4618      4620      4612      4615      4618      4621
      4613      4612      4615      4616      4613      4612      4615      4617
      4613      4612      4615      4618      4614      4612      4615      4616
      4614      4612      4615      4617      4614      4612      4615      4618
      4615      4618      4621      4622      4615      4618      4621      4623
      4615      4618      4621      4624      4616      4615      4618      4619
      4616      4615      4618      4620      4616      4615      4618      4621
      4617      4615      4618      4619      4617      4615      4618      4620
      4617      4615      4618      4621      4618      4621      4624      4625
      4618      4621      4624      4626      4618      4621      4624      4627
      4619      4618      4621      4622      4619      4618      4621      4623
      4619      4618      4621      4624      4620      4618      4621      4622
      4620      4618      4621      4623      4620      4618      4621      4624
      4621      4624      4627      4628      4621      4624      4627      4629
      4621      4624      4627      4630      4622      4621      4624      4625
      4622      4621      4624      4626      4622      4621      4624      4627
      4623      4621      4624      4625      4623      4621      4624      4626
      4623      4621      4624      4627      4624      4627      4630      4631
      4624      4627      4630      4632      4624      4627      4630      4633
      4625      4624      4627      4628      4625      4624      4627      4629
      4625      4624      4627      4630      4626      4624      4627      4628
      4626      4624      4627      4629      4626      4624      4627      4630
      4627      4630      4633      4634      4627      4630      4633      4635
      4627      4630      4633      4636      4628      4627      4630      4631
      4628      4627      4630      4632      4628      4627      4630      4633
      4629      4627      4630      4631      4629      4627      4630      4632
      4629      4627      4630      4633      4631      4630      4633      4634
      4631      4630      4633      4635      4631      4630      4633      4636
      4632      4630      4633      4634      4632      4630      4633      4635
      4632      4630      4633      4636      5737      5741      5744      5745
      5737      5741      5744      5775      5737      5783      5780      5775
      5737      5783      5780      5781      5737      5783      5780      5782
      5738      5737      5739      5740      5738      5737      5741      5742
      5738      5737      5741      5743      5738      5737      5741      5744
      5738      5737      5783      5780      5738      5737      5783      5784
      5738      5737      5783      5785      5739      5737      5741      5742
      5739      5737      5741      5743      5739      5737      5741      5744
      5739      5737      5783      5780      5739      5737      5783      5784
      5739      5737      5783      5785      5740      5739      5737      5741
      5740      5739      5737      5783      5741      5737      5783      5780
      5741      5737      5783      5784      5741      5737      5783      5785
      5741      5744      5745      5746      5741      5744      5745      5747
      5741      5744      5775      5773      5741      5744      5775      5776
      5741      5744      5775      5780      5742      5741      5737      5783
      5742      5741      5744      5745      5742      5741      5744      5775
      5743      5741      5737      5783      5743      5741      5744      5745
      5743      5741      5744      5775      5744      5741      5737      5783
      5744      5745      5747      5748      5744      5745      5747      5749
      5744      5745      5747      5750      5744      5775      5773      5750
      5744      5775      5773      5770      5744      5775      5773      5774
      5744      5775      5776      5777      5744      5775      5776      5778
      5744      5775      5776      5779      5744      5775      5780      5781
      5744      5775      5780      5782      5744      5775      5780      5783
      5745      5744      5775      5773      5745      5744      5775      5776
      5745      5744      5775      5780      5745      5747      5750      5751
      5745      5747      5750      5752      5745      5747      5750      5773
      5746      5745      5744      5775      5746      5745      5747      5748
      5746      5745      5747      5749      5746      5745      5747      5750
      5747      5745      5744      5775      5747      5750      5752      5753
      5747      5750      5752      5754      5747      5750      5752      5762
      5747      5750      5773      5770      5747      5750      5773      5774
      5747      5750      5773      5775      5748      5747      5750      5751
      5748      5747      5750      5752      5748      5747      5750      5773
      5749      5747      5750      5751      5749      5747      5750      5752
      5749      5747      5750      5773      5750      5752      5754      5755
      5750      5752      5754      5756      5750      5752      5754      5757
      5750      5752      5762      5760      5750      5752      5762      5763
      5750      5752      5762      5767      5750      5773      5770      5767
      5750      5773      5770      5771      5750      5773      5770      5772
      5750      5773      5775      5776      5750      5773      5775      5780
      5751      5750      5752      5753      5751      5750      5752      5754
      5751      5750      5752      5762      5751      5750      5773      5770
      5751      5750      5773      5774      5751      5750      5773      5775
      5752      5750      5773      5770      5752      5750      5773      5774
      5752      5750      5773      5775      5752      5754      5757      5758
      5752      5754      5757      5759      5752      5754      5757      5760
      5752      5762      5760      5757      5752      5762      5760      5761
      5752      5762      5760      5786      5752      5762      5763      5764
      5752      5762      5763      5765      5752      5762      5763      5766
      5752      5762      5767      5768      5752      5762      5767      5769
      5752      5762      5767      5770      5753      5752      5750      5773
      5753      5752      5754      5755      5753      5752      5754      5756
      5753      5752      5754      5757      5753      5752      5762      5760
      5753      5752      5762      5763      5753      5752      5762      5767
      5754      5752      5750      5773      5754      5752      5762      5760
      5754      5752      5762      5763      5754      5752      5762      5767
      5754      5757      5760      5761      5754      5757      5760      5762
      5754      5757      5760      5786      5755      5754      5752      5762
      5755      5754      5757      5758      5755      5754      5757      5759
      5755      5754      5757      5760      5756      5754      5752      5762
      5756      5754      5757      5758      5756      5754      5757      5759
      5756      5754      5757      5760      5757      5754      5752      5762
      5757      5760      5762      5763      5757      5760      5762      5767
      5757      5760      5786      5787      5757      5760      5786      5788
      5757      5760      5786      5792      5758      5757      5760      5761
      5758      5757      5760      5762      5758      5757      5760      5786
      5759      5757      5760      5761      5759      5757      5760      5762
      5759      5757      5760      5786      5760      5762      5763      5764
      5760      5762      5763      5765      5760      5762      5763      5766
      5760      5762      5767      5768      5760      5762      5767      5769
      5760      5762      5767      5770      5760      5786      5788      5789
      5760      5786      5788      5790      5760      5786      5788      5791
      5760      5786      5792      5793      5760      5786      5792      5794
      5760      5786      5792      5795      5761      5760      5762      5763
      5761      5760      5762      5767      5761      5760      5786      5787
      5761      5760      5786      5788      5761      5760      5786      5792
      5762      5752      5750      5773      5762      5760      5786      5787
      5762      5760      5786      5788      5762      5760      5786      5792
      5762      5767      5770      5771      5762      5767      5770      5772
      5762      5767      5770      5773      5763      5762      5760      5786
      5763      5762      5767      5768      5763      5762      5767      5769
      5763      5762      5767      5770      5764      5763      5762      5767
      5765      5763      5762      5767      5766      5763      5762      5767
      5767      5762      5760      5786      5767      5770      5773      5774
      5767      5770      5773      5775      5768      5767      5770      5771
      5768      5767      5770      5772      5768      5767      5770      5773
      5769      5767      5770      5771      5769      5767      5770      5772
      5769      5767      5770      5773      5770      5773      5775      5776
      5770      5773      5775      5780      5771      5770      5773      5774
      5771      5770      5773      5775      5772      5770      5773      5774
      5772      5770      5773      5775      5773      5775      5776      5777
      5773      5775      5776      5778      5773      5775      5776      5779
      5773      5775      5780      5781      5773      5775      5780      5782
      5773      5775      5780      5783      5774      5773      5775      5776
      5774      5773      5775      5780      5775      5780      5783      5784
      5775      5780      5783      5785      5776      5775      5780      5781
      5776      5775      5780      5782      5776      5775      5780      5783
      5777      5776      5775      5780      5778      5776      5775      5780
      5779      5776      5775      5780      5781      5780      5783      5784
      5781      5780      5783      5785      5782      5780      5783      5784
      5782      5780      5783      5785      5786      5792      5795      5796
      5786      5792      5795      5797      5786      5792      5795      5798
      5787      5786      5788      5789      5787      5786      5788      5790
      5787      5786      5788      5791      5787      5786      5792      5793
      5787      5786      5792      5794      5787      5786      5792      5795
      5788      5786      5792      5793      5788      5786      5792      5794
      5788      5786      5792      5795      5789      5788      5786      5792
      5790      5788      5786      5792      5791      5788      5786      5792
      5792      5795      5798      5799      5792      5795      5798      5800
      5792      5795      5798      5801      5793      5792      5795      5796
      5793      5792      5795      5797      5793      5792      5795      5798
      5794      5792      5795      5796      5794      5792      5795      5797
      5794      5792      5795      5798      5795      5798      5801      5802
      5795      5798      5801      5803      5795      5798      5801      5807
      5796      5795      5798      5799      5796      5795      5798      5800
      5796      5795      5798      5801      5797      5795      5798      5799
      5797      5795      5798      5800      5797      5795      5798      5801
      5798      5801      5803      5804      5798      5801      5803      5805
      5798      5801      5803      5806      5798      5801      5807      5808
      5798      5801      5807      5809      5798      5801      5807      5810
      5799      5798      5801      5802      5799      5798      5801      5803
      5799      5798      5801      5807      5800      5798      5801      5802
      5800      5798      5801      5803      5800      5798      5801      5807
      5802      5801      5803      5804      5802      5801      5803      5805
      5802      5801      5803      5806      5802      5801      5807      5808
      5802      5801      5807      5809      5802      5801      5807      5810
      5803      5801      5807      5808      5803      5801      5807      5809
      5803      5801      5807      5810      5804      5803      5801      5807
      5805      5803      5801      5807      5806      5803      5801      5807
      5811      5815      5818      5819      5811      5815      5818      5849
      5811      5857      5854      5849      5811      5857      5854      5855
      5811      5857      5854      5856      5812      5811      5813      5814
      5812      5811      5815      5816      5812      5811      5815      5817
      5812      5811      5815      5818      5812      5811      5857      5854
      5812      5811      5857      5858      5812      5811      5857      5859
      5813      5811      5815      5816      5813      5811      5815      5817
      5813      5811      5815      5818      5813      5811      5857      5854
      5813      5811      5857      5858      5813      5811      5857      5859
      5814      5813      5811      5815      5814      5813      5811      5857
      5815      5811      5857      5854      5815      5811      5857      5858
      5815      5811      5857      5859      5815      5818      5819      5820
      5815      5818      5819      5821      5815      5818      5849      5847
      5815      5818      5849      5850      5815      5818      5849      5854
      5816      5815      5811      5857      5816      5815      5818      5819
      5816      5815      5818      5849      5817      5815      5811      5857
      5817      5815      5818      5819      5817      5815      5818      5849
      5818      5815      5811      5857      5818      5819      5821      5822
      5818      5819      5821      5823      5818      5819      5821      5824
      5818      5849      5847      5824      5818      5849      5847      5844
      5818      5849      5847      5848      5818      5849      5850      5851
      5818      5849      5850      5852      5818      5849      5850      5853
      5818      5849      5854      5855      5818      5849      5854      5856
      5818      5849      5854      5857      5819      5818      5849      5847
      5819      5818      5849      5850      5819      5818      5849      5854
      5819      5821      5824      5825      5819      5821      5824      5826
      5819      5821      5824      5847      5820      5819      5818      5849
      5820      5819      5821      5822      5820      5819      5821      5823
      5820      5819      5821      5824      5821      5819      5818      5849
      5821      5824      5826      5827      5821      5824      5826      5828
      5821      5824      5826      5836      5821      5824      5847      5844
      5821      5824      5847      5848      5821      5824      5847      5849
      5822      5821      5824      5825      5822      5821      5824      5826
      5822      5821      5824      5847      5823      5821      5824      5825
      5823      5821      5824      5826      5823      5821      5824      5847
      5824      5826      5828      5829      5824      5826      5828      5830
      5824      5826      5828      5831      5824      5826      5836      5834
      5824      5826      5836      5837      5824      5826      5836      5841
      5824      5847      5844      5841      5824      5847      5844      5845
      5824      5847      5844      5846      5824      5847      5849      5850
      5824      5847      5849      5854      5825      5824      5826      5827
      5825      5824      5826      5828      5825      5824      5826      5836
      5825      5824      5847      5844      5825      5824      5847      5848
      5825      5824      5847      5849      5826      5824      5847      5844
      5826      5824      5847      5848      5826      5824      5847      5849
      5826      5828      5831      5832      5826      5828      5831      5833
      5826      5828      5831      5834      5826      5836      5834      5831
      5826      5836      5834      5835      5826      5836      5834      5860
      5826      5836      5837      5838      5826      5836      5837      5839
      5826      5836      5837      5840      5826      5836      5841      5842
      5826      5836      5841      5843      5826      5836      5841      5844
      5827      5826      5824      5847      5827      5826      5828      5829
      5827      5826      5828      5830      5827      5826      5828      5831
      5827      5826      5836      5834      5827      5826      5836      5837
      5827      5826      5836      5841      5828      5826      5824      5847
      5828      5826      5836      5834      5828      5826      5836      5837
      5828      5826      5836      5841      5828      5831      5834      5835
      5828      5831      5834      5836      5828      5831      5834      5860
      5829      5828      5826      5836      5829      5828      5831      5832
      5829      5828      5831      5833      5829      5828      5831      5834
      5830      5828      5826      5836      5830      5828      5831      5832
      5830      5828      5831      5833      5830      5828      5831      5834
      5831      5828      5826      5836      5831      5834      5836      5837
      5831      5834      5836      5841      5831      5834      5860      5861
      5831      5834      5860      5862      5831      5834      5860      5866
      5832      5831      5834      5835      5832      5831      5834      5836
      5832      5831      5834      5860      5833      5831      5834      5835
      5833      5831      5834      5836      5833      5831      5834      5860
      5834      5836      5837      5838      5834      5836      5837      5839
      5834      5836      5837      5840      5834      5836      5841      5842
      5834      5836      5841      5843      5834      5836      5841      5844
      5834      5860      5862      5863      5834      5860      5862      5864
      5834      5860      5862      5865      5834      5860      5866      5867
      5834      5860      5866      5868      5834      5860      5866      5869
      5835      5834      5836      5837      5835      5834      5836      5841
      5835      5834      5860      5861      5835      5834      5860      5862
      5835      5834      5860      5866      5836      5826      5824      5847
      5836      5834      5860      5861      5836      5834      5860      5862
      5836      5834      5860      5866      5836      5841      5844      5845
      5836      5841      5844      5846      5836      5841      5844      5847
      5837      5836      5834      5860      5837      5836      5841      5842
      5837      5836      5841      5843      5837      5836      5841      5844
      5838      5837      5836      5841      5839      5837      5836      5841
      5840      5837      5836      5841      5841      5836      5834      5860
      5841      5844      5847      5848      5841      5844      5847      5849
      5842      5841      5844      5845      5842      5841      5844      5846
      5842      5841      5844      5847      5843      5841      5844      5845
      5843      5841      5844      5846      5843      5841      5844      5847
      5844      5847      5849      5850      5844      5847      5849      5854
      5845      5844      5847      5848      5845      5844      5847      5849
      5846      5844      5847      5848      5846      5844      5847      5849
      5847      5849      5850      5851      5847      5849      5850      5852
      5847      5849      5850      5853      5847      5849      5854      5855
      5847      5849      5854      5856      5847      5849      5854      5857
      5848      5847      5849      5850      5848      5847      5849      5854
      5849      5854      5857      5858      5849      5854      5857      5859
      5850      5849      5854      5855      5850      5849      5854      5856
      5850      5849      5854      5857      5851      5850      5849      5854
      5852      5850      5849      5854      5853      5850      5849      5854
      5855      5854      5857      5858      5855      5854      5857      5859
      5856      5854      5857      5858      5856      5854      5857      5859
      5860      5866      5869      5870      5860      5866      5869      5871
      5860      5866      5869      5872      5861      5860      5862      5863
      5861      5860      5862      5864      5861      5860      5862      5865
      5861      5860      5866      5867      5861      5860      5866      5868
      5861      5860      5866      5869      5862      5860      5866      5867
      5862      5860      5866      5868      5862      5860      5866      5869
      5863      5862      5860      5866      5864      5862      5860      5866
      5865      5862      5860      5866      5866      5869      5872      5873
      5866      5869      5872      5874      5866      5869      5872      5875
      5867      5866      5869      5870      5867      5866      5869      5871
      5867      5866      5869      5872      5868      5866      5869      5870
      5868      5866      5869      5871      5868      5866      5869      5872
      5869      5872      5875      5876      5869      5872      5875      5877
      5869      5872      5875      5881      5870      5869      5872      5873
      5870      5869      5872      5874      5870      5869      5872      5875
      5871      5869      5872      5873      5871      5869      5872      5874
      5871      5869      5872      5875      5872      5875      5877      5878
      5872      5875      5877      5879      5872      5875      5877      5880
      5872      5875      5881      5882      5872      5875      5881      5883
      5872      5875      5881      5884      5873      5872      5875      5876
      5873      5872      5875      5877      5873      5872      5875      5881
      5874      5872      5875      5876      5874      5872      5875      5877
      5874      5872      5875      5881      5876      5875      5877      5878
      5876      5875      5877      5879      5876      5875      5877      5880
      5876      5875      5881      5882      5876      5875      5881      5883
      5876      5875      5881      5884      5877      5875      5881      5882
      5877      5875      5881      5883      5877      5875      5881      5884
      5878      5877      5875      5881      5879      5877      5875      5881
      5880      5877      5875      5881      5885      5889      5892      5893
      5885      5889      5892      5923      5885      5931      5928      5923
      5885      5931      5928      5929      5885      5931      5928      5930
      5886      5885      5887      5888      5886      5885      5889      5890
      5886      5885      5889      5891      5886      5885      5889      5892
      5886      5885      5931      5928      5886      5885      5931      5932
      5886      5885      5931      5933      5887      5885      5889      5890
      5887      5885      5889      5891      5887      5885      5889      5892
      5887      5885      5931      5928      5887      5885      5931      5932
      5887      5885      5931      5933      5888      5887      5885      5889
      5888      5887      5885      5931      5889      5885      5931      5928
      5889      5885      5931      5932      5889      5885      5931      5933
      5889      5892      5893      5894      5889      5892      5893      5895
      5889      5892      5923      5921      5889      5892      5923      5924
      5889      5892      5923      5928      5890      5889      5885      5931
      5890      5889      5892      5893      5890      5889      5892      5923
      5891      5889      5885      5931      5891      5889      5892      5893
      5891      5889      5892      5923      5892      5889      5885      5931
      5892      5893      5895      5896      5892      5893      5895      5897
      5892      5893      5895      5898      5892      5923      5921      5898
      5892      5923      5921      5918      5892      5923      5921      5922
      5892      5923      5924      5925      5892      5923      5924      5926
      5892      5923      5924      5927      5892      5923      5928      5929
      5892      5923      5928      5930      5892      5923      5928      5931
      5893      5892      5923      5921      5893      5892      5923      5924
      5893      5892      5923      5928      5893      5895      5898      5899
      5893      5895      5898      5900      5893      5895      5898      5921
      5894      5893      5892      5923      5894      5893      5895      5896
      5894      5893      5895      5897      5894      5893      5895      5898
      5895      5893      5892      5923      5895      5898      5900      5901
      5895      5898      5900      5902      5895      5898      5900      5910
      5895      5898      5921      5918      5895      5898      5921      5922
      5895      5898      5921      5923      5896      5895      5898      5899
      5896      5895      5898      5900      5896      5895      5898      5921
      5897      5895      5898      5899      5897      5895      5898      5900
      5897      5895      5898      5921      5898      5900      5902      5903
      5898      5900      5902      5904      5898      5900      5902      5905
      5898      5900      5910      5908      5898      5900      5910      5911
      5898      5900      5910      5915      5898      5921      5918      5915
      5898      5921      5918      5919      5898      5921      5918      5920
      5898      5921      5923      5924      5898      5921      5923      5928
      5899      5898      5900      5901      5899      5898      5900      5902
      5899      5898      5900      5910      5899      5898      5921      5918
      5899      5898      5921      5922      5899      5898      5921      5923
      5900      5898      5921      5918      5900      5898      5921      5922
      5900      5898      5921      5923      5900      5902      5905      5906
      5900      5902      5905      5907      5900      5902      5905      5908
      5900      5910      5908      5905      5900      5910      5908      5909
      5900      5910      5908      5934      5900      5910      5911      5912
      5900      5910      5911      5913      5900      5910      5911      5914
      5900      5910      5915      5916      5900      5910      5915      5917
      5900      5910      5915      5918      5901      5900      5898      5921
      5901      5900      5902      5903      5901      5900      5902      5904
      5901      5900      5902      5905      5901      5900      5910      5908
      5901      5900      5910      5911      5901      5900      5910      5915
      5902      5900      5898      5921      5902      5900      5910      5908
      5902      5900      5910      5911      5902      5900      5910      5915
      5902      5905      5908      5909      5902      5905      5908      5910
      5902      5905      5908      5934      5903      5902      5900      5910
      5903      5902      5905      5906      5903      5902      5905      5907
      5903      5902      5905      5908      5904      5902      5900      5910
      5904      5902      5905      5906      5904      5902      5905      5907
      5904      5902      5905      5908      5905      5902      5900      5910
      5905      5908      5910      5911      5905      5908      5910      5915
      5905      5908      5934      5935      5905      5908      5934      5936
      5905      5908      5934      5940      5906      5905      5908      5909
      5906      5905      5908      5910      5906      5905      5908      5934
      5907      5905      5908      5909      5907      5905      5908      5910
      5907      5905      5908      5934      5908      5910      5911      5912
      5908      5910      5911      5913      5908      5910      5911      5914
      5908      5910      5915      5916      5908      5910      5915      5917
      5908      5910      5915      5918      5908      5934      5936      5937
      5908      5934      5936      5938      5908      5934      5936      5939
      5908      5934      5940      5941      5908      5934      5940      5942
      5908      5934      5940      5943      5909      5908      5910      5911
      5909      5908      5910      5915      5909      5908      5934      5935
      5909      5908      5934      5936      5909      5908      5934      5940
      5910      5900      5898      5921      5910      5908      5934      5935
      5910      5908      5934      5936      5910      5908      5934      5940
      5910      5915      5918      5919      5910      5915      5918      5920
      5910      5915      5918      5921      5911      5910      5908      5934
      5911      5910      5915      5916      5911      5910      5915      5917
      5911      5910      5915      5918      5912      5911      5910      5915
      5913      5911      5910      5915      5914      5911      5910      5915
      5915      5910      5908      5934      5915      5918      5921      5922
      5915      5918      5921      5923      5916      5915      5918      5919
      5916      5915      5918      5920      5916      5915      5918      5921
      5917      5915      5918      5919      5917      5915      5918      5920
      5917      5915      5918      5921      5918      5921      5923      5924
      5918      5921      5923      5928      5919      5918      5921      5922
      5919      5918      5921      5923      5920      5918      5921      5922
      5920      5918      5921      5923      5921      5923      5924      5925
      5921      5923      5924      5926      5921      5923      5924      5927
      5921      5923      5928      5929      5921      5923      5928      5930
      5921      5923      5928      5931      5922      5921      5923      5924
      5922      5921      5923      5928      5923      5928      5931      5932
      5923      5928      5931      5933      5924      5923      5928      5929
      5924      5923      5928      5930      5924      5923      5928      5931
      5925      5924      5923      5928      5926      5924      5923      5928
      5927      5924      5923      5928      5929      5928      5931      5932
      5929      5928      5931      5933      5930      5928      5931      5932
      5930      5928      5931      5933      5934      5940      5943      5944
      5934      5940      5943      5945      5934      5940      5943      5946
      5935      5934      5936      5937      5935      5934      5936      5938
      5935      5934      5936      5939      5935      5934      5940      5941
      5935      5934      5940      5942      5935      5934      5940      5943
      5936      5934      5940      5941      5936      5934      5940      5942
      5936      5934      5940      5943      5937      5936      5934      5940
      5938      5936      5934      5940      5939      5936      5934      5940
      5940      5943      5946      5947      5940      5943      5946      5948
      5940      5943      5946      5949      5941      5940      5943      5944
      5941      5940      5943      5945      5941      5940      5943      5946
      5942      5940      5943      5944      5942      5940      5943      5945
      5942      5940      5943      5946      5943      5946      5949      5950
      5943      5946      5949      5951      5943      5946      5949      5955
      5944      5943      5946      5947      5944      5943      5946      5948
      5944      5943      5946      5949      5945      5943      5946      5947
      5945      5943      5946      5948      5945      5943      5946      5949
      5946      5949      5951      5952      5946      5949      5951      5953
      5946      5949      5951      5954      5946      5949      5955      5956
      5946      5949      5955      5957      5946      5949      5955      5958
      5947      5946      5949      5950      5947      5946      5949      5951
      5947      5946      5949      5955      5948      5946      5949      5950
      5948      5946      5949      5951      5948      5946      5949      5955
      5950      5949      5951      5952      5950      5949      5951      5953
      5950      5949      5951      5954      5950      5949      5955      5956
      5950      5949      5955      5957      5950      5949      5955      5958
      5951      5949      5955      5956      5951      5949      5955      5957
      5951      5949      5955      5958      5952      5951      5949      5955
      5953      5951      5949      5955      5954      5951      5949      5955
       134       138       140       141       134       138       140       142
       134       138       143       144       134       138       143       145
       134       138       143       149       135       134       138       139
       135       134       138       140       135       134       138       143
       136       134       138       139       136       134       138       140
       136       134       138       143       137       134       138       139
       137       134       138       140       137       134       138       143
       138       143       149       146       139       138       140       141
       139       138       140       142       139       138       143       144
       139       138       143       145       139       138       143       149
       140       138       143       144       140       138       143       145
       140       138       143       149       141       140       138       143
       142       140       138       143       143       149       146       147
       143       149       146       148       143       149       146       150
       144       143       149       146       145       143       149       146
       146       150       151       152       146       150       151       153
       146       150       151       154       147       146       150       151
       148       146       150       151       149       146       150       151
       150       151       154       155       150       151       154       156
       150       151       154       162       151       154       156       157
       151       154       162       163       151       154       162       164
       151       154       162       165       152       151       154       155
       152       151       154       156       152       151       154       162
       153       151       154       155       153       151       154       156
       153       151       154       162       154       156       157       158
       154       156       157       159       154       162       165       166
       155       154       156       157       155       154       162       163
       155       154       162       164       155       154       162       165
       156       154       162       163       156       154       162       164
       156       154       162       165       156       157       159       160
       156       157       159       161       156       157       159       171
       157       156       154       162       157       159       171       172
       157       159       171       173       157       159       171       174
       158       157       159       160       158       157       159       161
       158       157       159       171       159       171       174       175
       159       171       174       176       159       171       174       177
       160       159       171       172       160       159       171       173
       160       159       171       174       161       159       171       172
       161       159       171       173       161       159       171       174
       162       165       166       167       162       165       166       168
       163       162       165       166       164       162       165       166
       165       166       168       169       165       166       168       170
       165       166       168       218       166       168       218       219
       166       168       218       220       166       168       218       221
       167       166       168       169       167       166       168       170
       167       166       168       218       168       218       221       222
       168       218       221       223       168       218       221       224
       169       168       218       219       169       168       218       220
       169       168       218       221       170       168       218       219
       170       168       218       220       170       168       218       221
       171       174       177       178       171       174       177       179
       172       171       174       175       172       171       174       176
       172       171       174       177       173       171       174       175
       173       171       174       176       173       171       174       177
       174       177       179       180       174       177       179       181
       175       174       177       178       175       174       177       179
       176       174       177       178       176       174       177       179
       177       179       181       182       177       179       181       183
       177       179       181       184       178       177       179       180
       178       177       179       181       179       181       184       185
       179       181       184       186       180       179       181       182
       180       179       181       183       180       179       181       184
       181       184       186       187       181       184       186       188
       182       181       184       185       182       181       184       186
       183       181       184       185       183       181       184       186
       184       186       188       189       184       186       188       190
       184       186       188       191       185       184       186       187
       185       184       186       188       186       188       191       192
       186       188       191       193       187       186       188       189
       187       186       188       190       187       186       188       191
       188       191       193       194       188       191       193       195
       189       188       191       192       189       188       191       193
       190       188       191       192       190       188       191       193
       191       193       195       196       191       193       195       197
       191       193       195       198       192       191       193       194
       192       191       193       195       193       195       198       199
       193       195       198       200       194       193       195       196
       194       193       195       197       194       193       195       198
       195       198       200       201       195       198       200       202
       196       195       198       199       196       195       198       200
       197       195       198       199       197       195       198       200
       198       200       202       203       198       200       202       204
       198       200       202       205       199       198       200       201
       199       198       200       202       200       202       205       206
       200       202       205       207       200       202       205       208
       201       200       202       203       201       200       202       204
       201       200       202       205       202       205       208       209
       202       205       208       210       202       205       208       211
       203       202       205       206       203       202       205       207
       203       202       205       208       204       202       205       206
       204       202       205       207       204       202       205       208
       205       208       211       212       205       208       211       213
       205       208       211       214       206       205       208       209
       206       205       208       210       206       205       208       211
       207       205       208       209       207       205       208       210
       207       205       208       211       208       211       214       215
       208       211       214       216       208       211       214       217
       209       208       211       212       209       208       211       213
       209       208       211       214       210       208       211       212
       210       208       211       213       210       208       211       214
       212       211       214       215       212       211       214       216
       212       211       214       217       213       211       214       215
       213       211       214       216       213       211       214       217
       218       221       224       225       218       221       224       226
       218       221       224       227       219       218       221       222
       219       218       221       223       219       218       221       224
       220       218       221       222       220       218       221       223
       220       218       221       224       221       224       227       228
       221       224       227       229       221       224       227       230
       222       221       224       225       222       221       224       226
       222       221       224       227       223       221       224       225
       223       221       224       226       223       221       224       227
       224       227       230       231       224       227       230       232
       224       227       230       233       225       224       227       228
       225       224       227       229       225       224       227       230
       226       224       227       228       226       224       227       229
       226       224       227       230       227       230       233       234
       227       230       233       235       227       230       233       236
       228       227       230       231       228       227       230       232
       228       227       230       233       229       227       230       231
       229       227       230       232       229       227       230       233
       230       233       236       237       230       233       236       238
       230       233       236       239       231       230       233       234
       231       230       233       235       231       230       233       236
       232       230       233       234       232       230       233       235
       232       230       233       236       233       236       239       240
       233       236       239       241       233       236       239       242
       234       233       236       237       234       233       236       238
       234       233       236       239       235       233       236       237
       235       233       236       238       235       233       236       239
       236       239       242       243       236       239       242       244
       236       239       242       245       237       236       239       240
       237       236       239       241       237       236       239       242
       238       236       239       240       238       236       239       241
       238       236       239       242       239       242       245       246
       239       242       245       247       239       242       245       248
       240       239       242       243       240       239       242       244
       240       239       242       245       241       239       242       243
       241       239       242       244       241       239       242       245
       242       245       248       249       242       245       248       250
       242       245       248       251       243       242       245       246
       243       242       245       247       243       242       245       248
       244       242       245       246       244       242       245       247
       244       242       245       248       245       248       251       252
       245       248       251       253       245       248       251       254
       246       245       248       249       246       245       248       250
       246       245       248       251       247       245       248       249
       247       245       248       250       247       245       248       251
       248       251       254       255       248       251       254       256
       248       251       254       257       249       248       251       252
       249       248       251       253       249       248       251       254
       250       248       251       252       250       248       251       253
       250       248       251       254       251       254       257       258
       251       254       257       259       251       254       257       260
       252       251       254       255       252       251       254       256
       252       251       254       257       253       251       254       255
       253       251       254       256       253       251       254       257
       254       257       260       261       254       257       260       262
       254       257       260       263       255       254       257       258
       255       254       257       259       255       254       257       260
       256       254       257       258       256       254       257       259
       256       254       257       260       257       260       263       264
       257       260       263       265       257       260       263       266
       258       257       260       261       258       257       260       262
       258       257       260       263       259       257       260       261
       259       257       260       262       259       257       260       263
       261       260       263       264       261       260       263       265
       261       260       263       266       262       260       263       264
       262       260       263       265       262       260       263       266
      9847      9860      9863      9864      9847      9860      9863      9865
      9847      9860      9863      9870      9848      9847      9852      9853
      9848      9847      9852      9854      9848      9847      9852      9855
      9848      9847      9856      9857      9848      9847      9856      9858
      9848      9847      9856      9859      9848      9847      9860      9861
      9848      9847      9860      9862      9848      9847      9860      9863
      9849      9848      9847      9852      9849      9848      9847      9856
      9849      9848      9847      9860      9850      9848      9847      9852
      9850      9848      9847      9856      9850      9848      9847      9860
      9851      9848      9847      9852      9851      9848      9847      9856
      9851      9848      9847      9860      9852      9847      9856      9857
      9852      9847      9856      9858      9852      9847      9856      9859
      9852      9847      9860      9861      9852      9847      9860      9862
      9852      9847      9860      9863      9853      9852      9847      9856
      9853      9852      9847      9860      9854      9852      9847      9856
      9854      9852      9847      9860      9855      9852      9847      9856
      9855      9852      9847      9860      9856      9847      9860      9861
      9856      9847      9860      9862      9856      9847      9860      9863
      9857      9856      9847      9860      9858      9856      9847      9860
      9859      9856      9847      9860      9860      9863      9870      9866
      9861      9860      9863      9864      9861      9860      9863      9865
      9861      9860      9863      9870      9862      9860      9863      9864
      9862      9860      9863      9865      9862      9860      9863      9870
      9863      9870      9866      9867      9863      9870      9866      9868
      9863      9870      9866      9869      9864      9863      9870      9866
      9865      9863      9870      9866      9866      9869      9871      9872
      9866      9869      9871      9873      9866      9869      9871      9876
      9867      9866      9869      9871      9868      9866      9869      9871
      9869      9871      9876      9874      9869      9871      9876      9877
      9869      9871      9876      9878      9870      9866      9869      9871
      9871      9876      9874      9875      9871      9876      9874      9926
      9871      9876      9878      9879      9871      9876      9878      9880
      9871      9876      9878      9882      9872      9871      9876      9874
      9872      9871      9876      9877      9872      9871      9876      9878
      9873      9871      9876      9874      9873      9871      9876      9877
      9873      9871      9876      9878      9874      9876      9878      9879
      9874      9876      9878      9880      9874      9876      9878      9882
      9874      9926      9928      9929      9874      9926      9928      9930
      9874      9926      9928      9931      9875      9874      9876      9877
      9875      9874      9876      9878      9875      9874      9926      9927
      9875      9874      9926      9928      9876      9874      9926      9927
      9876      9874      9926      9928      9876      9878      9880      9881
      9876      9878      9882      9883      9876      9878      9882      9884
      9877      9876      9874      9926      9877      9876      9878      9879
      9877      9876      9878      9880      9877      9876      9878      9882
      9878      9876      9874      9926      9878      9882      9884      9885
      9878      9882      9884      9886      9879      9878      9880      9881
      9879      9878      9882      9883      9879      9878      9882      9884
      9880      9878      9882      9883      9880      9878      9882      9884
      9881      9880      9878      9882      9882      9884      9886      9887
      9882      9884      9886      9888      9882      9884      9886      9889
      9883      9882      9884      9885      9883      9882      9884      9886
      9884      9886      9889      9890      9884      9886      9889      9891
      9884      9886      9889      9892      9885      9884      9886      9887
      9885      9884      9886      9888      9885      9884      9886      9889
      9886      9889      9892      9893      9886      9889      9892      9894
      9886      9889      9892      9895      9887      9886      9889      9890
      9887      9886      9889      9891      9887      9886      9889      9892
      9888      9886      9889      9890      9888      9886      9889      9891
      9888      9886      9889      9892      9889      9892      9895      9896
      9889      9892      9895      9897      9889      9892      9895      9898
      9890      9889      9892      9893      9890      9889      9892      9894
      9890      9889      9892      9895      9891      9889      9892      9893
      9891      9889      9892      9894      9891      9889      9892      9895
      9892      9895      9898      9899      9892      9895      9898      9900
      9892      9895      9898      9901      9893      9892      9895      9896
      9893      9892      9895      9897      9893      9892      9895      9898
      9894      9892      9895      9896      9894      9892      9895      9897
      9894      9892      9895      9898      9895      9898      9901      9902
      9895      9898      9901      9903      9895      9898      9901      9904
      9896      9895      9898      9899      9896      9895      9898      9900
      9896      9895      9898      9901      9897      9895      9898      9899
      9897      9895      9898      9900      9897      9895      9898      9901
      9898      9901      9904      9905      9898      9901      9904      9906
      9898      9901      9904      9907      9899      9898      9901      9902
      9899      9898      9901      9903      9899      9898      9901      9904
      9900      9898      9901      9902      9900      9898      9901      9903
      9900      9898      9901      9904      9901      9904      9907      9908
      9901      9904      9907      9909      9901      9904      9907      9910
      9902      9901      9904      9905      9902      9901      9904      9906
      9902      9901      9904      9907      9903      9901      9904      9905
      9903      9901      9904      9906      9903      9901      9904      9907
      9904      9907      9910      9911      9904      9907      9910      9912
      9904      9907      9910      9913      9905      9904      9907      9908
      9905      9904      9907      9909      9905      9904      9907      9910
      9906      9904      9907      9908      9906      9904      9907      9909
      9906      9904      9907      9910      9907      9910      9913      9914
      9907      9910      9913      9915      9907      9910      9913      9916
      9908      9907      9910      9911      9908      9907      9910      9912
      9908      9907      9910      9913      9909      9907      9910      9911
      9909      9907      9910      9912      9909      9907      9910      9913
      9910      9913      9916      9917      9910      9913      9916      9918
      9910      9913      9916      9919      9911      9910      9913      9914
      9911      9910      9913      9915      9911      9910      9913      9916
      9912      9910      9913      9914      9912      9910      9913      9915
      9912      9910      9913      9916      9913      9916      9919      9920
      9913      9916      9919      9921      9913      9916      9919      9922
      9914      9913      9916      9917      9914      9913      9916      9918
      9914      9913      9916      9919      9915      9913      9916      9917
      9915      9913      9916      9918      9915      9913      9916      9919
      9916      9919      9922      9923      9916      9919      9922      9924
      9916      9919      9922      9925      9917      9916      9919      9920
      9917      9916      9919      9921      9917      9916      9919      9922
      9918      9916      9919      9920      9918      9916      9919      9921
      9918      9916      9919      9922      9920      9919      9922      9923
      9920      9919      9922      9924      9920      9919      9922      9925
      9921      9919      9922      9923      9921      9919      9922      9924
      9921      9919      9922      9925      9926      9928      9931      9932
      9926      9928      9931      9933      9926      9928      9931      9934
      9927      9926      9928      9929      9927      9926      9928      9930
      9927      9926      9928      9931      9928      9931      9934      9935
      9928      9931      9934      9936      9928      9931      9934      9937
      9929      9928      9931      9932      9929      9928      9931      9933
      9929      9928      9931      9934      9930      9928      9931      9932
      9930      9928      9931      9933      9930      9928      9931      9934
      9931      9934      9937      9938      9931      9934      9937      9939
      9931      9934      9937      9940      9932      9931      9934      9935
      9932      9931      9934      9936      9932      9931      9934      9937
      9933      9931      9934      9935      9933      9931      9934      9936
      9933      9931      9934      9937      9934      9937      9940      9941
      9934      9937      9940      9942      9934      9937      9940      9943
      9935      9934      9937      9938      9935      9934      9937      9939
      9935      9934      9937      9940      9936      9934      9937      9938
      9936      9934      9937      9939      9936      9934      9937      9940
      9937      9940      9943      9944      9937      9940      9943      9945
      9937      9940      9943      9946      9938      9937      9940      9941
      9938      9937      9940      9942      9938      9937      9940      9943
      9939      9937      9940      9941      9939      9937      9940      9942
      9939      9937      9940      9943      9940      9943      9946      9947
      9940      9943      9946      9948      9940      9943      9946      9949
      9941      9940      9943      9944      9941      9940      9943      9945
      9941      9940      9943      9946      9942      9940      9943      9944
      9942      9940      9943      9945      9942      9940      9943      9946
      9943      9946      9949      9950      9943      9946      9949      9951
      9944      9943      9946      9947      9944      9943      9946      9948
      9944      9943      9946      9949      9945      9943      9946      9947
      9945      9943      9946      9948      9945      9943      9946      9949
      9946      9949      9951      9952      9946      9949      9951      9953
      9947      9946      9949      9950      9947      9946      9949      9951
      9948      9946      9949      9950      9948      9946      9949      9951
      9949      9951      9953      9954      9949      9951      9953      9955
      9949      9951      9953      9956      9950      9949      9951      9952
      9950      9949      9951      9953      9951      9953      9956      9957
      9951      9953      9956      9958      9951      9953      9956      9959
      9952      9951      9953      9954      9952      9951      9953      9955
      9952      9951      9953      9956      9953      9956      9959      9960
      9953      9956      9959      9961      9953      9956      9959      9962
      9954      9953      9956      9957      9954      9953      9956      9958
      9954      9953      9956      9959      9955      9953      9956      9957
      9955      9953      9956      9958      9955      9953      9956      9959
      9956      9959      9962      9963      9956      9959      9962      9964
      9956      9959      9962      9965      9957      9956      9959      9960
      9957      9956      9959      9961      9957      9956      9959      9962
      9958      9956      9959      9960      9958      9956      9959      9961
      9958      9956      9959      9962      9959      9962      9965      9966
      9959      9962      9965      9967      9959      9962      9965      9968
      9960      9959      9962      9963      9960      9959      9962      9964
      9960      9959      9962      9965      9961      9959      9962      9963
      9961      9959      9962      9964      9961      9959      9962      9965
      9962      9965      9968      9969      9962      9965      9968      9970
      9962      9965      9968      9971      9963      9962      9965      9966
      9963      9962      9965      9967      9963      9962      9965      9968
      9964      9962      9965      9966      9964      9962      9965      9967
      9964      9962      9965      9968      9965      9968      9971      9972
      9965      9968      9971      9973      9965      9968      9971      9974
      9966      9965      9968      9969      9966      9965      9968      9970
      9966      9965      9968      9971      9967      9965      9968      9969
      9967      9965      9968      9970      9967      9965      9968      9971
      9968      9971      9974      9975      9968      9971      9974      9976
      9968      9971      9974      9977      9969      9968      9971      9972
      9969      9968      9971      9973      9969      9968      9971      9974
      9970      9968      9971      9972      9970      9968      9971      9973
      9970      9968      9971      9974      9972      9971      9974      9975
      9972      9971      9974      9976      9972      9971      9974      9977
      9973      9971      9974      9975      9973      9971      9974      9976
      9973      9971      9974      9977     19541     19545     19547     19548
     19541     19545     19549     19550     19541     19545     19549     19551
     19541     19545     19549     19553     19541     19561     19557     19553
     19541     19561     19557     19558     19541     19561     19557     19559
     19541     19561     19566     19563     19542     19541     19543     19544
     19542     19541     19545     19546     19542     19541     19545     19547
     19542     19541     19545     19549     19542     19541     19561     19557
     19542     19541     19561     19562     19542     19541     19561     19566
     19543     19541     19545     19546     19543     19541     19545     19547
     19543     19541     19545     19549     19543     19541     19561     19557
     19543     19541     19561     19562     19543     19541     19561     19566
     19544     19543     19541     19545     19544     19543     19541     19561
     19545     19541     19561     19557     19545     19541     19561     19562
     19545     19541     19561     19566     19545     19549     19551     19552
     19545     19549     19553     19554     19545     19549     19553     19555
     19545     19549     19553     19557     19546     19545     19541     19561
     19546     19545     19547     19548     19546     19545     19549     19550
     19546     19545     19549     19551     19546     19545     19549     19553
     19547     19545     19541     19561     19547     19545     19549     19550
     19547     19545     19549     19551     19547     19545     19549     19553
     19548     19547     19545     19549     19549     19545     19541     19561
     19549     19553     19555     19556     19549     19553     19557     19558
     19549     19553     19557     19559     19549     19553     19557     19561
     19550     19549     19551     19552     19550     19549     19553     19554
     19550     19549     19553     19555     19550     19549     19553     19557
     19551     19549     19553     19554     19551     19549     19553     19555
     19551     19549     19553     19557     19552     19551     19549     19553
     19553     19557     19559     19560     19553     19557     19561     19562
     19553     19557     19561     19566     19554     19553     19555     19556
     19554     19553     19557     19558     19554     19553     19557     19559
     19554     19553     19557     19561     19555     19553     19557     19558
     19555     19553     19557     19559     19555     19553     19557     19561
     19556     19555     19553     19557     19557     19561     19566     19563
     19558     19557     19559     19560     19558     19557     19561     19562
     19558     19557     19561     19566     19559     19557     19561     19562
     19559     19557     19561     19566     19560     19559     19557     19561
     19561     19566     19563     19564     19561     19566     19563     19565
     19561     19566     19563     19567     19562     19561     19566     19563
     19563     19567     19568     19569     19563     19567     19568     19570
     19563     19567     19568     19571     19564     19563     19567     19568
     19565     19563     19567     19568     19566     19563     19567     19568
     19567     19568     19571     19572     19567     19568     19571     19573
     19567     19568     19571     19579     19568     19571     19573     19574
     19568     19571     19579     19580     19568     19571     19579     19581
     19568     19571     19579     19582     19569     19568     19571     19572
     19569     19568     19571     19573     19569     19568     19571     19579
     19570     19568     19571     19572     19570     19568     19571     19573
     19570     19568     19571     19579     19571     19573     19574     19575
     19571     19573     19574     19576     19571     19579     19582     19583
     19572     19571     19573     19574     19572     19571     19579     19580
     19572     19571     19579     19581     19572     19571     19579     19582
     19573     19571     19579     19580     19573     19571     19579     19581
     19573     19571     19579     19582     19573     19574     19576     19577
     19573     19574     19576     19578     19573     19574     19576     19588
     19574     19573     19571     19579     19574     19576     19588     19589
     19574     19576     19588     19590     19574     19576     19588     19591
     19575     19574     19576     19577     19575     19574     19576     19578
     19575     19574     19576     19588     19576     19588     19591     19592
     19576     19588     19591     19593     19576     19588     19591     19594
     19577     19576     19588     19589     19577     19576     19588     19590
     19577     19576     19588     19591     19578     19576     19588     19589
     19578     19576     19588     19590     19578     19576     19588     19591
     19579     19582     19583     19584     19579     19582     19583     19585
     19580     19579     19582     19583     19581     19579     19582     19583
     19582     19583     19585     19586     19582     19583     19585     19587
     19582     19583     19585     19635     19583     19585     19635     19636
     19583     19585     19635     19637     19583     19585     19635     19638
     19584     19583     19585     19586     19584     19583     19585     19587
     19584     19583     19585     19635     19585     19635     19638     19639
     19585     19635     19638     19640     19585     19635     19638     19641
     19586     19585     19635     19636     19586     19585     19635     19637
     19586     19585     19635     19638     19587     19585     19635     19636
     19587     19585     19635     19637     19587     19585     19635     19638
     19588     19591     19594     19595     19588     19591     19594     19596
     19589     19588     19591     19592     19589     19588     19591     19593
     19589     19588     19591     19594     19590     19588     19591     19592
     19590     19588     19591     19593     19590     19588     19591     19594
     19591     19594     19596     19597     19591     19594     19596     19598
     19592     19591     19594     19595     19592     19591     19594     19596
     19593     19591     19594     19595     19593     19591     19594     19596
     19594     19596     19598     19599     19594     19596     19598     19600
     19594     19596     19598     19601     19595     19594     19596     19597
     19595     19594     19596     19598     19596     19598     19601     19602
     19596     19598     19601     19603     19597     19596     19598     19599
     19597     19596     19598     19600     19597     19596     19598     19601
     19598     19601     19603     19604     19598     19601     19603     19605
     19599     19598     19601     19602     19599     19598     19601     19603
     19600     19598     19601     19602     19600     19598     19601     19603
     19601     19603     19605     19606     19601     19603     19605     19607
     19601     19603     19605     19608     19602     19601     19603     19604
     19602     19601     19603     19605     19603     19605     19608     19609
     19603     19605     19608     19610     19604     19603     19605     19606
     19604     19603     19605     19607     19604     19603     19605     19608
     19605     19608     19610     19611     19605     19608     19610     19612
     19606     19605     19608     19609     19606     19605     19608     19610
     19607     19605     19608     19609     19607     19605     19608     19610
     19608     19610     19612     19613     19608     19610     19612     19614
     19608     19610     19612     19615     19609     19608     19610     19611
     19609     19608     19610     19612     19610     19612     19615     19616
     19610     19612     19615     19617     19611     19610     19612     19613
     19611     19610     19612     19614     19611     19610     19612     19615
     19612     19615     19617     19618     19612     19615     19617     19619
     19613     19612     19615     19616     19613     19612     19615     19617
     19614     19612     19615     19616     19614     19612     19615     19617
     19615     19617     19619     19620     19615     19617     19619     19621
     19615     19617     19619     19622     19616     19615     19617     19618
     19616     19615     19617     19619     19617     19619     19622     19623
     19617     19619     19622     19624     19617     19619     19622     19625
     19618     19617     19619     19620     19618     19617     19619     19621
     19618     19617     19619     19622     19619     19622     19625     19626
     19619     19622     19625     19627     19619     19622     19625     19628
     19620     19619     19622     19623     19620     19619     19622     19624
     19620     19619     19622     19625     19621     19619     19622     19623
     19621     19619     19622     19624     19621     19619     19622     19625
     19622     19625     19628     19629     19622     19625     19628     19630
     19622     19625     19628     19631     19623     19622     19625     19626
     19623     19622     19625     19627     19623     19622     19625     19628
     19624     19622     19625     19626     19624     19622     19625     19627
     19624     19622     19625     19628     19625     19628     19631     19632
     19625     19628     19631     19633     19625     19628     19631     19634
     19626     19625     19628     19629     19626     19625     19628     19630
     19626     19625     19628     19631     19627     19625     19628     19629
     19627     19625     19628     19630     19627     19625     19628     19631
     19629     19628     19631     19632     19629     19628     19631     19633
     19629     19628     19631     19634     19630     19628     19631     19632
     19630     19628     19631     19633     19630     19628     19631     19634
     19635     19638     19641     19642     19635     19638     19641     19643
     19635     19638     19641     19644     19636     19635     19638     19639
     19636     19635     19638     19640     19636     19635     19638     19641
     19637     19635     19638     19639     19637     19635     19638     19640
     19637     19635     19638     19641     19638     19641     19644     19645
     19638     19641     19644     19646     19638     19641     19644     19647
     19639     19638     19641     19642     19639     19638     19641     19643
     19639     19638     19641     19644     19640     19638     19641     19642
     19640     19638     19641     19643     19640     19638     19641     19644
     19641     19644     19647     19648     19641     19644     19647     19649
     19641     19644     19647     19650     19642     19641     19644     19645
     19642     19641     19644     19646     19642     19641     19644     19647
     19643     19641     19644     19645     19643     19641     19644     19646
     19643     19641     19644     19647     19644     19647     19650     19651
     19644     19647     19650     19652     19644     19647     19650     19653
     19645     19644     19647     19648     19645     19644     19647     19649
     19645     19644     19647     19650     19646     19644     19647     19648
     19646     19644     19647     19649     19646     19644     19647     19650
     19647     19650     19653     19654     19647     19650     19653     19655
     19647     19650     19653     19656     19648     19647     19650     19651
     19648     19647     19650     19652     19648     19647     19650     19653
     19649     19647     19650     19651     19649     19647     19650     19652
     19649     19647     19650     19653     19650     19653     19656     19657
     19650     19653     19656     19658     19650     19653     19656     19659
     19651     19650     19653     19654     19651     19650     19653     19655
     19651     19650     19653     19656     19652     19650     19653     19654
     19652     19650     19653     19655     19652     19650     19653     19656
     19653     19656     19659     19660     19653     19656     19659     19661
     19653     19656     19659     19662     19654     19653     19656     19657
     19654     19653     19656     19658     19654     19653     19656     19659
     19655     19653     19656     19657     19655     19653     19656     19658
     19655     19653     19656     19659     19656     19659     19662     19663
     19656     19659     19662     19664     19656     19659     19662     19665
     19657     19656     19659     19660     19657     19656     19659     19661
     19657     19656     19659     19662     19658     19656     19659     19660
     19658     19656     19659     19661     19658     19656     19659     19662
     19659     19662     19665     19666     19659     19662     19665     19667
     19659     19662     19665     19668     19660     19659     19662     19663
     19660     19659     19662     19664     19660     19659     19662     19665
     19661     19659     19662     19663     19661     19659     19662     19664
     19661     19659     19662     19665     19662     19665     19668     19669
     19662     19665     19668     19670     19662     19665     19668     19671
     19663     19662     19665     19666     19663     19662     19665     19667
     19663     19662     19665     19668     19664     19662     19665     19666
     19664     19662     19665     19667     19664     19662     19665     19668
     19665     19668     19671     19672     19665     19668     19671     19673
     19665     19668     19671     19674     19666     19665     19668     19669
     19666     19665     19668     19670     19666     19665     19668     19671
     19667     19665     19668     19669     19667     19665     19668     19670
     19667     19665     19668     19671     19668     19671     19674     19675
     19668     19671     19674     19676     19668     19671     19674     19677
     19669     19668     19671     19672     19669     19668     19671     19673
     19669     19668     19671     19674     19670     19668     19671     19672
     19670     19668     19671     19673     19670     19668     19671     19674
     19671     19674     19677     19678     19671     19674     19677     19679
     19671     19674     19677     19680     19672     19671     19674     19675
     19672     19671     19674     19676     19672     19671     19674     19677
     19673     19671     19674     19675     19673     19671     19674     19676
     19673     19671     19674     19677     19674     19677     19680     19681
     19674     19677     19680     19682     19674     19677     19680     19683
     19675     19674     19677     19678     19675     19674     19677     19679
     19675     19674     19677     19680     19676     19674     19677     19678
     19676     19674     19677     19679     19676     19674     19677     19680
     19678     19677     19680     19681     19678     19677     19680     19682
     19678     19677     19680     19683     19679     19677     19680     19681
     19679     19677     19680     19682     19679     19677     19680     19683
     14432     14436     14439     14440     14432     14436     14439     14441
     14432     14436     14439     14445     14433     14432     14436     14437
     14433     14432     14436     14438     14433     14432     14436     14439
     14434     14432     14436     14437     14434     14432     14436     14438
     14434     14432     14436     14439     14435     14432     14436     14437
     14435     14432     14436     14438     14435     14432     14436     14439
     14436     14439     14445     14442     14437     14436     14439     14440
     14437     14436     14439     14441     14437     14436     14439     14445
     14438     14436     14439     14440     14438     14436     14439     14441
     14438     14436     14439     14445     14439     14445     14442     14443
     14439     14445     14442     14444     14439     14445     14442     14446
     14440     14439     14445     14442     14441     14439     14445     14442
     14442     14446     14447     14448     14442     14446     14447     14449
     14442     14446     14447     14450     14443     14442     14446     14447
     14444     14442     14446     14447     14445     14442     14446     14447
     14446     14447     14450     14451     14446     14447     14450     14452
     14446     14447     14450     14458     14447     14450     14452     14453
     14447     14450     14458     14459     14447     14450     14458     14460
     14447     14450     14458     14461     14448     14447     14450     14451
     14448     14447     14450     14452     14448     14447     14450     14458
     14449     14447     14450     14451     14449     14447     14450     14452
     14449     14447     14450     14458     14450     14452     14453     14454
     14450     14452     14453     14455     14450     14458     14461     14462
     14451     14450     14452     14453     14451     14450     14458     14459
     14451     14450     14458     14460     14451     14450     14458     14461
     14452     14450     14458     14459     14452     14450     14458     14460
     14452     14450     14458     14461     14452     14453     14455     14456
     14452     14453     14455     14457     14452     14453     14455     14467
     14453     14452     14450     14458     14453     14455     14467     14468
     14453     14455     14467     14469     14453     14455     14467     14470
     14454     14453     14455     14456     14454     14453     14455     14457
     14454     14453     14455     14467     14455     14467     14470     14471
     14455     14467     14470     14472     14455     14467     14470     14473
     14456     14455     14467     14468     14456     14455     14467     14469
     14456     14455     14467     14470     14457     14455     14467     14468
     14457     14455     14467     14469     14457     14455     14467     14470
     14458     14461     14462     14463     14458     14461     14462     14464
     14459     14458     14461     14462     14460     14458     14461     14462
     14461     14462     14464     14465     14461     14462     14464     14466
     14461     14462     14464     14514     14462     14464     14514     14515
     14462     14464     14514     14516     14462     14464     14514     14517
     14463     14462     14464     14465     14463     14462     14464     14466
     14463     14462     14464     14514     14464     14514     14517     14518
     14464     14514     14517     14519     14464     14514     14517     14520
     14465     14464     14514     14515     14465     14464     14514     14516
     14465     14464     14514     14517     14466     14464     14514     14515
     14466     14464     14514     14516     14466     14464     14514     14517
     14467     14470     14473     14474     14467     14470     14473     14475
     14468     14467     14470     14471     14468     14467     14470     14472
     14468     14467     14470     14473     14469     14467     14470     14471
     14469     14467     14470     14472     14469     14467     14470     14473
     14470     14473     14475     14476     14470     14473     14475     14477
     14471     14470     14473     14474     14471     14470     14473     14475
     14472     14470     14473     14474     14472     14470     14473     14475
     14473     14475     14477     14478     14473     14475     14477     14479
     14473     14475     14477     14480     14474     14473     14475     14476
     14474     14473     14475     14477     14475     14477     14480     14481
     14475     14477     14480     14482     14476     14475     14477     14478
     14476     14475     14477     14479     14476     14475     14477     14480
     14477     14480     14482     14483     14477     14480     14482     14484
     14478     14477     14480     14481     14478     14477     14480     14482
     14479     14477     14480     14481     14479     14477     14480     14482
     14480     14482     14484     14485     14480     14482     14484     14486
     14480     14482     14484     14487     14481     14480     14482     14483
     14481     14480     14482     14484     14482     14484     14487     14488
     14482     14484     14487     14489     14483     14482     14484     14485
     14483     14482     14484     14486     14483     14482     14484     14487
     14484     14487     14489     14490     14484     14487     14489     14491
     14485     14484     14487     14488     14485     14484     14487     14489
     14486     14484     14487     14488     14486     14484     14487     14489
     14487     14489     14491     14492     14487     14489     14491     14493
     14487     14489     14491     14494     14488     14487     14489     14490
     14488     14487     14489     14491     14489     14491     14494     14495
     14489     14491     14494     14496     14490     14489     14491     14492
     14490     14489     14491     14493     14490     14489     14491     14494
     14491     14494     14496     14497     14491     14494     14496     14498
     14492     14491     14494     14495     14492     14491     14494     14496
     14493     14491     14494     14495     14493     14491     14494     14496
     14494     14496     14498     14499     14494     14496     14498     14500
     14494     14496     14498     14501     14495     14494     14496     14497
     14495     14494     14496     14498     14496     14498     14501     14502
     14496     14498     14501     14503     14496     14498     14501     14504
     14497     14496     14498     14499     14497     14496     14498     14500
     14497     14496     14498     14501     14498     14501     14504     14505
     14498     14501     14504     14506     14498     14501     14504     14507
     14499     14498     14501     14502     14499     14498     14501     14503
     14499     14498     14501     14504     14500     14498     14501     14502
     14500     14498     14501     14503     14500     14498     14501     14504
     14501     14504     14507     14508     14501     14504     14507     14509
     14501     14504     14507     14510     14502     14501     14504     14505
     14502     14501     14504     14506     14502     14501     14504     14507
     14503     14501     14504     14505     14503     14501     14504     14506
     14503     14501     14504     14507     14504     14507     14510     14511
     14504     14507     14510     14512     14504     14507     14510     14513
     14505     14504     14507     14508     14505     14504     14507     14509
     14505     14504     14507     14510     14506     14504     14507     14508
     14506     14504     14507     14509     14506     14504     14507     14510
     14508     14507     14510     14511     14508     14507     14510     14512
     14508     14507     14510     14513     14509     14507     14510     14511
     14509     14507     14510     14512     14509     14507     14510     14513
     14514     14517     14520     14521     14514     14517     14520     14522
     14514     14517     14520     14523     14515     14514     14517     14518
     14515     14514     14517     14519     14515     14514     14517     14520
     14516     14514     14517     14518     14516     14514     14517     14519
     14516     14514     14517     14520     14517     14520     14523     14524
     14517     14520     14523     14525     14517     14520     14523     14526
     14518     14517     14520     14521     14518     14517     14520     14522
     14518     14517     14520     14523     14519     14517     14520     14521
     14519     14517     14520     14522     14519     14517     14520     14523
     14520     14523     14526     14527     14520     14523     14526     14528
     14520     14523     14526     14529     14521     14520     14523     14524
     14521     14520     14523     14525     14521     14520     14523     14526
     14522     14520     14523     14524     14522     14520     14523     14525
     14522     14520     14523     14526     14523     14526     14529     14530
     14523     14526     14529     14531     14523     14526     14529     14532
     14524     14523     14526     14527     14524     14523     14526     14528
     14524     14523     14526     14529     14525     14523     14526     14527
     14525     14523     14526     14528     14525     14523     14526     14529
     14526     14529     14532     14533     14526     14529     14532     14534
     14526     14529     14532     14535     14527     14526     14529     14530
     14527     14526     14529     14531     14527     14526     14529     14532
     14528     14526     14529     14530     14528     14526     14529     14531
     14528     14526     14529     14532     14529     14532     14535     14536
     14529     14532     14535     14537     14529     14532     14535     14538
     14530     14529     14532     14533     14530     14529     14532     14534
     14530     14529     14532     14535     14531     14529     14532     14533
     14531     14529     14532     14534     14531     14529     14532     14535
     14532     14535     14538     14539     14532     14535     14538     14540
     14532     14535     14538     14541     14533     14532     14535     14536
     14533     14532     14535     14537     14533     14532     14535     14538
     14534     14532     14535     14536     14534     14532     14535     14537
     14534     14532     14535     14538     14535     14538     14541     14542
     14535     14538     14541     14543     14535     14538     14541     14544
     14536     14535     14538     14539     14536     14535     14538     14540
     14536     14535     14538     14541     14537     14535     14538     14539
     14537     14535     14538     14540     14537     14535     14538     14541
     14538     14541     14544     14545     14538     14541     14544     14546
     14538     14541     14544     14547     14539     14538     14541     14542
     14539     14538     14541     14543     14539     14538     14541     14544
     14540     14538     14541     14542     14540     14538     14541     14543
     14540     14538     14541     14544     14541     14544     14547     14548
     14541     14544     14547     14549     14541     14544     14547     14550
     14542     14541     14544     14545     14542     14541     14544     14546
     14542     14541     14544     14547     14543     14541     14544     14545
     14543     14541     14544     14546     14543     14541     14544     14547
     14544     14547     14550     14551     14544     14547     14550     14552
     14544     14547     14550     14553     14545     14544     14547     14548
     14545     14544     14547     14549     14545     14544     14547     14550
     14546     14544     14547     14548     14546     14544     14547     14549
     14546     14544     14547     14550     14547     14550     14553     14554
     14547     14550     14553     14555     14547     14550     14553     14556
     14548     14547     14550     14551     14548     14547     14550     14552
     14548     14547     14550     14553     14549     14547     14550     14551
     14549     14547     14550     14552     14549     14547     14550     14553
     14550     14553     14556     14557     14550     14553     14556     14558
     14550     14553     14556     14559     14551     14550     14553     14554
     14551     14550     14553     14555     14551     14550     14553     14556
     14552     14550     14553     14554     14552     14550     14553     14555
     14552     14550     14553     14556     14553     14556     14559     14560
     14553     14556     14559     14561     14553     14556     14559     14562
     14554     14553     14556     14557     14554     14553     14556     14558
     14554     14553     14556     14559     14555     14553     14556     14557
     14555     14553     14556     14558     14555     14553     14556     14559
     14557     14556     14559     14560     14557     14556     14559     14561
     14557     14556     14559     14562     14558     14556     14559     14560
     14558     14556     14559     14561     14558     14556     14559     14562
      5959      5963      5966      5967      5959      5963      5966      5997
      5959      6005      6002      5997      5959      6005      6002      6003
      5959      6005      6002      6004      5960      5959      5961      5962
      5960      5959      5963      5964      5960      5959      5963      5965
      5960      5959      5963      5966      5960      5959      6005      6002
      5960      5959      6005      6006      5960      5959      6005      6007
      5961      5959      5963      5964      5961      5959      5963      5965
      5961      5959      5963      5966      5961      5959      6005      6002
      5961      5959      6005      6006      5961      5959      6005      6007
      5962      5961      5959      5963      5962      5961      5959      6005
      5963      5959      6005      6002      5963      5959      6005      6006
      5963      5959      6005      6007      5963      5966      5967      5968
      5963      5966      5967      5969      5963      5966      5997      5995
      5963      5966      5997      5998      5963      5966      5997      6002
      5964      5963      5959      6005      5964      5963      5966      5967
      5964      5963      5966      5997      5965      5963      5959      6005
      5965      5963      5966      5967      5965      5963      5966      5997
      5966      5963      5959      6005      5966      5967      5969      5970
      5966      5967      5969      5971      5966      5967      5969      5972
      5966      5997      5995      5972      5966      5997      5995      5992
      5966      5997      5995      5996      5966      5997      5998      5999
      5966      5997      5998      6000      5966      5997      5998      6001
      5966      5997      6002      6003      5966      5997      6002      6004
      5966      5997      6002      6005      5967      5966      5997      5995
      5967      5966      5997      5998      5967      5966      5997      6002
      5967      5969      5972      5973      5967      5969      5972      5974
      5967      5969      5972      5995      5968      5967      5966      5997
      5968      5967      5969      5970      5968      5967      5969      5971
      5968      5967      5969      5972      5969      5967      5966      5997
      5969      5972      5974      5975      5969      5972      5974      5976
      5969      5972      5974      5984      5969      5972      5995      5992
      5969      5972      5995      5996      5969      5972      5995      5997
      5970      5969      5972      5973      5970      5969      5972      5974
      5970      5969      5972      5995      5971      5969      5972      5973
      5971      5969      5972      5974      5971      5969      5972      5995
      5972      5974      5976      5977      5972      5974      5976      5978
      5972      5974      5976      5979      5972      5974      5984      5982
      5972      5974      5984      5985      5972      5974      5984      5989
      5972      5995      5992      5989      5972      5995      5992      5993
      5972      5995      5992      5994      5972      5995      5997      5998
      5972      5995      5997      6002      5973      5972      5974      5975
      5973      5972      5974      5976      5973      5972      5974      5984
      5973      5972      5995      5992      5973      5972      5995      5996
      5973      5972      5995      5997      5974      5972      5995      5992
      5974      5972      5995      5996      5974      5972      5995      5997
      5974      5976      5979      5980      5974      5976      5979      5981
      5974      5976      5979      5982      5974      5984      5982      5979
      5974      5984      5982      5983      5974      5984      5982      6008
      5974      5984      5985      5986      5974      5984      5985      5987
      5974      5984      5985      5988      5974      5984      5989      5990
      5974      5984      5989      5991      5974      5984      5989      5992
      5975      5974      5972      5995      5975      5974      5976      5977
      5975      5974      5976      5978      5975      5974      5976      5979
      5975      5974      5984      5982      5975      5974      5984      5985
      5975      5974      5984      5989      5976      5974      5972      5995
      5976      5974      5984      5982      5976      5974      5984      5985
      5976      5974      5984      5989      5976      5979      5982      5983
      5976      5979      5982      5984      5976      5979      5982      6008
      5977      5976      5974      5984      5977      5976      5979      5980
      5977      5976      5979      5981      5977      5976      5979      5982
      5978      5976      5974      5984      5978      5976      5979      5980
      5978      5976      5979      5981      5978      5976      5979      5982
      5979      5976      5974      5984      5979      5982      5984      5985
      5979      5982      5984      5989      5979      5982      6008      6009
      5979      5982      6008      6010      5979      5982      6008      6014
      5980      5979      5982      5983      5980      5979      5982      5984
      5980      5979      5982      6008      5981      5979      5982      5983
      5981      5979      5982      5984      5981      5979      5982      6008
      5982      5984      5985      5986      5982      5984      5985      5987
      5982      5984      5985      5988      5982      5984      5989      5990
      5982      5984      5989      5991      5982      5984      5989      5992
      5982      6008      6010      6011      5982      6008      6010      6012
      5982      6008      6010      6013      5982      6008      6014      6015
      5982      6008      6014      6016      5982      6008      6014      6017
      5983      5982      5984      5985      5983      5982      5984      5989
      5983      5982      6008      6009      5983      5982      6008      6010
      5983      5982      6008      6014      5984      5974      5972      5995
      5984      5982      6008      6009      5984      5982      6008      6010
      5984      5982      6008      6014      5984      5989      5992      5993
      5984      5989      5992      5994      5984      5989      5992      5995
      5985      5984      5982      6008      5985      5984      5989      5990
      5985      5984      5989      5991      5985      5984      5989      5992
      5986      5985      5984      5989      5987      5985      5984      5989
      5988      5985      5984      5989      5989      5984      5982      6008
      5989      5992      5995      5996      5989      5992      5995      5997
      5990      5989      5992      5993      5990      5989      5992      5994
      5990      5989      5992      5995      5991      5989      5992      5993
      5991      5989      5992      5994      5991      5989      5992      5995
      5992      5995      5997      5998      5992      5995      5997      6002
      5993      5992      5995      5996      5993      5992      5995      5997
      5994      5992      5995      5996      5994      5992      5995      5997
      5995      5997      5998      5999      5995      5997      5998      6000
      5995      5997      5998      6001      5995      5997      6002      6003
      5995      5997      6002      6004      5995      5997      6002      6005
      5996      5995      5997      5998      5996      5995      5997      6002
      5997      6002      6005      6006      5997      6002      6005      6007
      5998      5997      6002      6003      5998      5997      6002      6004
      5998      5997      6002      6005      5999      5998      5997      6002
      6000      5998      5997      6002      6001      5998      5997      6002
      6003      6002      6005      6006      6003      6002      6005      6007
      6004      6002      6005      6006      6004      6002      6005      6007
      6008      6014      6017      6018      6008      6014      6017      6019
      6008      6014      6017      6020      6009      6008      6010      6011
      6009      6008      6010      6012      6009      6008      6010      6013
      6009      6008      6014      6015      6009      6008      6014      6016
      6009      6008      6014      6017      6010      6008      6014      6015
      6010      6008      6014      6016      6010      6008      6014      6017
      6011      6010      6008      6014      6012      6010      6008      6014
      6013      6010      6008      6014      6014      6017      6020      6021
      6014      6017      6020      6022      6014      6017      6020      6023
      6015      6014      6017      6018      6015      6014      6017      6019
      6015      6014      6017      6020      6016      6014      6017      6018
      6016      6014      6017      6019      6016      6014      6017      6020
      6017      6020      6023      6024      6017      6020      6023      6025
      6017      6020      6023      6029      6018      6017      6020      6021
      6018      6017      6020      6022      6018      6017      6020      6023
      6019      6017      6020      6021      6019      6017      6020      6022
      6019      6017      6020      6023      6020      6023      6025      6026
      6020      6023      6025      6027      6020      6023      6025      6028
      6020      6023      6029      6030      6020      6023      6029      6031
      6020      6023      6029      6032      6021      6020      6023      6024
      6021      6020      6023      6025      6021      6020      6023      6029
      6022      6020      6023      6024      6022      6020      6023      6025
      6022      6020      6023      6029      6024      6023      6025      6026
      6024      6023      6025      6027      6024      6023      6025      6028
      6024      6023      6029      6030      6024      6023      6029      6031
      6024      6023      6029      6032      6025      6023      6029      6030
      6025      6023      6029      6031      6025      6023      6029      6032
      6026      6025      6023      6029      6027      6025      6023      6029
      6028      6025      6023      6029     14563     14567     14570     14571
     14563     14567     14570     14572     14563     14567     14570     14576
     14564     14563     14567     14568     14564     14563     14567     14569
     14564     14563     14567     14570     14565     14563     14567     14568
     14565     14563     14567     14569     14565     14563     14567     14570
     14566     14563     14567     14568     14566     14563     14567     14569
     14566     14563     14567     14570     14567     14570     14576     14573
     14568     14567     14570     14571     14568     14567     14570     14572
     14568     14567     14570     14576     14569     14567     14570     14571
     14569     14567     14570     14572     14569     14567     14570     14576
     14570     14576     14573     14574     14570     14576     14573     14575
     14570     14576     14573     14577     14571     14570     14576     14573
     14572     14570     14576     14573     14573     14577     14578     14579
     14573     14577     14578     14580     14573     14577     14578     14581
     14574     14573     14577     14578     14575     14573     14577     14578
     14576     14573     14577     14578     14577     14578     14581     14582
     14577     14578     14581     14583     14577     14578     14581     14589
     14578     14581     14583     14584     14578     14581     14589     14590
     14578     14581     14589     14591     14578     14581     14589     14592
     14579     14578     14581     14582     14579     14578     14581     14583
     14579     14578     14581     14589     14580     14578     14581     14582
     14580     14578     14581     14583     14580     14578     14581     14589
     14581     14583     14584     14585     14581     14583     14584     14586
     14581     14589     14592     14593     14582     14581     14583     14584
     14582     14581     14589     14590     14582     14581     14589     14591
     14582     14581     14589     14592     14583     14581     14589     14590
     14583     14581     14589     14591     14583     14581     14589     14592
     14583     14584     14586     14587     14583     14584     14586     14588
     14583     14584     14586     14598     14584     14583     14581     14589
     14584     14586     14598     14599     14584     14586     14598     14600
     14584     14586     14598     14601     14585     14584     14586     14587
     14585     14584     14586     14588     14585     14584     14586     14598
     14586     14598     14601     14602     14586     14598     14601     14603
     14586     14598     14601     14604     14587     14586     14598     14599
     14587     14586     14598     14600     14587     14586     14598     14601
     14588     14586     14598     14599     14588     14586     14598     14600
     14588     14586     14598     14601     14589     14592     14593     14594
     14589     14592     14593     14595     14590     14589     14592     14593
     14591     14589     14592     14593     14592     14593     14595     14596
     14592     14593     14595     14597     14592     14593     14595     14645
     14593     14595     14645     14646     14593     14595     14645     14647
     14593     14595     14645     14648     14594     14593     14595     14596
     14594     14593     14595     14597     14594     14593     14595     14645
     14595     14645     14648     14649     14595     14645     14648     14650
     14595     14645     14648     14651     14596     14595     14645     14646
     14596     14595     14645     14647     14596     14595     14645     14648
     14597     14595     14645     14646     14597     14595     14645     14647
     14597     14595     14645     14648     14598     14601     14604     14605
     14598     14601     14604     14606     14599     14598     14601     14602
     14599     14598     14601     14603     14599     14598     14601     14604
     14600     14598     14601     14602     14600     14598     14601     14603
     14600     14598     14601     14604     14601     14604     14606     14607
     14601     14604     14606     14608     14602     14601     14604     14605
     14602     14601     14604     14606     14603     14601     14604     14605
     14603     14601     14604     14606     14604     14606     14608     14609
     14604     14606     14608     14610     14604     14606     14608     14611
     14605     14604     14606     14607     14605     14604     14606     14608
     14606     14608     14611     14612     14606     14608     14611     14613
     14607     14606     14608     14609     14607     14606     14608     14610
     14607     14606     14608     14611     14608     14611     14613     14614
     14608     14611     14613     14615     14609     14608     14611     14612
     14609     14608     14611     14613     14610     14608     14611     14612
     14610     14608     14611     14613     14611     14613     14615     14616
     14611     14613     14615     14617     14611     14613     14615     14618
     14612     14611     14613     14614     14612     14611     14613     14615
     14613     14615     14618     14619     14613     14615     14618     14620
     14614     14613     14615     14616     14614     14613     14615     14617
     14614     14613     14615     14618     14615     14618     14620     14621
     14615     14618     14620     14622     14616     14615     14618     14619
     14616     14615     14618     14620     14617     14615     14618     14619
     14617     14615     14618     14620     14618     14620     14622     14623
     14618     14620     14622     14624     14618     14620     14622     14625
     14619     14618     14620     14621     14619     14618     14620     14622
     14620     14622     14625     14626     14620     14622     14625     14627
     14621     14620     14622     14623     14621     14620     14622     14624
     14621     14620     14622     14625     14622     14625     14627     14628
     14622     14625     14627     14629     14623     14622     14625     14626
     14623     14622     14625     14627     14624     14622     14625     14626
     14624     14622     14625     14627     14625     14627     14629     14630
     14625     14627     14629     14631     14625     14627     14629     14632
     14626     14625     14627     14628     14626     14625     14627     14629
     14627     14629     14632     14633     14627     14629     14632     14634
     14627     14629     14632     14635     14628     14627     14629     14630
     14628     14627     14629     14631     14628     14627     14629     14632
     14629     14632     14635     14636     14629     14632     14635     14637
     14629     14632     14635     14638     14630     14629     14632     14633
     14630     14629     14632     14634     14630     14629     14632     14635
     14631     14629     14632     14633     14631     14629     14632     14634
     14631     14629     14632     14635     14632     14635     14638     14639
     14632     14635     14638     14640     14632     14635     14638     14641
     14633     14632     14635     14636     14633     14632     14635     14637
     14633     14632     14635     14638     14634     14632     14635     14636
     14634     14632     14635     14637     14634     14632     14635     14638
     14635     14638     14641     14642     14635     14638     14641     14643
     14635     14638     14641     14644     14636     14635     14638     14639
     14636     14635     14638     14640     14636     14635     14638     14641
     14637     14635     14638     14639     14637     14635     14638     14640
     14637     14635     14638     14641     14639     14638     14641     14642
     14639     14638     14641     14643     14639     14638     14641     14644
     14640     14638     14641     14642     14640     14638     14641     14643
     14640     14638     14641     14644     14645     14648     14651     14652
     14645     14648     14651     14653     14645     14648     14651     14654
     14646     14645     14648     14649     14646     14645     14648     14650
     14646     14645     14648     14651     14647     14645     14648     14649
     14647     14645     14648     14650     14647     14645     14648     14651
     14648     14651     14654     14655     14648     14651     14654     14656
     14648     14651     14654     14657     14649     14648     14651     14652
     14649     14648     14651     14653     14649     14648     14651     14654
     14650     14648     14651     14652     14650     14648     14651     14653
     14650     14648     14651     14654     14651     14654     14657     14658
     14651     14654     14657     14659     14651     14654     14657     14660
     14652     14651     14654     14655     14652     14651     14654     14656
     14652     14651     14654     14657     14653     14651     14654     14655
     14653     14651     14654     14656     14653     14651     14654     14657
     14654     14657     14660     14661     14654     14657     14660     14662
     14654     14657     14660     14663     14655     14654     14657     14658
     14655     14654     14657     14659     14655     14654     14657     14660
     14656     14654     14657     14658     14656     14654     14657     14659
     14656     14654     14657     14660     14657     14660     14663     14664
     14657     14660     14663     14665     14657     14660     14663     14666
     14658     14657     14660     14661     14658     14657     14660     14662
     14658     14657     14660     14663     14659     14657     14660     14661
     14659     14657     14660     14662     14659     14657     14660     14663
     14660     14663     14666     14667     14660     14663     14666     14668
     14660     14663     14666     14669     14661     14660     14663     14664
     14661     14660     14663     14665     14661     14660     14663     14666
     14662     14660     14663     14664     14662     14660     14663     14665
     14662     14660     14663     14666     14663     14666     14669     14670
     14663     14666     14669     14671     14663     14666     14669     14672
     14664     14663     14666     14667     14664     14663     14666     14668
     14664     14663     14666     14669     14665     14663     14666     14667
     14665     14663     14666     14668     14665     14663     14666     14669
     14666     14669     14672     14673     14666     14669     14672     14674
     14666     14669     14672     14675     14667     14666     14669     14670
     14667     14666     14669     14671     14667     14666     14669     14672
     14668     14666     14669     14670     14668     14666     14669     14671
     14668     14666     14669     14672     14669     14672     14675     14676
     14669     14672     14675     14677     14669     14672     14675     14678
     14670     14669     14672     14673     14670     14669     14672     14674
     14670     14669     14672     14675     14671     14669     14672     14673
     14671     14669     14672     14674     14671     14669     14672     14675
     14672     14675     14678     14679     14672     14675     14678     14680
     14672     14675     14678     14681     14673     14672     14675     14676
     14673     14672     14675     14677     14673     14672     14675     14678
     14674     14672     14675     14676     14674     14672     14675     14677
     14674     14672     14675     14678     14675     14678     14681     14682
     14675     14678     14681     14683     14675     14678     14681     14684
     14676     14675     14678     14679     14676     14675     14678     14680
     14676     14675     14678     14681     14677     14675     14678     14679
     14677     14675     14678     14680     14677     14675     14678     14681
     14678     14681     14684     14685     14678     14681     14684     14686
     14678     14681     14684     14687     14679     14678     14681     14682
     14679     14678     14681     14683     14679     14678     14681     14684
     14680     14678     14681     14682     14680     14678     14681     14683
     14680     14678     14681     14684     14681     14684     14687     14688
     14681     14684     14687     14689     14681     14684     14687     14690
     14682     14681     14684     14685     14682     14681     14684     14686
     14682     14681     14684     14687     14683     14681     14684     14685
     14683     14681     14684     14686     14683     14681     14684     14687
     14684     14687     14690     14691     14684     14687     14690     14692
     14684     14687     14690     14693     14685     14684     14687     14688
     14685     14684     14687     14689     14685     14684     14687     14690
     14686     14684     14687     14688     14686     14684     14687     14689
     14686     14684     14687     14690     14688     14687     14690     14691
     14688     14687     14690     14692     14688     14687     14690     14693
     14689     14687     14690     14691     14689     14687     14690     14692
     14689     14687     14690     14693     20113     20126     20129     20130
     20113     20126     20129     20131     20113     20126     20129     20135
     20114     20113     20118     20119     20114     20113     20118     20120
     20114     20113     20118     20121     20114     20113     20122     20123
     20114     20113     20122     20124     20114     20113     20122     20125
     20114     20113     20126     20127     20114     20113     20126     20128
     20114     20113     20126     20129     20115     20114     20113     20118
     20115     20114     20113     20122     20115     20114     20113     20126
     20116     20114     20113     20118     20116     20114     20113     20122
     20116     20114     20113     20126     20117     20114     20113     20118
     20117     20114     20113     20122     20117     20114     20113     20126
     20118     20113     20122     20123     20118     20113     20122     20124
     20118     20113     20122     20125     20118     20113     20126     20127
     20118     20113     20126     20128     20118     20113     20126     20129
     20119     20118     20113     20122     20119     20118     20113     20126
     20120     20118     20113     20122     20120     20118     20113     20126
     20121     20118     20113     20122     20121     20118     20113     20126
     20122     20113     20126     20127     20122     20113     20126     20128
     20122     20113     20126     20129     20123     20122     20113     20126
     20124     20122     20113     20126     20125     20122     20113     20126
     20126     20129     20135     20132     20127     20126     20129     20130
     20127     20126     20129     20131     20127     20126     20129     20135
     20128     20126     20129     20130     20128     20126     20129     20131
     20128     20126     20129     20135     20129     20135     20132     20133
     20129     20135     20132     20134     20129     20135     20132     20136
     20130     20129     20135     20132     20131     20129     20135     20132
     20132     20136     20137     20138     20132     20136     20137     20139
     20132     20136     20137     20140     20133     20132     20136     20137
     20134     20132     20136     20137     20135     20132     20136     20137
     20136     20137     20140     20141     20136     20137     20140     20142
     20136     20137     20140     20148     20137     20140     20142     20143
     20137     20140     20148     20149     20137     20140     20148     20150
     20137     20140     20148     20151     20138     20137     20140     20141
     20138     20137     20140     20142     20138     20137     20140     20148
     20139     20137     20140     20141     20139     20137     20140     20142
     20139     20137     20140     20148     20140     20142     20143     20144
     20140     20142     20143     20145     20140     20148     20151     20152
     20141     20140     20142     20143     20141     20140     20148     20149
     20141     20140     20148     20150     20141     20140     20148     20151
     20142     20140     20148     20149     20142     20140     20148     20150
     20142     20140     20148     20151     20142     20143     20145     20146
     20142     20143     20145     20147     20142     20143     20145     20157
     20143     20142     20140     20148     20143     20145     20157     20158
     20143     20145     20157     20159     20143     20145     20157     20160
     20144     20143     20145     20146     20144     20143     20145     20147
     20144     20143     20145     20157     20145     20157     20160     20161
     20145     20157     20160     20162     20145     20157     20160     20163
     20146     20145     20157     20158     20146     20145     20157     20159
     20146     20145     20157     20160     20147     20145     20157     20158
     20147     20145     20157     20159     20147     20145     20157     20160
     20148     20151     20152     20153     20148     20151     20152     20154
     20149     20148     20151     20152     20150     20148     20151     20152
     20151     20152     20154     20155     20151     20152     20154     20156
     20151     20152     20154     20202     20152     20154     20202     20203
     20152     20154     20202     20204     20152     20154     20202     20205
     20153     20152     20154     20155     20153     20152     20154     20156
     20153     20152     20154     20202     20154     20202     20205     20206
     20154     20202     20205     20207     20154     20202     20205     20208
     20155     20154     20202     20203     20155     20154     20202     20204
     20155     20154     20202     20205     20156     20154     20202     20203
     20156     20154     20202     20204     20156     20154     20202     20205
     20157     20160     20163     20164     20157     20160     20163     20165
     20157     20160     20163     20166     20158     20157     20160     20161
     20158     20157     20160     20162     20158     20157     20160     20163
     20159     20157     20160     20161     20159     20157     20160     20162
     20159     20157     20160     20163     20160     20163     20166     20167
     20160     20163     20166     20168     20160     20163     20166     20169
     20161     20160     20163     20164     20161     20160     20163     20165
     20161     20160     20163     20166     20162     20160     20163     20164
     20162     20160     20163     20165     20162     20160     20163     20166
     20163     20166     20169     20170     20163     20166     20169     20171
     20163     20166     20169     20172     20164     20163     20166     20167
     20164     20163     20166     20168     20164     20163     20166     20169
     20165     20163     20166     20167     20165     20163     20166     20168
     20165     20163     20166     20169     20166     20169     20172     20173
     20166     20169     20172     20174     20166     20169     20172     20175
     20167     20166     20169     20170     20167     20166     20169     20171
     20167     20166     20169     20172     20168     20166     20169     20170
     20168     20166     20169     20171     20168     20166     20169     20172
     20169     20172     20175     20176     20169     20172     20175     20177
     20170     20169     20172     20173     20170     20169     20172     20174
     20170     20169     20172     20175     20171     20169     20172     20173
     20171     20169     20172     20174     20171     20169     20172     20175
     20172     20175     20177     20178     20172     20175     20177     20179
     20173     20172     20175     20176     20173     20172     20175     20177
     20174     20172     20175     20176     20174     20172     20175     20177
     20175     20177     20179     20180     20175     20177     20179     20181
     20175     20177     20179     20182     20176     20175     20177     20178
     20176     20175     20177     20179     20177     20179     20182     20183
     20177     20179     20182     20184     20178     20177     20179     20180
     20178     20177     20179     20181     20178     20177     20179     20182
     20179     20182     20184     20185     20179     20182     20184     20186
     20180     20179     20182     20183     20180     20179     20182     20184
     20181     20179     20182     20183     20181     20179     20182     20184
     20182     20184     20186     20187     20182     20184     20186     20188
     20182     20184     20186     20189     20183     20182     20184     20185
     20183     20182     20184     20186     20184     20186     20189     20190
     20184     20186     20189     20191     20184     20186     20189     20192
     20185     20184     20186     20187     20185     20184     20186     20188
     20185     20184     20186     20189     20186     20189     20192     20193
     20186     20189     20192     20194     20186     20189     20192     20195
     20187     20186     20189     20190     20187     20186     20189     20191
     20187     20186     20189     20192     20188     20186     20189     20190
     20188     20186     20189     20191     20188     20186     20189     20192
     20189     20192     20195     20196     20189     20192     20195     20197
     20189     20192     20195     20198     20190     20189     20192     20193
     20190     20189     20192     20194     20190     20189     20192     20195
     20191     20189     20192     20193     20191     20189     20192     20194
     20191     20189     20192     20195     20192     20195     20198     20199
     20192     20195     20198     20200     20192     20195     20198     20201
     20193     20192     20195     20196     20193     20192     20195     20197
     20193     20192     20195     20198     20194     20192     20195     20196
     20194     20192     20195     20197     20194     20192     20195     20198
     20196     20195     20198     20199     20196     20195     20198     20200
     20196     20195     20198     20201     20197     20195     20198     20199
     20197     20195     20198     20200     20197     20195     20198     20201
     20202     20205     20208     20209     20202     20205     20208     20210
     20202     20205     20208     20211     20203     20202     20205     20206
     20203     20202     20205     20207     20203     20202     20205     20208
     20204     20202     20205     20206     20204     20202     20205     20207
     20204     20202     20205     20208     20205     20208     20211     20212
     20205     20208     20211     20213     20205     20208     20211     20214
     20206     20205     20208     20209     20206     20205     20208     20210
     20206     20205     20208     20211     20207     20205     20208     20209
     20207     20205     20208     20210     20207     20205     20208     20211
     20208     20211     20214     20215     20208     20211     20214     20216
     20208     20211     20214     20217     20209     20208     20211     20212
     20209     20208     20211     20213     20209     20208     20211     20214
     20210     20208     20211     20212     20210     20208     20211     20213
     20210     20208     20211     20214     20211     20214     20217     20218
     20211     20214     20217     20219     20211     20214     20217     20220
     20212     20211     20214     20215     20212     20211     20214     20216
     20212     20211     20214     20217     20213     20211     20214     20215
     20213     20211     20214     20216     20213     20211     20214     20217
     20214     20217     20220     20221     20214     20217     20220     20222
     20214     20217     20220     20223     20215     20214     20217     20218
     20215     20214     20217     20219     20215     20214     20217     20220
     20216     20214     20217     20218     20216     20214     20217     20219
     20216     20214     20217     20220     20217     20220     20223     20224
     20217     20220     20223     20225     20217     20220     20223     20226
     20218     20217     20220     20221     20218     20217     20220     20222
     20218     20217     20220     20223     20219     20217     20220     20221
     20219     20217     20220     20222     20219     20217     20220     20223
     20220     20223     20226     20227     20220     20223     20226     20228
     20220     20223     20226     20229     20221     20220     20223     20224
     20221     20220     20223     20225     20221     20220     20223     20226
     20222     20220     20223     20224     20222     20220     20223     20225
     20222     20220     20223     20226     20223     20226     20229     20230
     20223     20226     20229     20231     20223     20226     20229     20232
     20224     20223     20226     20227     20224     20223     20226     20228
     20224     20223     20226     20229     20225     20223     20226     20227
     20225     20223     20226     20228     20225     20223     20226     20229
     20226     20229     20232     20233     20226     20229     20232     20234
     20226     20229     20232     20235     20227     20226     20229     20230
     20227     20226     20229     20231     20227     20226     20229     20232
     20228     20226     20229     20230     20228     20226     20229     20231
     20228     20226     20229     20232     20229     20232     20235     20236
     20229     20232     20235     20237     20229     20232     20235     20238
     20230     20229     20232     20233     20230     20229     20232     20234
     20230     20229     20232     20235     20231     20229     20232     20233
     20231     20229     20232     20234     20231     20229     20232     20235
     20232     20235     20238     20239     20232     20235     20238     20240
     20232     20235     20238     20241     20233     20232     20235     20236
     20233     20232     20235     20237     20233     20232     20235     20238
     20234     20232     20235     20236     20234     20232     20235     20237
     20234     20232     20235     20238     20235     20238     20241     20242
     20235     20238     20241     20243     20235     20238     20241     20244
     20236     20235     20238     20239     20236     20235     20238     20240
     20236     20235     20238     20241     20237     20235     20238     20239
     20237     20235     20238     20240     20237     20235     20238     20241
     20238     20241     20244     20245     20238     20241     20244     20246
     20238     20241     20244     20247     20239     20238     20241     20242
     20239     20238     20241     20243     20239     20238     20241     20244
     20240     20238     20241     20242     20240     20238     20241     20243
     20240     20238     20241     20244     20241     20244     20247     20248
     20241     20244     20247     20249     20241     20244     20247     20250
     20242     20241     20244     20245     20242     20241     20244     20246
     20242     20241     20244     20247     20243     20241     20244     20245
     20243     20241     20244     20246     20243     20241     20244     20247
     20245     20244     20247     20248     20245     20244     20247     20249
     20245     20244     20247     20250     20246     20244     20247     20248
     20246     20244     20247     20249     20246     20244     20247     20250
      9978      9991      9994      9995      9978      9991      9994      9996
      9978      9991      9994     10001      9979      9978      9983      9984
      9979      9978      9983      9985      9979      9978      9983      9986
      9979      9978      9987      9988      9979      9978      9987      9989
      9979      9978      9987      9990      9979      9978      9991      9992
      9979      9978      9991      9993      9979      9978      9991      9994
      9980      9979      9978      9983      9980      9979      9978      9987
      9980      9979      9978      9991      9981      9979      9978      9983
      9981      9979      9978      9987      9981      9979      9978      9991
      9982      9979      9978      9983      9982      9979      9978      9987
      9982      9979      9978      9991      9983      9978      9987      9988
      9983      9978      9987      9989      9983      9978      9987      9990
      9983      9978      9991      9992      9983      9978      9991      9993
      9983      9978      9991      9994      9984      9983      9978      9987
      9984      9983      9978      9991      9985      9983      9978      9987
      9985      9983      9978      9991      9986      9983      9978      9987
      9986      9983      9978      9991      9987      9978      9991      9992
      9987      9978      9991      9993      9987      9978      9991      9994
      9988      9987      9978      9991      9989      9987      9978      9991
      9990      9987      9978      9991      9991      9994     10001      9997
      9992      9991      9994      9995      9992      9991      9994      9996
      9992      9991      9994     10001      9993      9991      9994      9995
      9993      9991      9994      9996      9993      9991      9994     10001
      9994     10001      9997      9998      9994     10001      9997      9999
      9994     10001      9997     10000      9995      9994     10001      9997
      9996      9994     10001      9997      9997     10000     10002     10003
      9997     10000     10002     10004      9997     10000     10002     10007
      9998      9997     10000     10002      9999      9997     10000     10002
     10000     10002     10007     10005     10000     10002     10007     10008
     10000     10002     10007     10009     10001      9997     10000     10002
     10002     10007     10005     10006     10002     10007     10005     10057
     10002     10007     10009     10010     10002     10007     10009     10011
     10002     10007     10009     10013     10003     10002     10007     10005
     10003     10002     10007     10008     10003     10002     10007     10009
     10004     10002     10007     10005     10004     10002     10007     10008
     10004     10002     10007     10009     10005     10007     10009     10010
     10005     10007     10009     10011     10005     10007     10009     10013
     10005     10057     10059     10060     10005     10057     10059     10061
     10005     10057     10059     10062     10006     10005     10007     10008
     10006     10005     10007     10009     10006     10005     10057     10058
     10006     10005     10057     10059     10007     10005     10057     10058
     10007     10005     10057     10059     10007     10009     10011     10012
     10007     10009     10013     10014     10007     10009     10013     10015
     10008     10007     10005     10057     10008     10007     10009     10010
     10008     10007     10009     10011     10008     10007     10009     10013
     10009     10007     10005     10057     10009     10013     10015     10016
     10009     10013     10015     10017     10010     10009     10011     10012
     10010     10009     10013     10014     10010     10009     10013     10015
     10011     10009     10013     10014     10011     10009     10013     10015
     10012     10011     10009     10013     10013     10015     10017     10018
     10013     10015     10017     10019     10013     10015     10017     10020
     10014     10013     10015     10016     10014     10013     10015     10017
     10015     10017     10020     10021     10015     10017     10020     10022
     10015     10017     10020     10023     10016     10015     10017     10018
     10016     10015     10017     10019     10016     10015     10017     10020
     10017     10020     10023     10024     10017     10020     10023     10025
     10017     10020     10023     10026     10018     10017     10020     10021
     10018     10017     10020     10022     10018     10017     10020     10023
     10019     10017     10020     10021     10019     10017     10020     10022
     10019     10017     10020     10023     10020     10023     10026     10027
     10020     10023     10026     10028     10020     10023     10026     10029
     10021     10020     10023     10024     10021     10020     10023     10025
     10021     10020     10023     10026     10022     10020     10023     10024
     10022     10020     10023     10025     10022     10020     10023     10026
     10023     10026     10029     10030     10023     10026     10029     10031
     10023     10026     10029     10032     10024     10023     10026     10027
     10024     10023     10026     10028     10024     10023     10026     10029
     10025     10023     10026     10027     10025     10023     10026     10028
     10025     10023     10026     10029     10026     10029     10032     10033
     10026     10029     10032     10034     10026     10029     10032     10035
     10027     10026     10029     10030     10027     10026     10029     10031
     10027     10026     10029     10032     10028     10026     10029     10030
     10028     10026     10029     10031     10028     10026     10029     10032
     10029     10032     10035     10036     10029     10032     10035     10037
     10029     10032     10035     10038     10030     10029     10032     10033
     10030     10029     10032     10034     10030     10029     10032     10035
     10031     10029     10032     10033     10031     10029     10032     10034
     10031     10029     10032     10035     10032     10035     10038     10039
     10032     10035     10038     10040     10032     10035     10038     10041
     10033     10032     10035     10036     10033     10032     10035     10037
     10033     10032     10035     10038     10034     10032     10035     10036
     10034     10032     10035     10037     10034     10032     10035     10038
     10035     10038     10041     10042     10035     10038     10041     10043
     10035     10038     10041     10044     10036     10035     10038     10039
     10036     10035     10038     10040     10036     10035     10038     10041
     10037     10035     10038     10039     10037     10035     10038     10040
     10037     10035     10038     10041     10038     10041     10044     10045
     10038     10041     10044     10046     10038     10041     10044     10047
     10039     10038     10041     10042     10039     10038     10041     10043
     10039     10038     10041     10044     10040     10038     10041     10042
     10040     10038     10041     10043     10040     10038     10041     10044
     10041     10044     10047     10048     10041     10044     10047     10049
     10041     10044     10047     10050     10042     10041     10044     10045
     10042     10041     10044     10046     10042     10041     10044     10047
     10043     10041     10044     10045     10043     10041     10044     10046
     10043     10041     10044     10047     10044     10047     10050     10051
     10044     10047     10050     10052     10044     10047     10050     10053
     10045     10044     10047     10048     10045     10044     10047     10049
     10045     10044     10047     10050     10046     10044     10047     10048
     10046     10044     10047     10049     10046     10044     10047     10050
     10047     10050     10053     10054     10047     10050     10053     10055
     10047     10050     10053     10056     10048     10047     10050     10051
     10048     10047     10050     10052     10048     10047     10050     10053
     10049     10047     10050     10051     10049     10047     10050     10052
     10049     10047     10050     10053     10051     10050     10053     10054
     10051     10050     10053     10055     10051     10050     10053     10056
     10052     10050     10053     10054     10052     10050     10053     10055
     10052     10050     10053     10056     10057     10059     10062     10063
     10057     10059     10062     10064     10057     10059     10062     10065
     10058     10057     10059     10060     10058     10057     10059     10061
     10058     10057     10059     10062     10059     10062     10065     10066
     10059     10062     10065     10067     10059     10062     10065     10068
     10060     10059     10062     10063     10060     10059     10062     10064
     10060     10059     10062     10065     10061     10059     10062     10063
     10061     10059     10062     10064     10061     10059     10062     10065
     10062     10065     10068     10069     10062     10065     10068     10070
     10062     10065     10068     10071     10063     10062     10065     10066
     10063     10062     10065     10067     10063     10062     10065     10068
     10064     10062     10065     10066     10064     10062     10065     10067
     10064     10062     10065     10068     10065     10068     10071     10072
     10065     10068     10071     10073     10065     10068     10071     10074
     10066     10065     10068     10069     10066     10065     10068     10070
     10066     10065     10068     10071     10067     10065     10068     10069
     10067     10065     10068     10070     10067     10065     10068     10071
     10068     10071     10074     10075     10068     10071     10074     10076
     10068     10071     10074     10077     10069     10068     10071     10072
     10069     10068     10071     10073     10069     10068     10071     10074
     10070     10068     10071     10072     10070     10068     10071     10073
     10070     10068     10071     10074     10071     10074     10077     10078
     10071     10074     10077     10079     10071     10074     10077     10080
     10072     10071     10074     10075     10072     10071     10074     10076
     10072     10071     10074     10077     10073     10071     10074     10075
     10073     10071     10074     10076     10073     10071     10074     10077
     10074     10077     10080     10081     10074     10077     10080     10082
     10075     10074     10077     10078     10075     10074     10077     10079
     10075     10074     10077     10080     10076     10074     10077     10078
     10076     10074     10077     10079     10076     10074     10077     10080
     10077     10080     10082     10083     10077     10080     10082     10084
     10078     10077     10080     10081     10078     10077     10080     10082
     10079     10077     10080     10081     10079     10077     10080     10082
     10080     10082     10084     10085     10080     10082     10084     10086
     10080     10082     10084     10087     10081     10080     10082     10083
     10081     10080     10082     10084     10082     10084     10087     10088
     10082     10084     10087     10089     10082     10084     10087     10090
     10083     10082     10084     10085     10083     10082     10084     10086
     10083     10082     10084     10087     10084     10087     10090     10091
     10084     10087     10090     10092     10084     10087     10090     10093
     10085     10084     10087     10088     10085     10084     10087     10089
     10085     10084     10087     10090     10086     10084     10087     10088
     10086     10084     10087     10089     10086     10084     10087     10090
     10087     10090     10093     10094     10087     10090     10093     10095
     10087     10090     10093     10096     10088     10087     10090     10091
     10088     10087     10090     10092     10088     10087     10090     10093
     10089     10087     10090     10091     10089     10087     10090     10092
     10089     10087     10090     10093     10090     10093     10096     10097
     10090     10093     10096     10098     10090     10093     10096     10099
     10091     10090     10093     10094     10091     10090     10093     10095
     10091     10090     10093     10096     10092     10090     10093     10094
     10092     10090     10093     10095     10092     10090     10093     10096
     10093     10096     10099     10100     10093     10096     10099     10101
     10093     10096     10099     10102     10094     10093     10096     10097
     10094     10093     10096     10098     10094     10093     10096     10099
     10095     10093     10096     10097     10095     10093     10096     10098
     10095     10093     10096     10099     10096     10099     10102     10103
     10096     10099     10102     10104     10096     10099     10102     10105
     10097     10096     10099     10100     10097     10096     10099     10101
     10097     10096     10099     10102     10098     10096     10099     10100
     10098     10096     10099     10101     10098     10096     10099     10102
     10099     10102     10105     10106     10099     10102     10105     10107
     10099     10102     10105     10108     10100     10099     10102     10103
     10100     10099     10102     10104     10100     10099     10102     10105
     10101     10099     10102     10103     10101     10099     10102     10104
     10101     10099     10102     10105     10103     10102     10105     10106
     10103     10102     10105     10107     10103     10102     10105     10108
     10104     10102     10105     10106     10104     10102     10105     10107
     10104     10102     10105     10108      6033      6037      6040      6041
      6033      6037      6040      6071      6033      6079      6076      6071
      6033      6079      6076      6077      6033      6079      6076      6078
      6034      6033      6035      6036      6034      6033      6037      6038
      6034      6033      6037      6039      6034      6033      6037      6040
      6034      6033      6079      6076      6034      6033      6079      6080
      6034      6033      6079      6081      6035      6033      6037      6038
      6035      6033      6037      6039      6035      6033      6037      6040
      6035      6033      6079      6076      6035      6033      6079      6080
      6035      6033      6079      6081      6036      6035      6033      6037
      6036      6035      6033      6079      6037      6033      6079      6076
      6037      6033      6079      6080      6037      6033      6079      6081
      6037      6040      6041      6042      6037      6040      6041      6043
      6037      6040      6071      6069      6037      6040      6071      6072
      6037      6040      6071      6076      6038      6037      6033      6079
      6038      6037      6040      6041      6038      6037      6040      6071
      6039      6037      6033      6079      6039      6037      6040      6041
      6039      6037      6040      6071      6040      6037      6033      6079
      6040      6041      6043      6044      6040      6041      6043      6045
      6040      6041      6043      6046      6040      6071      6069      6046
      6040      6071      6069      6066      6040      6071      6069      6070
      6040      6071      6072      6073      6040      6071      6072      6074
      6040      6071      6072      6075      6040      6071      6076      6077
      6040      6071      6076      6078      6040      6071      6076      6079
      6041      6040      6071      6069      6041      6040      6071      6072
      6041      6040      6071      6076      6041      6043      6046      6047
      6041      6043      6046      6048      6041      6043      6046      6069
      6042      6041      6040      6071      6042      6041      6043      6044
      6042      6041      6043      6045      6042      6041      6043      6046
      6043      6041      6040      6071      6043      6046      6048      6049
      6043      6046      6048      6050      6043      6046      6048      6058
      6043      6046      6069      6066      6043      6046      6069      6070
      6043      6046      6069      6071      6044      6043      6046      6047
      6044      6043      6046      6048      6044      6043      6046      6069
      6045      6043      6046      6047      6045      6043      6046      6048
      6045      6043      6046      6069      6046      6048      6050      6051
      6046      6048      6050      6052      6046      6048      6050      6053
      6046      6048      6058      6056      6046      6048      6058      6059
      6046      6048      6058      6063      6046      6069      6066      6063
      6046      6069      6066      6067      6046      6069      6066      6068
      6046      6069      6071      6072      6046      6069      6071      6076
      6047      6046      6048      6049      6047      6046      6048      6050
      6047      6046      6048      6058      6047      6046      6069      6066
      6047      6046      6069      6070      6047      6046      6069      6071
      6048      6046      6069      6066      6048      6046      6069      6070
      6048      6046      6069      6071      6048      6050      6053      6054
      6048      6050      6053      6055      6048      6050      6053      6056
      6048      6058      6056      6053      6048      6058      6056      6057
      6048      6058      6056      6082      6048      6058      6059      6060
      6048      6058      6059      6061      6048      6058      6059      6062
      6048      6058      6063      6064      6048      6058      6063      6065
      6048      6058      6063      6066      6049      6048      6046      6069
      6049      6048      6050      6051      6049      6048      6050      6052
      6049      6048      6050      6053      6049      6048      6058      6056
      6049      6048      6058      6059      6049      6048      6058      6063
      6050      6048      6046      6069      6050      6048      6058      6056
      6050      6048      6058      6059      6050      6048      6058      6063
      6050      6053      6056      6057      6050      6053      6056      6058
      6050      6053      6056      6082      6051      6050      6048      6058
      6051      6050      6053      6054      6051      6050      6053      6055
      6051      6050      6053      6056      6052      6050      6048      6058
      6052      6050      6053      6054      6052      6050      6053      6055
      6052      6050      6053      6056      6053      6050      6048      6058
      6053      6056      6058      6059      6053      6056      6058      6063
      6053      6056      6082      6083      6053      6056      6082      6084
      6053      6056      6082      6088      6054      6053      6056      6057
      6054      6053      6056      6058      6054      6053      6056      6082
      6055      6053      6056      6057      6055      6053      6056      6058
      6055      6053      6056      6082      6056      6058      6059      6060
      6056      6058      6059      6061      6056      6058      6059      6062
      6056      6058      6063      6064      6056      6058      6063      6065
      6056      6058      6063      6066      6056      6082      6084      6085
      6056      6082      6084      6086      6056      6082      6084      6087
      6056      6082      6088      6089      6056      6082      6088      6090
      6056      6082      6088      6091      6057      6056      6058      6059
      6057      6056      6058      6063      6057      6056      6082      6083
      6057      6056      6082      6084      6057      6056      6082      6088
      6058      6048      6046      6069      6058      6056      6082      6083
      6058      6056      6082      6084      6058      6056      6082      6088
      6058      6063      6066      6067      6058      6063      6066      6068
      6058      6063      6066      6069      6059      6058      6056      6082
      6059      6058      6063      6064      6059      6058      6063      6065
      6059      6058      6063      6066      6060      6059      6058      6063
      6061      6059      6058      6063      6062      6059      6058      6063
      6063      6058      6056      6082      6063      6066      6069      6070
      6063      6066      6069      6071      6064      6063      6066      6067
      6064      6063      6066      6068      6064      6063      6066      6069
      6065      6063      6066      6067      6065      6063      6066      6068
      6065      6063      6066      6069      6066      6069      6071      6072
      6066      6069      6071      6076      6067      6066      6069      6070
      6067      6066      6069      6071      6068      6066      6069      6070
      6068      6066      6069      6071      6069      6071      6072      6073
      6069      6071      6072      6074      6069      6071      6072      6075
      6069      6071      6076      6077      6069      6071      6076      6078
      6069      6071      6076      6079      6070      6069      6071      6072
      6070      6069      6071      6076      6071      6076      6079      6080
      6071      6076      6079      6081      6072      6071      6076      6077
      6072      6071      6076      6078      6072      6071      6076      6079
      6073      6072      6071      6076      6074      6072      6071      6076
      6075      6072      6071      6076      6077      6076      6079      6080
      6077      6076      6079      6081      6078      6076      6079      6080
      6078      6076      6079      6081      6082      6088      6091      6092
      6082      6088      6091      6093      6082      6088      6091      6094
      6083      6082      6084      6085      6083      6082      6084      6086
      6083      6082      6084      6087      6083      6082      6088      6089
      6083      6082      6088      6090      6083      6082      6088      6091
      6084      6082      6088      6089      6084      6082      6088      6090
      6084      6082      6088      6091      6085      6084      6082      6088
      6086      6084      6082      6088      6087      6084      6082      6088
      6088      6091      6094      6095      6088      6091      6094      6096
      6088      6091      6094      6097      6089      6088      6091      6092
      6089      6088      6091      6093      6089      6088      6091      6094
      6090      6088      6091      6092      6090      6088      6091      6093
      6090      6088      6091      6094      6091      6094      6097      6098
      6091      6094      6097      6099      6091      6094      6097      6103
      6092      6091      6094      6095      6092      6091      6094      6096
      6092      6091      6094      6097      6093      6091      6094      6095
      6093      6091      6094      6096      6093      6091      6094      6097
      6094      6097      6099      6100      6094      6097      6099      6101
      6094      6097      6099      6102      6094      6097      6103      6104
      6094      6097      6103      6105      6094      6097      6103      6106
      6095      6094      6097      6098      6095      6094      6097      6099
      6095      6094      6097      6103      6096      6094      6097      6098
      6096      6094      6097      6099      6096      6094      6097      6103
      6098      6097      6099      6100      6098      6097      6099      6101
      6098      6097      6099      6102      6098      6097      6103      6104
      6098      6097      6103      6105      6098      6097      6103      6106
      6099      6097      6103      6104      6099      6097      6103      6105
      6099      6097      6103      6106      6100      6099      6097      6103
      6101      6099      6097      6103      6102      6099      6097      6103
     14694     14698     14701     14702     14694     14698     14701     14703
     14694     14698     14701     14707     14695     14694     14698     14699
     14695     14694     14698     14700     14695     14694     14698     14701
     14696     14694     14698     14699     14696     14694     14698     14700
     14696     14694     14698     14701     14697     14694     14698     14699
     14697     14694     14698     14700     14697     14694     14698     14701
     14698     14701     14707     14704     14699     14698     14701     14702
     14699     14698     14701     14703     14699     14698     14701     14707
     14700     14698     14701     14702     14700     14698     14701     14703
     14700     14698     14701     14707     14701     14707     14704     14705
     14701     14707     14704     14706     14701     14707     14704     14708
     14702     14701     14707     14704     14703     14701     14707     14704
     14704     14708     14709     14710     14704     14708     14709     14711
     14704     14708     14709     14712     14705     14704     14708     14709
     14706     14704     14708     14709     14707     14704     14708     14709
     14708     14709     14712     14713     14708     14709     14712     14714
     14708     14709     14712     14720     14709     14712     14714     14715
     14709     14712     14720     14721     14709     14712     14720     14722
     14709     14712     14720     14723     14710     14709     14712     14713
     14710     14709     14712     14714     14710     14709     14712     14720
     14711     14709     14712     14713     14711     14709     14712     14714
     14711     14709     14712     14720     14712     14714     14715     14716
     14712     14714     14715     14717     14712     14720     14723     14724
     14713     14712     14714     14715     14713     14712     14720     14721
     14713     14712     14720     14722     14713     14712     14720     14723
     14714     14712     14720     14721     14714     14712     14720     14722
     14714     14712     14720     14723     14714     14715     14717     14718
     14714     14715     14717     14719     14714     14715     14717     14729
     14715     14714     14712     14720     14715     14717     14729     14730
     14715     14717     14729     14731     14715     14717     14729     14732
     14716     14715     14717     14718     14716     14715     14717     14719
     14716     14715     14717     14729     14717     14729     14732     14733
     14717     14729     14732     14734     14717     14729     14732     14735
     14718     14717     14729     14730     14718     14717     14729     14731
     14718     14717     14729     14732     14719     14717     14729     14730
     14719     14717     14729     14731     14719     14717     14729     14732
     14720     14723     14724     14725     14720     14723     14724     14726
     14721     14720     14723     14724     14722     14720     14723     14724
     14723     14724     14726     14727     14723     14724     14726     14728
     14723     14724     14726     14776     14724     14726     14776     14777
     14724     14726     14776     14778     14724     14726     14776     14779
     14725     14724     14726     14727     14725     14724     14726     14728
     14725     14724     14726     14776     14726     14776     14779     14780
     14726     14776     14779     14781     14726     14776     14779     14782
     14727     14726     14776     14777     14727     14726     14776     14778
     14727     14726     14776     14779     14728     14726     14776     14777
     14728     14726     14776     14778     14728     14726     14776     14779
     14729     14732     14735     14736     14729     14732     14735     14737
     14730     14729     14732     14733     14730     14729     14732     14734
     14730     14729     14732     14735     14731     14729     14732     14733
     14731     14729     14732     14734     14731     14729     14732     14735
     14732     14735     14737     14738     14732     14735     14737     14739
     14733     14732     14735     14736     14733     14732     14735     14737
     14734     14732     14735     14736     14734     14732     14735     14737
     14735     14737     14739     14740     14735     14737     14739     14741
     14735     14737     14739     14742     14736     14735     14737     14738
     14736     14735     14737     14739     14737     14739     14742     14743
     14737     14739     14742     14744     14738     14737     14739     14740
     14738     14737     14739     14741     14738     14737     14739     14742
     14739     14742     14744     14745     14739     14742     14744     14746
     14740     14739     14742     14743     14740     14739     14742     14744
     14741     14739     14742     14743     14741     14739     14742     14744
     14742     14744     14746     14747     14742     14744     14746     14748
     14742     14744     14746     14749     14743     14742     14744     14745
     14743     14742     14744     14746     14744     14746     14749     14750
     14744     14746     14749     14751     14745     14744     14746     14747
     14745     14744     14746     14748     14745     14744     14746     14749
     14746     14749     14751     14752     14746     14749     14751     14753
     14747     14746     14749     14750     14747     14746     14749     14751
     14748     14746     14749     14750     14748     14746     14749     14751
     14749     14751     14753     14754     14749     14751     14753     14755
     14749     14751     14753     14756     14750     14749     14751     14752
     14750     14749     14751     14753     14751     14753     14756     14757
     14751     14753     14756     14758     14752     14751     14753     14754
     14752     14751     14753     14755     14752     14751     14753     14756
     14753     14756     14758     14759     14753     14756     14758     14760
     14754     14753     14756     14757     14754     14753     14756     14758
     14755     14753     14756     14757     14755     14753     14756     14758
     14756     14758     14760     14761     14756     14758     14760     14762
     14756     14758     14760     14763     14757     14756     14758     14759
     14757     14756     14758     14760     14758     14760     14763     14764
     14758     14760     14763     14765     14758     14760     14763     14766
     14759     14758     14760     14761     14759     14758     14760     14762
     14759     14758     14760     14763     14760     14763     14766     14767
     14760     14763     14766     14768     14760     14763     14766     14769
     14761     14760     14763     14764     14761     14760     14763     14765
     14761     14760     14763     14766     14762     14760     14763     14764
     14762     14760     14763     14765     14762     14760     14763     14766
     14763     14766     14769     14770     14763     14766     14769     14771
     14763     14766     14769     14772     14764     14763     14766     14767
     14764     14763     14766     14768     14764     14763     14766     14769
     14765     14763     14766     14767     14765     14763     14766     14768
     14765     14763     14766     14769     14766     14769     14772     14773
     14766     14769     14772     14774     14766     14769     14772     14775
     14767     14766     14769     14770     14767     14766     14769     14771
     14767     14766     14769     14772     14768     14766     14769     14770
     14768     14766     14769     14771     14768     14766     14769     14772
     14770     14769     14772     14773     14770     14769     14772     14774
     14770     14769     14772     14775     14771     14769     14772     14773
     14771     14769     14772     14774     14771     14769     14772     14775
     14776     14779     14782     14783     14776     14779     14782     14784
     14776     14779     14782     14785     14777     14776     14779     14780
     14777     14776     14779     14781     14777     14776     14779     14782
     14778     14776     14779     14780     14778     14776     14779     14781
     14778     14776     14779     14782     14779     14782     14785     14786
     14779     14782     14785     14787     14779     14782     14785     14788
     14780     14779     14782     14783     14780     14779     14782     14784
     14780     14779     14782     14785     14781     14779     14782     14783
     14781     14779     14782     14784     14781     14779     14782     14785
     14782     14785     14788     14789     14782     14785     14788     14790
     14782     14785     14788     14791     14783     14782     14785     14786
     14783     14782     14785     14787     14783     14782     14785     14788
     14784     14782     14785     14786     14784     14782     14785     14787
     14784     14782     14785     14788     14785     14788     14791     14792
     14785     14788     14791     14793     14785     14788     14791     14794
     14786     14785     14788     14789     14786     14785     14788     14790
     14786     14785     14788     14791     14787     14785     14788     14789
     14787     14785     14788     14790     14787     14785     14788     14791
     14788     14791     14794     14795     14788     14791     14794     14796
     14788     14791     14794     14797     14789     14788     14791     14792
     14789     14788     14791     14793     14789     14788     14791     14794
     14790     14788     14791     14792     14790     14788     14791     14793
     14790     14788     14791     14794     14791     14794     14797     14798
     14791     14794     14797     14799     14791     14794     14797     14800
     14792     14791     14794     14795     14792     14791     14794     14796
     14792     14791     14794     14797     14793     14791     14794     14795
     14793     14791     14794     14796     14793     14791     14794     14797
     14794     14797     14800     14801     14794     14797     14800     14802
     14794     14797     14800     14803     14795     14794     14797     14798
     14795     14794     14797     14799     14795     14794     14797     14800
     14796     14794     14797     14798     14796     14794     14797     14799
     14796     14794     14797     14800     14797     14800     14803     14804
     14797     14800     14803     14805     14797     14800     14803     14806
     14798     14797     14800     14801     14798     14797     14800     14802
     14798     14797     14800     14803     14799     14797     14800     14801
     14799     14797     14800     14802     14799     14797     14800     14803
     14800     14803     14806     14807     14800     14803     14806     14808
     14800     14803     14806     14809     14801     14800     14803     14804
     14801     14800     14803     14805     14801     14800     14803     14806
     14802     14800     14803     14804     14802     14800     14803     14805
     14802     14800     14803     14806     14803     14806     14809     14810
     14803     14806     14809     14811     14803     14806     14809     14812
     14804     14803     14806     14807     14804     14803     14806     14808
     14804     14803     14806     14809     14805     14803     14806     14807
     14805     14803     14806     14808     14805     14803     14806     14809
     14806     14809     14812     14813     14806     14809     14812     14814
     14806     14809     14812     14815     14807     14806     14809     14810
     14807     14806     14809     14811     14807     14806     14809     14812
     14808     14806     14809     14810     14808     14806     14809     14811
     14808     14806     14809     14812     14809     14812     14815     14816
     14809     14812     14815     14817     14809     14812     14815     14818
     14810     14809     14812     14813     14810     14809     14812     14814
     14810     14809     14812     14815     14811     14809     14812     14813
     14811     14809     14812     14814     14811     14809     14812     14815
     14812     14815     14818     14819     14812     14815     14818     14820
     14812     14815     14818     14821     14813     14812     14815     14816
     14813     14812     14815     14817     14813     14812     14815     14818
     14814     14812     14815     14816     14814     14812     14815     14817
     14814     14812     14815     14818     14815     14818     14821     14822
     14815     14818     14821     14823     14815     14818     14821     14824
     14816     14815     14818     14819     14816     14815     14818     14820
     14816     14815     14818     14821     14817     14815     14818     14819
     14817     14815     14818     14820     14817     14815     14818     14821
     14819     14818     14821     14822     14819     14818     14821     14823
     14819     14818     14821     14824     14820     14818     14821     14822
     14820     14818     14821     14823     14820     14818     14821     14824
     18100     18104     18107     18108     18100     18104     18107     18109
     18100     18104     18107     18113     18101     18100     18104     18105
     18101     18100     18104     18106     18101     18100     18104     18107
     18102     18100     18104     18105     18102     18100     18104     18106
     18102     18100     18104     18107     18103     18100     18104     18105
     18103     18100     18104     18106     18103     18100     18104     18107
     18104     18107     18113     18110     18105     18104     18107     18108
     18105     18104     18107     18109     18105     18104     18107     18113
     18106     18104     18107     18108     18106     18104     18107     18109
     18106     18104     18107     18113     18107     18113     18110     18111
     18107     18113     18110     18112     18107     18113     18110     18114
     18108     18107     18113     18110     18109     18107     18113     18110
     18110     18114     18115     18116     18110     18114     18115     18117
     18110     18114     18115     18118     18111     18110     18114     18115
     18112     18110     18114     18115     18113     18110     18114     18115
     18114     18115     18118     18119     18114     18115     18118     18120
     18114     18115     18118     18126     18115     18118     18120     18121
     18115     18118     18126     18127     18115     18118     18126     18128
     18115     18118     18126     18129     18116     18115     18118     18119
     18116     18115     18118     18120     18116     18115     18118     18126
     18117     18115     18118     18119     18117     18115     18118     18120
     18117     18115     18118     18126     18118     18120     18121     18122
     18118     18120     18121     18123     18118     18126     18129     18130
     18119     18118     18120     18121     18119     18118     18126     18127
     18119     18118     18126     18128     18119     18118     18126     18129
     18120     18118     18126     18127     18120     18118     18126     18128
     18120     18118     18126     18129     18120     18121     18123     18124
     18120     18121     18123     18125     18120     18121     18123     18135
     18121     18120     18118     18126     18121     18123     18135     18136
     18121     18123     18135     18137     18121     18123     18135     18138
     18122     18121     18123     18124     18122     18121     18123     18125
     18122     18121     18123     18135     18123     18135     18138     18139
     18123     18135     18138     18140     18123     18135     18138     18141
     18124     18123     18135     18136     18124     18123     18135     18137
     18124     18123     18135     18138     18125     18123     18135     18136
     18125     18123     18135     18137     18125     18123     18135     18138
     18126     18129     18130     18131     18126     18129     18130     18132
     18127     18126     18129     18130     18128     18126     18129     18130
     18129     18130     18132     18133     18129     18130     18132     18134
     18129     18130     18132     18182     18130     18132     18182     18183
     18130     18132     18182     18184     18130     18132     18182     18185
     18131     18130     18132     18133     18131     18130     18132     18134
     18131     18130     18132     18182     18132     18182     18185     18186
     18132     18182     18185     18187     18132     18182     18185     18188
     18133     18132     18182     18183     18133     18132     18182     18184
     18133     18132     18182     18185     18134     18132     18182     18183
     18134     18132     18182     18184     18134     18132     18182     18185
     18135     18138     18141     18142     18135     18138     18141     18143
     18135     18138     18141     18144     18136     18135     18138     18139
     18136     18135     18138     18140     18136     18135     18138     18141
     18137     18135     18138     18139     18137     18135     18138     18140
     18137     18135     18138     18141     18138     18141     18144     18145
     18138     18141     18144     18146     18138     18141     18144     18147
     18139     18138     18141     18142     18139     18138     18141     18143
     18139     18138     18141     18144     18140     18138     18141     18142
     18140     18138     18141     18143     18140     18138     18141     18144
     18141     18144     18147     18148     18141     18144     18147     18149
     18141     18144     18147     18150     18142     18141     18144     18145
     18142     18141     18144     18146     18142     18141     18144     18147
     18143     18141     18144     18145     18143     18141     18144     18146
     18143     18141     18144     18147     18144     18147     18150     18151
     18144     18147     18150     18152     18144     18147     18150     18153
     18145     18144     18147     18148     18145     18144     18147     18149
     18145     18144     18147     18150     18146     18144     18147     18148
     18146     18144     18147     18149     18146     18144     18147     18150
     18147     18150     18153     18154     18147     18150     18153     18155
     18148     18147     18150     18151     18148     18147     18150     18152
     18148     18147     18150     18153     18149     18147     18150     18151
     18149     18147     18150     18152     18149     18147     18150     18153
     18150     18153     18155     18156     18150     18153     18155     18157
     18151     18150     18153     18154     18151     18150     18153     18155
     18152     18150     18153     18154     18152     18150     18153     18155
     18153     18155     18157     18158     18153     18155     18157     18159
     18153     18155     18157     18160     18154     18153     18155     18156
     18154     18153     18155     18157     18155     18157     18160     18161
     18155     18157     18160     18162     18155     18157     18160     18163
     18156     18155     18157     18158     18156     18155     18157     18159
     18156     18155     18157     18160     18157     18160     18163     18164
     18157     18160     18163     18165     18157     18160     18163     18166
     18158     18157     18160     18161     18158     18157     18160     18162
     18158     18157     18160     18163     18159     18157     18160     18161
     18159     18157     18160     18162     18159     18157     18160     18163
     18160     18163     18166     18167     18160     18163     18166     18168
     18160     18163     18166     18169     18161     18160     18163     18164
     18161     18160     18163     18165     18161     18160     18163     18166
     18162     18160     18163     18164     18162     18160     18163     18165
     18162     18160     18163     18166     18163     18166     18169     18170
     18163     18166     18169     18171     18163     18166     18169     18172
     18164     18163     18166     18167     18164     18163     18166     18168
     18164     18163     18166     18169     18165     18163     18166     18167
     18165     18163     18166     18168     18165     18163     18166     18169
     18166     18169     18172     18173     18166     18169     18172     18174
     18166     18169     18172     18175     18167     18166     18169     18170
     18167     18166     18169     18171     18167     18166     18169     18172
     18168     18166     18169     18170     18168     18166     18169     18171
     18168     18166     18169     18172     18169     18172     18175     18176
     18169     18172     18175     18177     18169     18172     18175     18178
     18170     18169     18172     18173     18170     18169     18172     18174
     18170     18169     18172     18175     18171     18169     18172     18173
     18171     18169     18172     18174     18171     18169     18172     18175
     18172     18175     18178     18179     18172     18175     18178     18180
     18172     18175     18178     18181     18173     18172     18175     18176
     18173     18172     18175     18177     18173     18172     18175     18178
     18174     18172     18175     18176     18174     18172     18175     18177
     18174     18172     18175     18178     18176     18175     18178     18179
     18176     18175     18178     18180     18176     18175     18178     18181
     18177     18175     18178     18179     18177     18175     18178     18180
     18177     18175     18178     18181     18182     18185     18188     18189
     18182     18185     18188     18190     18182     18185     18188     18191
     18183     18182     18185     18186     18183     18182     18185     18187
     18183     18182     18185     18188     18184     18182     18185     18186
     18184     18182     18185     18187     18184     18182     18185     18188
     18185     18188     18191     18192     18185     18188     18191     18193
     18185     18188     18191     18194     18186     18185     18188     18189
     18186     18185     18188     18190     18186     18185     18188     18191
     18187     18185     18188     18189     18187     18185     18188     18190
     18187     18185     18188     18191     18188     18191     18194     18195
     18188     18191     18194     18196     18188     18191     18194     18197
     18189     18188     18191     18192     18189     18188     18191     18193
     18189     18188     18191     18194     18190     18188     18191     18192
     18190     18188     18191     18193     18190     18188     18191     18194
     18191     18194     18197     18198     18191     18194     18197     18199
     18191     18194     18197     18200     18192     18191     18194     18195
     18192     18191     18194     18196     18192     18191     18194     18197
     18193     18191     18194     18195     18193     18191     18194     18196
     18193     18191     18194     18197     18194     18197     18200     18201
     18194     18197     18200     18202     18194     18197     18200     18203
     18195     18194     18197     18198     18195     18194     18197     18199
     18195     18194     18197     18200     18196     18194     18197     18198
     18196     18194     18197     18199     18196     18194     18197     18200
     18197     18200     18203     18204     18197     18200     18203     18205
     18197     18200     18203     18206     18198     18197     18200     18201
     18198     18197     18200     18202     18198     18197     18200     18203
     18199     18197     18200     18201     18199     18197     18200     18202
     18199     18197     18200     18203     18200     18203     18206     18207
     18200     18203     18206     18208     18200     18203     18206     18209
     18201     18200     18203     18204     18201     18200     18203     18205
     18201     18200     18203     18206     18202     18200     18203     18204
     18202     18200     18203     18205     18202     18200     18203     18206
     18203     18206     18209     18210     18203     18206     18209     18211
     18203     18206     18209     18212     18204     18203     18206     18207
     18204     18203     18206     18208     18204     18203     18206     18209
     18205     18203     18206     18207     18205     18203     18206     18208
     18205     18203     18206     18209     18206     18209     18212     18213
     18206     18209     18212     18214     18206     18209     18212     18215
     18207     18206     18209     18210     18207     18206     18209     18211
     18207     18206     18209     18212     18208     18206     18209     18210
     18208     18206     18209     18211     18208     18206     18209     18212
     18209     18212     18215     18216     18209     18212     18215     18217
     18209     18212     18215     18218     18210     18209     18212     18213
     18210     18209     18212     18214     18210     18209     18212     18215
     18211     18209     18212     18213     18211     18209     18212     18214
     18211     18209     18212     18215     18212     18215     18218     18219
     18212     18215     18218     18220     18212     18215     18218     18221
     18213     18212     18215     18216     18213     18212     18215     18217
     18213     18212     18215     18218     18214     18212     18215     18216
     18214     18212     18215     18217     18214     18212     18215     18218
     18215     18218     18221     18222     18215     18218     18221     18223
     18215     18218     18221     18224     18216     18215     18218     18219
     18216     18215     18218     18220     18216     18215     18218     18221
     18217     18215     18218     18219     18217     18215     18218     18220
     18217     18215     18218     18221     18218     18221     18224     18225
     18218     18221     18224     18226     18218     18221     18224     18227
     18219     18218     18221     18222     18219     18218     18221     18223
     18219     18218     18221     18224     18220     18218     18221     18222
     18220     18218     18221     18223     18220     18218     18221     18224
     18221     18224     18227     18228     18221     18224     18227     18229
     18221     18224     18227     18230     18222     18221     18224     18225
     18222     18221     18224     18226     18222     18221     18224     18227
     18223     18221     18224     18225     18223     18221     18224     18226
     18223     18221     18224     18227     18225     18224     18227     18228
     18225     18224     18227     18229     18225     18224     18227     18230
     18226     18224     18227     18228     18226     18224     18227     18229
     18226     18224     18227     18230     20251     20264     20267     20268
     20251     20264     20267     20269     20251     20264     20267     20273
     20252     20251     20256     20257     20252     20251     20256     20258
     20252     20251     20256     20259     20252     20251     20260     20261
     20252     20251     20260     20262     20252     20251     20260     20263
     20252     20251     20264     20265     20252     20251     20264     20266
     20252     20251     20264     20267     20253     20252     20251     20256
     20253     20252     20251     20260     20253     20252     20251     20264
     20254     20252     20251     20256     20254     20252     20251     20260
     20254     20252     20251     20264     20255     20252     20251     20256
     20255     20252     20251     20260     20255     20252     20251     20264
     20256     20251     20260     20261     20256     20251     20260     20262
     20256     20251     20260     20263     20256     20251     20264     20265
     20256     20251     20264     20266     20256     20251     20264     20267
     20257     20256     20251     20260     20257     20256     20251     20264
     20258     20256     20251     20260     20258     20256     20251     20264
     20259     20256     20251     20260     20259     20256     20251     20264
     20260     20251     20264     20265     20260     20251     20264     20266
     20260     20251     20264     20267     20261     20260     20251     20264
     20262     20260     20251     20264     20263     20260     20251     20264
     20264     20267     20273     20270     20265     20264     20267     20268
     20265     20264     20267     20269     20265     20264     20267     20273
     20266     20264     20267     20268     20266     20264     20267     20269
     20266     20264     20267     20273     20267     20273     20270     20271
     20267     20273     20270     20272     20267     20273     20270     20274
     20268     20267     20273     20270     20269     20267     20273     20270
     20270     20274     20275     20276     20270     20274     20275     20277
     20270     20274     20275     20278     20271     20270     20274     20275
     20272     20270     20274     20275     20273     20270     20274     20275
     20274     20275     20278     20279     20274     20275     20278     20280
     20274     20275     20278     20286     20275     20278     20280     20281
     20275     20278     20286     20287     20275     20278     20286     20288
     20275     20278     20286     20289     20276     20275     20278     20279
     20276     20275     20278     20280     20276     20275     20278     20286
     20277     20275     20278     20279     20277     20275     20278     20280
     20277     20275     20278     20286     20278     20280     20281     20282
     20278     20280     20281     20283     20278     20286     20289     20290
     20279     20278     20280     20281     20279     20278     20286     20287
     20279     20278     20286     20288     20279     20278     20286     20289
     20280     20278     20286     20287     20280     20278     20286     20288
     20280     20278     20286     20289     20280     20281     20283     20284
     20280     20281     20283     20285     20280     20281     20283     20295
     20281     20280     20278     20286     20281     20283     20295     20296
     20281     20283     20295     20297     20281     20283     20295     20298
     20282     20281     20283     20284     20282     20281     20283     20285
     20282     20281     20283     20295     20283     20295     20298     20299
     20283     20295     20298     20300     20283     20295     20298     20301
     20284     20283     20295     20296     20284     20283     20295     20297
     20284     20283     20295     20298     20285     20283     20295     20296
     20285     20283     20295     20297     20285     20283     20295     20298
     20286     20289     20290     20291     20286     20289     20290     20292
     20287     20286     20289     20290     20288     20286     20289     20290
     20289     20290     20292     20293     20289     20290     20292     20294
     20289     20290     20292     20340     20290     20292     20340     20341
     20290     20292     20340     20342     20290     20292     20340     20343
     20291     20290     20292     20293     20291     20290     20292     20294
     20291     20290     20292     20340     20292     20340     20343     20344
     20292     20340     20343     20345     20292     20340     20343     20346
     20293     20292     20340     20341     20293     20292     20340     20342
     20293     20292     20340     20343     20294     20292     20340     20341
     20294     20292     20340     20342     20294     20292     20340     20343
     20295     20298     20301     20302     20295     20298     20301     20303
     20295     20298     20301     20304     20296     20295     20298     20299
     20296     20295     20298     20300     20296     20295     20298     20301
     20297     20295     20298     20299     20297     20295     20298     20300
     20297     20295     20298     20301     20298     20301     20304     20305
     20298     20301     20304     20306     20298     20301     20304     20307
     20299     20298     20301     20302     20299     20298     20301     20303
     20299     20298     20301     20304     20300     20298     20301     20302
     20300     20298     20301     20303     20300     20298     20301     20304
     20301     20304     20307     20308     20301     20304     20307     20309
     20301     20304     20307     20310     20302     20301     20304     20305
     20302     20301     20304     20306     20302     20301     20304     20307
     20303     20301     20304     20305     20303     20301     20304     20306
     20303     20301     20304     20307     20304     20307     20310     20311
     20304     20307     20310     20312     20304     20307     20310     20313
     20305     20304     20307     20308     20305     20304     20307     20309
     20305     20304     20307     20310     20306     20304     20307     20308
     20306     20304     20307     20309     20306     20304     20307     20310
     20307     20310     20313     20314     20307     20310     20313     20315
     20308     20307     20310     20311     20308     20307     20310     20312
     20308     20307     20310     20313     20309     20307     20310     20311
     20309     20307     20310     20312     20309     20307     20310     20313
     20310     20313     20315     20316     20310     20313     20315     20317
     20311     20310     20313     20314     20311     20310     20313     20315
     20312     20310     20313     20314     20312     20310     20313     20315
     20313     20315     20317     20318     20313     20315     20317     20319
     20313     20315     20317     20320     20314     20313     20315     20316
     20314     20313     20315     20317     20315     20317     20320     20321
     20315     20317     20320     20322     20316     20315     20317     20318
     20316     20315     20317     20319     20316     20315     20317     20320
     20317     20320     20322     20323     20317     20320     20322     20324
     20318     20317     20320     20321     20318     20317     20320     20322
     20319     20317     20320     20321     20319     20317     20320     20322
     20320     20322     20324     20325     20320     20322     20324     20326
     20320     20322     20324     20327     20321     20320     20322     20323
     20321     20320     20322     20324     20322     20324     20327     20328
     20322     20324     20327     20329     20322     20324     20327     20330
     20323     20322     20324     20325     20323     20322     20324     20326
     20323     20322     20324     20327     20324     20327     20330     20331
     20324     20327     20330     20332     20324     20327     20330     20333
     20325     20324     20327     20328     20325     20324     20327     20329
     20325     20324     20327     20330     20326     20324     20327     20328
     20326     20324     20327     20329     20326     20324     20327     20330
     20327     20330     20333     20334     20327     20330     20333     20335
     20327     20330     20333     20336     20328     20327     20330     20331
     20328     20327     20330     20332     20328     20327     20330     20333
     20329     20327     20330     20331     20329     20327     20330     20332
     20329     20327     20330     20333     20330     20333     20336     20337
     20330     20333     20336     20338     20330     20333     20336     20339
     20331     20330     20333     20334     20331     20330     20333     20335
     20331     20330     20333     20336     20332     20330     20333     20334
     20332     20330     20333     20335     20332     20330     20333     20336
     20334     20333     20336     20337     20334     20333     20336     20338
     20334     20333     20336     20339     20335     20333     20336     20337
     20335     20333     20336     20338     20335     20333     20336     20339
     20340     20343     20346     20347     20340     20343     20346     20348
     20340     20343     20346     20349     20341     20340     20343     20344
     20341     20340     20343     20345     20341     20340     20343     20346
     20342     20340     20343     20344     20342     20340     20343     20345
     20342     20340     20343     20346     20343     20346     20349     20350
     20343     20346     20349     20351     20343     20346     20349     20352
     20344     20343     20346     20347     20344     20343     20346     20348
     20344     20343     20346     20349     20345     20343     20346     20347
     20345     20343     20346     20348     20345     20343     20346     20349
     20346     20349     20352     20353     20346     20349     20352     20354
     20346     20349     20352     20355     20347     20346     20349     20350
     20347     20346     20349     20351     20347     20346     20349     20352
     20348     20346     20349     20350     20348     20346     20349     20351
     20348     20346     20349     20352     20349     20352     20355     20356
     20349     20352     20355     20357     20349     20352     20355     20358
     20350     20349     20352     20353     20350     20349     20352     20354
     20350     20349     20352     20355     20351     20349     20352     20353
     20351     20349     20352     20354     20351     20349     20352     20355
     20352     20355     20358     20359     20352     20355     20358     20360
     20352     20355     20358     20361     20353     20352     20355     20356
     20353     20352     20355     20357     20353     20352     20355     20358
     20354     20352     20355     20356     20354     20352     20355     20357
     20354     20352     20355     20358     20355     20358     20361     20362
     20355     20358     20361     20363     20355     20358     20361     20364
     20356     20355     20358     20359     20356     20355     20358     20360
     20356     20355     20358     20361     20357     20355     20358     20359
     20357     20355     20358     20360     20357     20355     20358     20361
     20358     20361     20364     20365     20358     20361     20364     20366
     20358     20361     20364     20367     20359     20358     20361     20362
     20359     20358     20361     20363     20359     20358     20361     20364
     20360     20358     20361     20362     20360     20358     20361     20363
     20360     20358     20361     20364     20361     20364     20367     20368
     20361     20364     20367     20369     20361     20364     20367     20370
     20362     20361     20364     20365     20362     20361     20364     20366
     20362     20361     20364     20367     20363     20361     20364     20365
     20363     20361     20364     20366     20363     20361     20364     20367
     20364     20367     20370     20371     20364     20367     20370     20372
     20364     20367     20370     20373     20365     20364     20367     20368
     20365     20364     20367     20369     20365     20364     20367     20370
     20366     20364     20367     20368     20366     20364     20367     20369
     20366     20364     20367     20370     20367     20370     20373     20374
     20367     20370     20373     20375     20367     20370     20373     20376
     20368     20367     20370     20371     20368     20367     20370     20372
     20368     20367     20370     20373     20369     20367     20370     20371
     20369     20367     20370     20372     20369     20367     20370     20373
     20370     20373     20376     20377     20370     20373     20376     20378
     20370     20373     20376     20379     20371     20370     20373     20374
     20371     20370     20373     20375     20371     20370     20373     20376
     20372     20370     20373     20374     20372     20370     20373     20375
     20372     20370     20373     20376     20373     20376     20379     20380
     20373     20376     20379     20381     20373     20376     20379     20382
     20374     20373     20376     20377     20374     20373     20376     20378
     20374     20373     20376     20379     20375     20373     20376     20377
     20375     20373     20376     20378     20375     20373     20376     20379
     20376     20379     20382     20383     20376     20379     20382     20384
     20376     20379     20382     20385     20377     20376     20379     20380
     20377     20376     20379     20381     20377     20376     20379     20382
     20378     20376     20379     20380     20378     20376     20379     20381
     20378     20376     20379     20382     20379     20382     20385     20386
     20379     20382     20385     20387     20379     20382     20385     20388
     20380     20379     20382     20383     20380     20379     20382     20384
     20380     20379     20382     20385     20381     20379     20382     20383
     20381     20379     20382     20384     20381     20379     20382     20385
     20383     20382     20385     20386     20383     20382     20385     20387
     20383     20382     20385     20388     20384     20382     20385     20386
     20384     20382     20385     20387     20384     20382     20385     20388
     10109     10122     10125     10126     10109     10122     10125     10127
     10109     10122     10125     10132     10110     10109     10114     10115
     10110     10109     10114     10116     10110     10109     10114     10117
     10110     10109     10118     10119     10110     10109     10118     10120
     10110     10109     10118     10121     10110     10109     10122     10123
     10110     10109     10122     10124     10110     10109     10122     10125
     10111     10110     10109     10114     10111     10110     10109     10118
     10111     10110     10109     10122     10112     10110     10109     10114
     10112     10110     10109     10118     10112     10110     10109     10122
     10113     10110     10109     10114     10113     10110     10109     10118
     10113     10110     10109     10122     10114     10109     10118     10119
     10114     10109     10118     10120     10114     10109     10118     10121
     10114     10109     10122     10123     10114     10109     10122     10124
     10114     10109     10122     10125     10115     10114     10109     10118
     10115     10114     10109     10122     10116     10114     10109     10118
     10116     10114     10109     10122     10117     10114     10109     10118
     10117     10114     10109     10122     10118     10109     10122     10123
     10118     10109     10122     10124     10118     10109     10122     10125
     10119     10118     10109     10122     10120     10118     10109     10122
     10121     10118     10109     10122     10122     10125     10132     10128
     10123     10122     10125     10126     10123     10122     10125     10127
     10123     10122     10125     10132     10124     10122     10125     10126
     10124     10122     10125     10127     10124     10122     10125     10132
     10125     10132     10128     10129     10125     10132     10128     10130
     10125     10132     10128     10131     10126     10125     10132     10128
     10127     10125     10132     10128     10128     10131     10133     10134
     10128     10131     10133     10135     10128     10131     10133     10138
     10129     10128     10131     10133     10130     10128     10131     10133
     10131     10133     10138     10136     10131     10133     10138     10139
     10131     10133     10138     10140     10132     10128     10131     10133
     10133     10138     10136     10137     10133     10138     10136     10188
     10133     10138     10140     10141     10133     10138     10140     10142
     10133     10138     10140     10144     10134     10133     10138     10136
     10134     10133     10138     10139     10134     10133     10138     10140
     10135     10133     10138     10136     10135     10133     10138     10139
     10135     10133     10138     10140     10136     10138     10140     10141
     10136     10138     10140     10142     10136     10138     10140     10144
     10136     10188     10190     10191     10136     10188     10190     10192
     10136     10188     10190     10193     10137     10136     10138     10139
     10137     10136     10138     10140     10137     10136     10188     10189
     10137     10136     10188     10190     10138     10136     10188     10189
     10138     10136     10188     10190     10138     10140     10142     10143
     10138     10140     10144     10145     10138     10140     10144     10146
     10139     10138     10136     10188     10139     10138     10140     10141
     10139     10138     10140     10142     10139     10138     10140     10144
     10140     10138     10136     10188     10140     10144     10146     10147
     10140     10144     10146     10148     10141     10140     10142     10143
     10141     10140     10144     10145     10141     10140     10144     10146
     10142     10140     10144     10145     10142     10140     10144     10146
     10143     10142     10140     10144     10144     10146     10148     10149
     10144     10146     10148     10150     10144     10146     10148     10151
     10145     10144     10146     10147     10145     10144     10146     10148
     10146     10148     10151     10152     10146     10148     10151     10153
     10146     10148     10151     10154     10147     10146     10148     10149
     10147     10146     10148     10150     10147     10146     10148     10151
     10148     10151     10154     10155     10148     10151     10154     10156
     10148     10151     10154     10157     10149     10148     10151     10152
     10149     10148     10151     10153     10149     10148     10151     10154
     10150     10148     10151     10152     10150     10148     10151     10153
     10150     10148     10151     10154     10151     10154     10157     10158
     10151     10154     10157     10159     10151     10154     10157     10160
     10152     10151     10154     10155     10152     10151     10154     10156
     10152     10151     10154     10157     10153     10151     10154     10155
     10153     10151     10154     10156     10153     10151     10154     10157
     10154     10157     10160     10161     10154     10157     10160     10162
     10154     10157     10160     10163     10155     10154     10157     10158
     10155     10154     10157     10159     10155     10154     10157     10160
     10156     10154     10157     10158     10156     10154     10157     10159
     10156     10154     10157     10160     10157     10160     10163     10164
     10157     10160     10163     10165     10157     10160     10163     10166
     10158     10157     10160     10161     10158     10157     10160     10162
     10158     10157     10160     10163     10159     10157     10160     10161
     10159     10157     10160     10162     10159     10157     10160     10163
     10160     10163     10166     10167     10160     10163     10166     10168
     10160     10163     10166     10169     10161     10160     10163     10164
     10161     10160     10163     10165     10161     10160     10163     10166
     10162     10160     10163     10164     10162     10160     10163     10165
     10162     10160     10163     10166     10163     10166     10169     10170
     10163     10166     10169     10171     10163     10166     10169     10172
     10164     10163     10166     10167     10164     10163     10166     10168
     10164     10163     10166     10169     10165     10163     10166     10167
     10165     10163     10166     10168     10165     10163     10166     10169
     10166     10169     10172     10173     10166     10169     10172     10174
     10166     10169     10172     10175     10167     10166     10169     10170
     10167     10166     10169     10171     10167     10166     10169     10172
     10168     10166     10169     10170     10168     10166     10169     10171
     10168     10166     10169     10172     10169     10172     10175     10176
     10169     10172     10175     10177     10169     10172     10175     10178
     10170     10169     10172     10173     10170     10169     10172     10174
     10170     10169     10172     10175     10171     10169     10172     10173
     10171     10169     10172     10174     10171     10169     10172     10175
     10172     10175     10178     10179     10172     10175     10178     10180
     10172     10175     10178     10181     10173     10172     10175     10176
     10173     10172     10175     10177     10173     10172     10175     10178
     10174     10172     10175     10176     10174     10172     10175     10177
     10174     10172     10175     10178     10175     10178     10181     10182
     10175     10178     10181     10183     10175     10178     10181     10184
     10176     10175     10178     10179     10176     10175     10178     10180
     10176     10175     10178     10181     10177     10175     10178     10179
     10177     10175     10178     10180     10177     10175     10178     10181
     10178     10181     10184     10185     10178     10181     10184     10186
     10178     10181     10184     10187     10179     10178     10181     10182
     10179     10178     10181     10183     10179     10178     10181     10184
     10180     10178     10181     10182     10180     10178     10181     10183
     10180     10178     10181     10184     10182     10181     10184     10185
     10182     10181     10184     10186     10182     10181     10184     10187
     10183     10181     10184     10185     10183     10181     10184     10186
     10183     10181     10184     10187     10188     10190     10193     10194
     10188     10190     10193     10195     10188     10190     10193     10196
     10189     10188     10190     10191     10189     10188     10190     10192
     10189     10188     10190     10193     10190     10193     10196     10197
     10190     10193     10196     10198     10190     10193     10196     10199
     10191     10190     10193     10194     10191     10190     10193     10195
     10191     10190     10193     10196     10192     10190     10193     10194
     10192     10190     10193     10195     10192     10190     10193     10196
     10193     10196     10199     10200     10193     10196     10199     10201
     10193     10196     10199     10202     10194     10193     10196     10197
     10194     10193     10196     10198     10194     10193     10196     10199
     10195     10193     10196     10197     10195     10193     10196     10198
     10195     10193     10196     10199     10196     10199     10202     10203
     10196     10199     10202     10204     10196     10199     10202     10205
     10197     10196     10199     10200     10197     10196     10199     10201
     10197     10196     10199     10202     10198     10196     10199     10200
     10198     10196     10199     10201     10198     10196     10199     10202
     10199     10202     10205     10206     10199     10202     10205     10207
     10199     10202     10205     10208     10200     10199     10202     10203
     10200     10199     10202     10204     10200     10199     10202     10205
     10201     10199     10202     10203     10201     10199     10202     10204
     10201     10199     10202     10205     10202     10205     10208     10209
     10202     10205     10208     10210     10202     10205     10208     10211
     10203     10202     10205     10206     10203     10202     10205     10207
     10203     10202     10205     10208     10204     10202     10205     10206
     10204     10202     10205     10207     10204     10202     10205     10208
     10205     10208     10211     10212     10205     10208     10211     10213
     10206     10205     10208     10209     10206     10205     10208     10210
     10206     10205     10208     10211     10207     10205     10208     10209
     10207     10205     10208     10210     10207     10205     10208     10211
     10208     10211     10213     10214     10208     10211     10213     10215
     10209     10208     10211     10212     10209     10208     10211     10213
     10210     10208     10211     10212     10210     10208     10211     10213
     10211     10213     10215     10216     10211     10213     10215     10217
     10211     10213     10215     10218     10212     10211     10213     10214
     10212     10211     10213     10215     10213     10215     10218     10219
     10213     10215     10218     10220     10213     10215     10218     10221
     10214     10213     10215     10216     10214     10213     10215     10217
     10214     10213     10215     10218     10215     10218     10221     10222
     10215     10218     10221     10223     10215     10218     10221     10224
     10216     10215     10218     10219     10216     10215     10218     10220
     10216     10215     10218     10221     10217     10215     10218     10219
     10217     10215     10218     10220     10217     10215     10218     10221
     10218     10221     10224     10225     10218     10221     10224     10226
     10218     10221     10224     10227     10219     10218     10221     10222
     10219     10218     10221     10223     10219     10218     10221     10224
     10220     10218     10221     10222     10220     10218     10221     10223
     10220     10218     10221     10224     10221     10224     10227     10228
     10221     10224     10227     10229     10221     10224     10227     10230
     10222     10221     10224     10225     10222     10221     10224     10226
     10222     10221     10224     10227     10223     10221     10224     10225
     10223     10221     10224     10226     10223     10221     10224     10227
     10224     10227     10230     10231     10224     10227     10230     10232
     10224     10227     10230     10233     10225     10224     10227     10228
     10225     10224     10227     10229     10225     10224     10227     10230
     10226     10224     10227     10228     10226     10224     10227     10229
     10226     10224     10227     10230     10227     10230     10233     10234
     10227     10230     10233     10235     10227     10230     10233     10236
     10228     10227     10230     10231     10228     10227     10230     10232
     10228     10227     10230     10233     10229     10227     10230     10231
     10229     10227     10230     10232     10229     10227     10230     10233
     10230     10233     10236     10237     10230     10233     10236     10238
     10230     10233     10236     10239     10231     10230     10233     10234
     10231     10230     10233     10235     10231     10230     10233     10236
     10232     10230     10233     10234     10232     10230     10233     10235
     10232     10230     10233     10236     10234     10233     10236     10237
     10234     10233     10236     10238     10234     10233     10236     10239
     10235     10233     10236     10237     10235     10233     10236     10238
     10235     10233     10236     10239     10240     10253     10256     10257
     10240     10253     10256     10258     10240     10253     10256     10263
     10241     10240     10245     10246     10241     10240     10245     10247
     10241     10240     10245     10248     10241     10240     10249     10250
     10241     10240     10249     10251     10241     10240     10249     10252
     10241     10240     10253     10254     10241     10240     10253     10255
     10241     10240     10253     10256     10242     10241     10240     10245
     10242     10241     10240     10249     10242     10241     10240     10253
     10243     10241     10240     10245     10243     10241     10240     10249
     10243     10241     10240     10253     10244     10241     10240     10245
     10244     10241     10240     10249     10244     10241     10240     10253
     10245     10240     10249     10250     10245     10240     10249     10251
     10245     10240     10249     10252     10245     10240     10253     10254
     10245     10240     10253     10255     10245     10240     10253     10256
     10246     10245     10240     10249     10246     10245     10240     10253
     10247     10245     10240     10249     10247     10245     10240     10253
     10248     10245     10240     10249     10248     10245     10240     10253
     10249     10240     10253     10254     10249     10240     10253     10255
     10249     10240     10253     10256     10250     10249     10240     10253
     10251     10249     10240     10253     10252     10249     10240     10253
     10253     10256     10263     10259     10254     10253     10256     10257
     10254     10253     10256     10258     10254     10253     10256     10263
     10255     10253     10256     10257     10255     10253     10256     10258
     10255     10253     10256     10263     10256     10263     10259     10260
     10256     10263     10259     10261     10256     10263     10259     10262
     10257     10256     10263     10259     10258     10256     10263     10259
     10259     10262     10264     10265     10259     10262     10264     10266
     10259     10262     10264     10269     10260     10259     10262     10264
     10261     10259     10262     10264     10262     10264     10269     10267
     10262     10264     10269     10270     10262     10264     10269     10271
     10263     10259     10262     10264     10264     10269     10267     10268
     10264     10269     10267     10319     10264     10269     10271     10272
     10264     10269     10271     10273     10264     10269     10271     10275
     10265     10264     10269     10267     10265     10264     10269     10270
     10265     10264     10269     10271     10266     10264     10269     10267
     10266     10264     10269     10270     10266     10264     10269     10271
     10267     10269     10271     10272     10267     10269     10271     10273
     10267     10269     10271     10275     10267     10319     10321     10322
     10267     10319     10321     10323     10267     10319     10321     10324
     10268     10267     10269     10270     10268     10267     10269     10271
     10268     10267     10319     10320     10268     10267     10319     10321
     10269     10267     10319     10320     10269     10267     10319     10321
     10269     10271     10273     10274     10269     10271     10275     10276
     10269     10271     10275     10277     10270     10269     10267     10319
     10270     10269     10271     10272     10270     10269     10271     10273
     10270     10269     10271     10275     10271     10269     10267     10319
     10271     10275     10277     10278     10271     10275     10277     10279
     10272     10271     10273     10274     10272     10271     10275     10276
     10272     10271     10275     10277     10273     10271     10275     10276
     10273     10271     10275     10277     10274     10273     10271     10275
     10275     10277     10279     10280     10275     10277     10279     10281
     10275     10277     10279     10282     10276     10275     10277     10278
     10276     10275     10277     10279     10277     10279     10282     10283
     10277     10279     10282     10284     10277     10279     10282     10285
     10278     10277     10279     10280     10278     10277     10279     10281
     10278     10277     10279     10282     10279     10282     10285     10286
     10279     10282     10285     10287     10279     10282     10285     10288
     10280     10279     10282     10283     10280     10279     10282     10284
     10280     10279     10282     10285     10281     10279     10282     10283
     10281     10279     10282     10284     10281     10279     10282     10285
     10282     10285     10288     10289     10282     10285     10288     10290
     10282     10285     10288     10291     10283     10282     10285     10286
     10283     10282     10285     10287     10283     10282     10285     10288
     10284     10282     10285     10286     10284     10282     10285     10287
     10284     10282     10285     10288     10285     10288     10291     10292
     10285     10288     10291     10293     10285     10288     10291     10294
     10286     10285     10288     10289     10286     10285     10288     10290
     10286     10285     10288     10291     10287     10285     10288     10289
     10287     10285     10288     10290     10287     10285     10288     10291
     10288     10291     10294     10295     10288     10291     10294     10296
     10288     10291     10294     10297     10289     10288     10291     10292
     10289     10288     10291     10293     10289     10288     10291     10294
     10290     10288     10291     10292     10290     10288     10291     10293
     10290     10288     10291     10294     10291     10294     10297     10298
     10291     10294     10297     10299     10291     10294     10297     10300
     10292     10291     10294     10295     10292     10291     10294     10296
     10292     10291     10294     10297     10293     10291     10294     10295
     10293     10291     10294     10296     10293     10291     10294     10297
     10294     10297     10300     10301     10294     10297     10300     10302
     10294     10297     10300     10303     10295     10294     10297     10298
     10295     10294     10297     10299     10295     10294     10297     10300
     10296     10294     10297     10298     10296     10294     10297     10299
     10296     10294     10297     10300     10297     10300     10303     10304
     10297     10300     10303     10305     10297     10300     10303     10306
     10298     10297     10300     10301     10298     10297     10300     10302
     10298     10297     10300     10303     10299     10297     10300     10301
     10299     10297     10300     10302     10299     10297     10300     10303
     10300     10303     10306     10307     10300     10303     10306     10308
     10300     10303     10306     10309     10301     10300     10303     10304
     10301     10300     10303     10305     10301     10300     10303     10306
     10302     10300     10303     10304     10302     10300     10303     10305
     10302     10300     10303     10306     10303     10306     10309     10310
     10303     10306     10309     10311     10303     10306     10309     10312
     10304     10303     10306     10307     10304     10303     10306     10308
     10304     10303     10306     10309     10305     10303     10306     10307
     10305     10303     10306     10308     10305     10303     10306     10309
     10306     10309     10312     10313     10306     10309     10312     10314
     10306     10309     10312     10315     10307     10306     10309     10310
     10307     10306     10309     10311     10307     10306     10309     10312
     10308     10306     10309     10310     10308     10306     10309     10311
     10308     10306     10309     10312     10309     10312     10315     10316
     10309     10312     10315     10317     10309     10312     10315     10318
     10310     10309     10312     10313     10310     10309     10312     10314
     10310     10309     10312     10315     10311     10309     10312     10313
     10311     10309     10312     10314     10311     10309     10312     10315
     10313     10312     10315     10316     10313     10312     10315     10317
     10313     10312     10315     10318     10314     10312     10315     10316
     10314     10312     10315     10317     10314     10312     10315     10318
     10319     10321     10324     10325     10319     10321     10324     10326
     10319     10321     10324     10327     10320     10319     10321     10322
     10320     10319     10321     10323     10320     10319     10321     10324
     10321     10324     10327     10328     10321     10324     10327     10329
     10321     10324     10327     10330     10322     10321     10324     10325
     10322     10321     10324     10326     10322     10321     10324     10327
     10323     10321     10324     10325     10323     10321     10324     10326
     10323     10321     10324     10327     10324     10327     10330     10331
     10324     10327     10330     10332     10324     10327     10330     10333
     10325     10324     10327     10328     10325     10324     10327     10329
     10325     10324     10327     10330     10326     10324     10327     10328
     10326     10324     10327     10329     10326     10324     10327     10330
     10327     10330     10333     10334     10327     10330     10333     10335
     10327     10330     10333     10336     10328     10327     10330     10331
     10328     10327     10330     10332     10328     10327     10330     10333
     10329     10327     10330     10331     10329     10327     10330     10332
     10329     10327     10330     10333     10330     10333     10336     10337
     10330     10333     10336     10338     10330     10333     10336     10339
     10331     10330     10333     10334     10331     10330     10333     10335
     10331     10330     10333     10336     10332     10330     10333     10334
     10332     10330     10333     10335     10332     10330     10333     10336
     10333     10336     10339     10340     10333     10336     10339     10341
     10333     10336     10339     10342     10334     10333     10336     10337
     10334     10333     10336     10338     10334     10333     10336     10339
     10335     10333     10336     10337     10335     10333     10336     10338
     10335     10333     10336     10339     10336     10339     10342     10343
     10336     10339     10342     10344     10337     10336     10339     10340
     10337     10336     10339     10341     10337     10336     10339     10342
     10338     10336     10339     10340     10338     10336     10339     10341
     10338     10336     10339     10342     10339     10342     10344     10345
     10339     10342     10344     10346     10340     10339     10342     10343
     10340     10339     10342     10344     10341     10339     10342     10343
     10341     10339     10342     10344     10342     10344     10346     10347
     10342     10344     10346     10348     10342     10344     10346     10349
     10343     10342     10344     10345     10343     10342     10344     10346
     10344     10346     10349     10350     10344     10346     10349     10351
     10344     10346     10349     10352     10345     10344     10346     10347
     10345     10344     10346     10348     10345     10344     10346     10349
     10346     10349     10352     10353     10346     10349     10352     10354
     10346     10349     10352     10355     10347     10346     10349     10350
     10347     10346     10349     10351     10347     10346     10349     10352
     10348     10346     10349     10350     10348     10346     10349     10351
     10348     10346     10349     10352     10349     10352     10355     10356
     10349     10352     10355     10357     10349     10352     10355     10358
     10350     10349     10352     10353     10350     10349     10352     10354
     10350     10349     10352     10355     10351     10349     10352     10353
     10351     10349     10352     10354     10351     10349     10352     10355
     10352     10355     10358     10359     10352     10355     10358     10360
     10352     10355     10358     10361     10353     10352     10355     10356
     10353     10352     10355     10357     10353     10352     10355     10358
     10354     10352     10355     10356     10354     10352     10355     10357
     10354     10352     10355     10358     10355     10358     10361     10362
     10355     10358     10361     10363     10355     10358     10361     10364
     10356     10355     10358     10359     10356     10355     10358     10360
     10356     10355     10358     10361     10357     10355     10358     10359
     10357     10355     10358     10360     10357     10355     10358     10361
     10358     10361     10364     10365     10358     10361     10364     10366
     10358     10361     10364     10367     10359     10358     10361     10362
     10359     10358     10361     10363     10359     10358     10361     10364
     10360     10358     10361     10362     10360     10358     10361     10363
     10360     10358     10361     10364     10361     10364     10367     10368
     10361     10364     10367     10369     10361     10364     10367     10370
     10362     10361     10364     10365     10362     10361     10364     10366
     10362     10361     10364     10367     10363     10361     10364     10365
     10363     10361     10364     10366     10363     10361     10364     10367
     10365     10364     10367     10368     10365     10364     10367     10369
     10365     10364     10367     10370     10366     10364     10367     10368
     10366     10364     10367     10369     10366     10364     10367     10370
       267       271       273       274       267       271       273       275
       267       271       276       277       267       271       276       278
       267       271       276       282       268       267       271       272
       268       267       271       273       268       267       271       276
       269       267       271       272       269       267       271       273
       269       267       271       276       270       267       271       272
       270       267       271       273       270       267       271       276
       271       276       282       279       272       271       273       274
       272       271       273       275       272       271       276       277
       272       271       276       278       272       271       276       282
       273       271       276       277       273       271       276       278
       273       271       276       282       274       273       271       276
       275       273       271       276       276       282       279       280
       276       282       279       281       276       282       279       283
       277       276       282       279       278       276       282       279
       279       283       284       285       279       283       284       286
       279       283       284       287       280       279       283       284
       281       279       283       284       282       279       283       284
       283       284       287       288       283       284       287       289
       283       284       287       295       284       287       289       290
       284       287       295       296       284       287       295       297
       284       287       295       298       285       284       287       288
       285       284       287       289       285       284       287       295
       286       284       287       288       286       284       287       289
       286       284       287       295       287       289       290       291
       287       289       290       292       287       295       298       299
       288       287       289       290       288       287       295       296
       288       287       295       297       288       287       295       298
       289       287       295       296       289       287       295       297
       289       287       295       298       289       290       292       293
       289       290       292       294       289       290       292       304
       290       289       287       295       290       292       304       305
       290       292       304       306       290       292       304       307
       291       290       292       293       291       290       292       294
       291       290       292       304       292       304       307       308
       292       304       307       309       292       304       307       310
       293       292       304       305       293       292       304       306
       293       292       304       307       294       292       304       305
       294       292       304       306       294       292       304       307
       295       298       299       300       295       298       299       301
       296       295       298       299       297       295       298       299
       298       299       301       302       298       299       301       303
       298       299       301       351       299       301       351       352
       299       301       351       353       299       301       351       354
       300       299       301       302       300       299       301       303
       300       299       301       351       301       351       354       355
       301       351       354       356       301       351       354       357
       302       301       351       352       302       301       351       353
       302       301       351       354       303       301       351       352
       303       301       351       353       303       301       351       354
       304       307       310       311       304       307       310       312
       305       304       307       308       305       304       307       309
       305       304       307       310       306       304       307       308
       306       304       307       309       306       304       307       310
       307       310       312       313       307       310       312       314
       308       307       310       311       308       307       310       312
       309       307       310       311       309       307       310       312
       310       312       314       315       310       312       314       316
       310       312       314       317       311       310       312       313
       311       310       312       314       312       314       317       318
       312       314       317       319       313       312       314       315
       313       312       314       316       313       312       314       317
       314       317       319       320       314       317       319       321
       315       314       317       318       315       314       317       319
       316       314       317       318       316       314       317       319
       317       319       321       322       317       319       321       323
       317       319       321       324       318       317       319       320
       318       317       319       321       319       321       324       325
       319       321       324       326       320       319       321       322
       320       319       321       323       320       319       321       324
       321       324       326       327       321       324       326       328
       322       321       324       325       322       321       324       326
       323       321       324       325       323       321       324       326
       324       326       328       329       324       326       328       330
       324       326       328       331       325       324       326       327
       325       324       326       328       326       328       331       332
       326       328       331       333       327       326       328       329
       327       326       328       330       327       326       328       331
       328       331       333       334       328       331       333       335
       329       328       331       332       329       328       331       333
       330       328       331       332       330       328       331       333
       331       333       335       336       331       333       335       337
       331       333       335       338       332       331       333       334
       332       331       333       335       333       335       338       339
       333       335       338       340       333       335       338       341
       334       333       335       336       334       333       335       337
       334       333       335       338       335       338       341       342
       335       338       341       343       335       338       341       344
       336       335       338       339       336       335       338       340
       336       335       338       341       337       335       338       339
       337       335       338       340       337       335       338       341
       338       341       344       345       338       341       344       346
       338       341       344       347       339       338       341       342
       339       338       341       343       339       338       341       344
       340       338       341       342       340       338       341       343
       340       338       341       344       341       344       347       348
       341       344       347       349       341       344       347       350
       342       341       344       345       342       341       344       346
       342       341       344       347       343       341       344       345
       343       341       344       346       343       341       344       347
       345       344       347       348       345       344       347       349
       345       344       347       350       346       344       347       348
       346       344       347       349       346       344       347       350
       351       354       357       358       351       354       357       359
       351       354       357       360       352       351       354       355
       352       351       354       356       352       351       354       357
       353       351       354       355       353       351       354       356
       353       351       354       357       354       357       360       361
       354       357       360       362       354       357       360       363
       355       354       357       358       355       354       357       359
       355       354       357       360       356       354       357       358
       356       354       357       359       356       354       357       360
       357       360       363       364       357       360       363       365
       357       360       363       366       358       357       360       361
       358       357       360       362       358       357       360       363
       359       357       360       361       359       357       360       362
       359       357       360       363       360       363       366       367
       360       363       366       368       360       363       366       369
       361       360       363       364       361       360       363       365
       361       360       363       366       362       360       363       364
       362       360       363       365       362       360       363       366
       363       366       369       370       363       366       369       371
       363       366       369       372       364       363       366       367
       364       363       366       368       364       363       366       369
       365       363       366       367       365       363       366       368
       365       363       366       369       366       369       372       373
       366       369       372       374       366       369       372       375
       367       366       369       370       367       366       369       371
       367       366       369       372       368       366       369       370
       368       366       369       371       368       366       369       372
       369       372       375       376       369       372       375       377
       369       372       375       378       370       369       372       373
       370       369       372       374       370       369       372       375
       371       369       372       373       371       369       372       374
       371       369       372       375       372       375       378       379
       372       375       378       380       372       375       378       381
       373       372       375       376       373       372       375       377
       373       372       375       378       374       372       375       376
       374       372       375       377       374       372       375       378
       375       378       381       382       375       378       381       383
       375       378       381       384       376       375       378       379
       376       375       378       380       376       375       378       381
       377       375       378       379       377       375       378       380
       377       375       378       381       378       381       384       385
       378       381       384       386       378       381       384       387
       379       378       381       382       379       378       381       383
       379       378       381       384       380       378       381       382
       380       378       381       383       380       378       381       384
       381       384       387       388       381       384       387       389
       381       384       387       390       382       381       384       385
       382       381       384       386       382       381       384       387
       383       381       384       385       383       381       384       386
       383       381       384       387       384       387       390       391
       384       387       390       392       384       387       390       393
       385       384       387       388       385       384       387       389
       385       384       387       390       386       384       387       388
       386       384       387       389       386       384       387       390
       387       390       393       394       387       390       393       395
       387       390       393       396       388       387       390       391
       388       387       390       392       388       387       390       393
       389       387       390       391       389       387       390       392
       389       387       390       393       390       393       396       397
       390       393       396       398       390       393       396       399
       391       390       393       394       391       390       393       395
       391       390       393       396       392       390       393       394
       392       390       393       395       392       390       393       396
       394       393       396       397       394       393       396       398
       394       393       396       399       395       393       396       397
       395       393       396       398       395       393       396       399
     20389     20402     20405     20406     20389     20402     20405     20407
     20389     20402     20405     20411     20390     20389     20394     20395
     20390     20389     20394     20396     20390     20389     20394     20397
     20390     20389     20398     20399     20390     20389     20398     20400
     20390     20389     20398     20401     20390     20389     20402     20403
     20390     20389     20402     20404     20390     20389     20402     20405
     20391     20390     20389     20394     20391     20390     20389     20398
     20391     20390     20389     20402     20392     20390     20389     20394
     20392     20390     20389     20398     20392     20390     20389     20402
     20393     20390     20389     20394     20393     20390     20389     20398
     20393     20390     20389     20402     20394     20389     20398     20399
     20394     20389     20398     20400     20394     20389     20398     20401
     20394     20389     20402     20403     20394     20389     20402     20404
     20394     20389     20402     20405     20395     20394     20389     20398
     20395     20394     20389     20402     20396     20394     20389     20398
     20396     20394     20389     20402     20397     20394     20389     20398
     20397     20394     20389     20402     20398     20389     20402     20403
     20398     20389     20402     20404     20398     20389     20402     20405
     20399     20398     20389     20402     20400     20398     20389     20402
     20401     20398     20389     20402     20402     20405     20411     20408
     20403     20402     20405     20406     20403     20402     20405     20407
     20403     20402     20405     20411     20404     20402     20405     20406
     20404     20402     20405     20407     20404     20402     20405     20411
     20405     20411     20408     20409     20405     20411     20408     20410
     20405     20411     20408     20412     20406     20405     20411     20408
     20407     20405     20411     20408     20408     20412     20413     20414
     20408     20412     20413     20415     20408     20412     20413     20416
     20409     20408     20412     20413     20410     20408     20412     20413
     20411     20408     20412     20413     20412     20413     20416     20417
     20412     20413     20416     20418     20412     20413     20416     20424
     20413     20416     20418     20419     20413     20416     20424     20425
     20413     20416     20424     20426     20413     20416     20424     20427
     20414     20413     20416     20417     20414     20413     20416     20418
     20414     20413     20416     20424     20415     20413     20416     20417
     20415     20413     20416     20418     20415     20413     20416     20424
     20416     20418     20419     20420     20416     20418     20419     20421
     20416     20424     20427     20428     20417     20416     20418     20419
     20417     20416     20424     20425     20417     20416     20424     20426
     20417     20416     20424     20427     20418     20416     20424     20425
     20418     20416     20424     20426     20418     20416     20424     20427
     20418     20419     20421     20422     20418     20419     20421     20423
     20418     20419     20421     20433     20419     20418     20416     20424
     20419     20421     20433     20434     20419     20421     20433     20435
     20419     20421     20433     20436     20420     20419     20421     20422
     20420     20419     20421     20423     20420     20419     20421     20433
     20421     20433     20436     20437     20421     20433     20436     20438
     20421     20433     20436     20439     20422     20421     20433     20434
     20422     20421     20433     20435     20422     20421     20433     20436
     20423     20421     20433     20434     20423     20421     20433     20435
     20423     20421     20433     20436     20424     20427     20428     20429
     20424     20427     20428     20430     20425     20424     20427     20428
     20426     20424     20427     20428     20427     20428     20430     20431
     20427     20428     20430     20432     20427     20428     20430     20478
     20428     20430     20478     20479     20428     20430     20478     20480
     20428     20430     20478     20481     20429     20428     20430     20431
     20429     20428     20430     20432     20429     20428     20430     20478
     20430     20478     20481     20482     20430     20478     20481     20483
     20430     20478     20481     20484     20431     20430     20478     20479
     20431     20430     20478     20480     20431     20430     20478     20481
     20432     20430     20478     20479     20432     20430     20478     20480
     20432     20430     20478     20481     20433     20436     20439     20440
     20433     20436     20439     20441     20433     20436     20439     20442
     20434     20433     20436     20437     20434     20433     20436     20438
     20434     20433     20436     20439     20435     20433     20436     20437
     20435     20433     20436     20438     20435     20433     20436     20439
     20436     20439     20442     20443     20436     20439     20442     20444
     20436     20439     20442     20445     20437     20436     20439     20440
     20437     20436     20439     20441     20437     20436     20439     20442
     20438     20436     20439     20440     20438     20436     20439     20441
     20438     20436     20439     20442     20439     20442     20445     20446
     20439     20442     20445     20447     20439     20442     20445     20448
     20440     20439     20442     20443     20440     20439     20442     20444
     20440     20439     20442     20445     20441     20439     20442     20443
     20441     20439     20442     20444     20441     20439     20442     20445
     20442     20445     20448     20449     20442     20445     20448     20450
     20442     20445     20448     20451     20443     20442     20445     20446
     20443     20442     20445     20447     20443     20442     20445     20448
     20444     20442     20445     20446     20444     20442     20445     20447
     20444     20442     20445     20448     20445     20448     20451     20452
     20445     20448     20451     20453     20446     20445     20448     20449
     20446     20445     20448     20450     20446     20445     20448     20451
     20447     20445     20448     20449     20447     20445     20448     20450
     20447     20445     20448     20451     20448     20451     20453     20454
     20448     20451     20453     20455     20449     20448     20451     20452
     20449     20448     20451     20453     20450     20448     20451     20452
     20450     20448     20451     20453     20451     20453     20455     20456
     20451     20453     20455     20457     20451     20453     20455     20458
     20452     20451     20453     20454     20452     20451     20453     20455
     20453     20455     20458     20459     20453     20455     20458     20460
     20454     20453     20455     20456     20454     20453     20455     20457
     20454     20453     20455     20458     20455     20458     20460     20461
     20455     20458     20460     20462     20456     20455     20458     20459
     20456     20455     20458     20460     20457     20455     20458     20459
     20457     20455     20458     20460     20458     20460     20462     20463
     20458     20460     20462     20464     20458     20460     20462     20465
     20459     20458     20460     20461     20459     20458     20460     20462
     20460     20462     20465     20466     20460     20462     20465     20467
     20460     20462     20465     20468     20461     20460     20462     20463
     20461     20460     20462     20464     20461     20460     20462     20465
     20462     20465     20468     20469     20462     20465     20468     20470
     20462     20465     20468     20471     20463     20462     20465     20466
     20463     20462     20465     20467     20463     20462     20465     20468
     20464     20462     20465     20466     20464     20462     20465     20467
     20464     20462     20465     20468     20465     20468     20471     20472
     20465     20468     20471     20473     20465     20468     20471     20474
     20466     20465     20468     20469     20466     20465     20468     20470
     20466     20465     20468     20471     20467     20465     20468     20469
     20467     20465     20468     20470     20467     20465     20468     20471
     20468     20471     20474     20475     20468     20471     20474     20476
     20468     20471     20474     20477     20469     20468     20471     20472
     20469     20468     20471     20473     20469     20468     20471     20474
     20470     20468     20471     20472     20470     20468     20471     20473
     20470     20468     20471     20474     20472     20471     20474     20475
     20472     20471     20474     20476     20472     20471     20474     20477
     20473     20471     20474     20475     20473     20471     20474     20476
     20473     20471     20474     20477     20478     20481     20484     20485
     20478     20481     20484     20486     20478     20481     20484     20487
     20479     20478     20481     20482     20479     20478     20481     20483
     20479     20478     20481     20484     20480     20478     20481     20482
     20480     20478     20481     20483     20480     20478     20481     20484
     20481     20484     20487     20488     20481     20484     20487     20489
     20481     20484     20487     20490     20482     20481     20484     20485
     20482     20481     20484     20486     20482     20481     20484     20487
     20483     20481     20484     20485     20483     20481     20484     20486
     20483     20481     20484     20487     20484     20487     20490     20491
     20484     20487     20490     20492     20484     20487     20490     20493
     20485     20484     20487     20488     20485     20484     20487     20489
     20485     20484     20487     20490     20486     20484     20487     20488
     20486     20484     20487     20489     20486     20484     20487     20490
     20487     20490     20493     20494     20487     20490     20493     20495
     20487     20490     20493     20496     20488     20487     20490     20491
     20488     20487     20490     20492     20488     20487     20490     20493
     20489     20487     20490     20491     20489     20487     20490     20492
     20489     20487     20490     20493     20490     20493     20496     20497
     20490     20493     20496     20498     20490     20493     20496     20499
     20491     20490     20493     20494     20491     20490     20493     20495
     20491     20490     20493     20496     20492     20490     20493     20494
     20492     20490     20493     20495     20492     20490     20493     20496
     20493     20496     20499     20500     20493     20496     20499     20501
     20493     20496     20499     20502     20494     20493     20496     20497
     20494     20493     20496     20498     20494     20493     20496     20499
     20495     20493     20496     20497     20495     20493     20496     20498
     20495     20493     20496     20499     20496     20499     20502     20503
     20496     20499     20502     20504     20496     20499     20502     20505
     20497     20496     20499     20500     20497     20496     20499     20501
     20497     20496     20499     20502     20498     20496     20499     20500
     20498     20496     20499     20501     20498     20496     20499     20502
     20499     20502     20505     20506     20499     20502     20505     20507
     20499     20502     20505     20508     20500     20499     20502     20503
     20500     20499     20502     20504     20500     20499     20502     20505
     20501     20499     20502     20503     20501     20499     20502     20504
     20501     20499     20502     20505     20502     20505     20508     20509
     20502     20505     20508     20510     20502     20505     20508     20511
     20503     20502     20505     20506     20503     20502     20505     20507
     20503     20502     20505     20508     20504     20502     20505     20506
     20504     20502     20505     20507     20504     20502     20505     20508
     20505     20508     20511     20512     20505     20508     20511     20513
     20505     20508     20511     20514     20506     20505     20508     20509
     20506     20505     20508     20510     20506     20505     20508     20511
     20507     20505     20508     20509     20507     20505     20508     20510
     20507     20505     20508     20511     20508     20511     20514     20515
     20508     20511     20514     20516     20508     20511     20514     20517
     20509     20508     20511     20512     20509     20508     20511     20513
     20509     20508     20511     20514     20510     20508     20511     20512
     20510     20508     20511     20513     20510     20508     20511     20514
     20511     20514     20517     20518     20511     20514     20517     20519
     20511     20514     20517     20520     20512     20511     20514     20515
     20512     20511     20514     20516     20512     20511     20514     20517
     20513     20511     20514     20515     20513     20511     20514     20516
     20513     20511     20514     20517     20514     20517     20520     20521
     20514     20517     20520     20522     20514     20517     20520     20523
     20515     20514     20517     20518     20515     20514     20517     20519
     20515     20514     20517     20520     20516     20514     20517     20518
     20516     20514     20517     20519     20516     20514     20517     20520
     20517     20520     20523     20524     20517     20520     20523     20525
     20517     20520     20523     20526     20518     20517     20520     20521
     20518     20517     20520     20522     20518     20517     20520     20523
     20519     20517     20520     20521     20519     20517     20520     20522
     20519     20517     20520     20523     20521     20520     20523     20524
     20521     20520     20523     20525     20521     20520     20523     20526
     20522     20520     20523     20524     20522     20520     20523     20525
     20522     20520     20523     20526     18231     18235     18238     18239
     18231     18235     18238     18240     18231     18235     18238     18244
     18232     18231     18235     18236     18232     18231     18235     18237
     18232     18231     18235     18238     18233     18231     18235     18236
     18233     18231     18235     18237     18233     18231     18235     18238
     18234     18231     18235     18236     18234     18231     18235     18237
     18234     18231     18235     18238     18235     18238     18244     18241
     18236     18235     18238     18239     18236     18235     18238     18240
     18236     18235     18238     18244     18237     18235     18238     18239
     18237     18235     18238     18240     18237     18235     18238     18244
     18238     18244     18241     18242     18238     18244     18241     18243
     18238     18244     18241     18245     18239     18238     18244     18241
     18240     18238     18244     18241     18241     18245     18246     18247
     18241     18245     18246     18248     18241     18245     18246     18249
     18242     18241     18245     18246     18243     18241     18245     18246
     18244     18241     18245     18246     18245     18246     18249     18250
     18245     18246     18249     18251     18245     18246     18249     18257
     18246     18249     18251     18252     18246     18249     18257     18258
     18246     18249     18257     18259     18246     18249     18257     18260
     18247     18246     18249     18250     18247     18246     18249     18251
     18247     18246     18249     18257     18248     18246     18249     18250
     18248     18246     18249     18251     18248     18246     18249     18257
     18249     18251     18252     18253     18249     18251     18252     18254
     18249     18257     18260     18261     18250     18249     18251     18252
     18250     18249     18257     18258     18250     18249     18257     18259
     18250     18249     18257     18260     18251     18249     18257     18258
     18251     18249     18257     18259     18251     18249     18257     18260
     18251     18252     18254     18255     18251     18252     18254     18256
     18251     18252     18254     18266     18252     18251     18249     18257
     18252     18254     18266     18267     18252     18254     18266     18268
     18252     18254     18266     18269     18253     18252     18254     18255
     18253     18252     18254     18256     18253     18252     18254     18266
     18254     18266     18269     18270     18254     18266     18269     18271
     18254     18266     18269     18272     18255     18254     18266     18267
     18255     18254     18266     18268     18255     18254     18266     18269
     18256     18254     18266     18267     18256     18254     18266     18268
     18256     18254     18266     18269     18257     18260     18261     18262
     18257     18260     18261     18263     18258     18257     18260     18261
     18259     18257     18260     18261     18260     18261     18263     18264
     18260     18261     18263     18265     18260     18261     18263     18313
     18261     18263     18313     18314     18261     18263     18313     18315
     18261     18263     18313     18316     18262     18261     18263     18264
     18262     18261     18263     18265     18262     18261     18263     18313
     18263     18313     18316     18317     18263     18313     18316     18318
     18263     18313     18316     18319     18264     18263     18313     18314
     18264     18263     18313     18315     18264     18263     18313     18316
     18265     18263     18313     18314     18265     18263     18313     18315
     18265     18263     18313     18316     18266     18269     18272     18273
     18266     18269     18272     18274     18266     18269     18272     18275
     18267     18266     18269     18270     18267     18266     18269     18271
     18267     18266     18269     18272     18268     18266     18269     18270
     18268     18266     18269     18271     18268     18266     18269     18272
     18269     18272     18275     18276     18269     18272     18275     18277
     18269     18272     18275     18278     18270     18269     18272     18273
     18270     18269     18272     18274     18270     18269     18272     18275
     18271     18269     18272     18273     18271     18269     18272     18274
     18271     18269     18272     18275     18272     18275     18278     18279
     18272     18275     18278     18280     18272     18275     18278     18281
     18273     18272     18275     18276     18273     18272     18275     18277
     18273     18272     18275     18278     18274     18272     18275     18276
     18274     18272     18275     18277     18274     18272     18275     18278
     18275     18278     18281     18282     18275     18278     18281     18283
     18275     18278     18281     18284     18276     18275     18278     18279
     18276     18275     18278     18280     18276     18275     18278     18281
     18277     18275     18278     18279     18277     18275     18278     18280
     18277     18275     18278     18281     18278     18281     18284     18285
     18278     18281     18284     18286     18279     18278     18281     18282
     18279     18278     18281     18283     18279     18278     18281     18284
     18280     18278     18281     18282     18280     18278     18281     18283
     18280     18278     18281     18284     18281     18284     18286     18287
     18281     18284     18286     18288     18282     18281     18284     18285
     18282     18281     18284     18286     18283     18281     18284     18285
     18283     18281     18284     18286     18284     18286     18288     18289
     18284     18286     18288     18290     18284     18286     18288     18291
     18285     18284     18286     18287     18285     18284     18286     18288
     18286     18288     18291     18292     18286     18288     18291     18293
     18286     18288     18291     18294     18287     18286     18288     18289
     18287     18286     18288     18290     18287     18286     18288     18291
     18288     18291     18294     18295     18288     18291     18294     18296
     18288     18291     18294     18297     18289     18288     18291     18292
     18289     18288     18291     18293     18289     18288     18291     18294
     18290     18288     18291     18292     18290     18288     18291     18293
     18290     18288     18291     18294     18291     18294     18297     18298
     18291     18294     18297     18299     18291     18294     18297     18300
     18292     18291     18294     18295     18292     18291     18294     18296
     18292     18291     18294     18297     18293     18291     18294     18295
     18293     18291     18294     18296     18293     18291     18294     18297
     18294     18297     18300     18301     18294     18297     18300     18302
     18294     18297     18300     18303     18295     18294     18297     18298
     18295     18294     18297     18299     18295     18294     18297     18300
     18296     18294     18297     18298     18296     18294     18297     18299
     18296     18294     18297     18300     18297     18300     18303     18304
     18297     18300     18303     18305     18297     18300     18303     18306
     18298     18297     18300     18301     18298     18297     18300     18302
     18298     18297     18300     18303     18299     18297     18300     18301
     18299     18297     18300     18302     18299     18297     18300     18303
     18300     18303     18306     18307     18300     18303     18306     18308
     18300     18303     18306     18309     18301     18300     18303     18304
     18301     18300     18303     18305     18301     18300     18303     18306
     18302     18300     18303     18304     18302     18300     18303     18305
     18302     18300     18303     18306     18303     18306     18309     18310
     18303     18306     18309     18311     18303     18306     18309     18312
     18304     18303     18306     18307     18304     18303     18306     18308
     18304     18303     18306     18309     18305     18303     18306     18307
     18305     18303     18306     18308     18305     18303     18306     18309
     18307     18306     18309     18310     18307     18306     18309     18311
     18307     18306     18309     18312     18308     18306     18309     18310
     18308     18306     18309     18311     18308     18306     18309     18312
     18313     18316     18319     18320     18313     18316     18319     18321
     18313     18316     18319     18322     18314     18313     18316     18317
     18314     18313     18316     18318     18314     18313     18316     18319
     18315     18313     18316     18317     18315     18313     18316     18318
     18315     18313     18316     18319     18316     18319     18322     18323
     18316     18319     18322     18324     18316     18319     18322     18325
     18317     18316     18319     18320     18317     18316     18319     18321
     18317     18316     18319     18322     18318     18316     18319     18320
     18318     18316     18319     18321     18318     18316     18319     18322
     18319     18322     18325     18326     18319     18322     18325     18327
     18319     18322     18325     18328     18320     18319     18322     18323
     18320     18319     18322     18324     18320     18319     18322     18325
     18321     18319     18322     18323     18321     18319     18322     18324
     18321     18319     18322     18325     18322     18325     18328     18329
     18322     18325     18328     18330     18322     18325     18328     18331
     18323     18322     18325     18326     18323     18322     18325     18327
     18323     18322     18325     18328     18324     18322     18325     18326
     18324     18322     18325     18327     18324     18322     18325     18328
     18325     18328     18331     18332     18325     18328     18331     18333
     18325     18328     18331     18334     18326     18325     18328     18329
     18326     18325     18328     18330     18326     18325     18328     18331
     18327     18325     18328     18329     18327     18325     18328     18330
     18327     18325     18328     18331     18328     18331     18334     18335
     18328     18331     18334     18336     18328     18331     18334     18337
     18329     18328     18331     18332     18329     18328     18331     18333
     18329     18328     18331     18334     18330     18328     18331     18332
     18330     18328     18331     18333     18330     18328     18331     18334
     18331     18334     18337     18338     18331     18334     18337     18339
     18331     18334     18337     18340     18332     18331     18334     18335
     18332     18331     18334     18336     18332     18331     18334     18337
     18333     18331     18334     18335     18333     18331     18334     18336
     18333     18331     18334     18337     18334     18337     18340     18341
     18334     18337     18340     18342     18334     18337     18340     18343
     18335     18334     18337     18338     18335     18334     18337     18339
     18335     18334     18337     18340     18336     18334     18337     18338
     18336     18334     18337     18339     18336     18334     18337     18340
     18337     18340     18343     18344     18337     18340     18343     18345
     18337     18340     18343     18346     18338     18337     18340     18341
     18338     18337     18340     18342     18338     18337     18340     18343
     18339     18337     18340     18341     18339     18337     18340     18342
     18339     18337     18340     18343     18340     18343     18346     18347
     18340     18343     18346     18348     18340     18343     18346     18349
     18341     18340     18343     18344     18341     18340     18343     18345
     18341     18340     18343     18346     18342     18340     18343     18344
     18342     18340     18343     18345     18342     18340     18343     18346
     18343     18346     18349     18350     18343     18346     18349     18351
     18343     18346     18349     18352     18344     18343     18346     18347
     18344     18343     18346     18348     18344     18343     18346     18349
     18345     18343     18346     18347     18345     18343     18346     18348
     18345     18343     18346     18349     18346     18349     18352     18353
     18346     18349     18352     18354     18346     18349     18352     18355
     18347     18346     18349     18350     18347     18346     18349     18351
     18347     18346     18349     18352     18348     18346     18349     18350
     18348     18346     18349     18351     18348     18346     18349     18352
     18349     18352     18355     18356     18349     18352     18355     18357
     18349     18352     18355     18358     18350     18349     18352     18353
     18350     18349     18352     18354     18350     18349     18352     18355
     18351     18349     18352     18353     18351     18349     18352     18354
     18351     18349     18352     18355     18352     18355     18358     18359
     18352     18355     18358     18360     18352     18355     18358     18361
     18353     18352     18355     18356     18353     18352     18355     18357
     18353     18352     18355     18358     18354     18352     18355     18356
     18354     18352     18355     18357     18354     18352     18355     18358
     18356     18355     18358     18359     18356     18355     18358     18360
     18356     18355     18358     18361     18357     18355     18358     18359
     18357     18355     18358     18360     18357     18355     18358     18361
     19684     19688     19690     19691     19684     19688     19692     19693
     19684     19688     19692     19694     19684     19688     19692     19696
     19684     19704     19700     19696     19684     19704     19700     19701
     19684     19704     19700     19702     19684     19704     19709     19706
     19685     19684     19686     19687     19685     19684     19688     19689
     19685     19684     19688     19690     19685     19684     19688     19692
     19685     19684     19704     19700     19685     19684     19704     19705
     19685     19684     19704     19709     19686     19684     19688     19689
     19686     19684     19688     19690     19686     19684     19688     19692
     19686     19684     19704     19700     19686     19684     19704     19705
     19686     19684     19704     19709     19687     19686     19684     19688
     19687     19686     19684     19704     19688     19684     19704     19700
     19688     19684     19704     19705     19688     19684     19704     19709
     19688     19692     19694     19695     19688     19692     19696     19697
     19688     19692     19696     19698     19688     19692     19696     19700
     19689     19688     19684     19704     19689     19688     19690     19691
     19689     19688     19692     19693     19689     19688     19692     19694
     19689     19688     19692     19696     19690     19688     19684     19704
     19690     19688     19692     19693     19690     19688     19692     19694
     19690     19688     19692     19696     19691     19690     19688     19692
     19692     19688     19684     19704     19692     19696     19698     19699
     19692     19696     19700     19701     19692     19696     19700     19702
     19692     19696     19700     19704     19693     19692     19694     19695
     19693     19692     19696     19697     19693     19692     19696     19698
     19693     19692     19696     19700     19694     19692     19696     19697
     19694     19692     19696     19698     19694     19692     19696     19700
     19695     19694     19692     19696     19696     19700     19702     19703
     19696     19700     19704     19705     19696     19700     19704     19709
     19697     19696     19698     19699     19697     19696     19700     19701
     19697     19696     19700     19702     19697     19696     19700     19704
     19698     19696     19700     19701     19698     19696     19700     19702
     19698     19696     19700     19704     19699     19698     19696     19700
     19700     19704     19709     19706     19701     19700     19702     19703
     19701     19700     19704     19705     19701     19700     19704     19709
     19702     19700     19704     19705     19702     19700     19704     19709
     19703     19702     19700     19704     19704     19709     19706     19707
     19704     19709     19706     19708     19704     19709     19706     19710
     19705     19704     19709     19706     19706     19710     19711     19712
     19706     19710     19711     19713     19706     19710     19711     19714
     19707     19706     19710     19711     19708     19706     19710     19711
     19709     19706     19710     19711     19710     19711     19714     19715
     19710     19711     19714     19716     19710     19711     19714     19722
     19711     19714     19716     19717     19711     19714     19722     19723
     19711     19714     19722     19724     19711     19714     19722     19725
     19712     19711     19714     19715     19712     19711     19714     19716
     19712     19711     19714     19722     19713     19711     19714     19715
     19713     19711     19714     19716     19713     19711     19714     19722
     19714     19716     19717     19718     19714     19716     19717     19719
     19714     19722     19725     19726     19715     19714     19716     19717
     19715     19714     19722     19723     19715     19714     19722     19724
     19715     19714     19722     19725     19716     19714     19722     19723
     19716     19714     19722     19724     19716     19714     19722     19725
     19716     19717     19719     19720     19716     19717     19719     19721
     19716     19717     19719     19731     19717     19716     19714     19722
     19717     19719     19731     19732     19717     19719     19731     19733
     19717     19719     19731     19734     19718     19717     19719     19720
     19718     19717     19719     19721     19718     19717     19719     19731
     19719     19731     19734     19735     19719     19731     19734     19736
     19719     19731     19734     19737     19720     19719     19731     19732
     19720     19719     19731     19733     19720     19719     19731     19734
     19721     19719     19731     19732     19721     19719     19731     19733
     19721     19719     19731     19734     19722     19725     19726     19727
     19722     19725     19726     19728     19723     19722     19725     19726
     19724     19722     19725     19726     19725     19726     19728     19729
     19725     19726     19728     19730     19725     19726     19728     19778
     19726     19728     19778     19779     19726     19728     19778     19780
     19726     19728     19778     19781     19727     19726     19728     19729
     19727     19726     19728     19730     19727     19726     19728     19778
     19728     19778     19781     19782     19728     19778     19781     19783
     19728     19778     19781     19784     19729     19728     19778     19779
     19729     19728     19778     19780     19729     19728     19778     19781
     19730     19728     19778     19779     19730     19728     19778     19780
     19730     19728     19778     19781     19731     19734     19737     19738
     19731     19734     19737     19739     19732     19731     19734     19735
     19732     19731     19734     19736     19732     19731     19734     19737
     19733     19731     19734     19735     19733     19731     19734     19736
     19733     19731     19734     19737     19734     19737     19739     19740
     19734     19737     19739     19741     19735     19734     19737     19738
     19735     19734     19737     19739     19736     19734     19737     19738
     19736     19734     19737     19739     19737     19739     19741     19742
     19737     19739     19741     19743     19737     19739     19741     19744
     19738     19737     19739     19740     19738     19737     19739     19741
     19739     19741     19744     19745     19739     19741     19744     19746
     19740     19739     19741     19742     19740     19739     19741     19743
     19740     19739     19741     19744     19741     19744     19746     19747
     19741     19744     19746     19748     19742     19741     19744     19745
     19742     19741     19744     19746     19743     19741     19744     19745
     19743     19741     19744     19746     19744     19746     19748     19749
     19744     19746     19748     19750     19744     19746     19748     19751
     19745     19744     19746     19747     19745     19744     19746     19748
     19746     19748     19751     19752     19746     19748     19751     19753
     19747     19746     19748     19749     19747     19746     19748     19750
     19747     19746     19748     19751     19748     19751     19753     19754
     19748     19751     19753     19755     19749     19748     19751     19752
     19749     19748     19751     19753     19750     19748     19751     19752
     19750     19748     19751     19753     19751     19753     19755     19756
     19751     19753     19755     19757     19751     19753     19755     19758
     19752     19751     19753     19754     19752     19751     19753     19755
     19753     19755     19758     19759     19753     19755     19758     19760
     19754     19753     19755     19756     19754     19753     19755     19757
     19754     19753     19755     19758     19755     19758     19760     19761
     19755     19758     19760     19762     19756     19755     19758     19759
     19756     19755     19758     19760     19757     19755     19758     19759
     19757     19755     19758     19760     19758     19760     19762     19763
     19758     19760     19762     19764     19758     19760     19762     19765
     19759     19758     19760     19761     19759     19758     19760     19762
     19760     19762     19765     19766     19760     19762     19765     19767
     19760     19762     19765     19768     19761     19760     19762     19763
     19761     19760     19762     19764     19761     19760     19762     19765
     19762     19765     19768     19769     19762     19765     19768     19770
     19762     19765     19768     19771     19763     19762     19765     19766
     19763     19762     19765     19767     19763     19762     19765     19768
     19764     19762     19765     19766     19764     19762     19765     19767
     19764     19762     19765     19768     19765     19768     19771     19772
     19765     19768     19771     19773     19765     19768     19771     19774
     19766     19765     19768     19769     19766     19765     19768     19770
     19766     19765     19768     19771     19767     19765     19768     19769
     19767     19765     19768     19770     19767     19765     19768     19771
     19768     19771     19774     19775     19768     19771     19774     19776
     19768     19771     19774     19777     19769     19768     19771     19772
     19769     19768     19771     19773     19769     19768     19771     19774
     19770     19768     19771     19772     19770     19768     19771     19773
     19770     19768     19771     19774     19772     19771     19774     19775
     19772     19771     19774     19776     19772     19771     19774     19777
     19773     19771     19774     19775     19773     19771     19774     19776
     19773     19771     19774     19777     19778     19781     19784     19785
     19778     19781     19784     19786     19778     19781     19784     19787
     19779     19778     19781     19782     19779     19778     19781     19783
     19779     19778     19781     19784     19780     19778     19781     19782
     19780     19778     19781     19783     19780     19778     19781     19784
     19781     19784     19787     19788     19781     19784     19787     19789
     19781     19784     19787     19790     19782     19781     19784     19785
     19782     19781     19784     19786     19782     19781     19784     19787
     19783     19781     19784     19785     19783     19781     19784     19786
     19783     19781     19784     19787     19784     19787     19790     19791
     19784     19787     19790     19792     19784     19787     19790     19793
     19785     19784     19787     19788     19785     19784     19787     19789
     19785     19784     19787     19790     19786     19784     19787     19788
     19786     19784     19787     19789     19786     19784     19787     19790
     19787     19790     19793     19794     19787     19790     19793     19795
     19787     19790     19793     19796     19788     19787     19790     19791
     19788     19787     19790     19792     19788     19787     19790     19793
     19789     19787     19790     19791     19789     19787     19790     19792
     19789     19787     19790     19793     19790     19793     19796     19797
     19790     19793     19796     19798     19790     19793     19796     19799
     19791     19790     19793     19794     19791     19790     19793     19795
     19791     19790     19793     19796     19792     19790     19793     19794
     19792     19790     19793     19795     19792     19790     19793     19796
     19793     19796     19799     19800     19793     19796     19799     19801
     19793     19796     19799     19802     19794     19793     19796     19797
     19794     19793     19796     19798     19794     19793     19796     19799
     19795     19793     19796     19797     19795     19793     19796     19798
     19795     19793     19796     19799     19796     19799     19802     19803
     19796     19799     19802     19804     19796     19799     19802     19805
     19797     19796     19799     19800     19797     19796     19799     19801
     19797     19796     19799     19802     19798     19796     19799     19800
     19798     19796     19799     19801     19798     19796     19799     19802
     19799     19802     19805     19806     19799     19802     19805     19807
     19799     19802     19805     19808     19800     19799     19802     19803
     19800     19799     19802     19804     19800     19799     19802     19805
     19801     19799     19802     19803     19801     19799     19802     19804
     19801     19799     19802     19805     19802     19805     19808     19809
     19802     19805     19808     19810     19802     19805     19808     19811
     19803     19802     19805     19806     19803     19802     19805     19807
     19803     19802     19805     19808     19804     19802     19805     19806
     19804     19802     19805     19807     19804     19802     19805     19808
     19805     19808     19811     19812     19805     19808     19811     19813
     19805     19808     19811     19814     19806     19805     19808     19809
     19806     19805     19808     19810     19806     19805     19808     19811
     19807     19805     19808     19809     19807     19805     19808     19810
     19807     19805     19808     19811     19808     19811     19814     19815
     19808     19811     19814     19816     19808     19811     19814     19817
     19809     19808     19811     19812     19809     19808     19811     19813
     19809     19808     19811     19814     19810     19808     19811     19812
     19810     19808     19811     19813     19810     19808     19811     19814
     19811     19814     19817     19818     19811     19814     19817     19819
     19811     19814     19817     19820     19812     19811     19814     19815
     19812     19811     19814     19816     19812     19811     19814     19817
     19813     19811     19814     19815     19813     19811     19814     19816
     19813     19811     19814     19817     19814     19817     19820     19821
     19814     19817     19820     19822     19814     19817     19820     19823
     19815     19814     19817     19818     19815     19814     19817     19819
     19815     19814     19817     19820     19816     19814     19817     19818
     19816     19814     19817     19819     19816     19814     19817     19820
     19817     19820     19823     19824     19817     19820     19823     19825
     19817     19820     19823     19826     19818     19817     19820     19821
     19818     19817     19820     19822     19818     19817     19820     19823
     19819     19817     19820     19821     19819     19817     19820     19822
     19819     19817     19820     19823     19821     19820     19823     19824
     19821     19820     19823     19825     19821     19820     19823     19826
     19822     19820     19823     19824     19822     19820     19823     19825
     19822     19820     19823     19826      6107      6111      6114      6115
      6107      6111      6114      6145      6107      6153      6150      6145
      6107      6153      6150      6151      6107      6153      6150      6152
      6108      6107      6109      6110      6108      6107      6111      6112
      6108      6107      6111      6113      6108      6107      6111      6114
      6108      6107      6153      6150      6108      6107      6153      6154
      6108      6107      6153      6155      6109      6107      6111      6112
      6109      6107      6111      6113      6109      6107      6111      6114
      6109      6107      6153      6150      6109      6107      6153      6154
      6109      6107      6153      6155      6110      6109      6107      6111
      6110      6109      6107      6153      6111      6107      6153      6150
      6111      6107      6153      6154      6111      6107      6153      6155
      6111      6114      6115      6116      6111      6114      6115      6117
      6111      6114      6145      6143      6111      6114      6145      6146
      6111      6114      6145      6150      6112      6111      6107      6153
      6112      6111      6114      6115      6112      6111      6114      6145
      6113      6111      6107      6153      6113      6111      6114      6115
      6113      6111      6114      6145      6114      6111      6107      6153
      6114      6115      6117      6118      6114      6115      6117      6119
      6114      6115      6117      6120      6114      6145      6143      6120
      6114      6145      6143      6140      6114      6145      6143      6144
      6114      6145      6146      6147      6114      6145      6146      6148
      6114      6145      6146      6149      6114      6145      6150      6151
      6114      6145      6150      6152      6114      6145      6150      6153
      6115      6114      6145      6143      6115      6114      6145      6146
      6115      6114      6145      6150      6115      6117      6120      6121
      6115      6117      6120      6122      6115      6117      6120      6143
      6116      6115      6114      6145      6116      6115      6117      6118
      6116      6115      6117      6119      6116      6115      6117      6120
      6117      6115      6114      6145      6117      6120      6122      6123
      6117      6120      6122      6124      6117      6120      6122      6132
      6117      6120      6143      6140      6117      6120      6143      6144
      6117      6120      6143      6145      6118      6117      6120      6121
      6118      6117      6120      6122      6118      6117      6120      6143
      6119      6117      6120      6121      6119      6117      6120      6122
      6119      6117      6120      6143      6120      6122      6124      6125
      6120      6122      6124      6126      6120      6122      6124      6127
      6120      6122      6132      6130      6120      6122      6132      6133
      6120      6122      6132      6137      6120      6143      6140      6137
      6120      6143      6140      6141      6120      6143      6140      6142
      6120      6143      6145      6146      6120      6143      6145      6150
      6121      6120      6122      6123      6121      6120      6122      6124
      6121      6120      6122      6132      6121      6120      6143      6140
      6121      6120      6143      6144      6121      6120      6143      6145
      6122      6120      6143      6140      6122      6120      6143      6144
      6122      6120      6143      6145      6122      6124      6127      6128
      6122      6124      6127      6129      6122      6124      6127      6130
      6122      6132      6130      6127      6122      6132      6130      6131
      6122      6132      6130      6156      6122      6132      6133      6134
      6122      6132      6133      6135      6122      6132      6133      6136
      6122      6132      6137      6138      6122      6132      6137      6139
      6122      6132      6137      6140      6123      6122      6120      6143
      6123      6122      6124      6125      6123      6122      6124      6126
      6123      6122      6124      6127      6123      6122      6132      6130
      6123      6122      6132      6133      6123      6122      6132      6137
      6124      6122      6120      6143      6124      6122      6132      6130
      6124      6122      6132      6133      6124      6122      6132      6137
      6124      6127      6130      6131      6124      6127      6130      6132
      6124      6127      6130      6156      6125      6124      6122      6132
      6125      6124      6127      6128      6125      6124      6127      6129
      6125      6124      6127      6130      6126      6124      6122      6132
      6126      6124      6127      6128      6126      6124      6127      6129
      6126      6124      6127      6130      6127      6124      6122      6132
      6127      6130      6132      6133      6127      6130      6132      6137
      6127      6130      6156      6157      6127      6130      6156      6158
      6127      6130      6156      6162      6128      6127      6130      6131
      6128      6127      6130      6132      6128      6127      6130      6156
      6129      6127      6130      6131      6129      6127      6130      6132
      6129      6127      6130      6156      6130      6132      6133      6134
      6130      6132      6133      6135      6130      6132      6133      6136
      6130      6132      6137      6138      6130      6132      6137      6139
      6130      6132      6137      6140      6130      6156      6158      6159
      6130      6156      6158      6160      6130      6156      6158      6161
      6130      6156      6162      6163      6130      6156      6162      6164
      6130      6156      6162      6165      6131      6130      6132      6133
      6131      6130      6132      6137      6131      6130      6156      6157
      6131      6130      6156      6158      6131      6130      6156      6162
      6132      6122      6120      6143      6132      6130      6156      6157
      6132      6130      6156      6158      6132      6130      6156      6162
      6132      6137      6140      6141      6132      6137      6140      6142
      6132      6137      6140      6143      6133      6132      6130      6156
      6133      6132      6137      6138      6133      6132      6137      6139
      6133      6132      6137      6140      6134      6133      6132      6137
      6135      6133      6132      6137      6136      6133      6132      6137
      6137      6132      6130      6156      6137      6140      6143      6144
      6137      6140      6143      6145      6138      6137      6140      6141
      6138      6137      6140      6142      6138      6137      6140      6143
      6139      6137      6140      6141      6139      6137      6140      6142
      6139      6137      6140      6143      6140      6143      6145      6146
      6140      6143      6145      6150      6141      6140      6143      6144
      6141      6140      6143      6145      6142      6140      6143      6144
      6142      6140      6143      6145      6143      6145      6146      6147
      6143      6145      6146      6148      6143      6145      6146      6149
      6143      6145      6150      6151      6143      6145      6150      6152
      6143      6145      6150      6153      6144      6143      6145      6146
      6144      6143      6145      6150      6145      6150      6153      6154
      6145      6150      6153      6155      6146      6145      6150      6151
      6146      6145      6150      6152      6146      6145      6150      6153
      6147      6146      6145      6150      6148      6146      6145      6150
      6149      6146      6145      6150      6151      6150      6153      6154
      6151      6150      6153      6155      6152      6150      6153      6154
      6152      6150      6153      6155      6156      6162      6165      6166
      6156      6162      6165      6167      6156      6162      6165      6168
      6157      6156      6158      6159      6157      6156      6158      6160
      6157      6156      6158      6161      6157      6156      6162      6163
      6157      6156      6162      6164      6157      6156      6162      6165
      6158      6156      6162      6163      6158      6156      6162      6164
      6158      6156      6162      6165      6159      6158      6156      6162
      6160      6158      6156      6162      6161      6158      6156      6162
      6162      6165      6168      6169      6162      6165      6168      6170
      6162      6165      6168      6171      6163      6162      6165      6166
      6163      6162      6165      6167      6163      6162      6165      6168
      6164      6162      6165      6166      6164      6162      6165      6167
      6164      6162      6165      6168      6165      6168      6171      6172
      6165      6168      6171      6173      6165      6168      6171      6177
      6166      6165      6168      6169      6166      6165      6168      6170
      6166      6165      6168      6171      6167      6165      6168      6169
      6167      6165      6168      6170      6167      6165      6168      6171
      6168      6171      6173      6174      6168      6171      6173      6175
      6168      6171      6173      6176      6168      6171      6177      6178
      6168      6171      6177      6179      6168      6171      6177      6180
      6169      6168      6171      6172      6169      6168      6171      6173
      6169      6168      6171      6177      6170      6168      6171      6172
      6170      6168      6171      6173      6170      6168      6171      6177
      6172      6171      6173      6174      6172      6171      6173      6175
      6172      6171      6173      6176      6172      6171      6177      6178
      6172      6171      6177      6179      6172      6171      6177      6180
      6173      6171      6177      6178      6173      6171      6177      6179
      6173      6171      6177      6180      6174      6173      6171      6177
      6175      6173      6171      6177      6176      6173      6171      6177
     10371     10384     10387     10388     10371     10384     10387     10389
     10371     10384     10387     10394     10372     10371     10376     10377
     10372     10371     10376     10378     10372     10371     10376     10379
     10372     10371     10380     10381     10372     10371     10380     10382
     10372     10371     10380     10383     10372     10371     10384     10385
     10372     10371     10384     10386     10372     10371     10384     10387
     10373     10372     10371     10376     10373     10372     10371     10380
     10373     10372     10371     10384     10374     10372     10371     10376
     10374     10372     10371     10380     10374     10372     10371     10384
     10375     10372     10371     10376     10375     10372     10371     10380
     10375     10372     10371     10384     10376     10371     10380     10381
     10376     10371     10380     10382     10376     10371     10380     10383
     10376     10371     10384     10385     10376     10371     10384     10386
     10376     10371     10384     10387     10377     10376     10371     10380
     10377     10376     10371     10384     10378     10376     10371     10380
     10378     10376     10371     10384     10379     10376     10371     10380
     10379     10376     10371     10384     10380     10371     10384     10385
     10380     10371     10384     10386     10380     10371     10384     10387
     10381     10380     10371     10384     10382     10380     10371     10384
     10383     10380     10371     10384     10384     10387     10394     10390
     10385     10384     10387     10388     10385     10384     10387     10389
     10385     10384     10387     10394     10386     10384     10387     10388
     10386     10384     10387     10389     10386     10384     10387     10394
     10387     10394     10390     10391     10387     10394     10390     10392
     10387     10394     10390     10393     10388     10387     10394     10390
     10389     10387     10394     10390     10390     10393     10395     10396
     10390     10393     10395     10397     10390     10393     10395     10400
     10391     10390     10393     10395     10392     10390     10393     10395
     10393     10395     10400     10398     10393     10395     10400     10401
     10393     10395     10400     10402     10394     10390     10393     10395
     10395     10400     10398     10399     10395     10400     10398     10450
     10395     10400     10402     10403     10395     10400     10402     10404
     10395     10400     10402     10406     10396     10395     10400     10398
     10396     10395     10400     10401     10396     10395     10400     10402
     10397     10395     10400     10398     10397     10395     10400     10401
     10397     10395     10400     10402     10398     10400     10402     10403
     10398     10400     10402     10404     10398     10400     10402     10406
     10398     10450     10452     10453     10398     10450     10452     10454
     10398     10450     10452     10455     10399     10398     10400     10401
     10399     10398     10400     10402     10399     10398     10450     10451
     10399     10398     10450     10452     10400     10398     10450     10451
     10400     10398     10450     10452     10400     10402     10404     10405
     10400     10402     10406     10407     10400     10402     10406     10408
     10401     10400     10398     10450     10401     10400     10402     10403
     10401     10400     10402     10404     10401     10400     10402     10406
     10402     10400     10398     10450     10402     10406     10408     10409
     10402     10406     10408     10410     10403     10402     10404     10405
     10403     10402     10406     10407     10403     10402     10406     10408
     10404     10402     10406     10407     10404     10402     10406     10408
     10405     10404     10402     10406     10406     10408     10410     10411
     10406     10408     10410     10412     10406     10408     10410     10413
     10407     10406     10408     10409     10407     10406     10408     10410
     10408     10410     10413     10414     10408     10410     10413     10415
     10408     10410     10413     10416     10409     10408     10410     10411
     10409     10408     10410     10412     10409     10408     10410     10413
     10410     10413     10416     10417     10410     10413     10416     10418
     10410     10413     10416     10419     10411     10410     10413     10414
     10411     10410     10413     10415     10411     10410     10413     10416
     10412     10410     10413     10414     10412     10410     10413     10415
     10412     10410     10413     10416     10413     10416     10419     10420
     10413     10416     10419     10421     10413     10416     10419     10422
     10414     10413     10416     10417     10414     10413     10416     10418
     10414     10413     10416     10419     10415     10413     10416     10417
     10415     10413     10416     10418     10415     10413     10416     10419
     10416     10419     10422     10423     10416     10419     10422     10424
     10416     10419     10422     10425     10417     10416     10419     10420
     10417     10416     10419     10421     10417     10416     10419     10422
     10418     10416     10419     10420     10418     10416     10419     10421
     10418     10416     10419     10422     10419     10422     10425     10426
     10419     10422     10425     10427     10419     10422     10425     10428
     10420     10419     10422     10423     10420     10419     10422     10424
     10420     10419     10422     10425     10421     10419     10422     10423
     10421     10419     10422     10424     10421     10419     10422     10425
     10422     10425     10428     10429     10422     10425     10428     10430
     10422     10425     10428     10431     10423     10422     10425     10426
     10423     10422     10425     10427     10423     10422     10425     10428
     10424     10422     10425     10426     10424     10422     10425     10427
     10424     10422     10425     10428     10425     10428     10431     10432
     10425     10428     10431     10433     10425     10428     10431     10434
     10426     10425     10428     10429     10426     10425     10428     10430
     10426     10425     10428     10431     10427     10425     10428     10429
     10427     10425     10428     10430     10427     10425     10428     10431
     10428     10431     10434     10435     10428     10431     10434     10436
     10428     10431     10434     10437     10429     10428     10431     10432
     10429     10428     10431     10433     10429     10428     10431     10434
     10430     10428     10431     10432     10430     10428     10431     10433
     10430     10428     10431     10434     10431     10434     10437     10438
     10431     10434     10437     10439     10431     10434     10437     10440
     10432     10431     10434     10435     10432     10431     10434     10436
     10432     10431     10434     10437     10433     10431     10434     10435
     10433     10431     10434     10436     10433     10431     10434     10437
     10434     10437     10440     10441     10434     10437     10440     10442
     10434     10437     10440     10443     10435     10434     10437     10438
     10435     10434     10437     10439     10435     10434     10437     10440
     10436     10434     10437     10438     10436     10434     10437     10439
     10436     10434     10437     10440     10437     10440     10443     10444
     10437     10440     10443     10445     10437     10440     10443     10446
     10438     10437     10440     10441     10438     10437     10440     10442
     10438     10437     10440     10443     10439     10437     10440     10441
     10439     10437     10440     10442     10439     10437     10440     10443
     10440     10443     10446     10447     10440     10443     10446     10448
     10440     10443     10446     10449     10441     10440     10443     10444
     10441     10440     10443     10445     10441     10440     10443     10446
     10442     10440     10443     10444     10442     10440     10443     10445
     10442     10440     10443     10446     10444     10443     10446     10447
     10444     10443     10446     10448     10444     10443     10446     10449
     10445     10443     10446     10447     10445     10443     10446     10448
     10445     10443     10446     10449     10450     10452     10455     10456
     10450     10452     10455     10457     10450     10452     10455     10458
     10451     10450     10452     10453     10451     10450     10452     10454
     10451     10450     10452     10455     10452     10455     10458     10459
     10452     10455     10458     10460     10452     10455     10458     10461
     10453     10452     10455     10456     10453     10452     10455     10457
     10453     10452     10455     10458     10454     10452     10455     10456
     10454     10452     10455     10457     10454     10452     10455     10458
     10455     10458     10461     10462     10455     10458     10461     10463
     10455     10458     10461     10464     10456     10455     10458     10459
     10456     10455     10458     10460     10456     10455     10458     10461
     10457     10455     10458     10459     10457     10455     10458     10460
     10457     10455     10458     10461     10458     10461     10464     10465
     10458     10461     10464     10466     10458     10461     10464     10467
     10459     10458     10461     10462     10459     10458     10461     10463
     10459     10458     10461     10464     10460     10458     10461     10462
     10460     10458     10461     10463     10460     10458     10461     10464
     10461     10464     10467     10468     10461     10464     10467     10469
     10461     10464     10467     10470     10462     10461     10464     10465
     10462     10461     10464     10466     10462     10461     10464     10467
     10463     10461     10464     10465     10463     10461     10464     10466
     10463     10461     10464     10467     10464     10467     10470     10471
     10464     10467     10470     10472     10464     10467     10470     10473
     10465     10464     10467     10468     10465     10464     10467     10469
     10465     10464     10467     10470     10466     10464     10467     10468
     10466     10464     10467     10469     10466     10464     10467     10470
     10467     10470     10473     10474     10467     10470     10473     10475
     10468     10467     10470     10471     10468     10467     10470     10472
     10468     10467     10470     10473     10469     10467     10470     10471
     10469     10467     10470     10472     10469     10467     10470     10473
     10470     10473     10475     10476     10470     10473     10475     10477
     10471     10470     10473     10474     10471     10470     10473     10475
     10472     10470     10473     10474     10472     10470     10473     10475
     10473     10475     10477     10478     10473     10475     10477     10479
     10473     10475     10477     10480     10474     10473     10475     10476
     10474     10473     10475     10477     10475     10477     10480     10481
     10475     10477     10480     10482     10475     10477     10480     10483
     10476     10475     10477     10478     10476     10475     10477     10479
     10476     10475     10477     10480     10477     10480     10483     10484
     10477     10480     10483     10485     10477     10480     10483     10486
     10478     10477     10480     10481     10478     10477     10480     10482
     10478     10477     10480     10483     10479     10477     10480     10481
     10479     10477     10480     10482     10479     10477     10480     10483
     10480     10483     10486     10487     10480     10483     10486     10488
     10480     10483     10486     10489     10481     10480     10483     10484
     10481     10480     10483     10485     10481     10480     10483     10486
     10482     10480     10483     10484     10482     10480     10483     10485
     10482     10480     10483     10486     10483     10486     10489     10490
     10483     10486     10489     10491     10483     10486     10489     10492
     10484     10483     10486     10487     10484     10483     10486     10488
     10484     10483     10486     10489     10485     10483     10486     10487
     10485     10483     10486     10488     10485     10483     10486     10489
     10486     10489     10492     10493     10486     10489     10492     10494
     10486     10489     10492     10495     10487     10486     10489     10490
     10487     10486     10489     10491     10487     10486     10489     10492
     10488     10486     10489     10490     10488     10486     10489     10491
     10488     10486     10489     10492     10489     10492     10495     10496
     10489     10492     10495     10497     10489     10492     10495     10498
     10490     10489     10492     10493     10490     10489     10492     10494
     10490     10489     10492     10495     10491     10489     10492     10493
     10491     10489     10492     10494     10491     10489     10492     10495
     10492     10495     10498     10499     10492     10495     10498     10500
     10492     10495     10498     10501     10493     10492     10495     10496
     10493     10492     10495     10497     10493     10492     10495     10498
     10494     10492     10495     10496     10494     10492     10495     10497
     10494     10492     10495     10498     10496     10495     10498     10499
     10496     10495     10498     10500     10496     10495     10498     10501
     10497     10495     10498     10499     10497     10495     10498     10500
     10497     10495     10498     10501      6181      6185      6188      6189
      6181      6185      6188      6219      6181      6227      6224      6219
      6181      6227      6224      6225      6181      6227      6224      6226
      6182      6181      6183      6184      6182      6181      6185      6186
      6182      6181      6185      6187      6182      6181      6185      6188
      6182      6181      6227      6224      6182      6181      6227      6228
      6182      6181      6227      6229      6183      6181      6185      6186
      6183      6181      6185      6187      6183      6181      6185      6188
      6183      6181      6227      6224      6183      6181      6227      6228
      6183      6181      6227      6229      6184      6183      6181      6185
      6184      6183      6181      6227      6185      6181      6227      6224
      6185      6181      6227      6228      6185      6181      6227      6229
      6185      6188      6189      6190      6185      6188      6189      6191
      6185      6188      6219      6217      6185      6188      6219      6220
      6185      6188      6219      6224      6186      6185      6181      6227
      6186      6185      6188      6189      6186      6185      6188      6219
      6187      6185      6181      6227      6187      6185      6188      6189
      6187      6185      6188      6219      6188      6185      6181      6227
      6188      6189      6191      6192      6188      6189      6191      6193
      6188      6189      6191      6194      6188      6219      6217      6194
      6188      6219      6217      6214      6188      6219      6217      6218
      6188      6219      6220      6221      6188      6219      6220      6222
      6188      6219      6220      6223      6188      6219      6224      6225
      6188      6219      6224      6226      6188      6219      6224      6227
      6189      6188      6219      6217      6189      6188      6219      6220
      6189      6188      6219      6224      6189      6191      6194      6195
      6189      6191      6194      6196      6189      6191      6194      6217
      6190      6189      6188      6219      6190      6189      6191      6192
      6190      6189      6191      6193      6190      6189      6191      6194
      6191      6189      6188      6219      6191      6194      6196      6197
      6191      6194      6196      6198      6191      6194      6196      6206
      6191      6194      6217      6214      6191      6194      6217      6218
      6191      6194      6217      6219      6192      6191      6194      6195
      6192      6191      6194      6196      6192      6191      6194      6217
      6193      6191      6194      6195      6193      6191      6194      6196
      6193      6191      6194      6217      6194      6196      6198      6199
      6194      6196      6198      6200      6194      6196      6198      6201
      6194      6196      6206      6204      6194      6196      6206      6207
      6194      6196      6206      6211      6194      6217      6214      6211
      6194      6217      6214      6215      6194      6217      6214      6216
      6194      6217      6219      6220      6194      6217      6219      6224
      6195      6194      6196      6197      6195      6194      6196      6198
      6195      6194      6196      6206      6195      6194      6217      6214
      6195      6194      6217      6218      6195      6194      6217      6219
      6196      6194      6217      6214      6196      6194      6217      6218
      6196      6194      6217      6219      6196      6198      6201      6202
      6196      6198      6201      6203      6196      6198      6201      6204
      6196      6206      6204      6201      6196      6206      6204      6205
      6196      6206      6204      6230      6196      6206      6207      6208
      6196      6206      6207      6209      6196      6206      6207      6210
      6196      6206      6211      6212      6196      6206      6211      6213
      6196      6206      6211      6214      6197      6196      6194      6217
      6197      6196      6198      6199      6197      6196      6198      6200
      6197      6196      6198      6201      6197      6196      6206      6204
      6197      6196      6206      6207      6197      6196      6206      6211
      6198      6196      6194      6217      6198      6196      6206      6204
      6198      6196      6206      6207      6198      6196      6206      6211
      6198      6201      6204      6205      6198      6201      6204      6206
      6198      6201      6204      6230      6199      6198      6196      6206
      6199      6198      6201      6202      6199      6198      6201      6203
      6199      6198      6201      6204      6200      6198      6196      6206
      6200      6198      6201      6202      6200      6198      6201      6203
      6200      6198      6201      6204      6201      6198      6196      6206
      6201      6204      6206      6207      6201      6204      6206      6211
      6201      6204      6230      6231      6201      6204      6230      6232
      6201      6204      6230      6236      6202      6201      6204      6205
      6202      6201      6204      6206      6202      6201      6204      6230
      6203      6201      6204      6205      6203      6201      6204      6206
      6203      6201      6204      6230      6204      6206      6207      6208
      6204      6206      6207      6209      6204      6206      6207      6210
      6204      6206      6211      6212      6204      6206      6211      6213
      6204      6206      6211      6214      6204      6230      6232      6233
      6204      6230      6232      6234      6204      6230      6232      6235
      6204      6230      6236      6237      6204      6230      6236      6238
      6204      6230      6236      6239      6205      6204      6206      6207
      6205      6204      6206      6211      6205      6204      6230      6231
      6205      6204      6230      6232      6205      6204      6230      6236
      6206      6196      6194      6217      6206      6204      6230      6231
      6206      6204      6230      6232      6206      6204      6230      6236
      6206      6211      6214      6215      6206      6211      6214      6216
      6206      6211      6214      6217      6207      6206      6204      6230
      6207      6206      6211      6212      6207      6206      6211      6213
      6207      6206      6211      6214      6208      6207      6206      6211
      6209      6207      6206      6211      6210      6207      6206      6211
      6211      6206      6204      6230      6211      6214      6217      6218
      6211      6214      6217      6219      6212      6211      6214      6215
      6212      6211      6214      6216      6212      6211      6214      6217
      6213      6211      6214      6215      6213      6211      6214      6216
      6213      6211      6214      6217      6214      6217      6219      6220
      6214      6217      6219      6224      6215      6214      6217      6218
      6215      6214      6217      6219      6216      6214      6217      6218
      6216      6214      6217      6219      6217      6219      6220      6221
      6217      6219      6220      6222      6217      6219      6220      6223
      6217      6219      6224      6225      6217      6219      6224      6226
      6217      6219      6224      6227      6218      6217      6219      6220
      6218      6217      6219      6224      6219      6224      6227      6228
      6219      6224      6227      6229      6220      6219      6224      6225
      6220      6219      6224      6226      6220      6219      6224      6227
      6221      6220      6219      6224      6222      6220      6219      6224
      6223      6220      6219      6224      6225      6224      6227      6228
      6225      6224      6227      6229      6226      6224      6227      6228
      6226      6224      6227      6229      6230      6236      6239      6240
      6230      6236      6239      6241      6230      6236      6239      6242
      6231      6230      6232      6233      6231      6230      6232      6234
      6231      6230      6232      6235      6231      6230      6236      6237
      6231      6230      6236      6238      6231      6230      6236      6239
      6232      6230      6236      6237      6232      6230      6236      6238
      6232      6230      6236      6239      6233      6232      6230      6236
      6234      6232      6230      6236      6235      6232      6230      6236
      6236      6239      6242      6243      6236      6239      6242      6244
      6236      6239      6242      6245      6237      6236      6239      6240
      6237      6236      6239      6241      6237      6236      6239      6242
      6238      6236      6239      6240      6238      6236      6239      6241
      6238      6236      6239      6242      6239      6242      6245      6246
      6239      6242      6245      6247      6239      6242      6245      6251
      6240      6239      6242      6243      6240      6239      6242      6244
      6240      6239      6242      6245      6241      6239      6242      6243
      6241      6239      6242      6244      6241      6239      6242      6245
      6242      6245      6247      6248      6242      6245      6247      6249
      6242      6245      6247      6250      6242      6245      6251      6252
      6242      6245      6251      6253      6242      6245      6251      6254
      6243      6242      6245      6246      6243      6242      6245      6247
      6243      6242      6245      6251      6244      6242      6245      6246
      6244      6242      6245      6247      6244      6242      6245      6251
      6246      6245      6247      6248      6246      6245      6247      6249
      6246      6245      6247      6250      6246      6245      6251      6252
      6246      6245      6251      6253      6246      6245      6251      6254
      6247      6245      6251      6252      6247      6245      6251      6253
      6247      6245      6251      6254      6248      6247      6245      6251
      6249      6247      6245      6251      6250      6247      6245      6251
     14825     14829     14832     14833     14825     14829     14832     14834
     14825     14829     14832     14838     14826     14825     14829     14830
     14826     14825     14829     14831     14826     14825     14829     14832
     14827     14825     14829     14830     14827     14825     14829     14831
     14827     14825     14829     14832     14828     14825     14829     14830
     14828     14825     14829     14831     14828     14825     14829     14832
     14829     14832     14838     14835     14830     14829     14832     14833
     14830     14829     14832     14834     14830     14829     14832     14838
     14831     14829     14832     14833     14831     14829     14832     14834
     14831     14829     14832     14838     14832     14838     14835     14836
     14832     14838     14835     14837     14832     14838     14835     14839
     14833     14832     14838     14835     14834     14832     14838     14835
     14835     14839     14840     14841     14835     14839     14840     14842
     14835     14839     14840     14843     14836     14835     14839     14840
     14837     14835     14839     14840     14838     14835     14839     14840
     14839     14840     14843     14844     14839     14840     14843     14845
     14839     14840     14843     14851     14840     14843     14845     14846
     14840     14843     14851     14852     14840     14843     14851     14853
     14840     14843     14851     14854     14841     14840     14843     14844
     14841     14840     14843     14845     14841     14840     14843     14851
     14842     14840     14843     14844     14842     14840     14843     14845
     14842     14840     14843     14851     14843     14845     14846     14847
     14843     14845     14846     14848     14843     14851     14854     14855
     14844     14843     14845     14846     14844     14843     14851     14852
     14844     14843     14851     14853     14844     14843     14851     14854
     14845     14843     14851     14852     14845     14843     14851     14853
     14845     14843     14851     14854     14845     14846     14848     14849
     14845     14846     14848     14850     14845     14846     14848     14860
     14846     14845     14843     14851     14846     14848     14860     14861
     14846     14848     14860     14862     14846     14848     14860     14863
     14847     14846     14848     14849     14847     14846     14848     14850
     14847     14846     14848     14860     14848     14860     14863     14864
     14848     14860     14863     14865     14848     14860     14863     14866
     14849     14848     14860     14861     14849     14848     14860     14862
     14849     14848     14860     14863     14850     14848     14860     14861
     14850     14848     14860     14862     14850     14848     14860     14863
     14851     14854     14855     14856     14851     14854     14855     14857
     14852     14851     14854     14855     14853     14851     14854     14855
     14854     14855     14857     14858     14854     14855     14857     14859
     14854     14855     14857     14907     14855     14857     14907     14908
     14855     14857     14907     14909     14855     14857     14907     14910
     14856     14855     14857     14858     14856     14855     14857     14859
     14856     14855     14857     14907     14857     14907     14910     14911
     14857     14907     14910     14912     14857     14907     14910     14913
     14858     14857     14907     14908     14858     14857     14907     14909
     14858     14857     14907     14910     14859     14857     14907     14908
     14859     14857     14907     14909     14859     14857     14907     14910
     14860     14863     14866     14867     14860     14863     14866     14868
     14861     14860     14863     14864     14861     14860     14863     14865
     14861     14860     14863     14866     14862     14860     14863     14864
     14862     14860     14863     14865     14862     14860     14863     14866
     14863     14866     14868     14869     14863     14866     14868     14870
     14864     14863     14866     14867     14864     14863     14866     14868
     14865     14863     14866     14867     14865     14863     14866     14868
     14866     14868     14870     14871     14866     14868     14870     14872
     14866     14868     14870     14873     14867     14866     14868     14869
     14867     14866     14868     14870     14868     14870     14873     14874
     14868     14870     14873     14875     14869     14868     14870     14871
     14869     14868     14870     14872     14869     14868     14870     14873
     14870     14873     14875     14876     14870     14873     14875     14877
     14871     14870     14873     14874     14871     14870     14873     14875
     14872     14870     14873     14874     14872     14870     14873     14875
     14873     14875     14877     14878     14873     14875     14877     14879
     14873     14875     14877     14880     14874     14873     14875     14876
     14874     14873     14875     14877     14875     14877     14880     14881
     14875     14877     14880     14882     14876     14875     14877     14878
     14876     14875     14877     14879     14876     14875     14877     14880
     14877     14880     14882     14883     14877     14880     14882     14884
     14878     14877     14880     14881     14878     14877     14880     14882
     14879     14877     14880     14881     14879     14877     14880     14882
     14880     14882     14884     14885     14880     14882     14884     14886
     14880     14882     14884     14887     14881     14880     14882     14883
     14881     14880     14882     14884     14882     14884     14887     14888
     14882     14884     14887     14889     14883     14882     14884     14885
     14883     14882     14884     14886     14883     14882     14884     14887
     14884     14887     14889     14890     14884     14887     14889     14891
     14885     14884     14887     14888     14885     14884     14887     14889
     14886     14884     14887     14888     14886     14884     14887     14889
     14887     14889     14891     14892     14887     14889     14891     14893
     14887     14889     14891     14894     14888     14887     14889     14890
     14888     14887     14889     14891     14889     14891     14894     14895
     14889     14891     14894     14896     14889     14891     14894     14897
     14890     14889     14891     14892     14890     14889     14891     14893
     14890     14889     14891     14894     14891     14894     14897     14898
     14891     14894     14897     14899     14891     14894     14897     14900
     14892     14891     14894     14895     14892     14891     14894     14896
     14892     14891     14894     14897     14893     14891     14894     14895
     14893     14891     14894     14896     14893     14891     14894     14897
     14894     14897     14900     14901     14894     14897     14900     14902
     14894     14897     14900     14903     14895     14894     14897     14898
     14895     14894     14897     14899     14895     14894     14897     14900
     14896     14894     14897     14898     14896     14894     14897     14899
     14896     14894     14897     14900     14897     14900     14903     14904
     14897     14900     14903     14905     14897     14900     14903     14906
     14898     14897     14900     14901     14898     14897     14900     14902
     14898     14897     14900     14903     14899     14897     14900     14901
     14899     14897     14900     14902     14899     14897     14900     14903
     14901     14900     14903     14904     14901     14900     14903     14905
     14901     14900     14903     14906     14902     14900     14903     14904
     14902     14900     14903     14905     14902     14900     14903     14906
     14907     14910     14913     14914     14907     14910     14913     14915
     14907     14910     14913     14916     14908     14907     14910     14911
     14908     14907     14910     14912     14908     14907     14910     14913
     14909     14907     14910     14911     14909     14907     14910     14912
     14909     14907     14910     14913     14910     14913     14916     14917
     14910     14913     14916     14918     14910     14913     14916     14919
     14911     14910     14913     14914     14911     14910     14913     14915
     14911     14910     14913     14916     14912     14910     14913     14914
     14912     14910     14913     14915     14912     14910     14913     14916
     14913     14916     14919     14920     14913     14916     14919     14921
     14913     14916     14919     14922     14914     14913     14916     14917
     14914     14913     14916     14918     14914     14913     14916     14919
     14915     14913     14916     14917     14915     14913     14916     14918
     14915     14913     14916     14919     14916     14919     14922     14923
     14916     14919     14922     14924     14916     14919     14922     14925
     14917     14916     14919     14920     14917     14916     14919     14921
     14917     14916     14919     14922     14918     14916     14919     14920
     14918     14916     14919     14921     14918     14916     14919     14922
     14919     14922     14925     14926     14919     14922     14925     14927
     14919     14922     14925     14928     14920     14919     14922     14923
     14920     14919     14922     14924     14920     14919     14922     14925
     14921     14919     14922     14923     14921     14919     14922     14924
     14921     14919     14922     14925     14922     14925     14928     14929
     14922     14925     14928     14930     14922     14925     14928     14931
     14923     14922     14925     14926     14923     14922     14925     14927
     14923     14922     14925     14928     14924     14922     14925     14926
     14924     14922     14925     14927     14924     14922     14925     14928
     14925     14928     14931     14932     14925     14928     14931     14933
     14925     14928     14931     14934     14926     14925     14928     14929
     14926     14925     14928     14930     14926     14925     14928     14931
     14927     14925     14928     14929     14927     14925     14928     14930
     14927     14925     14928     14931     14928     14931     14934     14935
     14928     14931     14934     14936     14928     14931     14934     14937
     14929     14928     14931     14932     14929     14928     14931     14933
     14929     14928     14931     14934     14930     14928     14931     14932
     14930     14928     14931     14933     14930     14928     14931     14934
     14931     14934     14937     14938     14931     14934     14937     14939
     14931     14934     14937     14940     14932     14931     14934     14935
     14932     14931     14934     14936     14932     14931     14934     14937
     14933     14931     14934     14935     14933     14931     14934     14936
     14933     14931     14934     14937     14934     14937     14940     14941
     14934     14937     14940     14942     14934     14937     14940     14943
     14935     14934     14937     14938     14935     14934     14937     14939
     14935     14934     14937     14940     14936     14934     14937     14938
     14936     14934     14937     14939     14936     14934     14937     14940
     14937     14940     14943     14944     14937     14940     14943     14945
     14937     14940     14943     14946     14938     14937     14940     14941
     14938     14937     14940     14942     14938     14937     14940     14943
     14939     14937     14940     14941     14939     14937     14940     14942
     14939     14937     14940     14943     14940     14943     14946     14947
     14940     14943     14946     14948     14940     14943     14946     14949
     14941     14940     14943     14944     14941     14940     14943     14945
     14941     14940     14943     14946     14942     14940     14943     14944
     14942     14940     14943     14945     14942     14940     14943     14946
     14943     14946     14949     14950     14943     14946     14949     14951
     14943     14946     14949     14952     14944     14943     14946     14947
     14944     14943     14946     14948     14944     14943     14946     14949
     14945     14943     14946     14947     14945     14943     14946     14948
     14945     14943     14946     14949     14946     14949     14952     14953
     14946     14949     14952     14954     14946     14949     14952     14955
     14947     14946     14949     14950     14947     14946     14949     14951
     14947     14946     14949     14952     14948     14946     14949     14950
     14948     14946     14949     14951     14948     14946     14949     14952
     14950     14949     14952     14953     14950     14949     14952     14954
     14950     14949     14952     14955     14951     14949     14952     14953
     14951     14949     14952     14954     14951     14949     14952     14955
      6255      6259      6262      6263      6255      6259      6262      6293
      6255      6301      6298      6293      6255      6301      6298      6299
      6255      6301      6298      6300      6256      6255      6257      6258
      6256      6255      6259      6260      6256      6255      6259      6261
      6256      6255      6259      6262      6256      6255      6301      6298
      6256      6255      6301      6302      6256      6255      6301      6303
      6257      6255      6259      6260      6257      6255      6259      6261
      6257      6255      6259      6262      6257      6255      6301      6298
      6257      6255      6301      6302      6257      6255      6301      6303
      6258      6257      6255      6259      6258      6257      6255      6301
      6259      6255      6301      6298      6259      6255      6301      6302
      6259      6255      6301      6303      6259      6262      6263      6264
      6259      6262      6263      6265      6259      6262      6293      6291
      6259      6262      6293      6294      6259      6262      6293      6298
      6260      6259      6255      6301      6260      6259      6262      6263
      6260      6259      6262      6293      6261      6259      6255      6301
      6261      6259      6262      6263      6261      6259      6262      6293
      6262      6259      6255      6301      6262      6263      6265      6266
      6262      6263      6265      6267      6262      6263      6265      6268
      6262      6293      6291      6268      6262      6293      6291      6288
      6262      6293      6291      6292      6262      6293      6294      6295
      6262      6293      6294      6296      6262      6293      6294      6297
      6262      6293      6298      6299      6262      6293      6298      6300
      6262      6293      6298      6301      6263      6262      6293      6291
      6263      6262      6293      6294      6263      6262      6293      6298
      6263      6265      6268      6269      6263      6265      6268      6270
      6263      6265      6268      6291      6264      6263      6262      6293
      6264      6263      6265      6266      6264      6263      6265      6267
      6264      6263      6265      6268      6265      6263      6262      6293
      6265      6268      6270      6271      6265      6268      6270      6272
      6265      6268      6270      6280      6265      6268      6291      6288
      6265      6268      6291      6292      6265      6268      6291      6293
      6266      6265      6268      6269      6266      6265      6268      6270
      6266      6265      6268      6291      6267      6265      6268      6269
      6267      6265      6268      6270      6267      6265      6268      6291
      6268      6270      6272      6273      6268      6270      6272      6274
      6268      6270      6272      6275      6268      6270      6280      6278
      6268      6270      6280      6281      6268      6270      6280      6285
      6268      6291      6288      6285      6268      6291      6288      6289
      6268      6291      6288      6290      6268      6291      6293      6294
      6268      6291      6293      6298      6269      6268      6270      6271
      6269      6268      6270      6272      6269      6268      6270      6280
      6269      6268      6291      6288      6269      6268      6291      6292
      6269      6268      6291      6293      6270      6268      6291      6288
      6270      6268      6291      6292      6270      6268      6291      6293
      6270      6272      6275      6276      6270      6272      6275      6277
      6270      6272      6275      6278      6270      6280      6278      6275
      6270      6280      6278      6279      6270      6280      6278      6304
      6270      6280      6281      6282      6270      6280      6281      6283
      6270      6280      6281      6284      6270      6280      6285      6286
      6270      6280      6285      6287      6270      6280      6285      6288
      6271      6270      6268      6291      6271      6270      6272      6273
      6271      6270      6272      6274      6271      6270      6272      6275
      6271      6270      6280      6278      6271      6270      6280      6281
      6271      6270      6280      6285      6272      6270      6268      6291
      6272      6270      6280      6278      6272      6270      6280      6281
      6272      6270      6280      6285      6272      6275      6278      6279
      6272      6275      6278      6280      6272      6275      6278      6304
      6273      6272      6270      6280      6273      6272      6275      6276
      6273      6272      6275      6277      6273      6272      6275      6278
      6274      6272      6270      6280      6274      6272      6275      6276
      6274      6272      6275      6277      6274      6272      6275      6278
      6275      6272      6270      6280      6275      6278      6280      6281
      6275      6278      6280      6285      6275      6278      6304      6305
      6275      6278      6304      6306      6275      6278      6304      6310
      6276      6275      6278      6279      6276      6275      6278      6280
      6276      6275      6278      6304      6277      6275      6278      6279
      6277      6275      6278      6280      6277      6275      6278      6304
      6278      6280      6281      6282      6278      6280      6281      6283
      6278      6280      6281      6284      6278      6280      6285      6286
      6278      6280      6285      6287      6278      6280      6285      6288
      6278      6304      6306      6307      6278      6304      6306      6308
      6278      6304      6306      6309      6278      6304      6310      6311
      6278      6304      6310      6312      6278      6304      6310      6313
      6279      6278      6280      6281      6279      6278      6280      6285
      6279      6278      6304      6305      6279      6278      6304      6306
      6279      6278      6304      6310      6280      6270      6268      6291
      6280      6278      6304      6305      6280      6278      6304      6306
      6280      6278      6304      6310      6280      6285      6288      6289
      6280      6285      6288      6290      6280      6285      6288      6291
      6281      6280      6278      6304      6281      6280      6285      6286
      6281      6280      6285      6287      6281      6280      6285      6288
      6282      6281      6280      6285      6283      6281      6280      6285
      6284      6281      6280      6285      6285      6280      6278      6304
      6285      6288      6291      6292      6285      6288      6291      6293
      6286      6285      6288      6289      6286      6285      6288      6290
      6286      6285      6288      6291      6287      6285      6288      6289
      6287      6285      6288      6290      6287      6285      6288      6291
      6288      6291      6293      6294      6288      6291      6293      6298
      6289      6288      6291      6292      6289      6288      6291      6293
      6290      6288      6291      6292      6290      6288      6291      6293
      6291      6293      6294      6295      6291      6293      6294      6296
      6291      6293      6294      6297      6291      6293      6298      6299
      6291      6293      6298      6300      6291      6293      6298      6301
      6292      6291      6293      6294      6292      6291      6293      6298
      6293      6298      6301      6302      6293      6298      6301      6303
      6294      6293      6298      6299      6294      6293      6298      6300
      6294      6293      6298      6301      6295      6294      6293      6298
      6296      6294      6293      6298      6297      6294      6293      6298
      6299      6298      6301      6302      6299      6298      6301      6303
      6300      6298      6301      6302      6300      6298      6301      6303
      6304      6310      6313      6314      6304      6310      6313      6315
      6304      6310      6313      6316      6305      6304      6306      6307
      6305      6304      6306      6308      6305      6304      6306      6309
      6305      6304      6310      6311      6305      6304      6310      6312
      6305      6304      6310      6313      6306      6304      6310      6311
      6306      6304      6310      6312      6306      6304      6310      6313
      6307      6306      6304      6310      6308      6306      6304      6310
      6309      6306      6304      6310      6310      6313      6316      6317
      6310      6313      6316      6318      6310      6313      6316      6319
      6311      6310      6313      6314      6311      6310      6313      6315
      6311      6310      6313      6316      6312      6310      6313      6314
      6312      6310      6313      6315      6312      6310      6313      6316
      6313      6316      6319      6320      6313      6316      6319      6321
      6313      6316      6319      6325      6314      6313      6316      6317
      6314      6313      6316      6318      6314      6313      6316      6319
      6315      6313      6316      6317      6315      6313      6316      6318
      6315      6313      6316      6319      6316      6319      6321      6322
      6316      6319      6321      6323      6316      6319      6321      6324
      6316      6319      6325      6326      6316      6319      6325      6327
      6316      6319      6325      6328      6317      6316      6319      6320
      6317      6316      6319      6321      6317      6316      6319      6325
      6318      6316      6319      6320      6318      6316      6319      6321
      6318      6316      6319      6325      6320      6319      6321      6322
      6320      6319      6321      6323      6320      6319      6321      6324
      6320      6319      6325      6326      6320      6319      6325      6327
      6320      6319      6325      6328      6321      6319      6325      6326
      6321      6319      6325      6327      6321      6319      6325      6328
      6322      6321      6319      6325      6323      6321      6319      6325
      6324      6321      6319      6325      6329      6333      6336      6337
      6329      6333      6336      6367      6329      6375      6372      6367
      6329      6375      6372      6373      6329      6375      6372      6374
      6330      6329      6331      6332      6330      6329      6333      6334
      6330      6329      6333      6335      6330      6329      6333      6336
      6330      6329      6375      6372      6330      6329      6375      6376
      6330      6329      6375      6377      6331      6329      6333      6334
      6331      6329      6333      6335      6331      6329      6333      6336
      6331      6329      6375      6372      6331      6329      6375      6376
      6331      6329      6375      6377      6332      6331      6329      6333
      6332      6331      6329      6375      6333      6329      6375      6372
      6333      6329      6375      6376      6333      6329      6375      6377
      6333      6336      6337      6338      6333      6336      6337      6339
      6333      6336      6367      6365      6333      6336      6367      6368
      6333      6336      6367      6372      6334      6333      6329      6375
      6334      6333      6336      6337      6334      6333      6336      6367
      6335      6333      6329      6375      6335      6333      6336      6337
      6335      6333      6336      6367      6336      6333      6329      6375
      6336      6337      6339      6340      6336      6337      6339      6341
      6336      6337      6339      6342      6336      6367      6365      6342
      6336      6367      6365      6362      6336      6367      6365      6366
      6336      6367      6368      6369      6336      6367      6368      6370
      6336      6367      6368      6371      6336      6367      6372      6373
      6336      6367      6372      6374      6336      6367      6372      6375
      6337      6336      6367      6365      6337      6336      6367      6368
      6337      6336      6367      6372      6337      6339      6342      6343
      6337      6339      6342      6344      6337      6339      6342      6365
      6338      6337      6336      6367      6338      6337      6339      6340
      6338      6337      6339      6341      6338      6337      6339      6342
      6339      6337      6336      6367      6339      6342      6344      6345
      6339      6342      6344      6346      6339      6342      6344      6354
      6339      6342      6365      6362      6339      6342      6365      6366
      6339      6342      6365      6367      6340      6339      6342      6343
      6340      6339      6342      6344      6340      6339      6342      6365
      6341      6339      6342      6343      6341      6339      6342      6344
      6341      6339      6342      6365      6342      6344      6346      6347
      6342      6344      6346      6348      6342      6344      6346      6349
      6342      6344      6354      6352      6342      6344      6354      6355
      6342      6344      6354      6359      6342      6365      6362      6359
      6342      6365      6362      6363      6342      6365      6362      6364
      6342      6365      6367      6368      6342      6365      6367      6372
      6343      6342      6344      6345      6343      6342      6344      6346
      6343      6342      6344      6354      6343      6342      6365      6362
      6343      6342      6365      6366      6343      6342      6365      6367
      6344      6342      6365      6362      6344      6342      6365      6366
      6344      6342      6365      6367      6344      6346      6349      6350
      6344      6346      6349      6351      6344      6346      6349      6352
      6344      6354      6352      6349      6344      6354      6352      6353
      6344      6354      6352      6378      6344      6354      6355      6356
      6344      6354      6355      6357      6344      6354      6355      6358
      6344      6354      6359      6360      6344      6354      6359      6361
      6344      6354      6359      6362      6345      6344      6342      6365
      6345      6344      6346      6347      6345      6344      6346      6348
      6345      6344      6346      6349      6345      6344      6354      6352
      6345      6344      6354      6355      6345      6344      6354      6359
      6346      6344      6342      6365      6346      6344      6354      6352
      6346      6344      6354      6355      6346      6344      6354      6359
      6346      6349      6352      6353      6346      6349      6352      6354
      6346      6349      6352      6378      6347      6346      6344      6354
      6347      6346      6349      6350      6347      6346      6349      6351
      6347      6346      6349      6352      6348      6346      6344      6354
      6348      6346      6349      6350      6348      6346      6349      6351
      6348      6346      6349      6352      6349      6346      6344      6354
      6349      6352      6354      6355      6349      6352      6354      6359
      6349      6352      6378      6379      6349      6352      6378      6380
      6349      6352      6378      6384      6350      6349      6352      6353
      6350      6349      6352      6354      6350      6349      6352      6378
      6351      6349      6352      6353      6351      6349      6352      6354
      6351      6349      6352      6378      6352      6354      6355      6356
      6352      6354      6355      6357      6352      6354      6355      6358
      6352      6354      6359      6360      6352      6354      6359      6361
      6352      6354      6359      6362      6352      6378      6380      6381
      6352      6378      6380      6382      6352      6378      6380      6383
      6352      6378      6384      6385      6352      6378      6384      6386
      6352      6378      6384      6387      6353      6352      6354      6355
      6353      6352      6354      6359      6353      6352      6378      6379
      6353      6352      6378      6380      6353      6352      6378      6384
      6354      6344      6342      6365      6354      6352      6378      6379
      6354      6352      6378      6380      6354      6352      6378      6384
      6354      6359      6362      6363      6354      6359      6362      6364
      6354      6359      6362      6365      6355      6354      6352      6378
      6355      6354      6359      6360      6355      6354      6359      6361
      6355      6354      6359      6362      6356      6355      6354      6359
      6357      6355      6354      6359      6358      6355      6354      6359
      6359      6354      6352      6378      6359      6362      6365      6366
      6359      6362      6365      6367      6360      6359      6362      6363
      6360      6359      6362      6364      6360      6359      6362      6365
      6361      6359      6362      6363      6361      6359      6362      6364
      6361      6359      6362      6365      6362      6365      6367      6368
      6362      6365      6367      6372      6363      6362      6365      6366
      6363      6362      6365      6367      6364      6362      6365      6366
      6364      6362      6365      6367      6365      6367      6368      6369
      6365      6367      6368      6370      6365      6367      6368      6371
      6365      6367      6372      6373      6365      6367      6372      6374
      6365      6367      6372      6375      6366      6365      6367      6368
      6366      6365      6367      6372      6367      6372      6375      6376
      6367      6372      6375      6377      6368      6367      6372      6373
      6368      6367      6372      6374      6368      6367      6372      6375
      6369      6368      6367      6372      6370      6368      6367      6372
      6371      6368      6367      6372      6373      6372      6375      6376
      6373      6372      6375      6377      6374      6372      6375      6376
      6374      6372      6375      6377      6378      6384      6387      6388
      6378      6384      6387      6389      6378      6384      6387      6390
      6379      6378      6380      6381      6379      6378      6380      6382
      6379      6378      6380      6383      6379      6378      6384      6385
      6379      6378      6384      6386      6379      6378      6384      6387
      6380      6378      6384      6385      6380      6378      6384      6386
      6380      6378      6384      6387      6381      6380      6378      6384
      6382      6380      6378      6384      6383      6380      6378      6384
      6384      6387      6390      6391      6384      6387      6390      6392
      6384      6387      6390      6393      6385      6384      6387      6388
      6385      6384      6387      6389      6385      6384      6387      6390
      6386      6384      6387      6388      6386      6384      6387      6389
      6386      6384      6387      6390      6387      6390      6393      6394
      6387      6390      6393      6395      6387      6390      6393      6399
      6388      6387      6390      6391      6388      6387      6390      6392
      6388      6387      6390      6393      6389      6387      6390      6391
      6389      6387      6390      6392      6389      6387      6390      6393
      6390      6393      6395      6396      6390      6393      6395      6397
      6390      6393      6395      6398      6390      6393      6399      6400
      6390      6393      6399      6401      6390      6393      6399      6402
      6391      6390      6393      6394      6391      6390      6393      6395
      6391      6390      6393      6399      6392      6390      6393      6394
      6392      6390      6393      6395      6392      6390      6393      6399
      6394      6393      6395      6396      6394      6393      6395      6397
      6394      6393      6395      6398      6394      6393      6399      6400
      6394      6393      6399      6401      6394      6393      6399      6402
      6395      6393      6399      6400      6395      6393      6399      6401
      6395      6393      6399      6402      6396      6395      6393      6399
      6397      6395      6393      6399      6398      6395      6393      6399
     18362     18366     18369     18370     18362     18366     18369     18371
     18362     18366     18369     18375     18363     18362     18366     18367
     18363     18362     18366     18368     18363     18362     18366     18369
     18364     18362     18366     18367     18364     18362     18366     18368
     18364     18362     18366     18369     18365     18362     18366     18367
     18365     18362     18366     18368     18365     18362     18366     18369
     18366     18369     18375     18372     18367     18366     18369     18370
     18367     18366     18369     18371     18367     18366     18369     18375
     18368     18366     18369     18370     18368     18366     18369     18371
     18368     18366     18369     18375     18369     18375     18372     18373
     18369     18375     18372     18374     18369     18375     18372     18376
     18370     18369     18375     18372     18371     18369     18375     18372
     18372     18376     18377     18378     18372     18376     18377     18379
     18372     18376     18377     18380     18373     18372     18376     18377
     18374     18372     18376     18377     18375     18372     18376     18377
     18376     18377     18380     18381     18376     18377     18380     18382
     18376     18377     18380     18388     18377     18380     18382     18383
     18377     18380     18388     18389     18377     18380     18388     18390
     18377     18380     18388     18391     18378     18377     18380     18381
     18378     18377     18380     18382     18378     18377     18380     18388
     18379     18377     18380     18381     18379     18377     18380     18382
     18379     18377     18380     18388     18380     18382     18383     18384
     18380     18382     18383     18385     18380     18388     18391     18392
     18381     18380     18382     18383     18381     18380     18388     18389
     18381     18380     18388     18390     18381     18380     18388     18391
     18382     18380     18388     18389     18382     18380     18388     18390
     18382     18380     18388     18391     18382     18383     18385     18386
     18382     18383     18385     18387     18382     18383     18385     18397
     18383     18382     18380     18388     18383     18385     18397     18398
     18383     18385     18397     18399     18383     18385     18397     18400
     18384     18383     18385     18386     18384     18383     18385     18387
     18384     18383     18385     18397     18385     18397     18400     18401
     18385     18397     18400     18402     18385     18397     18400     18403
     18386     18385     18397     18398     18386     18385     18397     18399
     18386     18385     18397     18400     18387     18385     18397     18398
     18387     18385     18397     18399     18387     18385     18397     18400
     18388     18391     18392     18393     18388     18391     18392     18394
     18389     18388     18391     18392     18390     18388     18391     18392
     18391     18392     18394     18395     18391     18392     18394     18396
     18391     18392     18394     18444     18392     18394     18444     18445
     18392     18394     18444     18446     18392     18394     18444     18447
     18393     18392     18394     18395     18393     18392     18394     18396
     18393     18392     18394     18444     18394     18444     18447     18448
     18394     18444     18447     18449     18394     18444     18447     18450
     18395     18394     18444     18445     18395     18394     18444     18446
     18395     18394     18444     18447     18396     18394     18444     18445
     18396     18394     18444     18446     18396     18394     18444     18447
     18397     18400     18403     18404     18397     18400     18403     18405
     18397     18400     18403     18406     18398     18397     18400     18401
     18398     18397     18400     18402     18398     18397     18400     18403
     18399     18397     18400     18401     18399     18397     18400     18402
     18399     18397     18400     18403     18400     18403     18406     18407
     18400     18403     18406     18408     18400     18403     18406     18409
     18401     18400     18403     18404     18401     18400     18403     18405
     18401     18400     18403     18406     18402     18400     18403     18404
     18402     18400     18403     18405     18402     18400     18403     18406
     18403     18406     18409     18410     18403     18406     18409     18411
     18403     18406     18409     18412     18404     18403     18406     18407
     18404     18403     18406     18408     18404     18403     18406     18409
     18405     18403     18406     18407     18405     18403     18406     18408
     18405     18403     18406     18409     18406     18409     18412     18413
     18406     18409     18412     18414     18406     18409     18412     18415
     18407     18406     18409     18410     18407     18406     18409     18411
     18407     18406     18409     18412     18408     18406     18409     18410
     18408     18406     18409     18411     18408     18406     18409     18412
     18409     18412     18415     18416     18409     18412     18415     18417
     18410     18409     18412     18413     18410     18409     18412     18414
     18410     18409     18412     18415     18411     18409     18412     18413
     18411     18409     18412     18414     18411     18409     18412     18415
     18412     18415     18417     18418     18412     18415     18417     18419
     18413     18412     18415     18416     18413     18412     18415     18417
     18414     18412     18415     18416     18414     18412     18415     18417
     18415     18417     18419     18420     18415     18417     18419     18421
     18415     18417     18419     18422     18416     18415     18417     18418
     18416     18415     18417     18419     18417     18419     18422     18423
     18417     18419     18422     18424     18417     18419     18422     18425
     18418     18417     18419     18420     18418     18417     18419     18421
     18418     18417     18419     18422     18419     18422     18425     18426
     18419     18422     18425     18427     18419     18422     18425     18428
     18420     18419     18422     18423     18420     18419     18422     18424
     18420     18419     18422     18425     18421     18419     18422     18423
     18421     18419     18422     18424     18421     18419     18422     18425
     18422     18425     18428     18429     18422     18425     18428     18430
     18422     18425     18428     18431     18423     18422     18425     18426
     18423     18422     18425     18427     18423     18422     18425     18428
     18424     18422     18425     18426     18424     18422     18425     18427
     18424     18422     18425     18428     18425     18428     18431     18432
     18425     18428     18431     18433     18425     18428     18431     18434
     18426     18425     18428     18429     18426     18425     18428     18430
     18426     18425     18428     18431     18427     18425     18428     18429
     18427     18425     18428     18430     18427     18425     18428     18431
     18428     18431     18434     18435     18428     18431     18434     18436
     18428     18431     18434     18437     18429     18428     18431     18432
     18429     18428     18431     18433     18429     18428     18431     18434
     18430     18428     18431     18432     18430     18428     18431     18433
     18430     18428     18431     18434     18431     18434     18437     18438
     18431     18434     18437     18439     18431     18434     18437     18440
     18432     18431     18434     18435     18432     18431     18434     18436
     18432     18431     18434     18437     18433     18431     18434     18435
     18433     18431     18434     18436     18433     18431     18434     18437
     18434     18437     18440     18441     18434     18437     18440     18442
     18434     18437     18440     18443     18435     18434     18437     18438
     18435     18434     18437     18439     18435     18434     18437     18440
     18436     18434     18437     18438     18436     18434     18437     18439
     18436     18434     18437     18440     18438     18437     18440     18441
     18438     18437     18440     18442     18438     18437     18440     18443
     18439     18437     18440     18441     18439     18437     18440     18442
     18439     18437     18440     18443     18444     18447     18450     18451
     18444     18447     18450     18452     18444     18447     18450     18453
     18445     18444     18447     18448     18445     18444     18447     18449
     18445     18444     18447     18450     18446     18444     18447     18448
     18446     18444     18447     18449     18446     18444     18447     18450
     18447     18450     18453     18454     18447     18450     18453     18455
     18447     18450     18453     18456     18448     18447     18450     18451
     18448     18447     18450     18452     18448     18447     18450     18453
     18449     18447     18450     18451     18449     18447     18450     18452
     18449     18447     18450     18453     18450     18453     18456     18457
     18450     18453     18456     18458     18450     18453     18456     18459
     18451     18450     18453     18454     18451     18450     18453     18455
     18451     18450     18453     18456     18452     18450     18453     18454
     18452     18450     18453     18455     18452     18450     18453     18456
     18453     18456     18459     18460     18453     18456     18459     18461
     18453     18456     18459     18462     18454     18453     18456     18457
     18454     18453     18456     18458     18454     18453     18456     18459
     18455     18453     18456     18457     18455     18453     18456     18458
     18455     18453     18456     18459     18456     18459     18462     18463
     18456     18459     18462     18464     18456     18459     18462     18465
     18457     18456     18459     18460     18457     18456     18459     18461
     18457     18456     18459     18462     18458     18456     18459     18460
     18458     18456     18459     18461     18458     18456     18459     18462
     18459     18462     18465     18466     18459     18462     18465     18467
     18459     18462     18465     18468     18460     18459     18462     18463
     18460     18459     18462     18464     18460     18459     18462     18465
     18461     18459     18462     18463     18461     18459     18462     18464
     18461     18459     18462     18465     18462     18465     18468     18469
     18462     18465     18468     18470     18462     18465     18468     18471
     18463     18462     18465     18466     18463     18462     18465     18467
     18463     18462     18465     18468     18464     18462     18465     18466
     18464     18462     18465     18467     18464     18462     18465     18468
     18465     18468     18471     18472     18465     18468     18471     18473
     18465     18468     18471     18474     18466     18465     18468     18469
     18466     18465     18468     18470     18466     18465     18468     18471
     18467     18465     18468     18469     18467     18465     18468     18470
     18467     18465     18468     18471     18468     18471     18474     18475
     18468     18471     18474     18476     18468     18471     18474     18477
     18469     18468     18471     18472     18469     18468     18471     18473
     18469     18468     18471     18474     18470     18468     18471     18472
     18470     18468     18471     18473     18470     18468     18471     18474
     18471     18474     18477     18478     18471     18474     18477     18479
     18471     18474     18477     18480     18472     18471     18474     18475
     18472     18471     18474     18476     18472     18471     18474     18477
     18473     18471     18474     18475     18473     18471     18474     18476
     18473     18471     18474     18477     18474     18477     18480     18481
     18474     18477     18480     18482     18474     18477     18480     18483
     18475     18474     18477     18478     18475     18474     18477     18479
     18475     18474     18477     18480     18476     18474     18477     18478
     18476     18474     18477     18479     18476     18474     18477     18480
     18477     18480     18483     18484     18477     18480     18483     18485
     18477     18480     18483     18486     18478     18477     18480     18481
     18478     18477     18480     18482     18478     18477     18480     18483
     18479     18477     18480     18481     18479     18477     18480     18482
     18479     18477     18480     18483     18480     18483     18486     18487
     18480     18483     18486     18488     18480     18483     18486     18489
     18481     18480     18483     18484     18481     18480     18483     18485
     18481     18480     18483     18486     18482     18480     18483     18484
     18482     18480     18483     18485     18482     18480     18483     18486
     18483     18486     18489     18490     18483     18486     18489     18491
     18483     18486     18489     18492     18484     18483     18486     18487
     18484     18483     18486     18488     18484     18483     18486     18489
     18485     18483     18486     18487     18485     18483     18486     18488
     18485     18483     18486     18489     18487     18486     18489     18490
     18487     18486     18489     18491     18487     18486     18489     18492
     18488     18486     18489     18490     18488     18486     18489     18491
     18488     18486     18489     18492     20527     20540     20543     20544
     20527     20540     20543     20545     20527     20540     20543     20549
     20528     20527     20532     20533     20528     20527     20532     20534
     20528     20527     20532     20535     20528     20527     20536     20537
     20528     20527     20536     20538     20528     20527     20536     20539
     20528     20527     20540     20541     20528     20527     20540     20542
     20528     20527     20540     20543     20529     20528     20527     20532
     20529     20528     20527     20536     20529     20528     20527     20540
     20530     20528     20527     20532     20530     20528     20527     20536
     20530     20528     20527     20540     20531     20528     20527     20532
     20531     20528     20527     20536     20531     20528     20527     20540
     20532     20527     20536     20537     20532     20527     20536     20538
     20532     20527     20536     20539     20532     20527     20540     20541
     20532     20527     20540     20542     20532     20527     20540     20543
     20533     20532     20527     20536     20533     20532     20527     20540
     20534     20532     20527     20536     20534     20532     20527     20540
     20535     20532     20527     20536     20535     20532     20527     20540
     20536     20527     20540     20541     20536     20527     20540     20542
     20536     20527     20540     20543     20537     20536     20527     20540
     20538     20536     20527     20540     20539     20536     20527     20540
     20540     20543     20549     20546     20541     20540     20543     20544
     20541     20540     20543     20545     20541     20540     20543     20549
     20542     20540     20543     20544     20542     20540     20543     20545
     20542     20540     20543     20549     20543     20549     20546     20547
     20543     20549     20546     20548     20543     20549     20546     20550
     20544     20543     20549     20546     20545     20543     20549     20546
     20546     20550     20551     20552     20546     20550     20551     20553
     20546     20550     20551     20554     20547     20546     20550     20551
     20548     20546     20550     20551     20549     20546     20550     20551
     20550     20551     20554     20555     20550     20551     20554     20556
     20550     20551     20554     20562     20551     20554     20556     20557
     20551     20554     20562     20563     20551     20554     20562     20564
     20551     20554     20562     20565     20552     20551     20554     20555
     20552     20551     20554     20556     20552     20551     20554     20562
     20553     20551     20554     20555     20553     20551     20554     20556
     20553     20551     20554     20562     20554     20556     20557     20558
     20554     20556     20557     20559     20554     20562     20565     20566
     20555     20554     20556     20557     20555     20554     20562     20563
     20555     20554     20562     20564     20555     20554     20562     20565
     20556     20554     20562     20563     20556     20554     20562     20564
     20556     20554     20562     20565     20556     20557     20559     20560
     20556     20557     20559     20561     20556     20557     20559     20571
     20557     20556     20554     20562     20557     20559     20571     20572
     20557     20559     20571     20573     20557     20559     20571     20574
     20558     20557     20559     20560     20558     20557     20559     20561
     20558     20557     20559     20571     20559     20571     20574     20575
     20559     20571     20574     20576     20559     20571     20574     20577
     20560     20559     20571     20572     20560     20559     20571     20573
     20560     20559     20571     20574     20561     20559     20571     20572
     20561     20559     20571     20573     20561     20559     20571     20574
     20562     20565     20566     20567     20562     20565     20566     20568
     20563     20562     20565     20566     20564     20562     20565     20566
     20565     20566     20568     20569     20565     20566     20568     20570
     20565     20566     20568     20616     20566     20568     20616     20617
     20566     20568     20616     20618     20566     20568     20616     20619
     20567     20566     20568     20569     20567     20566     20568     20570
     20567     20566     20568     20616     20568     20616     20619     20620
     20568     20616     20619     20621     20568     20616     20619     20622
     20569     20568     20616     20617     20569     20568     20616     20618
     20569     20568     20616     20619     20570     20568     20616     20617
     20570     20568     20616     20618     20570     20568     20616     20619
     20571     20574     20577     20578     20571     20574     20577     20579
     20571     20574     20577     20580     20572     20571     20574     20575
     20572     20571     20574     20576     20572     20571     20574     20577
     20573     20571     20574     20575     20573     20571     20574     20576
     20573     20571     20574     20577     20574     20577     20580     20581
     20574     20577     20580     20582     20574     20577     20580     20583
     20575     20574     20577     20578     20575     20574     20577     20579
     20575     20574     20577     20580     20576     20574     20577     20578
     20576     20574     20577     20579     20576     20574     20577     20580
     20577     20580     20583     20584     20577     20580     20583     20585
     20577     20580     20583     20586     20578     20577     20580     20581
     20578     20577     20580     20582     20578     20577     20580     20583
     20579     20577     20580     20581     20579     20577     20580     20582
     20579     20577     20580     20583     20580     20583     20586     20587
     20580     20583     20586     20588     20580     20583     20586     20589
     20581     20580     20583     20584     20581     20580     20583     20585
     20581     20580     20583     20586     20582     20580     20583     20584
     20582     20580     20583     20585     20582     20580     20583     20586
     20583     20586     20589     20590     20583     20586     20589     20591
     20584     20583     20586     20587     20584     20583     20586     20588
     20584     20583     20586     20589     20585     20583     20586     20587
     20585     20583     20586     20588     20585     20583     20586     20589
     20586     20589     20591     20592     20586     20589     20591     20593
     20587     20586     20589     20590     20587     20586     20589     20591
     20588     20586     20589     20590     20588     20586     20589     20591
     20589     20591     20593     20594     20589     20591     20593     20595
     20589     20591     20593     20596     20590     20589     20591     20592
     20590     20589     20591     20593     20591     20593     20596     20597
     20591     20593     20596     20598     20592     20591     20593     20594
     20592     20591     20593     20595     20592     20591     20593     20596
     20593     20596     20598     20599     20593     20596     20598     20600
     20594     20593     20596     20597     20594     20593     20596     20598
     20595     20593     20596     20597     20595     20593     20596     20598
     20596     20598     20600     20601     20596     20598     20600     20602
     20596     20598     20600     20603     20597     20596     20598     20599
     20597     20596     20598     20600     20598     20600     20603     20604
     20598     20600     20603     20605     20598     20600     20603     20606
     20599     20598     20600     20601     20599     20598     20600     20602
     20599     20598     20600     20603     20600     20603     20606     20607
     20600     20603     20606     20608     20600     20603     20606     20609
     20601     20600     20603     20604     20601     20600     20603     20605
     20601     20600     20603     20606     20602     20600     20603     20604
     20602     20600     20603     20605     20602     20600     20603     20606
     20603     20606     20609     20610     20603     20606     20609     20611
     20603     20606     20609     20612     20604     20603     20606     20607
     20604     20603     20606     20608     20604     20603     20606     20609
     20605     20603     20606     20607     20605     20603     20606     20608
     20605     20603     20606     20609     20606     20609     20612     20613
     20606     20609     20612     20614     20606     20609     20612     20615
     20607     20606     20609     20610     20607     20606     20609     20611
     20607     20606     20609     20612     20608     20606     20609     20610
     20608     20606     20609     20611     20608     20606     20609     20612
     20610     20609     20612     20613     20610     20609     20612     20614
     20610     20609     20612     20615     20611     20609     20612     20613
     20611     20609     20612     20614     20611     20609     20612     20615
     20616     20619     20622     20623     20616     20619     20622     20624
     20616     20619     20622     20625     20617     20616     20619     20620
     20617     20616     20619     20621     20617     20616     20619     20622
     20618     20616     20619     20620     20618     20616     20619     20621
     20618     20616     20619     20622     20619     20622     20625     20626
     20619     20622     20625     20627     20619     20622     20625     20628
     20620     20619     20622     20623     20620     20619     20622     20624
     20620     20619     20622     20625     20621     20619     20622     20623
     20621     20619     20622     20624     20621     20619     20622     20625
     20622     20625     20628     20629     20622     20625     20628     20630
     20622     20625     20628     20631     20623     20622     20625     20626
     20623     20622     20625     20627     20623     20622     20625     20628
     20624     20622     20625     20626     20624     20622     20625     20627
     20624     20622     20625     20628     20625     20628     20631     20632
     20625     20628     20631     20633     20625     20628     20631     20634
     20626     20625     20628     20629     20626     20625     20628     20630
     20626     20625     20628     20631     20627     20625     20628     20629
     20627     20625     20628     20630     20627     20625     20628     20631
     20628     20631     20634     20635     20628     20631     20634     20636
     20628     20631     20634     20637     20629     20628     20631     20632
     20629     20628     20631     20633     20629     20628     20631     20634
     20630     20628     20631     20632     20630     20628     20631     20633
     20630     20628     20631     20634     20631     20634     20637     20638
     20631     20634     20637     20639     20631     20634     20637     20640
     20632     20631     20634     20635     20632     20631     20634     20636
     20632     20631     20634     20637     20633     20631     20634     20635
     20633     20631     20634     20636     20633     20631     20634     20637
     20634     20637     20640     20641     20634     20637     20640     20642
     20634     20637     20640     20643     20635     20634     20637     20638
     20635     20634     20637     20639     20635     20634     20637     20640
     20636     20634     20637     20638     20636     20634     20637     20639
     20636     20634     20637     20640     20637     20640     20643     20644
     20637     20640     20643     20645     20637     20640     20643     20646
     20638     20637     20640     20641     20638     20637     20640     20642
     20638     20637     20640     20643     20639     20637     20640     20641
     20639     20637     20640     20642     20639     20637     20640     20643
     20640     20643     20646     20647     20640     20643     20646     20648
     20640     20643     20646     20649     20641     20640     20643     20644
     20641     20640     20643     20645     20641     20640     20643     20646
     20642     20640     20643     20644     20642     20640     20643     20645
     20642     20640     20643     20646     20643     20646     20649     20650
     20643     20646     20649     20651     20643     20646     20649     20652
     20644     20643     20646     20647     20644     20643     20646     20648
     20644     20643     20646     20649     20645     20643     20646     20647
     20645     20643     20646     20648     20645     20643     20646     20649
     20646     20649     20652     20653     20646     20649     20652     20654
     20646     20649     20652     20655     20647     20646     20649     20650
     20647     20646     20649     20651     20647     20646     20649     20652
     20648     20646     20649     20650     20648     20646     20649     20651
     20648     20646     20649     20652     20649     20652     20655     20656
     20649     20652     20655     20657     20649     20652     20655     20658
     20650     20649     20652     20653     20650     20649     20652     20654
     20650     20649     20652     20655     20651     20649     20652     20653
     20651     20649     20652     20654     20651     20649     20652     20655
     20652     20655     20658     20659     20652     20655     20658     20660
     20652     20655     20658     20661     20653     20652     20655     20656
     20653     20652     20655     20657     20653     20652     20655     20658
     20654     20652     20655     20656     20654     20652     20655     20657
     20654     20652     20655     20658     20655     20658     20661     20662
     20655     20658     20661     20663     20655     20658     20661     20664
     20656     20655     20658     20659     20656     20655     20658     20660
     20656     20655     20658     20661     20657     20655     20658     20659
     20657     20655     20658     20660     20657     20655     20658     20661
     20659     20658     20661     20662     20659     20658     20661     20663
     20659     20658     20661     20664     20660     20658     20661     20662
     20660     20658     20661     20663     20660     20658     20661     20664
     18493     18497     18500     18501     18493     18497     18500     18502
     18493     18497     18500     18506     18494     18493     18497     18498
     18494     18493     18497     18499     18494     18493     18497     18500
     18495     18493     18497     18498     18495     18493     18497     18499
     18495     18493     18497     18500     18496     18493     18497     18498
     18496     18493     18497     18499     18496     18493     18497     18500
     18497     18500     18506     18503     18498     18497     18500     18501
     18498     18497     18500     18502     18498     18497     18500     18506
     18499     18497     18500     18501     18499     18497     18500     18502
     18499     18497     18500     18506     18500     18506     18503     18504
     18500     18506     18503     18505     18500     18506     18503     18507
     18501     18500     18506     18503     18502     18500     18506     18503
     18503     18507     18508     18509     18503     18507     18508     18510
     18503     18507     18508     18511     18504     18503     18507     18508
     18505     18503     18507     18508     18506     18503     18507     18508
     18507     18508     18511     18512     18507     18508     18511     18513
     18507     18508     18511     18519     18508     18511     18513     18514
     18508     18511     18519     18520     18508     18511     18519     18521
     18508     18511     18519     18522     18509     18508     18511     18512
     18509     18508     18511     18513     18509     18508     18511     18519
     18510     18508     18511     18512     18510     18508     18511     18513
     18510     18508     18511     18519     18511     18513     18514     18515
     18511     18513     18514     18516     18511     18519     18522     18523
     18512     18511     18513     18514     18512     18511     18519     18520
     18512     18511     18519     18521     18512     18511     18519     18522
     18513     18511     18519     18520     18513     18511     18519     18521
     18513     18511     18519     18522     18513     18514     18516     18517
     18513     18514     18516     18518     18513     18514     18516     18528
     18514     18513     18511     18519     18514     18516     18528     18529
     18514     18516     18528     18530     18514     18516     18528     18531
     18515     18514     18516     18517     18515     18514     18516     18518
     18515     18514     18516     18528     18516     18528     18531     18532
     18516     18528     18531     18533     18516     18528     18531     18534
     18517     18516     18528     18529     18517     18516     18528     18530
     18517     18516     18528     18531     18518     18516     18528     18529
     18518     18516     18528     18530     18518     18516     18528     18531
     18519     18522     18523     18524     18519     18522     18523     18525
     18520     18519     18522     18523     18521     18519     18522     18523
     18522     18523     18525     18526     18522     18523     18525     18527
     18522     18523     18525     18575     18523     18525     18575     18576
     18523     18525     18575     18577     18523     18525     18575     18578
     18524     18523     18525     18526     18524     18523     18525     18527
     18524     18523     18525     18575     18525     18575     18578     18579
     18525     18575     18578     18580     18525     18575     18578     18581
     18526     18525     18575     18576     18526     18525     18575     18577
     18526     18525     18575     18578     18527     18525     18575     18576
     18527     18525     18575     18577     18527     18525     18575     18578
     18528     18531     18534     18535     18528     18531     18534     18536
     18528     18531     18534     18537     18529     18528     18531     18532
     18529     18528     18531     18533     18529     18528     18531     18534
     18530     18528     18531     18532     18530     18528     18531     18533
     18530     18528     18531     18534     18531     18534     18537     18538
     18531     18534     18537     18539     18531     18534     18537     18540
     18532     18531     18534     18535     18532     18531     18534     18536
     18532     18531     18534     18537     18533     18531     18534     18535
     18533     18531     18534     18536     18533     18531     18534     18537
     18534     18537     18540     18541     18534     18537     18540     18542
     18534     18537     18540     18543     18535     18534     18537     18538
     18535     18534     18537     18539     18535     18534     18537     18540
     18536     18534     18537     18538     18536     18534     18537     18539
     18536     18534     18537     18540     18537     18540     18543     18544
     18537     18540     18543     18545     18537     18540     18543     18546
     18538     18537     18540     18541     18538     18537     18540     18542
     18538     18537     18540     18543     18539     18537     18540     18541
     18539     18537     18540     18542     18539     18537     18540     18543
     18540     18543     18546     18547     18540     18543     18546     18548
     18541     18540     18543     18544     18541     18540     18543     18545
     18541     18540     18543     18546     18542     18540     18543     18544
     18542     18540     18543     18545     18542     18540     18543     18546
     18543     18546     18548     18549     18543     18546     18548     18550
     18544     18543     18546     18547     18544     18543     18546     18548
     18545     18543     18546     18547     18545     18543     18546     18548
     18546     18548     18550     18551     18546     18548     18550     18552
     18546     18548     18550     18553     18547     18546     18548     18549
     18547     18546     18548     18550     18548     18550     18553     18554
     18548     18550     18553     18555     18548     18550     18553     18556
     18549     18548     18550     18551     18549     18548     18550     18552
     18549     18548     18550     18553     18550     18553     18556     18557
     18550     18553     18556     18558     18550     18553     18556     18559
     18551     18550     18553     18554     18551     18550     18553     18555
     18551     18550     18553     18556     18552     18550     18553     18554
     18552     18550     18553     18555     18552     18550     18553     18556
     18553     18556     18559     18560     18553     18556     18559     18561
     18553     18556     18559     18562     18554     18553     18556     18557
     18554     18553     18556     18558     18554     18553     18556     18559
     18555     18553     18556     18557     18555     18553     18556     18558
     18555     18553     18556     18559     18556     18559     18562     18563
     18556     18559     18562     18564     18556     18559     18562     18565
     18557     18556     18559     18560     18557     18556     18559     18561
     18557     18556     18559     18562     18558     18556     18559     18560
     18558     18556     18559     18561     18558     18556     18559     18562
     18559     18562     18565     18566     18559     18562     18565     18567
     18559     18562     18565     18568     18560     18559     18562     18563
     18560     18559     18562     18564     18560     18559     18562     18565
     18561     18559     18562     18563     18561     18559     18562     18564
     18561     18559     18562     18565     18562     18565     18568     18569
     18562     18565     18568     18570     18562     18565     18568     18571
     18563     18562     18565     18566     18563     18562     18565     18567
     18563     18562     18565     18568     18564     18562     18565     18566
     18564     18562     18565     18567     18564     18562     18565     18568
     18565     18568     18571     18572     18565     18568     18571     18573
     18565     18568     18571     18574     18566     18565     18568     18569
     18566     18565     18568     18570     18566     18565     18568     18571
     18567     18565     18568     18569     18567     18565     18568     18570
     18567     18565     18568     18571     18569     18568     18571     18572
     18569     18568     18571     18573     18569     18568     18571     18574
     18570     18568     18571     18572     18570     18568     18571     18573
     18570     18568     18571     18574     18575     18578     18581     18582
     18575     18578     18581     18583     18575     18578     18581     18584
     18576     18575     18578     18579     18576     18575     18578     18580
     18576     18575     18578     18581     18577     18575     18578     18579
     18577     18575     18578     18580     18577     18575     18578     18581
     18578     18581     18584     18585     18578     18581     18584     18586
     18578     18581     18584     18587     18579     18578     18581     18582
     18579     18578     18581     18583     18579     18578     18581     18584
     18580     18578     18581     18582     18580     18578     18581     18583
     18580     18578     18581     18584     18581     18584     18587     18588
     18581     18584     18587     18589     18581     18584     18587     18590
     18582     18581     18584     18585     18582     18581     18584     18586
     18582     18581     18584     18587     18583     18581     18584     18585
     18583     18581     18584     18586     18583     18581     18584     18587
     18584     18587     18590     18591     18584     18587     18590     18592
     18584     18587     18590     18593     18585     18584     18587     18588
     18585     18584     18587     18589     18585     18584     18587     18590
     18586     18584     18587     18588     18586     18584     18587     18589
     18586     18584     18587     18590     18587     18590     18593     18594
     18587     18590     18593     18595     18587     18590     18593     18596
     18588     18587     18590     18591     18588     18587     18590     18592
     18588     18587     18590     18593     18589     18587     18590     18591
     18589     18587     18590     18592     18589     18587     18590     18593
     18590     18593     18596     18597     18590     18593     18596     18598
     18590     18593     18596     18599     18591     18590     18593     18594
     18591     18590     18593     18595     18591     18590     18593     18596
     18592     18590     18593     18594     18592     18590     18593     18595
     18592     18590     18593     18596     18593     18596     18599     18600
     18593     18596     18599     18601     18593     18596     18599     18602
     18594     18593     18596     18597     18594     18593     18596     18598
     18594     18593     18596     18599     18595     18593     18596     18597
     18595     18593     18596     18598     18595     18593     18596     18599
     18596     18599     18602     18603     18596     18599     18602     18604
     18596     18599     18602     18605     18597     18596     18599     18600
     18597     18596     18599     18601     18597     18596     18599     18602
     18598     18596     18599     18600     18598     18596     18599     18601
     18598     18596     18599     18602     18599     18602     18605     18606
     18599     18602     18605     18607     18599     18602     18605     18608
     18600     18599     18602     18603     18600     18599     18602     18604
     18600     18599     18602     18605     18601     18599     18602     18603
     18601     18599     18602     18604     18601     18599     18602     18605
     18602     18605     18608     18609     18602     18605     18608     18610
     18602     18605     18608     18611     18603     18602     18605     18606
     18603     18602     18605     18607     18603     18602     18605     18608
     18604     18602     18605     18606     18604     18602     18605     18607
     18604     18602     18605     18608     18605     18608     18611     18612
     18605     18608     18611     18613     18605     18608     18611     18614
     18606     18605     18608     18609     18606     18605     18608     18610
     18606     18605     18608     18611     18607     18605     18608     18609
     18607     18605     18608     18610     18607     18605     18608     18611
     18608     18611     18614     18615     18608     18611     18614     18616
     18608     18611     18614     18617     18609     18608     18611     18612
     18609     18608     18611     18613     18609     18608     18611     18614
     18610     18608     18611     18612     18610     18608     18611     18613
     18610     18608     18611     18614     18611     18614     18617     18618
     18611     18614     18617     18619     18611     18614     18617     18620
     18612     18611     18614     18615     18612     18611     18614     18616
     18612     18611     18614     18617     18613     18611     18614     18615
     18613     18611     18614     18616     18613     18611     18614     18617
     18614     18617     18620     18621     18614     18617     18620     18622
     18614     18617     18620     18623     18615     18614     18617     18618
     18615     18614     18617     18619     18615     18614     18617     18620
     18616     18614     18617     18618     18616     18614     18617     18619
     18616     18614     18617     18620     18618     18617     18620     18621
     18618     18617     18620     18622     18618     18617     18620     18623
     18619     18617     18620     18621     18619     18617     18620     18622
     18619     18617     18620     18623      4637      4638      4653      4654
      4637      4638      4653      4655      4637      4638      4653      4659
      4638      4637      4641      4642      4638      4637      4641      4643
      4638      4637      4641      4644      4638      4637      4645      4646
      4638      4637      4645      4647      4638      4637      4645      4648
      4638      4637      4649      4650      4638      4637      4649      4651
      4638      4637      4649      4652      4638      4653      4659      4656
      4639      4638      4637      4641      4639      4638      4637      4645
      4639      4638      4637      4649      4639      4638      4653      4654
      4639      4638      4653      4655      4639      4638      4653      4659
      4640      4638      4637      4641      4640      4638      4637      4645
      4640      4638      4637      4649      4640      4638      4653      4654
      4640      4638      4653      4655      4640      4638      4653      4659
      4641      4637      4638      4653      4641      4637      4645      4646
      4641      4637      4645      4647      4641      4637      4645      4648
      4641      4637      4649      4650      4641      4637      4649      4651
      4641      4637      4649      4652      4642      4641      4637      4645
      4642      4641      4637      4649      4643      4641      4637      4645
      4643      4641      4637      4649      4644      4641      4637      4645
      4644      4641      4637      4649      4645      4637      4638      4653
      4645      4637      4649      4650      4645      4637      4649      4651
      4645      4637      4649      4652      4646      4645      4637      4649
      4647      4645      4637      4649      4648      4645      4637      4649
      4649      4637      4638      4653      4653      4659      4656      4657
      4653      4659      4656      4658      4653      4659      4656      4660
      4654      4653      4659      4656      4655      4653      4659      4656
      4656      4660      4661      4662      4656      4660      4661      4663
      4656      4660      4661      4664      4657      4656      4660      4661
      4658      4656      4660      4661      4659      4656      4660      4661
      4660      4661      4664      4665      4660      4661      4664      4666
      4660      4661      4664      4672      4661      4664      4666      4667
      4661      4664      4672      4673      4661      4664      4672      4674
      4661      4664      4672      4675      4662      4661      4664      4665
      4662      4661      4664      4666      4662      4661      4664      4672
      4663      4661      4664      4665      4663      4661      4664      4666
      4663      4661      4664      4672      4664      4666      4667      4668
      4664      4666      4667      4669      4664      4672      4675      4676
      4665      4664      4666      4667      4665      4664      4672      4673
      4665      4664      4672      4674      4665      4664      4672      4675
      4666      4664      4672      4673      4666      4664      4672      4674
      4666      4664      4672      4675      4666      4667      4669      4670
      4666      4667      4669      4671      4666      4667      4669      4681
      4667      4666      4664      4672      4667      4669      4681      4682
      4667      4669      4681      4683      4667      4669      4681      4684
      4668      4667      4669      4670      4668      4667      4669      4671
      4668      4667      4669      4681      4669      4681      4684      4685
      4669      4681      4684      4686      4669      4681      4684      4687
      4670      4669      4681      4682      4670      4669      4681      4683
      4670      4669      4681      4684      4671      4669      4681      4682
      4671      4669      4681      4683      4671      4669      4681      4684
      4672      4675      4676      4677      4672      4675      4676      4678
      4673      4672      4675      4676      4674      4672      4675      4676
      4675      4676      4678      4679      4675      4676      4678      4680
      4675      4676      4678      4728      4676      4678      4728      4729
      4676      4678      4728      4730      4676      4678      4728      4731
      4677      4676      4678      4679      4677      4676      4678      4680
      4677      4676      4678      4728      4678      4728      4731      4732
      4678      4728      4731      4733      4678      4728      4731      4734
      4679      4678      4728      4729      4679      4678      4728      4730
      4679      4678      4728      4731      4680      4678      4728      4729
      4680      4678      4728      4730      4680      4678      4728      4731
      4681      4684      4687      4688      4681      4684      4687      4689
      4681      4684      4687      4690      4682      4681      4684      4685
      4682      4681      4684      4686      4682      4681      4684      4687
      4683      4681      4684      4685      4683      4681      4684      4686
      4683      4681      4684      4687      4684      4687      4690      4691
      4684      4687      4690      4692      4684      4687      4690      4693
      4685      4684      4687      4688      4685      4684      4687      4689
      4685      4684      4687      4690      4686      4684      4687      4688
      4686      4684      4687      4689      4686      4684      4687      4690
      4687      4690      4693      4694      4687      4690      4693      4695
      4687      4690      4693      4696      4688      4687      4690      4691
      4688      4687      4690      4692      4688      4687      4690      4693
      4689      4687      4690      4691      4689      4687      4690      4692
      4689      4687      4690      4693      4690      4693      4696      4697
      4690      4693      4696      4698      4690      4693      4696      4699
      4691      4690      4693      4694      4691      4690      4693      4695
      4691      4690      4693      4696      4692      4690      4693      4694
      4692      4690      4693      4695      4692      4690      4693      4696
      4693      4696      4699      4700      4693      4696      4699      4701
      4694      4693      4696      4697      4694      4693      4696      4698
      4694      4693      4696      4699      4695      4693      4696      4697
      4695      4693      4696      4698      4695      4693      4696      4699
      4696      4699      4701      4702      4696      4699      4701      4703
      4697      4696      4699      4700      4697      4696      4699      4701
      4698      4696      4699      4700      4698      4696      4699      4701
      4699      4701      4703      4704      4699      4701      4703      4705
      4699      4701      4703      4706      4700      4699      4701      4702
      4700      4699      4701      4703      4701      4703      4706      4707
      4701      4703      4706      4708      4701      4703      4706      4709
      4702      4701      4703      4704      4702      4701      4703      4705
      4702      4701      4703      4706      4703      4706      4709      4710
      4703      4706      4709      4711      4703      4706      4709      4712
      4704      4703      4706      4707      4704      4703      4706      4708
      4704      4703      4706      4709      4705      4703      4706      4707
      4705      4703      4706      4708      4705      4703      4706      4709
      4706      4709      4712      4713      4706      4709      4712      4714
      4706      4709      4712      4715      4707      4706      4709      4710
      4707      4706      4709      4711      4707      4706      4709      4712
      4708      4706      4709      4710      4708      4706      4709      4711
      4708      4706      4709      4712      4709      4712      4715      4716
      4709      4712      4715      4717      4709      4712      4715      4718
      4710      4709      4712      4713      4710      4709      4712      4714
      4710      4709      4712      4715      4711      4709      4712      4713
      4711      4709      4712      4714      4711      4709      4712      4715
      4712      4715      4718      4719      4712      4715      4718      4720
      4712      4715      4718      4721      4713      4712      4715      4716
      4713      4712      4715      4717      4713      4712      4715      4718
      4714      4712      4715      4716      4714      4712      4715      4717
      4714      4712      4715      4718      4715      4718      4721      4722
      4715      4718      4721      4723      4715      4718      4721      4724
      4716      4715      4718      4719      4716      4715      4718      4720
      4716      4715      4718      4721      4717      4715      4718      4719
      4717      4715      4718      4720      4717      4715      4718      4721
      4718      4721      4724      4725      4718      4721      4724      4726
      4718      4721      4724      4727      4719      4718      4721      4722
      4719      4718      4721      4723      4719      4718      4721      4724
      4720      4718      4721      4722      4720      4718      4721      4723
      4720      4718      4721      4724      4722      4721      4724      4725
      4722      4721      4724      4726      4722      4721      4724      4727
      4723      4721      4724      4725      4723      4721      4724      4726
      4723      4721      4724      4727      4728      4731      4734      4735
      4728      4731      4734      4736      4728      4731      4734      4737
      4729      4728      4731      4732      4729      4728      4731      4733
      4729      4728      4731      4734      4730      4728      4731      4732
      4730      4728      4731      4733      4730      4728      4731      4734
      4731      4734      4737      4738      4731      4734      4737      4739
      4731      4734      4737      4740      4732      4731      4734      4735
      4732      4731      4734      4736      4732      4731      4734      4737
      4733      4731      4734      4735      4733      4731      4734      4736
      4733      4731      4734      4737      4734      4737      4740      4741
      4734      4737      4740      4742      4734      4737      4740      4743
      4735      4734      4737      4738      4735      4734      4737      4739
      4735      4734      4737      4740      4736      4734      4737      4738
      4736      4734      4737      4739      4736      4734      4737      4740
      4737      4740      4743      4744      4737      4740      4743      4745
      4737      4740      4743      4746      4738      4737      4740      4741
      4738      4737      4740      4742      4738      4737      4740      4743
      4739      4737      4740      4741      4739      4737      4740      4742
      4739      4737      4740      4743      4740      4743      4746      4747
      4740      4743      4746      4748      4740      4743      4746      4749
      4741      4740      4743      4744      4741      4740      4743      4745
      4741      4740      4743      4746      4742      4740      4743      4744
      4742      4740      4743      4745      4742      4740      4743      4746
      4743      4746      4749      4750      4743      4746      4749      4751
      4743      4746      4749      4752      4744      4743      4746      4747
      4744      4743      4746      4748      4744      4743      4746      4749
      4745      4743      4746      4747      4745      4743      4746      4748
      4745      4743      4746      4749      4746      4749      4752      4753
      4746      4749      4752      4754      4746      4749      4752      4755
      4747      4746      4749      4750      4747      4746      4749      4751
      4747      4746      4749      4752      4748      4746      4749      4750
      4748      4746      4749      4751      4748      4746      4749      4752
      4749      4752      4755      4756      4749      4752      4755      4757
      4749      4752      4755      4758      4750      4749      4752      4753
      4750      4749      4752      4754      4750      4749      4752      4755
      4751      4749      4752      4753      4751      4749      4752      4754
      4751      4749      4752      4755      4752      4755      4758      4759
      4752      4755      4758      4760      4752      4755      4758      4761
      4753      4752      4755      4756      4753      4752      4755      4757
      4753      4752      4755      4758      4754      4752      4755      4756
      4754      4752      4755      4757      4754      4752      4755      4758
      4755      4758      4761      4762      4755      4758      4761      4763
      4755      4758      4761      4764      4756      4755      4758      4759
      4756      4755      4758      4760      4756      4755      4758      4761
      4757      4755      4758      4759      4757      4755      4758      4760
      4757      4755      4758      4761      4758      4761      4764      4765
      4758      4761      4764      4766      4758      4761      4764      4767
      4759      4758      4761      4762      4759      4758      4761      4763
      4759      4758      4761      4764      4760      4758      4761      4762
      4760      4758      4761      4763      4760      4758      4761      4764
      4761      4764      4767      4768      4761      4764      4767      4769
      4761      4764      4767      4770      4762      4761      4764      4765
      4762      4761      4764      4766      4762      4761      4764      4767
      4763      4761      4764      4765      4763      4761      4764      4766
      4763      4761      4764      4767      4765      4764      4767      4768
      4765      4764      4767      4769      4765      4764      4767      4770
      4766      4764      4767      4768      4766      4764      4767      4769
      4766      4764      4767      4770     10502     10515     10518     10519
     10502     10515     10518     10520     10502     10515     10518     10525
     10503     10502     10507     10508     10503     10502     10507     10509
     10503     10502     10507     10510     10503     10502     10511     10512
     10503     10502     10511     10513     10503     10502     10511     10514
     10503     10502     10515     10516     10503     10502     10515     10517
     10503     10502     10515     10518     10504     10503     10502     10507
     10504     10503     10502     10511     10504     10503     10502     10515
     10505     10503     10502     10507     10505     10503     10502     10511
     10505     10503     10502     10515     10506     10503     10502     10507
     10506     10503     10502     10511     10506     10503     10502     10515
     10507     10502     10511     10512     10507     10502     10511     10513
     10507     10502     10511     10514     10507     10502     10515     10516
     10507     10502     10515     10517     10507     10502     10515     10518
     10508     10507     10502     10511     10508     10507     10502     10515
     10509     10507     10502     10511     10509     10507     10502     10515
     10510     10507     10502     10511     10510     10507     10502     10515
     10511     10502     10515     10516     10511     10502     10515     10517
     10511     10502     10515     10518     10512     10511     10502     10515
     10513     10511     10502     10515     10514     10511     10502     10515
     10515     10518     10525     10521     10516     10515     10518     10519
     10516     10515     10518     10520     10516     10515     10518     10525
     10517     10515     10518     10519     10517     10515     10518     10520
     10517     10515     10518     10525     10518     10525     10521     10522
     10518     10525     10521     10523     10518     10525     10521     10524
     10519     10518     10525     10521     10520     10518     10525     10521
     10521     10524     10526     10527     10521     10524     10526     10528
     10521     10524     10526     10531     10522     10521     10524     10526
     10523     10521     10524     10526     10524     10526     10531     10529
     10524     10526     10531     10532     10524     10526     10531     10533
     10525     10521     10524     10526     10526     10531     10529     10530
     10526     10531     10529     10581     10526     10531     10533     10534
     10526     10531     10533     10535     10526     10531     10533     10537
     10527     10526     10531     10529     10527     10526     10531     10532
     10527     10526     10531     10533     10528     10526     10531     10529
     10528     10526     10531     10532     10528     10526     10531     10533
     10529     10531     10533     10534     10529     10531     10533     10535
     10529     10531     10533     10537     10529     10581     10583     10584
     10529     10581     10583     10585     10529     10581     10583     10586
     10530     10529     10531     10532     10530     10529     10531     10533
     10530     10529     10581     10582     10530     10529     10581     10583
     10531     10529     10581     10582     10531     10529     10581     10583
     10531     10533     10535     10536     10531     10533     10537     10538
     10531     10533     10537     10539     10532     10531     10529     10581
     10532     10531     10533     10534     10532     10531     10533     10535
     10532     10531     10533     10537     10533     10531     10529     10581
     10533     10537     10539     10540     10533     10537     10539     10541
     10534     10533     10535     10536     10534     10533     10537     10538
     10534     10533     10537     10539     10535     10533     10537     10538
     10535     10533     10537     10539     10536     10535     10533     10537
     10537     10539     10541     10542     10537     10539     10541     10543
     10537     10539     10541     10544     10538     10537     10539     10540
     10538     10537     10539     10541     10539     10541     10544     10545
     10539     10541     10544     10546     10539     10541     10544     10547
     10540     10539     10541     10542     10540     10539     10541     10543
     10540     10539     10541     10544     10541     10544     10547     10548
     10541     10544     10547     10549     10541     10544     10547     10550
     10542     10541     10544     10545     10542     10541     10544     10546
     10542     10541     10544     10547     10543     10541     10544     10545
     10543     10541     10544     10546     10543     10541     10544     10547
     10544     10547     10550     10551     10544     10547     10550     10552
     10544     10547     10550     10553     10545     10544     10547     10548
     10545     10544     10547     10549     10545     10544     10547     10550
     10546     10544     10547     10548     10546     10544     10547     10549
     10546     10544     10547     10550     10547     10550     10553     10554
     10547     10550     10553     10555     10547     10550     10553     10556
     10548     10547     10550     10551     10548     10547     10550     10552
     10548     10547     10550     10553     10549     10547     10550     10551
     10549     10547     10550     10552     10549     10547     10550     10553
     10550     10553     10556     10557     10550     10553     10556     10558
     10550     10553     10556     10559     10551     10550     10553     10554
     10551     10550     10553     10555     10551     10550     10553     10556
     10552     10550     10553     10554     10552     10550     10553     10555
     10552     10550     10553     10556     10553     10556     10559     10560
     10553     10556     10559     10561     10553     10556     10559     10562
     10554     10553     10556     10557     10554     10553     10556     10558
     10554     10553     10556     10559     10555     10553     10556     10557
     10555     10553     10556     10558     10555     10553     10556     10559
     10556     10559     10562     10563     10556     10559     10562     10564
     10556     10559     10562     10565     10557     10556     10559     10560
     10557     10556     10559     10561     10557     10556     10559     10562
     10558     10556     10559     10560     10558     10556     10559     10561
     10558     10556     10559     10562     10559     10562     10565     10566
     10559     10562     10565     10567     10559     10562     10565     10568
     10560     10559     10562     10563     10560     10559     10562     10564
     10560     10559     10562     10565     10561     10559     10562     10563
     10561     10559     10562     10564     10561     10559     10562     10565
     10562     10565     10568     10569     10562     10565     10568     10570
     10562     10565     10568     10571     10563     10562     10565     10566
     10563     10562     10565     10567     10563     10562     10565     10568
     10564     10562     10565     10566     10564     10562     10565     10567
     10564     10562     10565     10568     10565     10568     10571     10572
     10565     10568     10571     10573     10565     10568     10571     10574
     10566     10565     10568     10569     10566     10565     10568     10570
     10566     10565     10568     10571     10567     10565     10568     10569
     10567     10565     10568     10570     10567     10565     10568     10571
     10568     10571     10574     10575     10568     10571     10574     10576
     10568     10571     10574     10577     10569     10568     10571     10572
     10569     10568     10571     10573     10569     10568     10571     10574
     10570     10568     10571     10572     10570     10568     10571     10573
     10570     10568     10571     10574     10571     10574     10577     10578
     10571     10574     10577     10579     10571     10574     10577     10580
     10572     10571     10574     10575     10572     10571     10574     10576
     10572     10571     10574     10577     10573     10571     10574     10575
     10573     10571     10574     10576     10573     10571     10574     10577
     10575     10574     10577     10578     10575     10574     10577     10579
     10575     10574     10577     10580     10576     10574     10577     10578
     10576     10574     10577     10579     10576     10574     10577     10580
     10581     10583     10586     10587     10581     10583     10586     10588
     10581     10583     10586     10589     10582     10581     10583     10584
     10582     10581     10583     10585     10582     10581     10583     10586
     10583     10586     10589     10590     10583     10586     10589     10591
     10583     10586     10589     10592     10584     10583     10586     10587
     10584     10583     10586     10588     10584     10583     10586     10589
     10585     10583     10586     10587     10585     10583     10586     10588
     10585     10583     10586     10589     10586     10589     10592     10593
     10586     10589     10592     10594     10586     10589     10592     10595
     10587     10586     10589     10590     10587     10586     10589     10591
     10587     10586     10589     10592     10588     10586     10589     10590
     10588     10586     10589     10591     10588     10586     10589     10592
     10589     10592     10595     10596     10589     10592     10595     10597
     10589     10592     10595     10598     10590     10589     10592     10593
     10590     10589     10592     10594     10590     10589     10592     10595
     10591     10589     10592     10593     10591     10589     10592     10594
     10591     10589     10592     10595     10592     10595     10598     10599
     10592     10595     10598     10600     10592     10595     10598     10601
     10593     10592     10595     10596     10593     10592     10595     10597
     10593     10592     10595     10598     10594     10592     10595     10596
     10594     10592     10595     10597     10594     10592     10595     10598
     10595     10598     10601     10602     10595     10598     10601     10603
     10595     10598     10601     10604     10596     10595     10598     10599
     10596     10595     10598     10600     10596     10595     10598     10601
     10597     10595     10598     10599     10597     10595     10598     10600
     10597     10595     10598     10601     10598     10601     10604     10605
     10598     10601     10604     10606     10599     10598     10601     10602
     10599     10598     10601     10603     10599     10598     10601     10604
     10600     10598     10601     10602     10600     10598     10601     10603
     10600     10598     10601     10604     10601     10604     10606     10607
     10601     10604     10606     10608     10602     10601     10604     10605
     10602     10601     10604     10606     10603     10601     10604     10605
     10603     10601     10604     10606     10604     10606     10608     10609
     10604     10606     10608     10610     10604     10606     10608     10611
     10605     10604     10606     10607     10605     10604     10606     10608
     10606     10608     10611     10612     10606     10608     10611     10613
     10606     10608     10611     10614     10607     10606     10608     10609
     10607     10606     10608     10610     10607     10606     10608     10611
     10608     10611     10614     10615     10608     10611     10614     10616
     10608     10611     10614     10617     10609     10608     10611     10612
     10609     10608     10611     10613     10609     10608     10611     10614
     10610     10608     10611     10612     10610     10608     10611     10613
     10610     10608     10611     10614     10611     10614     10617     10618
     10611     10614     10617     10619     10611     10614     10617     10620
     10612     10611     10614     10615     10612     10611     10614     10616
     10612     10611     10614     10617     10613     10611     10614     10615
     10613     10611     10614     10616     10613     10611     10614     10617
     10614     10617     10620     10621     10614     10617     10620     10622
     10614     10617     10620     10623     10615     10614     10617     10618
     10615     10614     10617     10619     10615     10614     10617     10620
     10616     10614     10617     10618     10616     10614     10617     10619
     10616     10614     10617     10620     10617     10620     10623     10624
     10617     10620     10623     10625     10617     10620     10623     10626
     10618     10617     10620     10621     10618     10617     10620     10622
     10618     10617     10620     10623     10619     10617     10620     10621
     10619     10617     10620     10622     10619     10617     10620     10623
     10620     10623     10626     10627     10620     10623     10626     10628
     10620     10623     10626     10629     10621     10620     10623     10624
     10621     10620     10623     10625     10621     10620     10623     10626
     10622     10620     10623     10624     10622     10620     10623     10625
     10622     10620     10623     10626     10623     10626     10629     10630
     10623     10626     10629     10631     10623     10626     10629     10632
     10624     10623     10626     10627     10624     10623     10626     10628
     10624     10623     10626     10629     10625     10623     10626     10627
     10625     10623     10626     10628     10625     10623     10626     10629
     10627     10626     10629     10630     10627     10626     10629     10631
     10627     10626     10629     10632     10628     10626     10629     10630
     10628     10626     10629     10631     10628     10626     10629     10632
     10633     10646     10649     10650     10633     10646     10649     10651
     10633     10646     10649     10656     10634     10633     10638     10639
     10634     10633     10638     10640     10634     10633     10638     10641
     10634     10633     10642     10643     10634     10633     10642     10644
     10634     10633     10642     10645     10634     10633     10646     10647
     10634     10633     10646     10648     10634     10633     10646     10649
     10635     10634     10633     10638     10635     10634     10633     10642
     10635     10634     10633     10646     10636     10634     10633     10638
     10636     10634     10633     10642     10636     10634     10633     10646
     10637     10634     10633     10638     10637     10634     10633     10642
     10637     10634     10633     10646     10638     10633     10642     10643
     10638     10633     10642     10644     10638     10633     10642     10645
     10638     10633     10646     10647     10638     10633     10646     10648
     10638     10633     10646     10649     10639     10638     10633     10642
     10639     10638     10633     10646     10640     10638     10633     10642
     10640     10638     10633     10646     10641     10638     10633     10642
     10641     10638     10633     10646     10642     10633     10646     10647
     10642     10633     10646     10648     10642     10633     10646     10649
     10643     10642     10633     10646     10644     10642     10633     10646
     10645     10642     10633     10646     10646     10649     10656     10652
     10647     10646     10649     10650     10647     10646     10649     10651
     10647     10646     10649     10656     10648     10646     10649     10650
     10648     10646     10649     10651     10648     10646     10649     10656
     10649     10656     10652     10653     10649     10656     10652     10654
     10649     10656     10652     10655     10650     10649     10656     10652
     10651     10649     10656     10652     10652     10655     10657     10658
     10652     10655     10657     10659     10652     10655     10657     10662
     10653     10652     10655     10657     10654     10652     10655     10657
     10655     10657     10662     10660     10655     10657     10662     10663
     10655     10657     10662     10664     10656     10652     10655     10657
     10657     10662     10660     10661     10657     10662     10660     10712
     10657     10662     10664     10665     10657     10662     10664     10666
     10657     10662     10664     10668     10658     10657     10662     10660
     10658     10657     10662     10663     10658     10657     10662     10664
     10659     10657     10662     10660     10659     10657     10662     10663
     10659     10657     10662     10664     10660     10662     10664     10665
     10660     10662     10664     10666     10660     10662     10664     10668
     10660     10712     10714     10715     10660     10712     10714     10716
     10660     10712     10714     10717     10661     10660     10662     10663
     10661     10660     10662     10664     10661     10660     10712     10713
     10661     10660     10712     10714     10662     10660     10712     10713
     10662     10660     10712     10714     10662     10664     10666     10667
     10662     10664     10668     10669     10662     10664     10668     10670
     10663     10662     10660     10712     10663     10662     10664     10665
     10663     10662     10664     10666     10663     10662     10664     10668
     10664     10662     10660     10712     10664     10668     10670     10671
     10664     10668     10670     10672     10665     10664     10666     10667
     10665     10664     10668     10669     10665     10664     10668     10670
     10666     10664     10668     10669     10666     10664     10668     10670
     10667     10666     10664     10668     10668     10670     10672     10673
     10668     10670     10672     10674     10668     10670     10672     10675
     10669     10668     10670     10671     10669     10668     10670     10672
     10670     10672     10675     10676     10670     10672     10675     10677
     10670     10672     10675     10678     10671     10670     10672     10673
     10671     10670     10672     10674     10671     10670     10672     10675
     10672     10675     10678     10679     10672     10675     10678     10680
     10672     10675     10678     10681     10673     10672     10675     10676
     10673     10672     10675     10677     10673     10672     10675     10678
     10674     10672     10675     10676     10674     10672     10675     10677
     10674     10672     10675     10678     10675     10678     10681     10682
     10675     10678     10681     10683     10675     10678     10681     10684
     10676     10675     10678     10679     10676     10675     10678     10680
     10676     10675     10678     10681     10677     10675     10678     10679
     10677     10675     10678     10680     10677     10675     10678     10681
     10678     10681     10684     10685     10678     10681     10684     10686
     10678     10681     10684     10687     10679     10678     10681     10682
     10679     10678     10681     10683     10679     10678     10681     10684
     10680     10678     10681     10682     10680     10678     10681     10683
     10680     10678     10681     10684     10681     10684     10687     10688
     10681     10684     10687     10689     10681     10684     10687     10690
     10682     10681     10684     10685     10682     10681     10684     10686
     10682     10681     10684     10687     10683     10681     10684     10685
     10683     10681     10684     10686     10683     10681     10684     10687
     10684     10687     10690     10691     10684     10687     10690     10692
     10684     10687     10690     10693     10685     10684     10687     10688
     10685     10684     10687     10689     10685     10684     10687     10690
     10686     10684     10687     10688     10686     10684     10687     10689
     10686     10684     10687     10690     10687     10690     10693     10694
     10687     10690     10693     10695     10687     10690     10693     10696
     10688     10687     10690     10691     10688     10687     10690     10692
     10688     10687     10690     10693     10689     10687     10690     10691
     10689     10687     10690     10692     10689     10687     10690     10693
     10690     10693     10696     10697     10690     10693     10696     10698
     10690     10693     10696     10699     10691     10690     10693     10694
     10691     10690     10693     10695     10691     10690     10693     10696
     10692     10690     10693     10694     10692     10690     10693     10695
     10692     10690     10693     10696     10693     10696     10699     10700
     10693     10696     10699     10701     10693     10696     10699     10702
     10694     10693     10696     10697     10694     10693     10696     10698
     10694     10693     10696     10699     10695     10693     10696     10697
     10695     10693     10696     10698     10695     10693     10696     10699
     10696     10699     10702     10703     10696     10699     10702     10704
     10696     10699     10702     10705     10697     10696     10699     10700
     10697     10696     10699     10701     10697     10696     10699     10702
     10698     10696     10699     10700     10698     10696     10699     10701
     10698     10696     10699     10702     10699     10702     10705     10706
     10699     10702     10705     10707     10699     10702     10705     10708
     10700     10699     10702     10703     10700     10699     10702     10704
     10700     10699     10702     10705     10701     10699     10702     10703
     10701     10699     10702     10704     10701     10699     10702     10705
     10702     10705     10708     10709     10702     10705     10708     10710
     10702     10705     10708     10711     10703     10702     10705     10706
     10703     10702     10705     10707     10703     10702     10705     10708
     10704     10702     10705     10706     10704     10702     10705     10707
     10704     10702     10705     10708     10706     10705     10708     10709
     10706     10705     10708     10710     10706     10705     10708     10711
     10707     10705     10708     10709     10707     10705     10708     10710
     10707     10705     10708     10711     10712     10714     10717     10718
     10712     10714     10717     10719     10712     10714     10717     10720
     10713     10712     10714     10715     10713     10712     10714     10716
     10713     10712     10714     10717     10714     10717     10720     10721
     10714     10717     10720     10722     10714     10717     10720     10723
     10715     10714     10717     10718     10715     10714     10717     10719
     10715     10714     10717     10720     10716     10714     10717     10718
     10716     10714     10717     10719     10716     10714     10717     10720
     10717     10720     10723     10724     10717     10720     10723     10725
     10717     10720     10723     10726     10718     10717     10720     10721
     10718     10717     10720     10722     10718     10717     10720     10723
     10719     10717     10720     10721     10719     10717     10720     10722
     10719     10717     10720     10723     10720     10723     10726     10727
     10720     10723     10726     10728     10720     10723     10726     10729
     10721     10720     10723     10724     10721     10720     10723     10725
     10721     10720     10723     10726     10722     10720     10723     10724
     10722     10720     10723     10725     10722     10720     10723     10726
     10723     10726     10729     10730     10723     10726     10729     10731
     10723     10726     10729     10732     10724     10723     10726     10727
     10724     10723     10726     10728     10724     10723     10726     10729
     10725     10723     10726     10727     10725     10723     10726     10728
     10725     10723     10726     10729     10726     10729     10732     10733
     10726     10729     10732     10734     10726     10729     10732     10735
     10727     10726     10729     10730     10727     10726     10729     10731
     10727     10726     10729     10732     10728     10726     10729     10730
     10728     10726     10729     10731     10728     10726     10729     10732
     10729     10732     10735     10736     10729     10732     10735     10737
     10730     10729     10732     10733     10730     10729     10732     10734
     10730     10729     10732     10735     10731     10729     10732     10733
     10731     10729     10732     10734     10731     10729     10732     10735
     10732     10735     10737     10738     10732     10735     10737     10739
     10733     10732     10735     10736     10733     10732     10735     10737
     10734     10732     10735     10736     10734     10732     10735     10737
     10735     10737     10739     10740     10735     10737     10739     10741
     10735     10737     10739     10742     10736     10735     10737     10738
     10736     10735     10737     10739     10737     10739     10742     10743
     10737     10739     10742     10744     10737     10739     10742     10745
     10738     10737     10739     10740     10738     10737     10739     10741
     10738     10737     10739     10742     10739     10742     10745     10746
     10739     10742     10745     10747     10739     10742     10745     10748
     10740     10739     10742     10743     10740     10739     10742     10744
     10740     10739     10742     10745     10741     10739     10742     10743
     10741     10739     10742     10744     10741     10739     10742     10745
     10742     10745     10748     10749     10742     10745     10748     10750
     10742     10745     10748     10751     10743     10742     10745     10746
     10743     10742     10745     10747     10743     10742     10745     10748
     10744     10742     10745     10746     10744     10742     10745     10747
     10744     10742     10745     10748     10745     10748     10751     10752
     10745     10748     10751     10753     10745     10748     10751     10754
     10746     10745     10748     10749     10746     10745     10748     10750
     10746     10745     10748     10751     10747     10745     10748     10749
     10747     10745     10748     10750     10747     10745     10748     10751
     10748     10751     10754     10755     10748     10751     10754     10756
     10748     10751     10754     10757     10749     10748     10751     10752
     10749     10748     10751     10753     10749     10748     10751     10754
     10750     10748     10751     10752     10750     10748     10751     10753
     10750     10748     10751     10754     10751     10754     10757     10758
     10751     10754     10757     10759     10751     10754     10757     10760
     10752     10751     10754     10755     10752     10751     10754     10756
     10752     10751     10754     10757     10753     10751     10754     10755
     10753     10751     10754     10756     10753     10751     10754     10757
     10754     10757     10760     10761     10754     10757     10760     10762
     10754     10757     10760     10763     10755     10754     10757     10758
     10755     10754     10757     10759     10755     10754     10757     10760
     10756     10754     10757     10758     10756     10754     10757     10759
     10756     10754     10757     10760     10758     10757     10760     10761
     10758     10757     10760     10762     10758     10757     10760     10763
     10759     10757     10760     10761     10759     10757     10760     10762
     10759     10757     10760     10763      6403      6407      6410      6411
      6403      6407      6410      6441      6403      6449      6446      6441
      6403      6449      6446      6447      6403      6449      6446      6448
      6404      6403      6405      6406      6404      6403      6407      6408
      6404      6403      6407      6409      6404      6403      6407      6410
      6404      6403      6449      6446      6404      6403      6449      6450
      6404      6403      6449      6451      6405      6403      6407      6408
      6405      6403      6407      6409      6405      6403      6407      6410
      6405      6403      6449      6446      6405      6403      6449      6450
      6405      6403      6449      6451      6406      6405      6403      6407
      6406      6405      6403      6449      6407      6403      6449      6446
      6407      6403      6449      6450      6407      6403      6449      6451
      6407      6410      6411      6412      6407      6410      6411      6413
      6407      6410      6441      6439      6407      6410      6441      6442
      6407      6410      6441      6446      6408      6407      6403      6449
      6408      6407      6410      6411      6408      6407      6410      6441
      6409      6407      6403      6449      6409      6407      6410      6411
      6409      6407      6410      6441      6410      6407      6403      6449
      6410      6411      6413      6414      6410      6411      6413      6415
      6410      6411      6413      6416      6410      6441      6439      6416
      6410      6441      6439      6436      6410      6441      6439      6440
      6410      6441      6442      6443      6410      6441      6442      6444
      6410      6441      6442      6445      6410      6441      6446      6447
      6410      6441      6446      6448      6410      6441      6446      6449
      6411      6410      6441      6439      6411      6410      6441      6442
      6411      6410      6441      6446      6411      6413      6416      6417
      6411      6413      6416      6418      6411      6413      6416      6439
      6412      6411      6410      6441      6412      6411      6413      6414
      6412      6411      6413      6415      6412      6411      6413      6416
      6413      6411      6410      6441      6413      6416      6418      6419
      6413      6416      6418      6420      6413      6416      6418      6428
      6413      6416      6439      6436      6413      6416      6439      6440
      6413      6416      6439      6441      6414      6413      6416      6417
      6414      6413      6416      6418      6414      6413      6416      6439
      6415      6413      6416      6417      6415      6413      6416      6418
      6415      6413      6416      6439      6416      6418      6420      6421
      6416      6418      6420      6422      6416      6418      6420      6423
      6416      6418      6428      6426      6416      6418      6428      6429
      6416      6418      6428      6433      6416      6439      6436      6433
      6416      6439      6436      6437      6416      6439      6436      6438
      6416      6439      6441      6442      6416      6439      6441      6446
      6417      6416      6418      6419      6417      6416      6418      6420
      6417      6416      6418      6428      6417      6416      6439      6436
      6417      6416      6439      6440      6417      6416      6439      6441
      6418      6416      6439      6436      6418      6416      6439      6440
      6418      6416      6439      6441      6418      6420      6423      6424
      6418      6420      6423      6425      6418      6420      6423      6426
      6418      6428      6426      6423      6418      6428      6426      6427
      6418      6428      6426      6452      6418      6428      6429      6430
      6418      6428      6429      6431      6418      6428      6429      6432
      6418      6428      6433      6434      6418      6428      6433      6435
      6418      6428      6433      6436      6419      6418      6416      6439
      6419      6418      6420      6421      6419      6418      6420      6422
      6419      6418      6420      6423      6419      6418      6428      6426
      6419      6418      6428      6429      6419      6418      6428      6433
      6420      6418      6416      6439      6420      6418      6428      6426
      6420      6418      6428      6429      6420      6418      6428      6433
      6420      6423      6426      6427      6420      6423      6426      6428
      6420      6423      6426      6452      6421      6420      6418      6428
      6421      6420      6423      6424      6421      6420      6423      6425
      6421      6420      6423      6426      6422      6420      6418      6428
      6422      6420      6423      6424      6422      6420      6423      6425
      6422      6420      6423      6426      6423      6420      6418      6428
      6423      6426      6428      6429      6423      6426      6428      6433
      6423      6426      6452      6453      6423      6426      6452      6454
      6423      6426      6452      6458      6424      6423      6426      6427
      6424      6423      6426      6428      6424      6423      6426      6452
      6425      6423      6426      6427      6425      6423      6426      6428
      6425      6423      6426      6452      6426      6428      6429      6430
      6426      6428      6429      6431      6426      6428      6429      6432
      6426      6428      6433      6434      6426      6428      6433      6435
      6426      6428      6433      6436      6426      6452      6454      6455
      6426      6452      6454      6456      6426      6452      6454      6457
      6426      6452      6458      6459      6426      6452      6458      6460
      6426      6452      6458      6461      6427      6426      6428      6429
      6427      6426      6428      6433      6427      6426      6452      6453
      6427      6426      6452      6454      6427      6426      6452      6458
      6428      6418      6416      6439      6428      6426      6452      6453
      6428      6426      6452      6454      6428      6426      6452      6458
      6428      6433      6436      6437      6428      6433      6436      6438
      6428      6433      6436      6439      6429      6428      6426      6452
      6429      6428      6433      6434      6429      6428      6433      6435
      6429      6428      6433      6436      6430      6429      6428      6433
      6431      6429      6428      6433      6432      6429      6428      6433
      6433      6428      6426      6452      6433      6436      6439      6440
      6433      6436      6439      6441      6434      6433      6436      6437
      6434      6433      6436      6438      6434      6433      6436      6439
      6435      6433      6436      6437      6435      6433      6436      6438
      6435      6433      6436      6439      6436      6439      6441      6442
      6436      6439      6441      6446      6437      6436      6439      6440
      6437      6436      6439      6441      6438      6436      6439      6440
      6438      6436      6439      6441      6439      6441      6442      6443
      6439      6441      6442      6444      6439      6441      6442      6445
      6439      6441      6446      6447      6439      6441      6446      6448
      6439      6441      6446      6449      6440      6439      6441      6442
      6440      6439      6441      6446      6441      6446      6449      6450
      6441      6446      6449      6451      6442      6441      6446      6447
      6442      6441      6446      6448      6442      6441      6446      6449
      6443      6442      6441      6446      6444      6442      6441      6446
      6445      6442      6441      6446      6447      6446      6449      6450
      6447      6446      6449      6451      6448      6446      6449      6450
      6448      6446      6449      6451      6452      6458      6461      6462
      6452      6458      6461      6463      6452      6458      6461      6464
      6453      6452      6454      6455      6453      6452      6454      6456
      6453      6452      6454      6457      6453      6452      6458      6459
      6453      6452      6458      6460      6453      6452      6458      6461
      6454      6452      6458      6459      6454      6452      6458      6460
      6454      6452      6458      6461      6455      6454      6452      6458
      6456      6454      6452      6458      6457      6454      6452      6458
      6458      6461      6464      6465      6458      6461      6464      6466
      6458      6461      6464      6467      6459      6458      6461      6462
      6459      6458      6461      6463      6459      6458      6461      6464
      6460      6458      6461      6462      6460      6458      6461      6463
      6460      6458      6461      6464      6461      6464      6467      6468
      6461      6464      6467      6469      6461      6464      6467      6473
      6462      6461      6464      6465      6462      6461      6464      6466
      6462      6461      6464      6467      6463      6461      6464      6465
      6463      6461      6464      6466      6463      6461      6464      6467
      6464      6467      6469      6470      6464      6467      6469      6471
      6464      6467      6469      6472      6464      6467      6473      6474
      6464      6467      6473      6475      6464      6467      6473      6476
      6465      6464      6467      6468      6465      6464      6467      6469
      6465      6464      6467      6473      6466      6464      6467      6468
      6466      6464      6467      6469      6466      6464      6467      6473
      6468      6467      6469      6470      6468      6467      6469      6471
      6468      6467      6469      6472      6468      6467      6473      6474
      6468      6467      6473      6475      6468      6467      6473      6476
      6469      6467      6473      6474      6469      6467      6473      6475
      6469      6467      6473      6476      6470      6469      6467      6473
      6471      6469      6467      6473      6472      6469      6467      6473
      6477      6481      6484      6485      6477      6481      6484      6515
      6477      6523      6520      6515      6477      6523      6520      6521
      6477      6523      6520      6522      6478      6477      6479      6480
      6478      6477      6481      6482      6478      6477      6481      6483
      6478      6477      6481      6484      6478      6477      6523      6520
      6478      6477      6523      6524      6478      6477      6523      6525
      6479      6477      6481      6482      6479      6477      6481      6483
      6479      6477      6481      6484      6479      6477      6523      6520
      6479      6477      6523      6524      6479      6477      6523      6525
      6480      6479      6477      6481      6480      6479      6477      6523
      6481      6477      6523      6520      6481      6477      6523      6524
      6481      6477      6523      6525      6481      6484      6485      6486
      6481      6484      6485      6487      6481      6484      6515      6513
      6481      6484      6515      6516      6481      6484      6515      6520
      6482      6481      6477      6523      6482      6481      6484      6485
      6482      6481      6484      6515      6483      6481      6477      6523
      6483      6481      6484      6485      6483      6481      6484      6515
      6484      6481      6477      6523      6484      6485      6487      6488
      6484      6485      6487      6489      6484      6485      6487      6490
      6484      6515      6513      6490      6484      6515      6513      6510
      6484      6515      6513      6514      6484      6515      6516      6517
      6484      6515      6516      6518      6484      6515      6516      6519
      6484      6515      6520      6521      6484      6515      6520      6522
      6484      6515      6520      6523      6485      6484      6515      6513
      6485      6484      6515      6516      6485      6484      6515      6520
      6485      6487      6490      6491      6485      6487      6490      6492
      6485      6487      6490      6513      6486      6485      6484      6515
      6486      6485      6487      6488      6486      6485      6487      6489
      6486      6485      6487      6490      6487      6485      6484      6515
      6487      6490      6492      6493      6487      6490      6492      6494
      6487      6490      6492      6502      6487      6490      6513      6510
      6487      6490      6513      6514      6487      6490      6513      6515
      6488      6487      6490      6491      6488      6487      6490      6492
      6488      6487      6490      6513      6489      6487      6490      6491
      6489      6487      6490      6492      6489      6487      6490      6513
      6490      6492      6494      6495      6490      6492      6494      6496
      6490      6492      6494      6497      6490      6492      6502      6500
      6490      6492      6502      6503      6490      6492      6502      6507
      6490      6513      6510      6507      6490      6513      6510      6511
      6490      6513      6510      6512      6490      6513      6515      6516
      6490      6513      6515      6520      6491      6490      6492      6493
      6491      6490      6492      6494      6491      6490      6492      6502
      6491      6490      6513      6510      6491      6490      6513      6514
      6491      6490      6513      6515      6492      6490      6513      6510
      6492      6490      6513      6514      6492      6490      6513      6515
      6492      6494      6497      6498      6492      6494      6497      6499
      6492      6494      6497      6500      6492      6502      6500      6497
      6492      6502      6500      6501      6492      6502      6500      6526
      6492      6502      6503      6504      6492      6502      6503      6505
      6492      6502      6503      6506      6492      6502      6507      6508
      6492      6502      6507      6509      6492      6502      6507      6510
      6493      6492      6490      6513      6493      6492      6494      6495
      6493      6492      6494      6496      6493      6492      6494      6497
      6493      6492      6502      6500      6493      6492      6502      6503
      6493      6492      6502      6507      6494      6492      6490      6513
      6494      6492      6502      6500      6494      6492      6502      6503
      6494      6492      6502      6507      6494      6497      6500      6501
      6494      6497      6500      6502      6494      6497      6500      6526
      6495      6494      6492      6502      6495      6494      6497      6498
      6495      6494      6497      6499      6495      6494      6497      6500
      6496      6494      6492      6502      6496      6494      6497      6498
      6496      6494      6497      6499      6496      6494      6497      6500
      6497      6494      6492      6502      6497      6500      6502      6503
      6497      6500      6502      6507      6497      6500      6526      6527
      6497      6500      6526      6528      6497      6500      6526      6532
      6498      6497      6500      6501      6498      6497      6500      6502
      6498      6497      6500      6526      6499      6497      6500      6501
      6499      6497      6500      6502      6499      6497      6500      6526
      6500      6502      6503      6504      6500      6502      6503      6505
      6500      6502      6503      6506      6500      6502      6507      6508
      6500      6502      6507      6509      6500      6502      6507      6510
      6500      6526      6528      6529      6500      6526      6528      6530
      6500      6526      6528      6531      6500      6526      6532      6533
      6500      6526      6532      6534      6500      6526      6532      6535
      6501      6500      6502      6503      6501      6500      6502      6507
      6501      6500      6526      6527      6501      6500      6526      6528
      6501      6500      6526      6532      6502      6492      6490      6513
      6502      6500      6526      6527      6502      6500      6526      6528
      6502      6500      6526      6532      6502      6507      6510      6511
      6502      6507      6510      6512      6502      6507      6510      6513
      6503      6502      6500      6526      6503      6502      6507      6508
      6503      6502      6507      6509      6503      6502      6507      6510
      6504      6503      6502      6507      6505      6503      6502      6507
      6506      6503      6502      6507      6507      6502      6500      6526
      6507      6510      6513      6514      6507      6510      6513      6515
      6508      6507      6510      6511      6508      6507      6510      6512
      6508      6507      6510      6513      6509      6507      6510      6511
      6509      6507      6510      6512      6509      6507      6510      6513
      6510      6513      6515      6516      6510      6513      6515      6520
      6511      6510      6513      6514      6511      6510      6513      6515
      6512      6510      6513      6514      6512      6510      6513      6515
      6513      6515      6516      6517      6513      6515      6516      6518
      6513      6515      6516      6519      6513      6515      6520      6521
      6513      6515      6520      6522      6513      6515      6520      6523
      6514      6513      6515      6516      6514      6513      6515      6520
      6515      6520      6523      6524      6515      6520      6523      6525
      6516      6515      6520      6521      6516      6515      6520      6522
      6516      6515      6520      6523      6517      6516      6515      6520
      6518      6516      6515      6520      6519      6516      6515      6520
      6521      6520      6523      6524      6521      6520      6523      6525
      6522      6520      6523      6524      6522      6520      6523      6525
      6526      6532      6535      6536      6526      6532      6535      6537
      6526      6532      6535      6538      6527      6526      6528      6529
      6527      6526      6528      6530      6527      6526      6528      6531
      6527      6526      6532      6533      6527      6526      6532      6534
      6527      6526      6532      6535      6528      6526      6532      6533
      6528      6526      6532      6534      6528      6526      6532      6535
      6529      6528      6526      6532      6530      6528      6526      6532
      6531      6528      6526      6532      6532      6535      6538      6539
      6532      6535      6538      6540      6532      6535      6538      6541
      6533      6532      6535      6536      6533      6532      6535      6537
      6533      6532      6535      6538      6534      6532      6535      6536
      6534      6532      6535      6537      6534      6532      6535      6538
      6535      6538      6541      6542      6535      6538      6541      6543
      6535      6538      6541      6547      6536      6535      6538      6539
      6536      6535      6538      6540      6536      6535      6538      6541
      6537      6535      6538      6539      6537      6535      6538      6540
      6537      6535      6538      6541      6538      6541      6543      6544
      6538      6541      6543      6545      6538      6541      6543      6546
      6538      6541      6547      6548      6538      6541      6547      6549
      6538      6541      6547      6550      6539      6538      6541      6542
      6539      6538      6541      6543      6539      6538      6541      6547
      6540      6538      6541      6542      6540      6538      6541      6543
      6540      6538      6541      6547      6542      6541      6543      6544
      6542      6541      6543      6545      6542      6541      6543      6546
      6542      6541      6547      6548      6542      6541      6547      6549
      6542      6541      6547      6550      6543      6541      6547      6548
      6543      6541      6547      6549      6543      6541      6547      6550
      6544      6543      6541      6547      6545      6543      6541      6547
      6546      6543      6541      6547      6551      6555      6558      6559
      6551      6555      6558      6589      6551      6597      6594      6589
      6551      6597      6594      6595      6551      6597      6594      6596
      6552      6551      6553      6554      6552      6551      6555      6556
      6552      6551      6555      6557      6552      6551      6555      6558
      6552      6551      6597      6594      6552      6551      6597      6598
      6552      6551      6597      6599      6553      6551      6555      6556
      6553      6551      6555      6557      6553      6551      6555      6558
      6553      6551      6597      6594      6553      6551      6597      6598
      6553      6551      6597      6599      6554      6553      6551      6555
      6554      6553      6551      6597      6555      6551      6597      6594
      6555      6551      6597      6598      6555      6551      6597      6599
      6555      6558      6559      6560      6555      6558      6559      6561
      6555      6558      6589      6587      6555      6558      6589      6590
      6555      6558      6589      6594      6556      6555      6551      6597
      6556      6555      6558      6559      6556      6555      6558      6589
      6557      6555      6551      6597      6557      6555      6558      6559
      6557      6555      6558      6589      6558      6555      6551      6597
      6558      6559      6561      6562      6558      6559      6561      6563
      6558      6559      6561      6564      6558      6589      6587      6564
      6558      6589      6587      6584      6558      6589      6587      6588
      6558      6589      6590      6591      6558      6589      6590      6592
      6558      6589      6590      6593      6558      6589      6594      6595
      6558      6589      6594      6596      6558      6589      6594      6597
      6559      6558      6589      6587      6559      6558      6589      6590
      6559      6558      6589      6594      6559      6561      6564      6565
      6559      6561      6564      6566      6559      6561      6564      6587
      6560      6559      6558      6589      6560      6559      6561      6562
      6560      6559      6561      6563      6560      6559      6561      6564
      6561      6559      6558      6589      6561      6564      6566      6567
      6561      6564      6566      6568      6561      6564      6566      6576
      6561      6564      6587      6584      6561      6564      6587      6588
      6561      6564      6587      6589      6562      6561      6564      6565
      6562      6561      6564      6566      6562      6561      6564      6587
      6563      6561      6564      6565      6563      6561      6564      6566
      6563      6561      6564      6587      6564      6566      6568      6569
      6564      6566      6568      6570      6564      6566      6568      6571
      6564      6566      6576      6574      6564      6566      6576      6577
      6564      6566      6576      6581      6564      6587      6584      6581
      6564      6587      6584      6585      6564      6587      6584      6586
      6564      6587      6589      6590      6564      6587      6589      6594
      6565      6564      6566      6567      6565      6564      6566      6568
      6565      6564      6566      6576      6565      6564      6587      6584
      6565      6564      6587      6588      6565      6564      6587      6589
      6566      6564      6587      6584      6566      6564      6587      6588
      6566      6564      6587      6589      6566      6568      6571      6572
      6566      6568      6571      6573      6566      6568      6571      6574
      6566      6576      6574      6571      6566      6576      6574      6575
      6566      6576      6574      6600      6566      6576      6577      6578
      6566      6576      6577      6579      6566      6576      6577      6580
      6566      6576      6581      6582      6566      6576      6581      6583
      6566      6576      6581      6584      6567      6566      6564      6587
      6567      6566      6568      6569      6567      6566      6568      6570
      6567      6566      6568      6571      6567      6566      6576      6574
      6567      6566      6576      6577      6567      6566      6576      6581
      6568      6566      6564      6587      6568      6566      6576      6574
      6568      6566      6576      6577      6568      6566      6576      6581
      6568      6571      6574      6575      6568      6571      6574      6576
      6568      6571      6574      6600      6569      6568      6566      6576
      6569      6568      6571      6572      6569      6568      6571      6573
      6569      6568      6571      6574      6570      6568      6566      6576
      6570      6568      6571      6572      6570      6568      6571      6573
      6570      6568      6571      6574      6571      6568      6566      6576
      6571      6574      6576      6577      6571      6574      6576      6581
      6571      6574      6600      6601      6571      6574      6600      6602
      6571      6574      6600      6606      6572      6571      6574      6575
      6572      6571      6574      6576      6572      6571      6574      6600
      6573      6571      6574      6575      6573      6571      6574      6576
      6573      6571      6574      6600      6574      6576      6577      6578
      6574      6576      6577      6579      6574      6576      6577      6580
      6574      6576      6581      6582      6574      6576      6581      6583
      6574      6576      6581      6584      6574      6600      6602      6603
      6574      6600      6602      6604      6574      6600      6602      6605
      6574      6600      6606      6607      6574      6600      6606      6608
      6574      6600      6606      6609      6575      6574      6576      6577
      6575      6574      6576      6581      6575      6574      6600      6601
      6575      6574      6600      6602      6575      6574      6600      6606
      6576      6566      6564      6587      6576      6574      6600      6601
      6576      6574      6600      6602      6576      6574      6600      6606
      6576      6581      6584      6585      6576      6581      6584      6586
      6576      6581      6584      6587      6577      6576      6574      6600
      6577      6576      6581      6582      6577      6576      6581      6583
      6577      6576      6581      6584      6578      6577      6576      6581
      6579      6577      6576      6581      6580      6577      6576      6581
      6581      6576      6574      6600      6581      6584      6587      6588
      6581      6584      6587      6589      6582      6581      6584      6585
      6582      6581      6584      6586      6582      6581      6584      6587
      6583      6581      6584      6585      6583      6581      6584      6586
      6583      6581      6584      6587      6584      6587      6589      6590
      6584      6587      6589      6594      6585      6584      6587      6588
      6585      6584      6587      6589      6586      6584      6587      6588
      6586      6584      6587      6589      6587      6589      6590      6591
      6587      6589      6590      6592      6587      6589      6590      6593
      6587      6589      6594      6595      6587      6589      6594      6596
      6587      6589      6594      6597      6588      6587      6589      6590
      6588      6587      6589      6594      6589      6594      6597      6598
      6589      6594      6597      6599      6590      6589      6594      6595
      6590      6589      6594      6596      6590      6589      6594      6597
      6591      6590      6589      6594      6592      6590      6589      6594
      6593      6590      6589      6594      6595      6594      6597      6598
      6595      6594      6597      6599      6596      6594      6597      6598
      6596      6594      6597      6599      6600      6606      6609      6610
      6600      6606      6609      6611      6600      6606      6609      6612
      6601      6600      6602      6603      6601      6600      6602      6604
      6601      6600      6602      6605      6601      6600      6606      6607
      6601      6600      6606      6608      6601      6600      6606      6609
      6602      6600      6606      6607      6602      6600      6606      6608
      6602      6600      6606      6609      6603      6602      6600      6606
      6604      6602      6600      6606      6605      6602      6600      6606
      6606      6609      6612      6613      6606      6609      6612      6614
      6606      6609      6612      6615      6607      6606      6609      6610
      6607      6606      6609      6611      6607      6606      6609      6612
      6608      6606      6609      6610      6608      6606      6609      6611
      6608      6606      6609      6612      6609      6612      6615      6616
      6609      6612      6615      6617      6609      6612      6615      6621
      6610      6609      6612      6613      6610      6609      6612      6614
      6610      6609      6612      6615      6611      6609      6612      6613
      6611      6609      6612      6614      6611      6609      6612      6615
      6612      6615      6617      6618      6612      6615      6617      6619
      6612      6615      6617      6620      6612      6615      6621      6622
      6612      6615      6621      6623      6612      6615      6621      6624
      6613      6612      6615      6616      6613      6612      6615      6617
      6613      6612      6615      6621      6614      6612      6615      6616
      6614      6612      6615      6617      6614      6612      6615      6621
      6616      6615      6617      6618      6616      6615      6617      6619
      6616      6615      6617      6620      6616      6615      6621      6622
      6616      6615      6621      6623      6616      6615      6621      6624
      6617      6615      6621      6622      6617      6615      6621      6623
      6617      6615      6621      6624      6618      6617      6615      6621
      6619      6617      6615      6621      6620      6617      6615      6621
      6625      6629      6632      6633      6625      6629      6632      6663
      6625      6671      6668      6663      6625      6671      6668      6669
      6625      6671      6668      6670      6626      6625      6627      6628
      6626      6625      6629      6630      6626      6625      6629      6631
      6626      6625      6629      6632      6626      6625      6671      6668
      6626      6625      6671      6672      6626      6625      6671      6673
      6627      6625      6629      6630      6627      6625      6629      6631
      6627      6625      6629      6632      6627      6625      6671      6668
      6627      6625      6671      6672      6627      6625      6671      6673
      6628      6627      6625      6629      6628      6627      6625      6671
      6629      6625      6671      6668      6629      6625      6671      6672
      6629      6625      6671      6673      6629      6632      6633      6634
      6629      6632      6633      6635      6629      6632      6663      6661
      6629      6632      6663      6664      6629      6632      6663      6668
      6630      6629      6625      6671      6630      6629      6632      6633
      6630      6629      6632      6663      6631      6629      6625      6671
      6631      6629      6632      6633      6631      6629      6632      6663
      6632      6629      6625      6671      6632      6633      6635      6636
      6632      6633      6635      6637      6632      6633      6635      6638
      6632      6663      6661      6638      6632      6663      6661      6658
      6632      6663      6661      6662      6632      6663      6664      6665
      6632      6663      6664      6666      6632      6663      6664      6667
      6632      6663      6668      6669      6632      6663      6668      6670
      6632      6663      6668      6671      6633      6632      6663      6661
      6633      6632      6663      6664      6633      6632      6663      6668
      6633      6635      6638      6639      6633      6635      6638      6640
      6633      6635      6638      6661      6634      6633      6632      6663
      6634      6633      6635      6636      6634      6633      6635      6637
      6634      6633      6635      6638      6635      6633      6632      6663
      6635      6638      6640      6641      6635      6638      6640      6642
      6635      6638      6640      6650      6635      6638      6661      6658
      6635      6638      6661      6662      6635      6638      6661      6663
      6636      6635      6638      6639      6636      6635      6638      6640
      6636      6635      6638      6661      6637      6635      6638      6639
      6637      6635      6638      6640      6637      6635      6638      6661
      6638      6640      6642      6643      6638      6640      6642      6644
      6638      6640      6642      6645      6638      6640      6650      6648
      6638      6640      6650      6651      6638      6640      6650      6655
      6638      6661      6658      6655      6638      6661      6658      6659
      6638      6661      6658      6660      6638      6661      6663      6664
      6638      6661      6663      6668      6639      6638      6640      6641
      6639      6638      6640      6642      6639      6638      6640      6650
      6639      6638      6661      6658      6639      6638      6661      6662
      6639      6638      6661      6663      6640      6638      6661      6658
      6640      6638      6661      6662      6640      6638      6661      6663
      6640      6642      6645      6646      6640      6642      6645      6647
      6640      6642      6645      6648      6640      6650      6648      6645
      6640      6650      6648      6649      6640      6650      6648      6674
      6640      6650      6651      6652      6640      6650      6651      6653
      6640      6650      6651      6654      6640      6650      6655      6656
      6640      6650      6655      6657      6640      6650      6655      6658
      6641      6640      6638      6661      6641      6640      6642      6643
      6641      6640      6642      6644      6641      6640      6642      6645
      6641      6640      6650      6648      6641      6640      6650      6651
      6641      6640      6650      6655      6642      6640      6638      6661
      6642      6640      6650      6648      6642      6640      6650      6651
      6642      6640      6650      6655      6642      6645      6648      6649
      6642      6645      6648      6650      6642      6645      6648      6674
      6643      6642      6640      6650      6643      6642      6645      6646
      6643      6642      6645      6647      6643      6642      6645      6648
      6644      6642      6640      6650      6644      6642      6645      6646
      6644      6642      6645      6647      6644      6642      6645      6648
      6645      6642      6640      6650      6645      6648      6650      6651
      6645      6648      6650      6655      6645      6648      6674      6675
      6645      6648      6674      6676      6645      6648      6674      6680
      6646      6645      6648      6649      6646      6645      6648      6650
      6646      6645      6648      6674      6647      6645      6648      6649
      6647      6645      6648      6650      6647      6645      6648      6674
      6648      6650      6651      6652      6648      6650      6651      6653
      6648      6650      6651      6654      6648      6650      6655      6656
      6648      6650      6655      6657      6648      6650      6655      6658
      6648      6674      6676      6677      6648      6674      6676      6678
      6648      6674      6676      6679      6648      6674      6680      6681
      6648      6674      6680      6682      6648      6674      6680      6683
      6649      6648      6650      6651      6649      6648      6650      6655
      6649      6648      6674      6675      6649      6648      6674      6676
      6649      6648      6674      6680      6650      6640      6638      6661
      6650      6648      6674      6675      6650      6648      6674      6676
      6650      6648      6674      6680      6650      6655      6658      6659
      6650      6655      6658      6660      6650      6655      6658      6661
      6651      6650      6648      6674      6651      6650      6655      6656
      6651      6650      6655      6657      6651      6650      6655      6658
      6652      6651      6650      6655      6653      6651      6650      6655
      6654      6651      6650      6655      6655      6650      6648      6674
      6655      6658      6661      6662      6655      6658      6661      6663
      6656      6655      6658      6659      6656      6655      6658      6660
      6656      6655      6658      6661      6657      6655      6658      6659
      6657      6655      6658      6660      6657      6655      6658      6661
      6658      6661      6663      6664      6658      6661      6663      6668
      6659      6658      6661      6662      6659      6658      6661      6663
      6660      6658      6661      6662      6660      6658      6661      6663
      6661      6663      6664      6665      6661      6663      6664      6666
      6661      6663      6664      6667      6661      6663      6668      6669
      6661      6663      6668      6670      6661      6663      6668      6671
      6662      6661      6663      6664      6662      6661      6663      6668
      6663      6668      6671      6672      6663      6668      6671      6673
      6664      6663      6668      6669      6664      6663      6668      6670
      6664      6663      6668      6671      6665      6664      6663      6668
      6666      6664      6663      6668      6667      6664      6663      6668
      6669      6668      6671      6672      6669      6668      6671      6673
      6670      6668      6671      6672      6670      6668      6671      6673
      6674      6680      6683      6684      6674      6680      6683      6685
      6674      6680      6683      6686      6675      6674      6676      6677
      6675      6674      6676      6678      6675      6674      6676      6679
      6675      6674      6680      6681      6675      6674      6680      6682
      6675      6674      6680      6683      6676      6674      6680      6681
      6676      6674      6680      6682      6676      6674      6680      6683
      6677      6676      6674      6680      6678      6676      6674      6680
      6679      6676      6674      6680      6680      6683      6686      6687
      6680      6683      6686      6688      6680      6683      6686      6689
      6681      6680      6683      6684      6681      6680      6683      6685
      6681      6680      6683      6686      6682      6680      6683      6684
      6682      6680      6683      6685      6682      6680      6683      6686
      6683      6686      6689      6690      6683      6686      6689      6691
      6683      6686      6689      6695      6684      6683      6686      6687
      6684      6683      6686      6688      6684      6683      6686      6689
      6685      6683      6686      6687      6685      6683      6686      6688
      6685      6683      6686      6689      6686      6689      6691      6692
      6686      6689      6691      6693      6686      6689      6691      6694
      6686      6689      6695      6696      6686      6689      6695      6697
      6686      6689      6695      6698      6687      6686      6689      6690
      6687      6686      6689      6691      6687      6686      6689      6695
      6688      6686      6689      6690      6688      6686      6689      6691
      6688      6686      6689      6695      6690      6689      6691      6692
      6690      6689      6691      6693      6690      6689      6691      6694
      6690      6689      6695      6696      6690      6689      6695      6697
      6690      6689      6695      6698      6691      6689      6695      6696
      6691      6689      6695      6697      6691      6689      6695      6698
      6692      6691      6689      6695      6693      6691      6689      6695
      6694      6691      6689      6695     14956     14960     14963     14964
     14956     14960     14963     14965     14956     14960     14963     14969
     14957     14956     14960     14961     14957     14956     14960     14962
     14957     14956     14960     14963     14958     14956     14960     14961
     14958     14956     14960     14962     14958     14956     14960     14963
     14959     14956     14960     14961     14959     14956     14960     14962
     14959     14956     14960     14963     14960     14963     14969     14966
     14961     14960     14963     14964     14961     14960     14963     14965
     14961     14960     14963     14969     14962     14960     14963     14964
     14962     14960     14963     14965     14962     14960     14963     14969
     14963     14969     14966     14967     14963     14969     14966     14968
     14963     14969     14966     14970     14964     14963     14969     14966
     14965     14963     14969     14966     14966     14970     14971     14972
     14966     14970     14971     14973     14966     14970     14971     14974
     14967     14966     14970     14971     14968     14966     14970     14971
     14969     14966     14970     14971     14970     14971     14974     14975
     14970     14971     14974     14976     14970     14971     14974     14982
     14971     14974     14976     14977     14971     14974     14982     14983
     14971     14974     14982     14984     14971     14974     14982     14985
     14972     14971     14974     14975     14972     14971     14974     14976
     14972     14971     14974     14982     14973     14971     14974     14975
     14973     14971     14974     14976     14973     14971     14974     14982
     14974     14976     14977     14978     14974     14976     14977     14979
     14974     14982     14985     14986     14975     14974     14976     14977
     14975     14974     14982     14983     14975     14974     14982     14984
     14975     14974     14982     14985     14976     14974     14982     14983
     14976     14974     14982     14984     14976     14974     14982     14985
     14976     14977     14979     14980     14976     14977     14979     14981
     14976     14977     14979     14991     14977     14976     14974     14982
     14977     14979     14991     14992     14977     14979     14991     14993
     14977     14979     14991     14994     14978     14977     14979     14980
     14978     14977     14979     14981     14978     14977     14979     14991
     14979     14991     14994     14995     14979     14991     14994     14996
     14979     14991     14994     14997     14980     14979     14991     14992
     14980     14979     14991     14993     14980     14979     14991     14994
     14981     14979     14991     14992     14981     14979     14991     14993
     14981     14979     14991     14994     14982     14985     14986     14987
     14982     14985     14986     14988     14983     14982     14985     14986
     14984     14982     14985     14986     14985     14986     14988     14989
     14985     14986     14988     14990     14985     14986     14988     15038
     14986     14988     15038     15039     14986     14988     15038     15040
     14986     14988     15038     15041     14987     14986     14988     14989
     14987     14986     14988     14990     14987     14986     14988     15038
     14988     15038     15041     15042     14988     15038     15041     15043
     14988     15038     15041     15044     14989     14988     15038     15039
     14989     14988     15038     15040     14989     14988     15038     15041
     14990     14988     15038     15039     14990     14988     15038     15040
     14990     14988     15038     15041     14991     14994     14997     14998
     14991     14994     14997     14999     14992     14991     14994     14995
     14992     14991     14994     14996     14992     14991     14994     14997
     14993     14991     14994     14995     14993     14991     14994     14996
     14993     14991     14994     14997     14994     14997     14999     15000
     14994     14997     14999     15001     14995     14994     14997     14998
     14995     14994     14997     14999     14996     14994     14997     14998
     14996     14994     14997     14999     14997     14999     15001     15002
     14997     14999     15001     15003     14997     14999     15001     15004
     14998     14997     14999     15000     14998     14997     14999     15001
     14999     15001     15004     15005     14999     15001     15004     15006
     15000     14999     15001     15002     15000     14999     15001     15003
     15000     14999     15001     15004     15001     15004     15006     15007
     15001     15004     15006     15008     15002     15001     15004     15005
     15002     15001     15004     15006     15003     15001     15004     15005
     15003     15001     15004     15006     15004     15006     15008     15009
     15004     15006     15008     15010     15004     15006     15008     15011
     15005     15004     15006     15007     15005     15004     15006     15008
     15006     15008     15011     15012     15006     15008     15011     15013
     15007     15006     15008     15009     15007     15006     15008     15010
     15007     15006     15008     15011     15008     15011     15013     15014
     15008     15011     15013     15015     15009     15008     15011     15012
     15009     15008     15011     15013     15010     15008     15011     15012
     15010     15008     15011     15013     15011     15013     15015     15016
     15011     15013     15015     15017     15011     15013     15015     15018
     15012     15011     15013     15014     15012     15011     15013     15015
     15013     15015     15018     15019     15013     15015     15018     15020
     15014     15013     15015     15016     15014     15013     15015     15017
     15014     15013     15015     15018     15015     15018     15020     15021
     15015     15018     15020     15022     15016     15015     15018     15019
     15016     15015     15018     15020     15017     15015     15018     15019
     15017     15015     15018     15020     15018     15020     15022     15023
     15018     15020     15022     15024     15018     15020     15022     15025
     15019     15018     15020     15021     15019     15018     15020     15022
     15020     15022     15025     15026     15020     15022     15025     15027
     15020     15022     15025     15028     15021     15020     15022     15023
     15021     15020     15022     15024     15021     15020     15022     15025
     15022     15025     15028     15029     15022     15025     15028     15030
     15022     15025     15028     15031     15023     15022     15025     15026
     15023     15022     15025     15027     15023     15022     15025     15028
     15024     15022     15025     15026     15024     15022     15025     15027
     15024     15022     15025     15028     15025     15028     15031     15032
     15025     15028     15031     15033     15025     15028     15031     15034
     15026     15025     15028     15029     15026     15025     15028     15030
     15026     15025     15028     15031     15027     15025     15028     15029
     15027     15025     15028     15030     15027     15025     15028     15031
     15028     15031     15034     15035     15028     15031     15034     15036
     15028     15031     15034     15037     15029     15028     15031     15032
     15029     15028     15031     15033     15029     15028     15031     15034
     15030     15028     15031     15032     15030     15028     15031     15033
     15030     15028     15031     15034     15032     15031     15034     15035
     15032     15031     15034     15036     15032     15031     15034     15037
     15033     15031     15034     15035     15033     15031     15034     15036
     15033     15031     15034     15037     15038     15041     15044     15045
     15038     15041     15044     15046     15038     15041     15044     15047
     15039     15038     15041     15042     15039     15038     15041     15043
     15039     15038     15041     15044     15040     15038     15041     15042
     15040     15038     15041     15043     15040     15038     15041     15044
     15041     15044     15047     15048     15041     15044     15047     15049
     15041     15044     15047     15050     15042     15041     15044     15045
     15042     15041     15044     15046     15042     15041     15044     15047
     15043     15041     15044     15045     15043     15041     15044     15046
     15043     15041     15044     15047     15044     15047     15050     15051
     15044     15047     15050     15052     15044     15047     15050     15053
     15045     15044     15047     15048     15045     15044     15047     15049
     15045     15044     15047     15050     15046     15044     15047     15048
     15046     15044     15047     15049     15046     15044     15047     15050
     15047     15050     15053     15054     15047     15050     15053     15055
     15047     15050     15053     15056     15048     15047     15050     15051
     15048     15047     15050     15052     15048     15047     15050     15053
     15049     15047     15050     15051     15049     15047     15050     15052
     15049     15047     15050     15053     15050     15053     15056     15057
     15050     15053     15056     15058     15050     15053     15056     15059
     15051     15050     15053     15054     15051     15050     15053     15055
     15051     15050     15053     15056     15052     15050     15053     15054
     15052     15050     15053     15055     15052     15050     15053     15056
     15053     15056     15059     15060     15053     15056     15059     15061
     15053     15056     15059     15062     15054     15053     15056     15057
     15054     15053     15056     15058     15054     15053     15056     15059
     15055     15053     15056     15057     15055     15053     15056     15058
     15055     15053     15056     15059     15056     15059     15062     15063
     15056     15059     15062     15064     15056     15059     15062     15065
     15057     15056     15059     15060     15057     15056     15059     15061
     15057     15056     15059     15062     15058     15056     15059     15060
     15058     15056     15059     15061     15058     15056     15059     15062
     15059     15062     15065     15066     15059     15062     15065     15067
     15059     15062     15065     15068     15060     15059     15062     15063
     15060     15059     15062     15064     15060     15059     15062     15065
     15061     15059     15062     15063     15061     15059     15062     15064
     15061     15059     15062     15065     15062     15065     15068     15069
     15062     15065     15068     15070     15062     15065     15068     15071
     15063     15062     15065     15066     15063     15062     15065     15067
     15063     15062     15065     15068     15064     15062     15065     15066
     15064     15062     15065     15067     15064     15062     15065     15068
     15065     15068     15071     15072     15065     15068     15071     15073
     15065     15068     15071     15074     15066     15065     15068     15069
     15066     15065     15068     15070     15066     15065     15068     15071
     15067     15065     15068     15069     15067     15065     15068     15070
     15067     15065     15068     15071     15068     15071     15074     15075
     15068     15071     15074     15076     15068     15071     15074     15077
     15069     15068     15071     15072     15069     15068     15071     15073
     15069     15068     15071     15074     15070     15068     15071     15072
     15070     15068     15071     15073     15070     15068     15071     15074
     15071     15074     15077     15078     15071     15074     15077     15079
     15071     15074     15077     15080     15072     15071     15074     15075
     15072     15071     15074     15076     15072     15071     15074     15077
     15073     15071     15074     15075     15073     15071     15074     15076
     15073     15071     15074     15077     15074     15077     15080     15081
     15074     15077     15080     15082     15074     15077     15080     15083
     15075     15074     15077     15078     15075     15074     15077     15079
     15075     15074     15077     15080     15076     15074     15077     15078
     15076     15074     15077     15079     15076     15074     15077     15080
     15077     15080     15083     15084     15077     15080     15083     15085
     15077     15080     15083     15086     15078     15077     15080     15081
     15078     15077     15080     15082     15078     15077     15080     15083
     15079     15077     15080     15081     15079     15077     15080     15082
     15079     15077     15080     15083     15081     15080     15083     15084
     15081     15080     15083     15085     15081     15080     15083     15086
     15082     15080     15083     15084     15082     15080     15083     15085
     15082     15080     15083     15086      6699      6703      6706      6707
      6699      6703      6706      6737      6699      6745      6742      6737
      6699      6745      6742      6743      6699      6745      6742      6744
      6700      6699      6701      6702      6700      6699      6703      6704
      6700      6699      6703      6705      6700      6699      6703      6706
      6700      6699      6745      6742      6700      6699      6745      6746
      6700      6699      6745      6747      6701      6699      6703      6704
      6701      6699      6703      6705      6701      6699      6703      6706
      6701      6699      6745      6742      6701      6699      6745      6746
      6701      6699      6745      6747      6702      6701      6699      6703
      6702      6701      6699      6745      6703      6699      6745      6742
      6703      6699      6745      6746      6703      6699      6745      6747
      6703      6706      6707      6708      6703      6706      6707      6709
      6703      6706      6737      6735      6703      6706      6737      6738
      6703      6706      6737      6742      6704      6703      6699      6745
      6704      6703      6706      6707      6704      6703      6706      6737
      6705      6703      6699      6745      6705      6703      6706      6707
      6705      6703      6706      6737      6706      6703      6699      6745
      6706      6707      6709      6710      6706      6707      6709      6711
      6706      6707      6709      6712      6706      6737      6735      6712
      6706      6737      6735      6732      6706      6737      6735      6736
      6706      6737      6738      6739      6706      6737      6738      6740
      6706      6737      6738      6741      6706      6737      6742      6743
      6706      6737      6742      6744      6706      6737      6742      6745
      6707      6706      6737      6735      6707      6706      6737      6738
      6707      6706      6737      6742      6707      6709      6712      6713
      6707      6709      6712      6714      6707      6709      6712      6735
      6708      6707      6706      6737      6708      6707      6709      6710
      6708      6707      6709      6711      6708      6707      6709      6712
      6709      6707      6706      6737      6709      6712      6714      6715
      6709      6712      6714      6716      6709      6712      6714      6724
      6709      6712      6735      6732      6709      6712      6735      6736
      6709      6712      6735      6737      6710      6709      6712      6713
      6710      6709      6712      6714      6710      6709      6712      6735
      6711      6709      6712      6713      6711      6709      6712      6714
      6711      6709      6712      6735      6712      6714      6716      6717
      6712      6714      6716      6718      6712      6714      6716      6719
      6712      6714      6724      6722      6712      6714      6724      6725
      6712      6714      6724      6729      6712      6735      6732      6729
      6712      6735      6732      6733      6712      6735      6732      6734
      6712      6735      6737      6738      6712      6735      6737      6742
      6713      6712      6714      6715      6713      6712      6714      6716
      6713      6712      6714      6724      6713      6712      6735      6732
      6713      6712      6735      6736      6713      6712      6735      6737
      6714      6712      6735      6732      6714      6712      6735      6736
      6714      6712      6735      6737      6714      6716      6719      6720
      6714      6716      6719      6721      6714      6716      6719      6722
      6714      6724      6722      6719      6714      6724      6722      6723
      6714      6724      6722      6748      6714      6724      6725      6726
      6714      6724      6725      6727      6714      6724      6725      6728
      6714      6724      6729      6730      6714      6724      6729      6731
      6714      6724      6729      6732      6715      6714      6712      6735
      6715      6714      6716      6717      6715      6714      6716      6718
      6715      6714      6716      6719      6715      6714      6724      6722
      6715      6714      6724      6725      6715      6714      6724      6729
      6716      6714      6712      6735      6716      6714      6724      6722
      6716      6714      6724      6725      6716      6714      6724      6729
      6716      6719      6722      6723      6716      6719      6722      6724
      6716      6719      6722      6748      6717      6716      6714      6724
      6717      6716      6719      6720      6717      6716      6719      6721
      6717      6716      6719      6722      6718      6716      6714      6724
      6718      6716      6719      6720      6718      6716      6719      6721
      6718      6716      6719      6722      6719      6716      6714      6724
      6719      6722      6724      6725      6719      6722      6724      6729
      6719      6722      6748      6749      6719      6722      6748      6750
      6719      6722      6748      6754      6720      6719      6722      6723
      6720      6719      6722      6724      6720      6719      6722      6748
      6721      6719      6722      6723      6721      6719      6722      6724
      6721      6719      6722      6748      6722      6724      6725      6726
      6722      6724      6725      6727      6722      6724      6725      6728
      6722      6724      6729      6730      6722      6724      6729      6731
      6722      6724      6729      6732      6722      6748      6750      6751
      6722      6748      6750      6752      6722      6748      6750      6753
      6722      6748      6754      6755      6722      6748      6754      6756
      6722      6748      6754      6757      6723      6722      6724      6725
      6723      6722      6724      6729      6723      6722      6748      6749
      6723      6722      6748      6750      6723      6722      6748      6754
      6724      6714      6712      6735      6724      6722      6748      6749
      6724      6722      6748      6750      6724      6722      6748      6754
      6724      6729      6732      6733      6724      6729      6732      6734
      6724      6729      6732      6735      6725      6724      6722      6748
      6725      6724      6729      6730      6725      6724      6729      6731
      6725      6724      6729      6732      6726      6725      6724      6729
      6727      6725      6724      6729      6728      6725      6724      6729
      6729      6724      6722      6748      6729      6732      6735      6736
      6729      6732      6735      6737      6730      6729      6732      6733
      6730      6729      6732      6734      6730      6729      6732      6735
      6731      6729      6732      6733      6731      6729      6732      6734
      6731      6729      6732      6735      6732      6735      6737      6738
      6732      6735      6737      6742      6733      6732      6735      6736
      6733      6732      6735      6737      6734      6732      6735      6736
      6734      6732      6735      6737      6735      6737      6738      6739
      6735      6737      6738      6740      6735      6737      6738      6741
      6735      6737      6742      6743      6735      6737      6742      6744
      6735      6737      6742      6745      6736      6735      6737      6738
      6736      6735      6737      6742      6737      6742      6745      6746
      6737      6742      6745      6747      6738      6737      6742      6743
      6738      6737      6742      6744      6738      6737      6742      6745
      6739      6738      6737      6742      6740      6738      6737      6742
      6741      6738      6737      6742      6743      6742      6745      6746
      6743      6742      6745      6747      6744      6742      6745      6746
      6744      6742      6745      6747      6748      6754      6757      6758
      6748      6754      6757      6759      6748      6754      6757      6760
      6749      6748      6750      6751      6749      6748      6750      6752
      6749      6748      6750      6753      6749      6748      6754      6755
      6749      6748      6754      6756      6749      6748      6754      6757
      6750      6748      6754      6755      6750      6748      6754      6756
      6750      6748      6754      6757      6751      6750      6748      6754
      6752      6750      6748      6754      6753      6750      6748      6754
      6754      6757      6760      6761      6754      6757      6760      6762
      6754      6757      6760      6763      6755      6754      6757      6758
      6755      6754      6757      6759      6755      6754      6757      6760
      6756      6754      6757      6758      6756      6754      6757      6759
      6756      6754      6757      6760      6757      6760      6763      6764
      6757      6760      6763      6765      6757      6760      6763      6769
      6758      6757      6760      6761      6758      6757      6760      6762
      6758      6757      6760      6763      6759      6757      6760      6761
      6759      6757      6760      6762      6759      6757      6760      6763
      6760      6763      6765      6766      6760      6763      6765      6767
      6760      6763      6765      6768      6760      6763      6769      6770
      6760      6763      6769      6771      6760      6763      6769      6772
      6761      6760      6763      6764      6761      6760      6763      6765
      6761      6760      6763      6769      6762      6760      6763      6764
      6762      6760      6763      6765      6762      6760      6763      6769
      6764      6763      6765      6766      6764      6763      6765      6767
      6764      6763      6765      6768      6764      6763      6769      6770
      6764      6763      6769      6771      6764      6763      6769      6772
      6765      6763      6769      6770      6765      6763      6769      6771
      6765      6763      6769      6772      6766      6765      6763      6769
      6767      6765      6763      6769      6768      6765      6763      6769
       400       404       406       407       400       404       406       408
       400       404       409       410       400       404       409       411
       400       404       409       415       401       400       404       405
       401       400       404       406       401       400       404       409
       402       400       404       405       402       400       404       406
       402       400       404       409       403       400       404       405
       403       400       404       406       403       400       404       409
       404       409       415       412       405       404       406       407
       405       404       406       408       405       404       409       410
       405       404       409       411       405       404       409       415
       406       404       409       410       406       404       409       411
       406       404       409       415       407       406       404       409
       408       406       404       409       409       415       412       413
       409       415       412       414       409       415       412       416
       410       409       415       412       411       409       415       412
       412       416       417       418       412       416       417       419
       412       416       417       420       413       412       416       417
       414       412       416       417       415       412       416       417
       416       417       420       421       416       417       420       422
       416       417       420       428       417       420       422       423
       417       420       428       429       417       420       428       430
       417       420       428       431       418       417       420       421
       418       417       420       422       418       417       420       428
       419       417       420       421       419       417       420       422
       419       417       420       428       420       422       423       424
       420       422       423       425       420       428       431       432
       421       420       422       423       421       420       428       429
       421       420       428       430       421       420       428       431
       422       420       428       429       422       420       428       430
       422       420       428       431       422       423       425       426
       422       423       425       427       422       423       425       437
       423       422       420       428       423       425       437       438
       423       425       437       439       423       425       437       440
       424       423       425       426       424       423       425       427
       424       423       425       437       425       437       440       441
       425       437       440       442       425       437       440       443
       426       425       437       438       426       425       437       439
       426       425       437       440       427       425       437       438
       427       425       437       439       427       425       437       440
       428       431       432       433       428       431       432       434
       429       428       431       432       430       428       431       432
       431       432       434       435       431       432       434       436
       431       432       434       484       432       434       484       485
       432       434       484       486       432       434       484       487
       433       432       434       435       433       432       434       436
       433       432       434       484       434       484       487       488
       434       484       487       489       434       484       487       490
       435       434       484       485       435       434       484       486
       435       434       484       487       436       434       484       485
       436       434       484       486       436       434       484       487
       437       440       443       444       437       440       443       445
       438       437       440       441       438       437       440       442
       438       437       440       443       439       437       440       441
       439       437       440       442       439       437       440       443
       440       443       445       446       440       443       445       447
       441       440       443       444       441       440       443       445
       442       440       443       444       442       440       443       445
       443       445       447       448       443       445       447       449
       443       445       447       450       444       443       445       446
       444       443       445       447       445       447       450       451
       445       447       450       452       446       445       447       448
       446       445       447       449       446       445       447       450
       447       450       452       453       447       450       452       454
       448       447       450       451       448       447       450       452
       449       447       450       451       449       447       450       452
       450       452       454       455       450       452       454       456
       450       452       454       457       451       450       452       453
       451       450       452       454       452       454       457       458
       452       454       457       459       453       452       454       455
       453       452       454       456       453       452       454       457
       454       457       459       460       454       457       459       461
       455       454       457       458       455       454       457       459
       456       454       457       458       456       454       457       459
       457       459       461       462       457       459       461       463
       457       459       461       464       458       457       459       460
       458       457       459       461       459       461       464       465
       459       461       464       466       460       459       461       462
       460       459       461       463       460       459       461       464
       461       464       466       467       461       464       466       468
       462       461       464       465       462       461       464       466
       463       461       464       465       463       461       464       466
       464       466       468       469       464       466       468       470
       464       466       468       471       465       464       466       467
       465       464       466       468       466       468       471       472
       466       468       471       473       466       468       471       474
       467       466       468       469       467       466       468       470
       467       466       468       471       468       471       474       475
       468       471       474       476       468       471       474       477
       469       468       471       472       469       468       471       473
       469       468       471       474       470       468       471       472
       470       468       471       473       470       468       471       474
       471       474       477       478       471       474       477       479
       471       474       477       480       472       471       474       475
       472       471       474       476       472       471       474       477
       473       471       474       475       473       471       474       476
       473       471       474       477       474       477       480       481
       474       477       480       482       474       477       480       483
       475       474       477       478       475       474       477       479
       475       474       477       480       476       474       477       478
       476       474       477       479       476       474       477       480
       478       477       480       481       478       477       480       482
       478       477       480       483       479       477       480       481
       479       477       480       482       479       477       480       483
       484       487       490       491       484       487       490       492
       484       487       490       493       485       484       487       488
       485       484       487       489       485       484       487       490
       486       484       487       488       486       484       487       489
       486       484       487       490       487       490       493       494
       487       490       493       495       487       490       493       496
       488       487       490       491       488       487       490       492
       488       487       490       493       489       487       490       491
       489       487       490       492       489       487       490       493
       490       493       496       497       490       493       496       498
       490       493       496       499       491       490       493       494
       491       490       493       495       491       490       493       496
       492       490       493       494       492       490       493       495
       492       490       493       496       493       496       499       500
       493       496       499       501       493       496       499       502
       494       493       496       497       494       493       496       498
       494       493       496       499       495       493       496       497
       495       493       496       498       495       493       496       499
       496       499       502       503       496       499       502       504
       496       499       502       505       497       496       499       500
       497       496       499       501       497       496       499       502
       498       496       499       500       498       496       499       501
       498       496       499       502       499       502       505       506
       499       502       505       507       499       502       505       508
       500       499       502       503       500       499       502       504
       500       499       502       505       501       499       502       503
       501       499       502       504       501       499       502       505
       502       505       508       509       502       505       508       510
       502       505       508       511       503       502       505       506
       503       502       505       507       503       502       505       508
       504       502       505       506       504       502       505       507
       504       502       505       508       505       508       511       512
       505       508       511       513       505       508       511       514
       506       505       508       509       506       505       508       510
       506       505       508       511       507       505       508       509
       507       505       508       510       507       505       508       511
       508       511       514       515       508       511       514       516
       508       511       514       517       509       508       511       512
       509       508       511       513       509       508       511       514
       510       508       511       512       510       508       511       513
       510       508       511       514       511       514       517       518
       511       514       517       519       511       514       517       520
       512       511       514       515       512       511       514       516
       512       511       514       517       513       511       514       515
       513       511       514       516       513       511       514       517
       514       517       520       521       514       517       520       522
       514       517       520       523       515       514       517       518
       515       514       517       519       515       514       517       520
       516       514       517       518       516       514       517       519
       516       514       517       520       517       520       523       524
       517       520       523       525       517       520       523       526
       518       517       520       521       518       517       520       522
       518       517       520       523       519       517       520       521
       519       517       520       522       519       517       520       523
       520       523       526       527       520       523       526       528
       520       523       526       529       521       520       523       524
       521       520       523       525       521       520       523       526
       522       520       523       524       522       520       523       525
       522       520       523       526       523       526       529       530
       523       526       529       531       523       526       529       532
       524       523       526       527       524       523       526       528
       524       523       526       529       525       523       526       527
       525       523       526       528       525       523       526       529
       527       526       529       530       527       526       529       531
       527       526       529       532       528       526       529       530
       528       526       529       531       528       526       529       532
      6773      6777      6780      6781      6773      6777      6780      6811
      6773      6819      6816      6811      6773      6819      6816      6817
      6773      6819      6816      6818      6774      6773      6775      6776
      6774      6773      6777      6778      6774      6773      6777      6779
      6774      6773      6777      6780      6774      6773      6819      6816
      6774      6773      6819      6820      6774      6773      6819      6821
      6775      6773      6777      6778      6775      6773      6777      6779
      6775      6773      6777      6780      6775      6773      6819      6816
      6775      6773      6819      6820      6775      6773      6819      6821
      6776      6775      6773      6777      6776      6775      6773      6819
      6777      6773      6819      6816      6777      6773      6819      6820
      6777      6773      6819      6821      6777      6780      6781      6782
      6777      6780      6781      6783      6777      6780      6811      6809
      6777      6780      6811      6812      6777      6780      6811      6816
      6778      6777      6773      6819      6778      6777      6780      6781
      6778      6777      6780      6811      6779      6777      6773      6819
      6779      6777      6780      6781      6779      6777      6780      6811
      6780      6777      6773      6819      6780      6781      6783      6784
      6780      6781      6783      6785      6780      6781      6783      6786
      6780      6811      6809      6786      6780      6811      6809      6806
      6780      6811      6809      6810      6780      6811      6812      6813
      6780      6811      6812      6814      6780      6811      6812      6815
      6780      6811      6816      6817      6780      6811      6816      6818
      6780      6811      6816      6819      6781      6780      6811      6809
      6781      6780      6811      6812      6781      6780      6811      6816
      6781      6783      6786      6787      6781      6783      6786      6788
      6781      6783      6786      6809      6782      6781      6780      6811
      6782      6781      6783      6784      6782      6781      6783      6785
      6782      6781      6783      6786      6783      6781      6780      6811
      6783      6786      6788      6789      6783      6786      6788      6790
      6783      6786      6788      6798      6783      6786      6809      6806
      6783      6786      6809      6810      6783      6786      6809      6811
      6784      6783      6786      6787      6784      6783      6786      6788
      6784      6783      6786      6809      6785      6783      6786      6787
      6785      6783      6786      6788      6785      6783      6786      6809
      6786      6788      6790      6791      6786      6788      6790      6792
      6786      6788      6790      6793      6786      6788      6798      6796
      6786      6788      6798      6799      6786      6788      6798      6803
      6786      6809      6806      6803      6786      6809      6806      6807
      6786      6809      6806      6808      6786      6809      6811      6812
      6786      6809      6811      6816      6787      6786      6788      6789
      6787      6786      6788      6790      6787      6786      6788      6798
      6787      6786      6809      6806      6787      6786      6809      6810
      6787      6786      6809      6811      6788      6786      6809      6806
      6788      6786      6809      6810      6788      6786      6809      6811
      6788      6790      6793      6794      6788      6790      6793      6795
      6788      6790      6793      6796      6788      6798      6796      6793
      6788      6798      6796      6797      6788      6798      6796      6822
      6788      6798      6799      6800      6788      6798      6799      6801
      6788      6798      6799      6802      6788      6798      6803      6804
      6788      6798      6803      6805      6788      6798      6803      6806
      6789      6788      6786      6809      6789      6788      6790      6791
      6789      6788      6790      6792      6789      6788      6790      6793
      6789      6788      6798      6796      6789      6788      6798      6799
      6789      6788      6798      6803      6790      6788      6786      6809
      6790      6788      6798      6796      6790      6788      6798      6799
      6790      6788      6798      6803      6790      6793      6796      6797
      6790      6793      6796      6798      6790      6793      6796      6822
      6791      6790      6788      6798      6791      6790      6793      6794
      6791      6790      6793      6795      6791      6790      6793      6796
      6792      6790      6788      6798      6792      6790      6793      6794
      6792      6790      6793      6795      6792      6790      6793      6796
      6793      6790      6788      6798      6793      6796      6798      6799
      6793      6796      6798      6803      6793      6796      6822      6823
      6793      6796      6822      6824      6793      6796      6822      6828
      6794      6793      6796      6797      6794      6793      6796      6798
      6794      6793      6796      6822      6795      6793      6796      6797
      6795      6793      6796      6798      6795      6793      6796      6822
      6796      6798      6799      6800      6796      6798      6799      6801
      6796      6798      6799      6802      6796      6798      6803      6804
      6796      6798      6803      6805      6796      6798      6803      6806
      6796      6822      6824      6825      6796      6822      6824      6826
      6796      6822      6824      6827      6796      6822      6828      6829
      6796      6822      6828      6830      6796      6822      6828      6831
      6797      6796      6798      6799      6797      6796      6798      6803
      6797      6796      6822      6823      6797      6796      6822      6824
      6797      6796      6822      6828      6798      6788      6786      6809
      6798      6796      6822      6823      6798      6796      6822      6824
      6798      6796      6822      6828      6798      6803      6806      6807
      6798      6803      6806      6808      6798      6803      6806      6809
      6799      6798      6796      6822      6799      6798      6803      6804
      6799      6798      6803      6805      6799      6798      6803      6806
      6800      6799      6798      6803      6801      6799      6798      6803
      6802      6799      6798      6803      6803      6798      6796      6822
      6803      6806      6809      6810      6803      6806      6809      6811
      6804      6803      6806      6807      6804      6803      6806      6808
      6804      6803      6806      6809      6805      6803      6806      6807
      6805      6803      6806      6808      6805      6803      6806      6809
      6806      6809      6811      6812      6806      6809      6811      6816
      6807      6806      6809      6810      6807      6806      6809      6811
      6808      6806      6809      6810      6808      6806      6809      6811
      6809      6811      6812      6813      6809      6811      6812      6814
      6809      6811      6812      6815      6809      6811      6816      6817
      6809      6811      6816      6818      6809      6811      6816      6819
      6810      6809      6811      6812      6810      6809      6811      6816
      6811      6816      6819      6820      6811      6816      6819      6821
      6812      6811      6816      6817      6812      6811      6816      6818
      6812      6811      6816      6819      6813      6812      6811      6816
      6814      6812      6811      6816      6815      6812      6811      6816
      6817      6816      6819      6820      6817      6816      6819      6821
      6818      6816      6819      6820      6818      6816      6819      6821
      6822      6828      6831      6832      6822      6828      6831      6833
      6822      6828      6831      6834      6823      6822      6824      6825
      6823      6822      6824      6826      6823      6822      6824      6827
      6823      6822      6828      6829      6823      6822      6828      6830
      6823      6822      6828      6831      6824      6822      6828      6829
      6824      6822      6828      6830      6824      6822      6828      6831
      6825      6824      6822      6828      6826      6824      6822      6828
      6827      6824      6822      6828      6828      6831      6834      6835
      6828      6831      6834      6836      6828      6831      6834      6837
      6829      6828      6831      6832      6829      6828      6831      6833
      6829      6828      6831      6834      6830      6828      6831      6832
      6830      6828      6831      6833      6830      6828      6831      6834
      6831      6834      6837      6838      6831      6834      6837      6839
      6831      6834      6837      6843      6832      6831      6834      6835
      6832      6831      6834      6836      6832      6831      6834      6837
      6833      6831      6834      6835      6833      6831      6834      6836
      6833      6831      6834      6837      6834      6837      6839      6840
      6834      6837      6839      6841      6834      6837      6839      6842
      6834      6837      6843      6844      6834      6837      6843      6845
      6834      6837      6843      6846      6835      6834      6837      6838
      6835      6834      6837      6839      6835      6834      6837      6843
      6836      6834      6837      6838      6836      6834      6837      6839
      6836      6834      6837      6843      6838      6837      6839      6840
      6838      6837      6839      6841      6838      6837      6839      6842
      6838      6837      6843      6844      6838      6837      6843      6845
      6838      6837      6843      6846      6839      6837      6843      6844
      6839      6837      6843      6845      6839      6837      6843      6846
      6840      6839      6837      6843      6841      6839      6837      6843
      6842      6839      6837      6843      6847      6851      6854      6855
      6847      6851      6854      6885      6847      6893      6890      6885
      6847      6893      6890      6891      6847      6893      6890      6892
      6848      6847      6849      6850      6848      6847      6851      6852
      6848      6847      6851      6853      6848      6847      6851      6854
      6848      6847      6893      6890      6848      6847      6893      6894
      6848      6847      6893      6895      6849      6847      6851      6852
      6849      6847      6851      6853      6849      6847      6851      6854
      6849      6847      6893      6890      6849      6847      6893      6894
      6849      6847      6893      6895      6850      6849      6847      6851
      6850      6849      6847      6893      6851      6847      6893      6890
      6851      6847      6893      6894      6851      6847      6893      6895
      6851      6854      6855      6856      6851      6854      6855      6857
      6851      6854      6885      6883      6851      6854      6885      6886
      6851      6854      6885      6890      6852      6851      6847      6893
      6852      6851      6854      6855      6852      6851      6854      6885
      6853      6851      6847      6893      6853      6851      6854      6855
      6853      6851      6854      6885      6854      6851      6847      6893
      6854      6855      6857      6858      6854      6855      6857      6859
      6854      6855      6857      6860      6854      6885      6883      6860
      6854      6885      6883      6880      6854      6885      6883      6884
      6854      6885      6886      6887      6854      6885      6886      6888
      6854      6885      6886      6889      6854      6885      6890      6891
      6854      6885      6890      6892      6854      6885      6890      6893
      6855      6854      6885      6883      6855      6854      6885      6886
      6855      6854      6885      6890      6855      6857      6860      6861
      6855      6857      6860      6862      6855      6857      6860      6883
      6856      6855      6854      6885      6856      6855      6857      6858
      6856      6855      6857      6859      6856      6855      6857      6860
      6857      6855      6854      6885      6857      6860      6862      6863
      6857      6860      6862      6864      6857      6860      6862      6872
      6857      6860      6883      6880      6857      6860      6883      6884
      6857      6860      6883      6885      6858      6857      6860      6861
      6858      6857      6860      6862      6858      6857      6860      6883
      6859      6857      6860      6861      6859      6857      6860      6862
      6859      6857      6860      6883      6860      6862      6864      6865
      6860      6862      6864      6866      6860      6862      6864      6867
      6860      6862      6872      6870      6860      6862      6872      6873
      6860      6862      6872      6877      6860      6883      6880      6877
      6860      6883      6880      6881      6860      6883      6880      6882
      6860      6883      6885      6886      6860      6883      6885      6890
      6861      6860      6862      6863      6861      6860      6862      6864
      6861      6860      6862      6872      6861      6860      6883      6880
      6861      6860      6883      6884      6861      6860      6883      6885
      6862      6860      6883      6880      6862      6860      6883      6884
      6862      6860      6883      6885      6862      6864      6867      6868
      6862      6864      6867      6869      6862      6864      6867      6870
      6862      6872      6870      6867      6862      6872      6870      6871
      6862      6872      6870      6896      6862      6872      6873      6874
      6862      6872      6873      6875      6862      6872      6873      6876
      6862      6872      6877      6878      6862      6872      6877      6879
      6862      6872      6877      6880      6863      6862      6860      6883
      6863      6862      6864      6865      6863      6862      6864      6866
      6863      6862      6864      6867      6863      6862      6872      6870
      6863      6862      6872      6873      6863      6862      6872      6877
      6864      6862      6860      6883      6864      6862      6872      6870
      6864      6862      6872      6873      6864      6862      6872      6877
      6864      6867      6870      6871      6864      6867      6870      6872
      6864      6867      6870      6896      6865      6864      6862      6872
      6865      6864      6867      6868      6865      6864      6867      6869
      6865      6864      6867      6870      6866      6864      6862      6872
      6866      6864      6867      6868      6866      6864      6867      6869
      6866      6864      6867      6870      6867      6864      6862      6872
      6867      6870      6872      6873      6867      6870      6872      6877
      6867      6870      6896      6897      6867      6870      6896      6898
      6867      6870      6896      6902      6868      6867      6870      6871
      6868      6867      6870      6872      6868      6867      6870      6896
      6869      6867      6870      6871      6869      6867      6870      6872
      6869      6867      6870      6896      6870      6872      6873      6874
      6870      6872      6873      6875      6870      6872      6873      6876
      6870      6872      6877      6878      6870      6872      6877      6879
      6870      6872      6877      6880      6870      6896      6898      6899
      6870      6896      6898      6900      6870      6896      6898      6901
      6870      6896      6902      6903      6870      6896      6902      6904
      6870      6896      6902      6905      6871      6870      6872      6873
      6871      6870      6872      6877      6871      6870      6896      6897
      6871      6870      6896      6898      6871      6870      6896      6902
      6872      6862      6860      6883      6872      6870      6896      6897
      6872      6870      6896      6898      6872      6870      6896      6902
      6872      6877      6880      6881      6872      6877      6880      6882
      6872      6877      6880      6883      6873      6872      6870      6896
      6873      6872      6877      6878      6873      6872      6877      6879
      6873      6872      6877      6880      6874      6873      6872      6877
      6875      6873      6872      6877      6876      6873      6872      6877
      6877      6872      6870      6896      6877      6880      6883      6884
      6877      6880      6883      6885      6878      6877      6880      6881
      6878      6877      6880      6882      6878      6877      6880      6883
      6879      6877      6880      6881      6879      6877      6880      6882
      6879      6877      6880      6883      6880      6883      6885      6886
      6880      6883      6885      6890      6881      6880      6883      6884
      6881      6880      6883      6885      6882      6880      6883      6884
      6882      6880      6883      6885      6883      6885      6886      6887
      6883      6885      6886      6888      6883      6885      6886      6889
      6883      6885      6890      6891      6883      6885      6890      6892
      6883      6885      6890      6893      6884      6883      6885      6886
      6884      6883      6885      6890      6885      6890      6893      6894
      6885      6890      6893      6895      6886      6885      6890      6891
      6886      6885      6890      6892      6886      6885      6890      6893
      6887      6886      6885      6890      6888      6886      6885      6890
      6889      6886      6885      6890      6891      6890      6893      6894
      6891      6890      6893      6895      6892      6890      6893      6894
      6892      6890      6893      6895      6896      6902      6905      6906
      6896      6902      6905      6907      6896      6902      6905      6908
      6897      6896      6898      6899      6897      6896      6898      6900
      6897      6896      6898      6901      6897      6896      6902      6903
      6897      6896      6902      6904      6897      6896      6902      6905
      6898      6896      6902      6903      6898      6896      6902      6904
      6898      6896      6902      6905      6899      6898      6896      6902
      6900      6898      6896      6902      6901      6898      6896      6902
      6902      6905      6908      6909      6902      6905      6908      6910
      6902      6905      6908      6911      6903      6902      6905      6906
      6903      6902      6905      6907      6903      6902      6905      6908
      6904      6902      6905      6906      6904      6902      6905      6907
      6904      6902      6905      6908      6905      6908      6911      6912
      6905      6908      6911      6913      6905      6908      6911      6917
      6906      6905      6908      6909      6906      6905      6908      6910
      6906      6905      6908      6911      6907      6905      6908      6909
      6907      6905      6908      6910      6907      6905      6908      6911
      6908      6911      6913      6914      6908      6911      6913      6915
      6908      6911      6913      6916      6908      6911      6917      6918
      6908      6911      6917      6919      6908      6911      6917      6920
      6909      6908      6911      6912      6909      6908      6911      6913
      6909      6908      6911      6917      6910      6908      6911      6912
      6910      6908      6911      6913      6910      6908      6911      6917
      6912      6911      6913      6914      6912      6911      6913      6915
      6912      6911      6913      6916      6912      6911      6917      6918
      6912      6911      6917      6919      6912      6911      6917      6920
      6913      6911      6917      6918      6913      6911      6917      6919
      6913      6911      6917      6920      6914      6913      6911      6917
      6915      6913      6911      6917      6916      6913      6911      6917
     15087     15091     15094     15095     15087     15091     15094     15096
     15087     15091     15094     15100     15088     15087     15091     15092
     15088     15087     15091     15093     15088     15087     15091     15094
     15089     15087     15091     15092     15089     15087     15091     15093
     15089     15087     15091     15094     15090     15087     15091     15092
     15090     15087     15091     15093     15090     15087     15091     15094
     15091     15094     15100     15097     15092     15091     15094     15095
     15092     15091     15094     15096     15092     15091     15094     15100
     15093     15091     15094     15095     15093     15091     15094     15096
     15093     15091     15094     15100     15094     15100     15097     15098
     15094     15100     15097     15099     15094     15100     15097     15101
     15095     15094     15100     15097     15096     15094     15100     15097
     15097     15101     15102     15103     15097     15101     15102     15104
     15097     15101     15102     15105     15098     15097     15101     15102
     15099     15097     15101     15102     15100     15097     15101     15102
     15101     15102     15105     15106     15101     15102     15105     15107
     15101     15102     15105     15113     15102     15105     15107     15108
     15102     15105     15113     15114     15102     15105     15113     15115
     15102     15105     15113     15116     15103     15102     15105     15106
     15103     15102     15105     15107     15103     15102     15105     15113
     15104     15102     15105     15106     15104     15102     15105     15107
     15104     15102     15105     15113     15105     15107     15108     15109
     15105     15107     15108     15110     15105     15113     15116     15117
     15106     15105     15107     15108     15106     15105     15113     15114
     15106     15105     15113     15115     15106     15105     15113     15116
     15107     15105     15113     15114     15107     15105     15113     15115
     15107     15105     15113     15116     15107     15108     15110     15111
     15107     15108     15110     15112     15107     15108     15110     15122
     15108     15107     15105     15113     15108     15110     15122     15123
     15108     15110     15122     15124     15108     15110     15122     15125
     15109     15108     15110     15111     15109     15108     15110     15112
     15109     15108     15110     15122     15110     15122     15125     15126
     15110     15122     15125     15127     15110     15122     15125     15128
     15111     15110     15122     15123     15111     15110     15122     15124
     15111     15110     15122     15125     15112     15110     15122     15123
     15112     15110     15122     15124     15112     15110     15122     15125
     15113     15116     15117     15118     15113     15116     15117     15119
     15114     15113     15116     15117     15115     15113     15116     15117
     15116     15117     15119     15120     15116     15117     15119     15121
     15116     15117     15119     15169     15117     15119     15169     15170
     15117     15119     15169     15171     15117     15119     15169     15172
     15118     15117     15119     15120     15118     15117     15119     15121
     15118     15117     15119     15169     15119     15169     15172     15173
     15119     15169     15172     15174     15119     15169     15172     15175
     15120     15119     15169     15170     15120     15119     15169     15171
     15120     15119     15169     15172     15121     15119     15169     15170
     15121     15119     15169     15171     15121     15119     15169     15172
     15122     15125     15128     15129     15122     15125     15128     15130
     15123     15122     15125     15126     15123     15122     15125     15127
     15123     15122     15125     15128     15124     15122     15125     15126
     15124     15122     15125     15127     15124     15122     15125     15128
     15125     15128     15130     15131     15125     15128     15130     15132
     15126     15125     15128     15129     15126     15125     15128     15130
     15127     15125     15128     15129     15127     15125     15128     15130
     15128     15130     15132     15133     15128     15130     15132     15134
     15128     15130     15132     15135     15129     15128     15130     15131
     15129     15128     15130     15132     15130     15132     15135     15136
     15130     15132     15135     15137     15131     15130     15132     15133
     15131     15130     15132     15134     15131     15130     15132     15135
     15132     15135     15137     15138     15132     15135     15137     15139
     15133     15132     15135     15136     15133     15132     15135     15137
     15134     15132     15135     15136     15134     15132     15135     15137
     15135     15137     15139     15140     15135     15137     15139     15141
     15135     15137     15139     15142     15136     15135     15137     15138
     15136     15135     15137     15139     15137     15139     15142     15143
     15137     15139     15142     15144     15138     15137     15139     15140
     15138     15137     15139     15141     15138     15137     15139     15142
     15139     15142     15144     15145     15139     15142     15144     15146
     15140     15139     15142     15143     15140     15139     15142     15144
     15141     15139     15142     15143     15141     15139     15142     15144
     15142     15144     15146     15147     15142     15144     15146     15148
     15142     15144     15146     15149     15143     15142     15144     15145
     15143     15142     15144     15146     15144     15146     15149     15150
     15144     15146     15149     15151     15145     15144     15146     15147
     15145     15144     15146     15148     15145     15144     15146     15149
     15146     15149     15151     15152     15146     15149     15151     15153
     15147     15146     15149     15150     15147     15146     15149     15151
     15148     15146     15149     15150     15148     15146     15149     15151
     15149     15151     15153     15154     15149     15151     15153     15155
     15149     15151     15153     15156     15150     15149     15151     15152
     15150     15149     15151     15153     15151     15153     15156     15157
     15151     15153     15156     15158     15151     15153     15156     15159
     15152     15151     15153     15154     15152     15151     15153     15155
     15152     15151     15153     15156     15153     15156     15159     15160
     15153     15156     15159     15161     15153     15156     15159     15162
     15154     15153     15156     15157     15154     15153     15156     15158
     15154     15153     15156     15159     15155     15153     15156     15157
     15155     15153     15156     15158     15155     15153     15156     15159
     15156     15159     15162     15163     15156     15159     15162     15164
     15156     15159     15162     15165     15157     15156     15159     15160
     15157     15156     15159     15161     15157     15156     15159     15162
     15158     15156     15159     15160     15158     15156     15159     15161
     15158     15156     15159     15162     15159     15162     15165     15166
     15159     15162     15165     15167     15159     15162     15165     15168
     15160     15159     15162     15163     15160     15159     15162     15164
     15160     15159     15162     15165     15161     15159     15162     15163
     15161     15159     15162     15164     15161     15159     15162     15165
     15163     15162     15165     15166     15163     15162     15165     15167
     15163     15162     15165     15168     15164     15162     15165     15166
     15164     15162     15165     15167     15164     15162     15165     15168
     15169     15172     15175     15176     15169     15172     15175     15177
     15169     15172     15175     15178     15170     15169     15172     15173
     15170     15169     15172     15174     15170     15169     15172     15175
     15171     15169     15172     15173     15171     15169     15172     15174
     15171     15169     15172     15175     15172     15175     15178     15179
     15172     15175     15178     15180     15172     15175     15178     15181
     15173     15172     15175     15176     15173     15172     15175     15177
     15173     15172     15175     15178     15174     15172     15175     15176
     15174     15172     15175     15177     15174     15172     15175     15178
     15175     15178     15181     15182     15175     15178     15181     15183
     15175     15178     15181     15184     15176     15175     15178     15179
     15176     15175     15178     15180     15176     15175     15178     15181
     15177     15175     15178     15179     15177     15175     15178     15180
     15177     15175     15178     15181     15178     15181     15184     15185
     15178     15181     15184     15186     15178     15181     15184     15187
     15179     15178     15181     15182     15179     15178     15181     15183
     15179     15178     15181     15184     15180     15178     15181     15182
     15180     15178     15181     15183     15180     15178     15181     15184
     15181     15184     15187     15188     15181     15184     15187     15189
     15181     15184     15187     15190     15182     15181     15184     15185
     15182     15181     15184     15186     15182     15181     15184     15187
     15183     15181     15184     15185     15183     15181     15184     15186
     15183     15181     15184     15187     15184     15187     15190     15191
     15184     15187     15190     15192     15184     15187     15190     15193
     15185     15184     15187     15188     15185     15184     15187     15189
     15185     15184     15187     15190     15186     15184     15187     15188
     15186     15184     15187     15189     15186     15184     15187     15190
     15187     15190     15193     15194     15187     15190     15193     15195
     15187     15190     15193     15196     15188     15187     15190     15191
     15188     15187     15190     15192     15188     15187     15190     15193
     15189     15187     15190     15191     15189     15187     15190     15192
     15189     15187     15190     15193     15190     15193     15196     15197
     15190     15193     15196     15198     15190     15193     15196     15199
     15191     15190     15193     15194     15191     15190     15193     15195
     15191     15190     15193     15196     15192     15190     15193     15194
     15192     15190     15193     15195     15192     15190     15193     15196
     15193     15196     15199     15200     15193     15196     15199     15201
     15193     15196     15199     15202     15194     15193     15196     15197
     15194     15193     15196     15198     15194     15193     15196     15199
     15195     15193     15196     15197     15195     15193     15196     15198
     15195     15193     15196     15199     15196     15199     15202     15203
     15196     15199     15202     15204     15196     15199     15202     15205
     15197     15196     15199     15200     15197     15196     15199     15201
     15197     15196     15199     15202     15198     15196     15199     15200
     15198     15196     15199     15201     15198     15196     15199     15202
     15199     15202     15205     15206     15199     15202     15205     15207
     15199     15202     15205     15208     15200     15199     15202     15203
     15200     15199     15202     15204     15200     15199     15202     15205
     15201     15199     15202     15203     15201     15199     15202     15204
     15201     15199     15202     15205     15202     15205     15208     15209
     15202     15205     15208     15210     15202     15205     15208     15211
     15203     15202     15205     15206     15203     15202     15205     15207
     15203     15202     15205     15208     15204     15202     15205     15206
     15204     15202     15205     15207     15204     15202     15205     15208
     15205     15208     15211     15212     15205     15208     15211     15213
     15205     15208     15211     15214     15206     15205     15208     15209
     15206     15205     15208     15210     15206     15205     15208     15211
     15207     15205     15208     15209     15207     15205     15208     15210
     15207     15205     15208     15211     15208     15211     15214     15215
     15208     15211     15214     15216     15208     15211     15214     15217
     15209     15208     15211     15212     15209     15208     15211     15213
     15209     15208     15211     15214     15210     15208     15211     15212
     15210     15208     15211     15213     15210     15208     15211     15214
     15212     15211     15214     15215     15212     15211     15214     15216
     15212     15211     15214     15217     15213     15211     15214     15215
     15213     15211     15214     15216     15213     15211     15214     15217
     15218     15222     15225     15226     15218     15222     15225     15227
     15218     15222     15225     15231     15219     15218     15222     15223
     15219     15218     15222     15224     15219     15218     15222     15225
     15220     15218     15222     15223     15220     15218     15222     15224
     15220     15218     15222     15225     15221     15218     15222     15223
     15221     15218     15222     15224     15221     15218     15222     15225
     15222     15225     15231     15228     15223     15222     15225     15226
     15223     15222     15225     15227     15223     15222     15225     15231
     15224     15222     15225     15226     15224     15222     15225     15227
     15224     15222     15225     15231     15225     15231     15228     15229
     15225     15231     15228     15230     15225     15231     15228     15232
     15226     15225     15231     15228     15227     15225     15231     15228
     15228     15232     15233     15234     15228     15232     15233     15235
     15228     15232     15233     15236     15229     15228     15232     15233
     15230     15228     15232     15233     15231     15228     15232     15233
     15232     15233     15236     15237     15232     15233     15236     15238
     15232     15233     15236     15244     15233     15236     15238     15239
     15233     15236     15244     15245     15233     15236     15244     15246
     15233     15236     15244     15247     15234     15233     15236     15237
     15234     15233     15236     15238     15234     15233     15236     15244
     15235     15233     15236     15237     15235     15233     15236     15238
     15235     15233     15236     15244     15236     15238     15239     15240
     15236     15238     15239     15241     15236     15244     15247     15248
     15237     15236     15238     15239     15237     15236     15244     15245
     15237     15236     15244     15246     15237     15236     15244     15247
     15238     15236     15244     15245     15238     15236     15244     15246
     15238     15236     15244     15247     15238     15239     15241     15242
     15238     15239     15241     15243     15238     15239     15241     15253
     15239     15238     15236     15244     15239     15241     15253     15254
     15239     15241     15253     15255     15239     15241     15253     15256
     15240     15239     15241     15242     15240     15239     15241     15243
     15240     15239     15241     15253     15241     15253     15256     15257
     15241     15253     15256     15258     15241     15253     15256     15259
     15242     15241     15253     15254     15242     15241     15253     15255
     15242     15241     15253     15256     15243     15241     15253     15254
     15243     15241     15253     15255     15243     15241     15253     15256
     15244     15247     15248     15249     15244     15247     15248     15250
     15245     15244     15247     15248     15246     15244     15247     15248
     15247     15248     15250     15251     15247     15248     15250     15252
     15247     15248     15250     15300     15248     15250     15300     15301
     15248     15250     15300     15302     15248     15250     15300     15303
     15249     15248     15250     15251     15249     15248     15250     15252
     15249     15248     15250     15300     15250     15300     15303     15304
     15250     15300     15303     15305     15250     15300     15303     15306
     15251     15250     15300     15301     15251     15250     15300     15302
     15251     15250     15300     15303     15252     15250     15300     15301
     15252     15250     15300     15302     15252     15250     15300     15303
     15253     15256     15259     15260     15253     15256     15259     15261
     15254     15253     15256     15257     15254     15253     15256     15258
     15254     15253     15256     15259     15255     15253     15256     15257
     15255     15253     15256     15258     15255     15253     15256     15259
     15256     15259     15261     15262     15256     15259     15261     15263
     15257     15256     15259     15260     15257     15256     15259     15261
     15258     15256     15259     15260     15258     15256     15259     15261
     15259     15261     15263     15264     15259     15261     15263     15265
     15259     15261     15263     15266     15260     15259     15261     15262
     15260     15259     15261     15263     15261     15263     15266     15267
     15261     15263     15266     15268     15262     15261     15263     15264
     15262     15261     15263     15265     15262     15261     15263     15266
     15263     15266     15268     15269     15263     15266     15268     15270
     15264     15263     15266     15267     15264     15263     15266     15268
     15265     15263     15266     15267     15265     15263     15266     15268
     15266     15268     15270     15271     15266     15268     15270     15272
     15266     15268     15270     15273     15267     15266     15268     15269
     15267     15266     15268     15270     15268     15270     15273     15274
     15268     15270     15273     15275     15269     15268     15270     15271
     15269     15268     15270     15272     15269     15268     15270     15273
     15270     15273     15275     15276     15270     15273     15275     15277
     15271     15270     15273     15274     15271     15270     15273     15275
     15272     15270     15273     15274     15272     15270     15273     15275
     15273     15275     15277     15278     15273     15275     15277     15279
     15273     15275     15277     15280     15274     15273     15275     15276
     15274     15273     15275     15277     15275     15277     15280     15281
     15275     15277     15280     15282     15276     15275     15277     15278
     15276     15275     15277     15279     15276     15275     15277     15280
     15277     15280     15282     15283     15277     15280     15282     15284
     15278     15277     15280     15281     15278     15277     15280     15282
     15279     15277     15280     15281     15279     15277     15280     15282
     15280     15282     15284     15285     15280     15282     15284     15286
     15280     15282     15284     15287     15281     15280     15282     15283
     15281     15280     15282     15284     15282     15284     15287     15288
     15282     15284     15287     15289     15282     15284     15287     15290
     15283     15282     15284     15285     15283     15282     15284     15286
     15283     15282     15284     15287     15284     15287     15290     15291
     15284     15287     15290     15292     15284     15287     15290     15293
     15285     15284     15287     15288     15285     15284     15287     15289
     15285     15284     15287     15290     15286     15284     15287     15288
     15286     15284     15287     15289     15286     15284     15287     15290
     15287     15290     15293     15294     15287     15290     15293     15295
     15287     15290     15293     15296     15288     15287     15290     15291
     15288     15287     15290     15292     15288     15287     15290     15293
     15289     15287     15290     15291     15289     15287     15290     15292
     15289     15287     15290     15293     15290     15293     15296     15297
     15290     15293     15296     15298     15290     15293     15296     15299
     15291     15290     15293     15294     15291     15290     15293     15295
     15291     15290     15293     15296     15292     15290     15293     15294
     15292     15290     15293     15295     15292     15290     15293     15296
     15294     15293     15296     15297     15294     15293     15296     15298
     15294     15293     15296     15299     15295     15293     15296     15297
     15295     15293     15296     15298     15295     15293     15296     15299
     15300     15303     15306     15307     15300     15303     15306     15308
     15300     15303     15306     15309     15301     15300     15303     15304
     15301     15300     15303     15305     15301     15300     15303     15306
     15302     15300     15303     15304     15302     15300     15303     15305
     15302     15300     15303     15306     15303     15306     15309     15310
     15303     15306     15309     15311     15303     15306     15309     15312
     15304     15303     15306     15307     15304     15303     15306     15308
     15304     15303     15306     15309     15305     15303     15306     15307
     15305     15303     15306     15308     15305     15303     15306     15309
     15306     15309     15312     15313     15306     15309     15312     15314
     15306     15309     15312     15315     15307     15306     15309     15310
     15307     15306     15309     15311     15307     15306     15309     15312
     15308     15306     15309     15310     15308     15306     15309     15311
     15308     15306     15309     15312     15309     15312     15315     15316
     15309     15312     15315     15317     15309     15312     15315     15318
     15310     15309     15312     15313     15310     15309     15312     15314
     15310     15309     15312     15315     15311     15309     15312     15313
     15311     15309     15312     15314     15311     15309     15312     15315
     15312     15315     15318     15319     15312     15315     15318     15320
     15312     15315     15318     15321     15313     15312     15315     15316
     15313     15312     15315     15317     15313     15312     15315     15318
     15314     15312     15315     15316     15314     15312     15315     15317
     15314     15312     15315     15318     15315     15318     15321     15322
     15315     15318     15321     15323     15315     15318     15321     15324
     15316     15315     15318     15319     15316     15315     15318     15320
     15316     15315     15318     15321     15317     15315     15318     15319
     15317     15315     15318     15320     15317     15315     15318     15321
     15318     15321     15324     15325     15318     15321     15324     15326
     15318     15321     15324     15327     15319     15318     15321     15322
     15319     15318     15321     15323     15319     15318     15321     15324
     15320     15318     15321     15322     15320     15318     15321     15323
     15320     15318     15321     15324     15321     15324     15327     15328
     15321     15324     15327     15329     15321     15324     15327     15330
     15322     15321     15324     15325     15322     15321     15324     15326
     15322     15321     15324     15327     15323     15321     15324     15325
     15323     15321     15324     15326     15323     15321     15324     15327
     15324     15327     15330     15331     15324     15327     15330     15332
     15324     15327     15330     15333     15325     15324     15327     15328
     15325     15324     15327     15329     15325     15324     15327     15330
     15326     15324     15327     15328     15326     15324     15327     15329
     15326     15324     15327     15330     15327     15330     15333     15334
     15327     15330     15333     15335     15327     15330     15333     15336
     15328     15327     15330     15331     15328     15327     15330     15332
     15328     15327     15330     15333     15329     15327     15330     15331
     15329     15327     15330     15332     15329     15327     15330     15333
     15330     15333     15336     15337     15330     15333     15336     15338
     15330     15333     15336     15339     15331     15330     15333     15334
     15331     15330     15333     15335     15331     15330     15333     15336
     15332     15330     15333     15334     15332     15330     15333     15335
     15332     15330     15333     15336     15333     15336     15339     15340
     15333     15336     15339     15341     15333     15336     15339     15342
     15334     15333     15336     15337     15334     15333     15336     15338
     15334     15333     15336     15339     15335     15333     15336     15337
     15335     15333     15336     15338     15335     15333     15336     15339
     15336     15339     15342     15343     15336     15339     15342     15344
     15336     15339     15342     15345     15337     15336     15339     15340
     15337     15336     15339     15341     15337     15336     15339     15342
     15338     15336     15339     15340     15338     15336     15339     15341
     15338     15336     15339     15342     15339     15342     15345     15346
     15339     15342     15345     15347     15339     15342     15345     15348
     15340     15339     15342     15343     15340     15339     15342     15344
     15340     15339     15342     15345     15341     15339     15342     15343
     15341     15339     15342     15344     15341     15339     15342     15345
     15343     15342     15345     15346     15343     15342     15345     15347
     15343     15342     15345     15348     15344     15342     15345     15346
     15344     15342     15345     15347     15344     15342     15345     15348
     10764     10777     10780     10781     10764     10777     10780     10782
     10764     10777     10780     10787     10765     10764     10769     10770
     10765     10764     10769     10771     10765     10764     10769     10772
     10765     10764     10773     10774     10765     10764     10773     10775
     10765     10764     10773     10776     10765     10764     10777     10778
     10765     10764     10777     10779     10765     10764     10777     10780
     10766     10765     10764     10769     10766     10765     10764     10773
     10766     10765     10764     10777     10767     10765     10764     10769
     10767     10765     10764     10773     10767     10765     10764     10777
     10768     10765     10764     10769     10768     10765     10764     10773
     10768     10765     10764     10777     10769     10764     10773     10774
     10769     10764     10773     10775     10769     10764     10773     10776
     10769     10764     10777     10778     10769     10764     10777     10779
     10769     10764     10777     10780     10770     10769     10764     10773
     10770     10769     10764     10777     10771     10769     10764     10773
     10771     10769     10764     10777     10772     10769     10764     10773
     10772     10769     10764     10777     10773     10764     10777     10778
     10773     10764     10777     10779     10773     10764     10777     10780
     10774     10773     10764     10777     10775     10773     10764     10777
     10776     10773     10764     10777     10777     10780     10787     10783
     10778     10777     10780     10781     10778     10777     10780     10782
     10778     10777     10780     10787     10779     10777     10780     10781
     10779     10777     10780     10782     10779     10777     10780     10787
     10780     10787     10783     10784     10780     10787     10783     10785
     10780     10787     10783     10786     10781     10780     10787     10783
     10782     10780     10787     10783     10783     10786     10788     10789
     10783     10786     10788     10790     10783     10786     10788     10793
     10784     10783     10786     10788     10785     10783     10786     10788
     10786     10788     10793     10791     10786     10788     10793     10794
     10786     10788     10793     10795     10787     10783     10786     10788
     10788     10793     10791     10792     10788     10793     10791     10843
     10788     10793     10795     10796     10788     10793     10795     10797
     10788     10793     10795     10799     10789     10788     10793     10791
     10789     10788     10793     10794     10789     10788     10793     10795
     10790     10788     10793     10791     10790     10788     10793     10794
     10790     10788     10793     10795     10791     10793     10795     10796
     10791     10793     10795     10797     10791     10793     10795     10799
     10791     10843     10845     10846     10791     10843     10845     10847
     10791     10843     10845     10848     10792     10791     10793     10794
     10792     10791     10793     10795     10792     10791     10843     10844
     10792     10791     10843     10845     10793     10791     10843     10844
     10793     10791     10843     10845     10793     10795     10797     10798
     10793     10795     10799     10800     10793     10795     10799     10801
     10794     10793     10791     10843     10794     10793     10795     10796
     10794     10793     10795     10797     10794     10793     10795     10799
     10795     10793     10791     10843     10795     10799     10801     10802
     10795     10799     10801     10803     10796     10795     10797     10798
     10796     10795     10799     10800     10796     10795     10799     10801
     10797     10795     10799     10800     10797     10795     10799     10801
     10798     10797     10795     10799     10799     10801     10803     10804
     10799     10801     10803     10805     10799     10801     10803     10806
     10800     10799     10801     10802     10800     10799     10801     10803
     10801     10803     10806     10807     10801     10803     10806     10808
     10801     10803     10806     10809     10802     10801     10803     10804
     10802     10801     10803     10805     10802     10801     10803     10806
     10803     10806     10809     10810     10803     10806     10809     10811
     10803     10806     10809     10812     10804     10803     10806     10807
     10804     10803     10806     10808     10804     10803     10806     10809
     10805     10803     10806     10807     10805     10803     10806     10808
     10805     10803     10806     10809     10806     10809     10812     10813
     10806     10809     10812     10814     10806     10809     10812     10815
     10807     10806     10809     10810     10807     10806     10809     10811
     10807     10806     10809     10812     10808     10806     10809     10810
     10808     10806     10809     10811     10808     10806     10809     10812
     10809     10812     10815     10816     10809     10812     10815     10817
     10809     10812     10815     10818     10810     10809     10812     10813
     10810     10809     10812     10814     10810     10809     10812     10815
     10811     10809     10812     10813     10811     10809     10812     10814
     10811     10809     10812     10815     10812     10815     10818     10819
     10812     10815     10818     10820     10812     10815     10818     10821
     10813     10812     10815     10816     10813     10812     10815     10817
     10813     10812     10815     10818     10814     10812     10815     10816
     10814     10812     10815     10817     10814     10812     10815     10818
     10815     10818     10821     10822     10815     10818     10821     10823
     10815     10818     10821     10824     10816     10815     10818     10819
     10816     10815     10818     10820     10816     10815     10818     10821
     10817     10815     10818     10819     10817     10815     10818     10820
     10817     10815     10818     10821     10818     10821     10824     10825
     10818     10821     10824     10826     10818     10821     10824     10827
     10819     10818     10821     10822     10819     10818     10821     10823
     10819     10818     10821     10824     10820     10818     10821     10822
     10820     10818     10821     10823     10820     10818     10821     10824
     10821     10824     10827     10828     10821     10824     10827     10829
     10821     10824     10827     10830     10822     10821     10824     10825
     10822     10821     10824     10826     10822     10821     10824     10827
     10823     10821     10824     10825     10823     10821     10824     10826
     10823     10821     10824     10827     10824     10827     10830     10831
     10824     10827     10830     10832     10824     10827     10830     10833
     10825     10824     10827     10828     10825     10824     10827     10829
     10825     10824     10827     10830     10826     10824     10827     10828
     10826     10824     10827     10829     10826     10824     10827     10830
     10827     10830     10833     10834     10827     10830     10833     10835
     10827     10830     10833     10836     10828     10827     10830     10831
     10828     10827     10830     10832     10828     10827     10830     10833
     10829     10827     10830     10831     10829     10827     10830     10832
     10829     10827     10830     10833     10830     10833     10836     10837
     10830     10833     10836     10838     10830     10833     10836     10839
     10831     10830     10833     10834     10831     10830     10833     10835
     10831     10830     10833     10836     10832     10830     10833     10834
     10832     10830     10833     10835     10832     10830     10833     10836
     10833     10836     10839     10840     10833     10836     10839     10841
     10833     10836     10839     10842     10834     10833     10836     10837
     10834     10833     10836     10838     10834     10833     10836     10839
     10835     10833     10836     10837     10835     10833     10836     10838
     10835     10833     10836     10839     10837     10836     10839     10840
     10837     10836     10839     10841     10837     10836     10839     10842
     10838     10836     10839     10840     10838     10836     10839     10841
     10838     10836     10839     10842     10843     10845     10848     10849
     10843     10845     10848     10850     10843     10845     10848     10851
     10844     10843     10845     10846     10844     10843     10845     10847
     10844     10843     10845     10848     10845     10848     10851     10852
     10845     10848     10851     10853     10845     10848     10851     10854
     10846     10845     10848     10849     10846     10845     10848     10850
     10846     10845     10848     10851     10847     10845     10848     10849
     10847     10845     10848     10850     10847     10845     10848     10851
     10848     10851     10854     10855     10848     10851     10854     10856
     10848     10851     10854     10857     10849     10848     10851     10852
     10849     10848     10851     10853     10849     10848     10851     10854
     10850     10848     10851     10852     10850     10848     10851     10853
     10850     10848     10851     10854     10851     10854     10857     10858
     10851     10854     10857     10859     10851     10854     10857     10860
     10852     10851     10854     10855     10852     10851     10854     10856
     10852     10851     10854     10857     10853     10851     10854     10855
     10853     10851     10854     10856     10853     10851     10854     10857
     10854     10857     10860     10861     10854     10857     10860     10862
     10854     10857     10860     10863     10855     10854     10857     10858
     10855     10854     10857     10859     10855     10854     10857     10860
     10856     10854     10857     10858     10856     10854     10857     10859
     10856     10854     10857     10860     10857     10860     10863     10864
     10857     10860     10863     10865     10857     10860     10863     10866
     10858     10857     10860     10861     10858     10857     10860     10862
     10858     10857     10860     10863     10859     10857     10860     10861
     10859     10857     10860     10862     10859     10857     10860     10863
     10860     10863     10866     10867     10860     10863     10866     10868
     10861     10860     10863     10864     10861     10860     10863     10865
     10861     10860     10863     10866     10862     10860     10863     10864
     10862     10860     10863     10865     10862     10860     10863     10866
     10863     10866     10868     10869     10863     10866     10868     10870
     10864     10863     10866     10867     10864     10863     10866     10868
     10865     10863     10866     10867     10865     10863     10866     10868
     10866     10868     10870     10871     10866     10868     10870     10872
     10866     10868     10870     10873     10867     10866     10868     10869
     10867     10866     10868     10870     10868     10870     10873     10874
     10868     10870     10873     10875     10868     10870     10873     10876
     10869     10868     10870     10871     10869     10868     10870     10872
     10869     10868     10870     10873     10870     10873     10876     10877
     10870     10873     10876     10878     10870     10873     10876     10879
     10871     10870     10873     10874     10871     10870     10873     10875
     10871     10870     10873     10876     10872     10870     10873     10874
     10872     10870     10873     10875     10872     10870     10873     10876
     10873     10876     10879     10880     10873     10876     10879     10881
     10873     10876     10879     10882     10874     10873     10876     10877
     10874     10873     10876     10878     10874     10873     10876     10879
     10875     10873     10876     10877     10875     10873     10876     10878
     10875     10873     10876     10879     10876     10879     10882     10883
     10876     10879     10882     10884     10876     10879     10882     10885
     10877     10876     10879     10880     10877     10876     10879     10881
     10877     10876     10879     10882     10878     10876     10879     10880
     10878     10876     10879     10881     10878     10876     10879     10882
     10879     10882     10885     10886     10879     10882     10885     10887
     10879     10882     10885     10888     10880     10879     10882     10883
     10880     10879     10882     10884     10880     10879     10882     10885
     10881     10879     10882     10883     10881     10879     10882     10884
     10881     10879     10882     10885     10882     10885     10888     10889
     10882     10885     10888     10890     10882     10885     10888     10891
     10883     10882     10885     10886     10883     10882     10885     10887
     10883     10882     10885     10888     10884     10882     10885     10886
     10884     10882     10885     10887     10884     10882     10885     10888
     10885     10888     10891     10892     10885     10888     10891     10893
     10885     10888     10891     10894     10886     10885     10888     10889
     10886     10885     10888     10890     10886     10885     10888     10891
     10887     10885     10888     10889     10887     10885     10888     10890
     10887     10885     10888     10891     10889     10888     10891     10892
     10889     10888     10891     10893     10889     10888     10891     10894
     10890     10888     10891     10892     10890     10888     10891     10893
     10890     10888     10891     10894     20665     20678     20681     20682
     20665     20678     20681     20683     20665     20678     20681     20687
     20666     20665     20670     20671     20666     20665     20670     20672
     20666     20665     20670     20673     20666     20665     20674     20675
     20666     20665     20674     20676     20666     20665     20674     20677
     20666     20665     20678     20679     20666     20665     20678     20680
     20666     20665     20678     20681     20667     20666     20665     20670
     20667     20666     20665     20674     20667     20666     20665     20678
     20668     20666     20665     20670     20668     20666     20665     20674
     20668     20666     20665     20678     20669     20666     20665     20670
     20669     20666     20665     20674     20669     20666     20665     20678
     20670     20665     20674     20675     20670     20665     20674     20676
     20670     20665     20674     20677     20670     20665     20678     20679
     20670     20665     20678     20680     20670     20665     20678     20681
     20671     20670     20665     20674     20671     20670     20665     20678
     20672     20670     20665     20674     20672     20670     20665     20678
     20673     20670     20665     20674     20673     20670     20665     20678
     20674     20665     20678     20679     20674     20665     20678     20680
     20674     20665     20678     20681     20675     20674     20665     20678
     20676     20674     20665     20678     20677     20674     20665     20678
     20678     20681     20687     20684     20679     20678     20681     20682
     20679     20678     20681     20683     20679     20678     20681     20687
     20680     20678     20681     20682     20680     20678     20681     20683
     20680     20678     20681     20687     20681     20687     20684     20685
     20681     20687     20684     20686     20681     20687     20684     20688
     20682     20681     20687     20684     20683     20681     20687     20684
     20684     20688     20689     20690     20684     20688     20689     20691
     20684     20688     20689     20692     20685     20684     20688     20689
     20686     20684     20688     20689     20687     20684     20688     20689
     20688     20689     20692     20693     20688     20689     20692     20694
     20688     20689     20692     20700     20689     20692     20694     20695
     20689     20692     20700     20701     20689     20692     20700     20702
     20689     20692     20700     20703     20690     20689     20692     20693
     20690     20689     20692     20694     20690     20689     20692     20700
     20691     20689     20692     20693     20691     20689     20692     20694
     20691     20689     20692     20700     20692     20694     20695     20696
     20692     20694     20695     20697     20692     20700     20703     20704
     20693     20692     20694     20695     20693     20692     20700     20701
     20693     20692     20700     20702     20693     20692     20700     20703
     20694     20692     20700     20701     20694     20692     20700     20702
     20694     20692     20700     20703     20694     20695     20697     20698
     20694     20695     20697     20699     20694     20695     20697     20709
     20695     20694     20692     20700     20695     20697     20709     20710
     20695     20697     20709     20711     20695     20697     20709     20712
     20696     20695     20697     20698     20696     20695     20697     20699
     20696     20695     20697     20709     20697     20709     20712     20713
     20697     20709     20712     20714     20697     20709     20712     20715
     20698     20697     20709     20710     20698     20697     20709     20711
     20698     20697     20709     20712     20699     20697     20709     20710
     20699     20697     20709     20711     20699     20697     20709     20712
     20700     20703     20704     20705     20700     20703     20704     20706
     20701     20700     20703     20704     20702     20700     20703     20704
     20703     20704     20706     20707     20703     20704     20706     20708
     20703     20704     20706     20754     20704     20706     20754     20755
     20704     20706     20754     20756     20704     20706     20754     20757
     20705     20704     20706     20707     20705     20704     20706     20708
     20705     20704     20706     20754     20706     20754     20757     20758
     20706     20754     20757     20759     20706     20754     20757     20760
     20707     20706     20754     20755     20707     20706     20754     20756
     20707     20706     20754     20757     20708     20706     20754     20755
     20708     20706     20754     20756     20708     20706     20754     20757
     20709     20712     20715     20716     20709     20712     20715     20717
     20709     20712     20715     20718     20710     20709     20712     20713
     20710     20709     20712     20714     20710     20709     20712     20715
     20711     20709     20712     20713     20711     20709     20712     20714
     20711     20709     20712     20715     20712     20715     20718     20719
     20712     20715     20718     20720     20712     20715     20718     20721
     20713     20712     20715     20716     20713     20712     20715     20717
     20713     20712     20715     20718     20714     20712     20715     20716
     20714     20712     20715     20717     20714     20712     20715     20718
     20715     20718     20721     20722     20715     20718     20721     20723
     20715     20718     20721     20724     20716     20715     20718     20719
     20716     20715     20718     20720     20716     20715     20718     20721
     20717     20715     20718     20719     20717     20715     20718     20720
     20717     20715     20718     20721     20718     20721     20724     20725
     20718     20721     20724     20726     20718     20721     20724     20727
     20719     20718     20721     20722     20719     20718     20721     20723
     20719     20718     20721     20724     20720     20718     20721     20722
     20720     20718     20721     20723     20720     20718     20721     20724
     20721     20724     20727     20728     20721     20724     20727     20729
     20722     20721     20724     20725     20722     20721     20724     20726
     20722     20721     20724     20727     20723     20721     20724     20725
     20723     20721     20724     20726     20723     20721     20724     20727
     20724     20727     20729     20730     20724     20727     20729     20731
     20725     20724     20727     20728     20725     20724     20727     20729
     20726     20724     20727     20728     20726     20724     20727     20729
     20727     20729     20731     20732     20727     20729     20731     20733
     20727     20729     20731     20734     20728     20727     20729     20730
     20728     20727     20729     20731     20729     20731     20734     20735
     20729     20731     20734     20736     20730     20729     20731     20732
     20730     20729     20731     20733     20730     20729     20731     20734
     20731     20734     20736     20737     20731     20734     20736     20738
     20732     20731     20734     20735     20732     20731     20734     20736
     20733     20731     20734     20735     20733     20731     20734     20736
     20734     20736     20738     20739     20734     20736     20738     20740
     20734     20736     20738     20741     20735     20734     20736     20737
     20735     20734     20736     20738     20736     20738     20741     20742
     20736     20738     20741     20743     20736     20738     20741     20744
     20737     20736     20738     20739     20737     20736     20738     20740
     20737     20736     20738     20741     20738     20741     20744     20745
     20738     20741     20744     20746     20738     20741     20744     20747
     20739     20738     20741     20742     20739     20738     20741     20743
     20739     20738     20741     20744     20740     20738     20741     20742
     20740     20738     20741     20743     20740     20738     20741     20744
     20741     20744     20747     20748     20741     20744     20747     20749
     20741     20744     20747     20750     20742     20741     20744     20745
     20742     20741     20744     20746     20742     20741     20744     20747
     20743     20741     20744     20745     20743     20741     20744     20746
     20743     20741     20744     20747     20744     20747     20750     20751
     20744     20747     20750     20752     20744     20747     20750     20753
     20745     20744     20747     20748     20745     20744     20747     20749
     20745     20744     20747     20750     20746     20744     20747     20748
     20746     20744     20747     20749     20746     20744     20747     20750
     20748     20747     20750     20751     20748     20747     20750     20752
     20748     20747     20750     20753     20749     20747     20750     20751
     20749     20747     20750     20752     20749     20747     20750     20753
     20754     20757     20760     20761     20754     20757     20760     20762
     20754     20757     20760     20763     20755     20754     20757     20758
     20755     20754     20757     20759     20755     20754     20757     20760
     20756     20754     20757     20758     20756     20754     20757     20759
     20756     20754     20757     20760     20757     20760     20763     20764
     20757     20760     20763     20765     20757     20760     20763     20766
     20758     20757     20760     20761     20758     20757     20760     20762
     20758     20757     20760     20763     20759     20757     20760     20761
     20759     20757     20760     20762     20759     20757     20760     20763
     20760     20763     20766     20767     20760     20763     20766     20768
     20760     20763     20766     20769     20761     20760     20763     20764
     20761     20760     20763     20765     20761     20760     20763     20766
     20762     20760     20763     20764     20762     20760     20763     20765
     20762     20760     20763     20766     20763     20766     20769     20770
     20763     20766     20769     20771     20763     20766     20769     20772
     20764     20763     20766     20767     20764     20763     20766     20768
     20764     20763     20766     20769     20765     20763     20766     20767
     20765     20763     20766     20768     20765     20763     20766     20769
     20766     20769     20772     20773     20766     20769     20772     20774
     20766     20769     20772     20775     20767     20766     20769     20770
     20767     20766     20769     20771     20767     20766     20769     20772
     20768     20766     20769     20770     20768     20766     20769     20771
     20768     20766     20769     20772     20769     20772     20775     20776
     20769     20772     20775     20777     20769     20772     20775     20778
     20770     20769     20772     20773     20770     20769     20772     20774
     20770     20769     20772     20775     20771     20769     20772     20773
     20771     20769     20772     20774     20771     20769     20772     20775
     20772     20775     20778     20779     20772     20775     20778     20780
     20772     20775     20778     20781     20773     20772     20775     20776
     20773     20772     20775     20777     20773     20772     20775     20778
     20774     20772     20775     20776     20774     20772     20775     20777
     20774     20772     20775     20778     20775     20778     20781     20782
     20775     20778     20781     20783     20775     20778     20781     20784
     20776     20775     20778     20779     20776     20775     20778     20780
     20776     20775     20778     20781     20777     20775     20778     20779
     20777     20775     20778     20780     20777     20775     20778     20781
     20778     20781     20784     20785     20778     20781     20784     20786
     20778     20781     20784     20787     20779     20778     20781     20782
     20779     20778     20781     20783     20779     20778     20781     20784
     20780     20778     20781     20782     20780     20778     20781     20783
     20780     20778     20781     20784     20781     20784     20787     20788
     20781     20784     20787     20789     20781     20784     20787     20790
     20782     20781     20784     20785     20782     20781     20784     20786
     20782     20781     20784     20787     20783     20781     20784     20785
     20783     20781     20784     20786     20783     20781     20784     20787
     20784     20787     20790     20791     20784     20787     20790     20792
     20784     20787     20790     20793     20785     20784     20787     20788
     20785     20784     20787     20789     20785     20784     20787     20790
     20786     20784     20787     20788     20786     20784     20787     20789
     20786     20784     20787     20790     20787     20790     20793     20794
     20787     20790     20793     20795     20787     20790     20793     20796
     20788     20787     20790     20791     20788     20787     20790     20792
     20788     20787     20790     20793     20789     20787     20790     20791
     20789     20787     20790     20792     20789     20787     20790     20793
     20790     20793     20796     20797     20790     20793     20796     20798
     20790     20793     20796     20799     20791     20790     20793     20794
     20791     20790     20793     20795     20791     20790     20793     20796
     20792     20790     20793     20794     20792     20790     20793     20795
     20792     20790     20793     20796     20793     20796     20799     20800
     20793     20796     20799     20801     20793     20796     20799     20802
     20794     20793     20796     20797     20794     20793     20796     20798
     20794     20793     20796     20799     20795     20793     20796     20797
     20795     20793     20796     20798     20795     20793     20796     20799
     20797     20796     20799     20800     20797     20796     20799     20801
     20797     20796     20799     20802     20798     20796     20799     20800
     20798     20796     20799     20801     20798     20796     20799     20802
      2409      2410      2425      2426      2409      2410      2425      2427
      2409      2410      2425      2431      2410      2409      2413      2414
      2410      2409      2413      2415      2410      2409      2413      2416
      2410      2409      2417      2418      2410      2409      2417      2419
      2410      2409      2417      2420      2410      2409      2421      2422
      2410      2409      2421      2423      2410      2409      2421      2424
      2410      2425      2431      2428      2411      2410      2409      2413
      2411      2410      2409      2417      2411      2410      2409      2421
      2411      2410      2425      2426      2411      2410      2425      2427
      2411      2410      2425      2431      2412      2410      2409      2413
      2412      2410      2409      2417      2412      2410      2409      2421
      2412      2410      2425      2426      2412      2410      2425      2427
      2412      2410      2425      2431      2413      2409      2410      2425
      2413      2409      2417      2418      2413      2409      2417      2419
      2413      2409      2417      2420      2413      2409      2421      2422
      2413      2409      2421      2423      2413      2409      2421      2424
      2414      2413      2409      2417      2414      2413      2409      2421
      2415      2413      2409      2417      2415      2413      2409      2421
      2416      2413      2409      2417      2416      2413      2409      2421
      2417      2409      2410      2425      2417      2409      2421      2422
      2417      2409      2421      2423      2417      2409      2421      2424
      2418      2417      2409      2421      2419      2417      2409      2421
      2420      2417      2409      2421      2421      2409      2410      2425
      2425      2431      2428      2429      2425      2431      2428      2430
      2425      2431      2428      2432      2426      2425      2431      2428
      2427      2425      2431      2428      2428      2432      2433      2434
      2428      2432      2433      2435      2428      2432      2433      2436
      2429      2428      2432      2433      2430      2428      2432      2433
      2431      2428      2432      2433      2432      2433      2436      2437
      2432      2433      2436      2438      2432      2433      2436      2444
      2433      2436      2438      2439      2433      2436      2444      2445
      2433      2436      2444      2446      2433      2436      2444      2447
      2434      2433      2436      2437      2434      2433      2436      2438
      2434      2433      2436      2444      2435      2433      2436      2437
      2435      2433      2436      2438      2435      2433      2436      2444
      2436      2438      2439      2440      2436      2438      2439      2441
      2436      2444      2447      2448      2437      2436      2438      2439
      2437      2436      2444      2445      2437      2436      2444      2446
      2437      2436      2444      2447      2438      2436      2444      2445
      2438      2436      2444      2446      2438      2436      2444      2447
      2438      2439      2441      2442      2438      2439      2441      2443
      2438      2439      2441      2453      2439      2438      2436      2444
      2439      2441      2453      2454      2439      2441      2453      2455
      2439      2441      2453      2456      2440      2439      2441      2442
      2440      2439      2441      2443      2440      2439      2441      2453
      2441      2453      2456      2457      2441      2453      2456      2458
      2441      2453      2456      2459      2442      2441      2453      2454
      2442      2441      2453      2455      2442      2441      2453      2456
      2443      2441      2453      2454      2443      2441      2453      2455
      2443      2441      2453      2456      2444      2447      2448      2449
      2444      2447      2448      2450      2445      2444      2447      2448
      2446      2444      2447      2448      2447      2448      2450      2451
      2447      2448      2450      2452      2447      2448      2450      2500
      2448      2450      2500      2501      2448      2450      2500      2502
      2448      2450      2500      2503      2449      2448      2450      2451
      2449      2448      2450      2452      2449      2448      2450      2500
      2450      2500      2503      2504      2450      2500      2503      2505
      2450      2500      2503      2506      2451      2450      2500      2501
      2451      2450      2500      2502      2451      2450      2500      2503
      2452      2450      2500      2501      2452      2450      2500      2502
      2452      2450      2500      2503      2453      2456      2459      2460
      2453      2456      2459      2461      2454      2453      2456      2457
      2454      2453      2456      2458      2454      2453      2456      2459
      2455      2453      2456      2457      2455      2453      2456      2458
      2455      2453      2456      2459      2456      2459      2461      2462
      2456      2459      2461      2463      2457      2456      2459      2460
      2457      2456      2459      2461      2458      2456      2459      2460
      2458      2456      2459      2461      2459      2461      2463      2464
      2459      2461      2463      2465      2459      2461      2463      2466
      2460      2459      2461      2462      2460      2459      2461      2463
      2461      2463      2466      2467      2461      2463      2466      2468
      2462      2461      2463      2464      2462      2461      2463      2465
      2462      2461      2463      2466      2463      2466      2468      2469
      2463      2466      2468      2470      2464      2463      2466      2467
      2464      2463      2466      2468      2465      2463      2466      2467
      2465      2463      2466      2468      2466      2468      2470      2471
      2466      2468      2470      2472      2466      2468      2470      2473
      2467      2466      2468      2469      2467      2466      2468      2470
      2468      2470      2473      2474      2468      2470      2473      2475
      2469      2468      2470      2471      2469      2468      2470      2472
      2469      2468      2470      2473      2470      2473      2475      2476
      2470      2473      2475      2477      2471      2470      2473      2474
      2471      2470      2473      2475      2472      2470      2473      2474
      2472      2470      2473      2475      2473      2475      2477      2478
      2473      2475      2477      2479      2473      2475      2477      2480
      2474      2473      2475      2476      2474      2473      2475      2477
      2475      2477      2480      2481      2475      2477      2480      2482
      2476      2475      2477      2478      2476      2475      2477      2479
      2476      2475      2477      2480      2477      2480      2482      2483
      2477      2480      2482      2484      2478      2477      2480      2481
      2478      2477      2480      2482      2479      2477      2480      2481
      2479      2477      2480      2482      2480      2482      2484      2485
      2480      2482      2484      2486      2480      2482      2484      2487
      2481      2480      2482      2483      2481      2480      2482      2484
      2482      2484      2487      2488      2482      2484      2487      2489
      2482      2484      2487      2490      2483      2482      2484      2485
      2483      2482      2484      2486      2483      2482      2484      2487
      2484      2487      2490      2491      2484      2487      2490      2492
      2484      2487      2490      2493      2485      2484      2487      2488
      2485      2484      2487      2489      2485      2484      2487      2490
      2486      2484      2487      2488      2486      2484      2487      2489
      2486      2484      2487      2490      2487      2490      2493      2494
      2487      2490      2493      2495      2487      2490      2493      2496
      2488      2487      2490      2491      2488      2487      2490      2492
      2488      2487      2490      2493      2489      2487      2490      2491
      2489      2487      2490      2492      2489      2487      2490      2493
      2490      2493      2496      2497      2490      2493      2496      2498
      2490      2493      2496      2499      2491      2490      2493      2494
      2491      2490      2493      2495      2491      2490      2493      2496
      2492      2490      2493      2494      2492      2490      2493      2495
      2492      2490      2493      2496      2494      2493      2496      2497
      2494      2493      2496      2498      2494      2493      2496      2499
      2495      2493      2496      2497      2495      2493      2496      2498
      2495      2493      2496      2499      2500      2503      2506      2507
      2500      2503      2506      2508      2500      2503      2506      2509
      2501      2500      2503      2504      2501      2500      2503      2505
      2501      2500      2503      2506      2502      2500      2503      2504
      2502      2500      2503      2505      2502      2500      2503      2506
      2503      2506      2509      2510      2503      2506      2509      2511
      2503      2506      2509      2512      2504      2503      2506      2507
      2504      2503      2506      2508      2504      2503      2506      2509
      2505      2503      2506      2507      2505      2503      2506      2508
      2505      2503      2506      2509      2506      2509      2512      2513
      2506      2509      2512      2514      2506      2509      2512      2515
      2507      2506      2509      2510      2507      2506      2509      2511
      2507      2506      2509      2512      2508      2506      2509      2510
      2508      2506      2509      2511      2508      2506      2509      2512
      2509      2512      2515      2516      2509      2512      2515      2517
      2509      2512      2515      2518      2510      2509      2512      2513
      2510      2509      2512      2514      2510      2509      2512      2515
      2511      2509      2512      2513      2511      2509      2512      2514
      2511      2509      2512      2515      2512      2515      2518      2519
      2512      2515      2518      2520      2512      2515      2518      2521
      2513      2512      2515      2516      2513      2512      2515      2517
      2513      2512      2515      2518      2514      2512      2515      2516
      2514      2512      2515      2517      2514      2512      2515      2518
      2515      2518      2521      2522      2515      2518      2521      2523
      2515      2518      2521      2524      2516      2515      2518      2519
      2516      2515      2518      2520      2516      2515      2518      2521
      2517      2515      2518      2519      2517      2515      2518      2520
      2517      2515      2518      2521      2518      2521      2524      2525
      2518      2521      2524      2526      2518      2521      2524      2527
      2519      2518      2521      2522      2519      2518      2521      2523
      2519      2518      2521      2524      2520      2518      2521      2522
      2520      2518      2521      2523      2520      2518      2521      2524
      2521      2524      2527      2528      2521      2524      2527      2529
      2521      2524      2527      2530      2522      2521      2524      2525
      2522      2521      2524      2526      2522      2521      2524      2527
      2523      2521      2524      2525      2523      2521      2524      2526
      2523      2521      2524      2527      2524      2527      2530      2531
      2524      2527      2530      2532      2524      2527      2530      2533
      2525      2524      2527      2528      2525      2524      2527      2529
      2525      2524      2527      2530      2526      2524      2527      2528
      2526      2524      2527      2529      2526      2524      2527      2530
      2527      2530      2533      2534      2527      2530      2533      2535
      2527      2530      2533      2536      2528      2527      2530      2531
      2528      2527      2530      2532      2528      2527      2530      2533
      2529      2527      2530      2531      2529      2527      2530      2532
      2529      2527      2530      2533      2530      2533      2536      2537
      2530      2533      2536      2538      2530      2533      2536      2539
      2531      2530      2533      2534      2531      2530      2533      2535
      2531      2530      2533      2536      2532      2530      2533      2534
      2532      2530      2533      2535      2532      2530      2533      2536
      2533      2536      2539      2540      2533      2536      2539      2541
      2533      2536      2539      2542      2534      2533      2536      2537
      2534      2533      2536      2538      2534      2533      2536      2539
      2535      2533      2536      2537      2535      2533      2536      2538
      2535      2533      2536      2539      2536      2539      2542      2543
      2536      2539      2542      2544      2536      2539      2542      2545
      2537      2536      2539      2540      2537      2536      2539      2541
      2537      2536      2539      2542      2538      2536      2539      2540
      2538      2536      2539      2541      2538      2536      2539      2542
      2539      2542      2545      2546      2539      2542      2545      2547
      2539      2542      2545      2548      2540      2539      2542      2543
      2540      2539      2542      2544      2540      2539      2542      2545
      2541      2539      2542      2543      2541      2539      2542      2544
      2541      2539      2542      2545      2543      2542      2545      2546
      2543      2542      2545      2547      2543      2542      2545      2548
      2544      2542      2545      2546      2544      2542      2545      2547
      2544      2542      2545      2548     15349     15353     15356     15357
     15349     15353     15356     15358     15349     15353     15356     15362
     15350     15349     15353     15354     15350     15349     15353     15355
     15350     15349     15353     15356     15351     15349     15353     15354
     15351     15349     15353     15355     15351     15349     15353     15356
     15352     15349     15353     15354     15352     15349     15353     15355
     15352     15349     15353     15356     15353     15356     15362     15359
     15354     15353     15356     15357     15354     15353     15356     15358
     15354     15353     15356     15362     15355     15353     15356     15357
     15355     15353     15356     15358     15355     15353     15356     15362
     15356     15362     15359     15360     15356     15362     15359     15361
     15356     15362     15359     15363     15357     15356     15362     15359
     15358     15356     15362     15359     15359     15363     15364     15365
     15359     15363     15364     15366     15359     15363     15364     15367
     15360     15359     15363     15364     15361     15359     15363     15364
     15362     15359     15363     15364     15363     15364     15367     15368
     15363     15364     15367     15369     15363     15364     15367     15375
     15364     15367     15369     15370     15364     15367     15375     15376
     15364     15367     15375     15377     15364     15367     15375     15378
     15365     15364     15367     15368     15365     15364     15367     15369
     15365     15364     15367     15375     15366     15364     15367     15368
     15366     15364     15367     15369     15366     15364     15367     15375
     15367     15369     15370     15371     15367     15369     15370     15372
     15367     15375     15378     15379     15368     15367     15369     15370
     15368     15367     15375     15376     15368     15367     15375     15377
     15368     15367     15375     15378     15369     15367     15375     15376
     15369     15367     15375     15377     15369     15367     15375     15378
     15369     15370     15372     15373     15369     15370     15372     15374
     15369     15370     15372     15384     15370     15369     15367     15375
     15370     15372     15384     15385     15370     15372     15384     15386
     15370     15372     15384     15387     15371     15370     15372     15373
     15371     15370     15372     15374     15371     15370     15372     15384
     15372     15384     15387     15388     15372     15384     15387     15389
     15372     15384     15387     15390     15373     15372     15384     15385
     15373     15372     15384     15386     15373     15372     15384     15387
     15374     15372     15384     15385     15374     15372     15384     15386
     15374     15372     15384     15387     15375     15378     15379     15380
     15375     15378     15379     15381     15376     15375     15378     15379
     15377     15375     15378     15379     15378     15379     15381     15382
     15378     15379     15381     15383     15378     15379     15381     15431
     15379     15381     15431     15432     15379     15381     15431     15433
     15379     15381     15431     15434     15380     15379     15381     15382
     15380     15379     15381     15383     15380     15379     15381     15431
     15381     15431     15434     15435     15381     15431     15434     15436
     15381     15431     15434     15437     15382     15381     15431     15432
     15382     15381     15431     15433     15382     15381     15431     15434
     15383     15381     15431     15432     15383     15381     15431     15433
     15383     15381     15431     15434     15384     15387     15390     15391
     15384     15387     15390     15392     15385     15384     15387     15388
     15385     15384     15387     15389     15385     15384     15387     15390
     15386     15384     15387     15388     15386     15384     15387     15389
     15386     15384     15387     15390     15387     15390     15392     15393
     15387     15390     15392     15394     15388     15387     15390     15391
     15388     15387     15390     15392     15389     15387     15390     15391
     15389     15387     15390     15392     15390     15392     15394     15395
     15390     15392     15394     15396     15390     15392     15394     15397
     15391     15390     15392     15393     15391     15390     15392     15394
     15392     15394     15397     15398     15392     15394     15397     15399
     15393     15392     15394     15395     15393     15392     15394     15396
     15393     15392     15394     15397     15394     15397     15399     15400
     15394     15397     15399     15401     15395     15394     15397     15398
     15395     15394     15397     15399     15396     15394     15397     15398
     15396     15394     15397     15399     15397     15399     15401     15402
     15397     15399     15401     15403     15397     15399     15401     15404
     15398     15397     15399     15400     15398     15397     15399     15401
     15399     15401     15404     15405     15399     15401     15404     15406
     15400     15399     15401     15402     15400     15399     15401     15403
     15400     15399     15401     15404     15401     15404     15406     15407
     15401     15404     15406     15408     15402     15401     15404     15405
     15402     15401     15404     15406     15403     15401     15404     15405
     15403     15401     15404     15406     15404     15406     15408     15409
     15404     15406     15408     15410     15404     15406     15408     15411
     15405     15404     15406     15407     15405     15404     15406     15408
     15406     15408     15411     15412     15406     15408     15411     15413
     15407     15406     15408     15409     15407     15406     15408     15410
     15407     15406     15408     15411     15408     15411     15413     15414
     15408     15411     15413     15415     15409     15408     15411     15412
     15409     15408     15411     15413     15410     15408     15411     15412
     15410     15408     15411     15413     15411     15413     15415     15416
     15411     15413     15415     15417     15411     15413     15415     15418
     15412     15411     15413     15414     15412     15411     15413     15415
     15413     15415     15418     15419     15413     15415     15418     15420
     15413     15415     15418     15421     15414     15413     15415     15416
     15414     15413     15415     15417     15414     15413     15415     15418
     15415     15418     15421     15422     15415     15418     15421     15423
     15415     15418     15421     15424     15416     15415     15418     15419
     15416     15415     15418     15420     15416     15415     15418     15421
     15417     15415     15418     15419     15417     15415     15418     15420
     15417     15415     15418     15421     15418     15421     15424     15425
     15418     15421     15424     15426     15418     15421     15424     15427
     15419     15418     15421     15422     15419     15418     15421     15423
     15419     15418     15421     15424     15420     15418     15421     15422
     15420     15418     15421     15423     15420     15418     15421     15424
     15421     15424     15427     15428     15421     15424     15427     15429
     15421     15424     15427     15430     15422     15421     15424     15425
     15422     15421     15424     15426     15422     15421     15424     15427
     15423     15421     15424     15425     15423     15421     15424     15426
     15423     15421     15424     15427     15425     15424     15427     15428
     15425     15424     15427     15429     15425     15424     15427     15430
     15426     15424     15427     15428     15426     15424     15427     15429
     15426     15424     15427     15430     15431     15434     15437     15438
     15431     15434     15437     15439     15431     15434     15437     15440
     15432     15431     15434     15435     15432     15431     15434     15436
     15432     15431     15434     15437     15433     15431     15434     15435
     15433     15431     15434     15436     15433     15431     15434     15437
     15434     15437     15440     15441     15434     15437     15440     15442
     15434     15437     15440     15443     15435     15434     15437     15438
     15435     15434     15437     15439     15435     15434     15437     15440
     15436     15434     15437     15438     15436     15434     15437     15439
     15436     15434     15437     15440     15437     15440     15443     15444
     15437     15440     15443     15445     15437     15440     15443     15446
     15438     15437     15440     15441     15438     15437     15440     15442
     15438     15437     15440     15443     15439     15437     15440     15441
     15439     15437     15440     15442     15439     15437     15440     15443
     15440     15443     15446     15447     15440     15443     15446     15448
     15440     15443     15446     15449     15441     15440     15443     15444
     15441     15440     15443     15445     15441     15440     15443     15446
     15442     15440     15443     15444     15442     15440     15443     15445
     15442     15440     15443     15446     15443     15446     15449     15450
     15443     15446     15449     15451     15443     15446     15449     15452
     15444     15443     15446     15447     15444     15443     15446     15448
     15444     15443     15446     15449     15445     15443     15446     15447
     15445     15443     15446     15448     15445     15443     15446     15449
     15446     15449     15452     15453     15446     15449     15452     15454
     15446     15449     15452     15455     15447     15446     15449     15450
     15447     15446     15449     15451     15447     15446     15449     15452
     15448     15446     15449     15450     15448     15446     15449     15451
     15448     15446     15449     15452     15449     15452     15455     15456
     15449     15452     15455     15457     15449     15452     15455     15458
     15450     15449     15452     15453     15450     15449     15452     15454
     15450     15449     15452     15455     15451     15449     15452     15453
     15451     15449     15452     15454     15451     15449     15452     15455
     15452     15455     15458     15459     15452     15455     15458     15460
     15452     15455     15458     15461     15453     15452     15455     15456
     15453     15452     15455     15457     15453     15452     15455     15458
     15454     15452     15455     15456     15454     15452     15455     15457
     15454     15452     15455     15458     15455     15458     15461     15462
     15455     15458     15461     15463     15455     15458     15461     15464
     15456     15455     15458     15459     15456     15455     15458     15460
     15456     15455     15458     15461     15457     15455     15458     15459
     15457     15455     15458     15460     15457     15455     15458     15461
     15458     15461     15464     15465     15458     15461     15464     15466
     15458     15461     15464     15467     15459     15458     15461     15462
     15459     15458     15461     15463     15459     15458     15461     15464
     15460     15458     15461     15462     15460     15458     15461     15463
     15460     15458     15461     15464     15461     15464     15467     15468
     15461     15464     15467     15469     15461     15464     15467     15470
     15462     15461     15464     15465     15462     15461     15464     15466
     15462     15461     15464     15467     15463     15461     15464     15465
     15463     15461     15464     15466     15463     15461     15464     15467
     15464     15467     15470     15471     15464     15467     15470     15472
     15464     15467     15470     15473     15465     15464     15467     15468
     15465     15464     15467     15469     15465     15464     15467     15470
     15466     15464     15467     15468     15466     15464     15467     15469
     15466     15464     15467     15470     15467     15470     15473     15474
     15467     15470     15473     15475     15467     15470     15473     15476
     15468     15467     15470     15471     15468     15467     15470     15472
     15468     15467     15470     15473     15469     15467     15470     15471
     15469     15467     15470     15472     15469     15467     15470     15473
     15470     15473     15476     15477     15470     15473     15476     15478
     15470     15473     15476     15479     15471     15470     15473     15474
     15471     15470     15473     15475     15471     15470     15473     15476
     15472     15470     15473     15474     15472     15470     15473     15475
     15472     15470     15473     15476     15474     15473     15476     15477
     15474     15473     15476     15478     15474     15473     15476     15479
     15475     15473     15476     15477     15475     15473     15476     15478
     15475     15473     15476     15479     15480     15484     15487     15488
     15480     15484     15487     15489     15480     15484     15487     15493
     15481     15480     15484     15485     15481     15480     15484     15486
     15481     15480     15484     15487     15482     15480     15484     15485
     15482     15480     15484     15486     15482     15480     15484     15487
     15483     15480     15484     15485     15483     15480     15484     15486
     15483     15480     15484     15487     15484     15487     15493     15490
     15485     15484     15487     15488     15485     15484     15487     15489
     15485     15484     15487     15493     15486     15484     15487     15488
     15486     15484     15487     15489     15486     15484     15487     15493
     15487     15493     15490     15491     15487     15493     15490     15492
     15487     15493     15490     15494     15488     15487     15493     15490
     15489     15487     15493     15490     15490     15494     15495     15496
     15490     15494     15495     15497     15490     15494     15495     15498
     15491     15490     15494     15495     15492     15490     15494     15495
     15493     15490     15494     15495     15494     15495     15498     15499
     15494     15495     15498     15500     15494     15495     15498     15506
     15495     15498     15500     15501     15495     15498     15506     15507
     15495     15498     15506     15508     15495     15498     15506     15509
     15496     15495     15498     15499     15496     15495     15498     15500
     15496     15495     15498     15506     15497     15495     15498     15499
     15497     15495     15498     15500     15497     15495     15498     15506
     15498     15500     15501     15502     15498     15500     15501     15503
     15498     15506     15509     15510     15499     15498     15500     15501
     15499     15498     15506     15507     15499     15498     15506     15508
     15499     15498     15506     15509     15500     15498     15506     15507
     15500     15498     15506     15508     15500     15498     15506     15509
     15500     15501     15503     15504     15500     15501     15503     15505
     15500     15501     15503     15515     15501     15500     15498     15506
     15501     15503     15515     15516     15501     15503     15515     15517
     15501     15503     15515     15518     15502     15501     15503     15504
     15502     15501     15503     15505     15502     15501     15503     15515
     15503     15515     15518     15519     15503     15515     15518     15520
     15503     15515     15518     15521     15504     15503     15515     15516
     15504     15503     15515     15517     15504     15503     15515     15518
     15505     15503     15515     15516     15505     15503     15515     15517
     15505     15503     15515     15518     15506     15509     15510     15511
     15506     15509     15510     15512     15507     15506     15509     15510
     15508     15506     15509     15510     15509     15510     15512     15513
     15509     15510     15512     15514     15509     15510     15512     15562
     15510     15512     15562     15563     15510     15512     15562     15564
     15510     15512     15562     15565     15511     15510     15512     15513
     15511     15510     15512     15514     15511     15510     15512     15562
     15512     15562     15565     15566     15512     15562     15565     15567
     15512     15562     15565     15568     15513     15512     15562     15563
     15513     15512     15562     15564     15513     15512     15562     15565
     15514     15512     15562     15563     15514     15512     15562     15564
     15514     15512     15562     15565     15515     15518     15521     15522
     15515     15518     15521     15523     15516     15515     15518     15519
     15516     15515     15518     15520     15516     15515     15518     15521
     15517     15515     15518     15519     15517     15515     15518     15520
     15517     15515     15518     15521     15518     15521     15523     15524
     15518     15521     15523     15525     15519     15518     15521     15522
     15519     15518     15521     15523     15520     15518     15521     15522
     15520     15518     15521     15523     15521     15523     15525     15526
     15521     15523     15525     15527     15521     15523     15525     15528
     15522     15521     15523     15524     15522     15521     15523     15525
     15523     15525     15528     15529     15523     15525     15528     15530
     15524     15523     15525     15526     15524     15523     15525     15527
     15524     15523     15525     15528     15525     15528     15530     15531
     15525     15528     15530     15532     15526     15525     15528     15529
     15526     15525     15528     15530     15527     15525     15528     15529
     15527     15525     15528     15530     15528     15530     15532     15533
     15528     15530     15532     15534     15528     15530     15532     15535
     15529     15528     15530     15531     15529     15528     15530     15532
     15530     15532     15535     15536     15530     15532     15535     15537
     15531     15530     15532     15533     15531     15530     15532     15534
     15531     15530     15532     15535     15532     15535     15537     15538
     15532     15535     15537     15539     15533     15532     15535     15536
     15533     15532     15535     15537     15534     15532     15535     15536
     15534     15532     15535     15537     15535     15537     15539     15540
     15535     15537     15539     15541     15535     15537     15539     15542
     15536     15535     15537     15538     15536     15535     15537     15539
     15537     15539     15542     15543     15537     15539     15542     15544
     15538     15537     15539     15540     15538     15537     15539     15541
     15538     15537     15539     15542     15539     15542     15544     15545
     15539     15542     15544     15546     15540     15539     15542     15543
     15540     15539     15542     15544     15541     15539     15542     15543
     15541     15539     15542     15544     15542     15544     15546     15547
     15542     15544     15546     15548     15542     15544     15546     15549
     15543     15542     15544     15545     15543     15542     15544     15546
     15544     15546     15549     15550     15544     15546     15549     15551
     15544     15546     15549     15552     15545     15544     15546     15547
     15545     15544     15546     15548     15545     15544     15546     15549
     15546     15549     15552     15553     15546     15549     15552     15554
     15546     15549     15552     15555     15547     15546     15549     15550
     15547     15546     15549     15551     15547     15546     15549     15552
     15548     15546     15549     15550     15548     15546     15549     15551
     15548     15546     15549     15552     15549     15552     15555     15556
     15549     15552     15555     15557     15549     15552     15555     15558
     15550     15549     15552     15553     15550     15549     15552     15554
     15550     15549     15552     15555     15551     15549     15552     15553
     15551     15549     15552     15554     15551     15549     15552     15555
     15552     15555     15558     15559     15552     15555     15558     15560
     15552     15555     15558     15561     15553     15552     15555     15556
     15553     15552     15555     15557     15553     15552     15555     15558
     15554     15552     15555     15556     15554     15552     15555     15557
     15554     15552     15555     15558     15556     15555     15558     15559
     15556     15555     15558     15560     15556     15555     15558     15561
     15557     15555     15558     15559     15557     15555     15558     15560
     15557     15555     15558     15561     15562     15565     15568     15569
     15562     15565     15568     15570     15562     15565     15568     15571
     15563     15562     15565     15566     15563     15562     15565     15567
     15563     15562     15565     15568     15564     15562     15565     15566
     15564     15562     15565     15567     15564     15562     15565     15568
     15565     15568     15571     15572     15565     15568     15571     15573
     15565     15568     15571     15574     15566     15565     15568     15569
     15566     15565     15568     15570     15566     15565     15568     15571
     15567     15565     15568     15569     15567     15565     15568     15570
     15567     15565     15568     15571     15568     15571     15574     15575
     15568     15571     15574     15576     15568     15571     15574     15577
     15569     15568     15571     15572     15569     15568     15571     15573
     15569     15568     15571     15574     15570     15568     15571     15572
     15570     15568     15571     15573     15570     15568     15571     15574
     15571     15574     15577     15578     15571     15574     15577     15579
     15571     15574     15577     15580     15572     15571     15574     15575
     15572     15571     15574     15576     15572     15571     15574     15577
     15573     15571     15574     15575     15573     15571     15574     15576
     15573     15571     15574     15577     15574     15577     15580     15581
     15574     15577     15580     15582     15574     15577     15580     15583
     15575     15574     15577     15578     15575     15574     15577     15579
     15575     15574     15577     15580     15576     15574     15577     15578
     15576     15574     15577     15579     15576     15574     15577     15580
     15577     15580     15583     15584     15577     15580     15583     15585
     15577     15580     15583     15586     15578     15577     15580     15581
     15578     15577     15580     15582     15578     15577     15580     15583
     15579     15577     15580     15581     15579     15577     15580     15582
     15579     15577     15580     15583     15580     15583     15586     15587
     15580     15583     15586     15588     15580     15583     15586     15589
     15581     15580     15583     15584     15581     15580     15583     15585
     15581     15580     15583     15586     15582     15580     15583     15584
     15582     15580     15583     15585     15582     15580     15583     15586
     15583     15586     15589     15590     15583     15586     15589     15591
     15583     15586     15589     15592     15584     15583     15586     15587
     15584     15583     15586     15588     15584     15583     15586     15589
     15585     15583     15586     15587     15585     15583     15586     15588
     15585     15583     15586     15589     15586     15589     15592     15593
     15586     15589     15592     15594     15586     15589     15592     15595
     15587     15586     15589     15590     15587     15586     15589     15591
     15587     15586     15589     15592     15588     15586     15589     15590
     15588     15586     15589     15591     15588     15586     15589     15592
     15589     15592     15595     15596     15589     15592     15595     15597
     15589     15592     15595     15598     15590     15589     15592     15593
     15590     15589     15592     15594     15590     15589     15592     15595
     15591     15589     15592     15593     15591     15589     15592     15594
     15591     15589     15592     15595     15592     15595     15598     15599
     15592     15595     15598     15600     15592     15595     15598     15601
     15593     15592     15595     15596     15593     15592     15595     15597
     15593     15592     15595     15598     15594     15592     15595     15596
     15594     15592     15595     15597     15594     15592     15595     15598
     15595     15598     15601     15602     15595     15598     15601     15603
     15595     15598     15601     15604     15596     15595     15598     15599
     15596     15595     15598     15600     15596     15595     15598     15601
     15597     15595     15598     15599     15597     15595     15598     15600
     15597     15595     15598     15601     15598     15601     15604     15605
     15598     15601     15604     15606     15598     15601     15604     15607
     15599     15598     15601     15602     15599     15598     15601     15603
     15599     15598     15601     15604     15600     15598     15601     15602
     15600     15598     15601     15603     15600     15598     15601     15604
     15601     15604     15607     15608     15601     15604     15607     15609
     15601     15604     15607     15610     15602     15601     15604     15605
     15602     15601     15604     15606     15602     15601     15604     15607
     15603     15601     15604     15605     15603     15601     15604     15606
     15603     15601     15604     15607     15605     15604     15607     15608
     15605     15604     15607     15609     15605     15604     15607     15610
     15606     15604     15607     15608     15606     15604     15607     15609
     15606     15604     15607     15610     10895     10908     10911     10912
     10895     10908     10911     10913     10895     10908     10911     10918
     10896     10895     10900     10901     10896     10895     10900     10902
     10896     10895     10900     10903     10896     10895     10904     10905
     10896     10895     10904     10906     10896     10895     10904     10907
     10896     10895     10908     10909     10896     10895     10908     10910
     10896     10895     10908     10911     10897     10896     10895     10900
     10897     10896     10895     10904     10897     10896     10895     10908
     10898     10896     10895     10900     10898     10896     10895     10904
     10898     10896     10895     10908     10899     10896     10895     10900
     10899     10896     10895     10904     10899     10896     10895     10908
     10900     10895     10904     10905     10900     10895     10904     10906
     10900     10895     10904     10907     10900     10895     10908     10909
     10900     10895     10908     10910     10900     10895     10908     10911
     10901     10900     10895     10904     10901     10900     10895     10908
     10902     10900     10895     10904     10902     10900     10895     10908
     10903     10900     10895     10904     10903     10900     10895     10908
     10904     10895     10908     10909     10904     10895     10908     10910
     10904     10895     10908     10911     10905     10904     10895     10908
     10906     10904     10895     10908     10907     10904     10895     10908
     10908     10911     10918     10914     10909     10908     10911     10912
     10909     10908     10911     10913     10909     10908     10911     10918
     10910     10908     10911     10912     10910     10908     10911     10913
     10910     10908     10911     10918     10911     10918     10914     10915
     10911     10918     10914     10916     10911     10918     10914     10917
     10912     10911     10918     10914     10913     10911     10918     10914
     10914     10917     10919     10920     10914     10917     10919     10921
     10914     10917     10919     10924     10915     10914     10917     10919
     10916     10914     10917     10919     10917     10919     10924     10922
     10917     10919     10924     10925     10917     10919     10924     10926
     10918     10914     10917     10919     10919     10924     10922     10923
     10919     10924     10922     10974     10919     10924     10926     10927
     10919     10924     10926     10928     10919     10924     10926     10930
     10920     10919     10924     10922     10920     10919     10924     10925
     10920     10919     10924     10926     10921     10919     10924     10922
     10921     10919     10924     10925     10921     10919     10924     10926
     10922     10924     10926     10927     10922     10924     10926     10928
     10922     10924     10926     10930     10922     10974     10976     10977
     10922     10974     10976     10978     10922     10974     10976     10979
     10923     10922     10924     10925     10923     10922     10924     10926
     10923     10922     10974     10975     10923     10922     10974     10976
     10924     10922     10974     10975     10924     10922     10974     10976
     10924     10926     10928     10929     10924     10926     10930     10931
     10924     10926     10930     10932     10925     10924     10922     10974
     10925     10924     10926     10927     10925     10924     10926     10928
     10925     10924     10926     10930     10926     10924     10922     10974
     10926     10930     10932     10933     10926     10930     10932     10934
     10927     10926     10928     10929     10927     10926     10930     10931
     10927     10926     10930     10932     10928     10926     10930     10931
     10928     10926     10930     10932     10929     10928     10926     10930
     10930     10932     10934     10935     10930     10932     10934     10936
     10930     10932     10934     10937     10931     10930     10932     10933
     10931     10930     10932     10934     10932     10934     10937     10938
     10932     10934     10937     10939     10932     10934     10937     10940
     10933     10932     10934     10935     10933     10932     10934     10936
     10933     10932     10934     10937     10934     10937     10940     10941
     10934     10937     10940     10942     10934     10937     10940     10943
     10935     10934     10937     10938     10935     10934     10937     10939
     10935     10934     10937     10940     10936     10934     10937     10938
     10936     10934     10937     10939     10936     10934     10937     10940
     10937     10940     10943     10944     10937     10940     10943     10945
     10937     10940     10943     10946     10938     10937     10940     10941
     10938     10937     10940     10942     10938     10937     10940     10943
     10939     10937     10940     10941     10939     10937     10940     10942
     10939     10937     10940     10943     10940     10943     10946     10947
     10940     10943     10946     10948     10940     10943     10946     10949
     10941     10940     10943     10944     10941     10940     10943     10945
     10941     10940     10943     10946     10942     10940     10943     10944
     10942     10940     10943     10945     10942     10940     10943     10946
     10943     10946     10949     10950     10943     10946     10949     10951
     10943     10946     10949     10952     10944     10943     10946     10947
     10944     10943     10946     10948     10944     10943     10946     10949
     10945     10943     10946     10947     10945     10943     10946     10948
     10945     10943     10946     10949     10946     10949     10952     10953
     10946     10949     10952     10954     10946     10949     10952     10955
     10947     10946     10949     10950     10947     10946     10949     10951
     10947     10946     10949     10952     10948     10946     10949     10950
     10948     10946     10949     10951     10948     10946     10949     10952
     10949     10952     10955     10956     10949     10952     10955     10957
     10949     10952     10955     10958     10950     10949     10952     10953
     10950     10949     10952     10954     10950     10949     10952     10955
     10951     10949     10952     10953     10951     10949     10952     10954
     10951     10949     10952     10955     10952     10955     10958     10959
     10952     10955     10958     10960     10952     10955     10958     10961
     10953     10952     10955     10956     10953     10952     10955     10957
     10953     10952     10955     10958     10954     10952     10955     10956
     10954     10952     10955     10957     10954     10952     10955     10958
     10955     10958     10961     10962     10955     10958     10961     10963
     10955     10958     10961     10964     10956     10955     10958     10959
     10956     10955     10958     10960     10956     10955     10958     10961
     10957     10955     10958     10959     10957     10955     10958     10960
     10957     10955     10958     10961     10958     10961     10964     10965
     10958     10961     10964     10966     10958     10961     10964     10967
     10959     10958     10961     10962     10959     10958     10961     10963
     10959     10958     10961     10964     10960     10958     10961     10962
     10960     10958     10961     10963     10960     10958     10961     10964
     10961     10964     10967     10968     10961     10964     10967     10969
     10961     10964     10967     10970     10962     10961     10964     10965
     10962     10961     10964     10966     10962     10961     10964     10967
     10963     10961     10964     10965     10963     10961     10964     10966
     10963     10961     10964     10967     10964     10967     10970     10971
     10964     10967     10970     10972     10964     10967     10970     10973
     10965     10964     10967     10968     10965     10964     10967     10969
     10965     10964     10967     10970     10966     10964     10967     10968
     10966     10964     10967     10969     10966     10964     10967     10970
     10968     10967     10970     10971     10968     10967     10970     10972
     10968     10967     10970     10973     10969     10967     10970     10971
     10969     10967     10970     10972     10969     10967     10970     10973
     10974     10976     10979     10980     10974     10976     10979     10981
     10974     10976     10979     10982     10975     10974     10976     10977
     10975     10974     10976     10978     10975     10974     10976     10979
     10976     10979     10982     10983     10976     10979     10982     10984
     10976     10979     10982     10985     10977     10976     10979     10980
     10977     10976     10979     10981     10977     10976     10979     10982
     10978     10976     10979     10980     10978     10976     10979     10981
     10978     10976     10979     10982     10979     10982     10985     10986
     10979     10982     10985     10987     10979     10982     10985     10988
     10980     10979     10982     10983     10980     10979     10982     10984
     10980     10979     10982     10985     10981     10979     10982     10983
     10981     10979     10982     10984     10981     10979     10982     10985
     10982     10985     10988     10989     10982     10985     10988     10990
     10982     10985     10988     10991     10983     10982     10985     10986
     10983     10982     10985     10987     10983     10982     10985     10988
     10984     10982     10985     10986     10984     10982     10985     10987
     10984     10982     10985     10988     10985     10988     10991     10992
     10985     10988     10991     10993     10985     10988     10991     10994
     10986     10985     10988     10989     10986     10985     10988     10990
     10986     10985     10988     10991     10987     10985     10988     10989
     10987     10985     10988     10990     10987     10985     10988     10991
     10988     10991     10994     10995     10988     10991     10994     10996
     10988     10991     10994     10997     10989     10988     10991     10992
     10989     10988     10991     10993     10989     10988     10991     10994
     10990     10988     10991     10992     10990     10988     10991     10993
     10990     10988     10991     10994     10991     10994     10997     10998
     10991     10994     10997     10999     10992     10991     10994     10995
     10992     10991     10994     10996     10992     10991     10994     10997
     10993     10991     10994     10995     10993     10991     10994     10996
     10993     10991     10994     10997     10994     10997     10999     11000
     10994     10997     10999     11001     10995     10994     10997     10998
     10995     10994     10997     10999     10996     10994     10997     10998
     10996     10994     10997     10999     10997     10999     11001     11002
     10997     10999     11001     11003     10997     10999     11001     11004
     10998     10997     10999     11000     10998     10997     10999     11001
     10999     11001     11004     11005     10999     11001     11004     11006
     10999     11001     11004     11007     11000     10999     11001     11002
     11000     10999     11001     11003     11000     10999     11001     11004
     11001     11004     11007     11008     11001     11004     11007     11009
     11001     11004     11007     11010     11002     11001     11004     11005
     11002     11001     11004     11006     11002     11001     11004     11007
     11003     11001     11004     11005     11003     11001     11004     11006
     11003     11001     11004     11007     11004     11007     11010     11011
     11004     11007     11010     11012     11004     11007     11010     11013
     11005     11004     11007     11008     11005     11004     11007     11009
     11005     11004     11007     11010     11006     11004     11007     11008
     11006     11004     11007     11009     11006     11004     11007     11010
     11007     11010     11013     11014     11007     11010     11013     11015
     11007     11010     11013     11016     11008     11007     11010     11011
     11008     11007     11010     11012     11008     11007     11010     11013
     11009     11007     11010     11011     11009     11007     11010     11012
     11009     11007     11010     11013     11010     11013     11016     11017
     11010     11013     11016     11018     11010     11013     11016     11019
     11011     11010     11013     11014     11011     11010     11013     11015
     11011     11010     11013     11016     11012     11010     11013     11014
     11012     11010     11013     11015     11012     11010     11013     11016
     11013     11016     11019     11020     11013     11016     11019     11021
     11013     11016     11019     11022     11014     11013     11016     11017
     11014     11013     11016     11018     11014     11013     11016     11019
     11015     11013     11016     11017     11015     11013     11016     11018
     11015     11013     11016     11019     11016     11019     11022     11023
     11016     11019     11022     11024     11016     11019     11022     11025
     11017     11016     11019     11020     11017     11016     11019     11021
     11017     11016     11019     11022     11018     11016     11019     11020
     11018     11016     11019     11021     11018     11016     11019     11022
     11020     11019     11022     11023     11020     11019     11022     11024
     11020     11019     11022     11025     11021     11019     11022     11023
     11021     11019     11022     11024     11021     11019     11022     11025
      6921      6925      6928      6929      6921      6925      6928      6959
      6921      6967      6964      6959      6921      6967      6964      6965
      6921      6967      6964      6966      6922      6921      6923      6924
      6922      6921      6925      6926      6922      6921      6925      6927
      6922      6921      6925      6928      6922      6921      6967      6964
      6922      6921      6967      6968      6922      6921      6967      6969
      6923      6921      6925      6926      6923      6921      6925      6927
      6923      6921      6925      6928      6923      6921      6967      6964
      6923      6921      6967      6968      6923      6921      6967      6969
      6924      6923      6921      6925      6924      6923      6921      6967
      6925      6921      6967      6964      6925      6921      6967      6968
      6925      6921      6967      6969      6925      6928      6929      6930
      6925      6928      6929      6931      6925      6928      6959      6957
      6925      6928      6959      6960      6925      6928      6959      6964
      6926      6925      6921      6967      6926      6925      6928      6929
      6926      6925      6928      6959      6927      6925      6921      6967
      6927      6925      6928      6929      6927      6925      6928      6959
      6928      6925      6921      6967      6928      6929      6931      6932
      6928      6929      6931      6933      6928      6929      6931      6934
      6928      6959      6957      6934      6928      6959      6957      6954
      6928      6959      6957      6958      6928      6959      6960      6961
      6928      6959      6960      6962      6928      6959      6960      6963
      6928      6959      6964      6965      6928      6959      6964      6966
      6928      6959      6964      6967      6929      6928      6959      6957
      6929      6928      6959      6960      6929      6928      6959      6964
      6929      6931      6934      6935      6929      6931      6934      6936
      6929      6931      6934      6957      6930      6929      6928      6959
      6930      6929      6931      6932      6930      6929      6931      6933
      6930      6929      6931      6934      6931      6929      6928      6959
      6931      6934      6936      6937      6931      6934      6936      6938
      6931      6934      6936      6946      6931      6934      6957      6954
      6931      6934      6957      6958      6931      6934      6957      6959
      6932      6931      6934      6935      6932      6931      6934      6936
      6932      6931      6934      6957      6933      6931      6934      6935
      6933      6931      6934      6936      6933      6931      6934      6957
      6934      6936      6938      6939      6934      6936      6938      6940
      6934      6936      6938      6941      6934      6936      6946      6944
      6934      6936      6946      6947      6934      6936      6946      6951
      6934      6957      6954      6951      6934      6957      6954      6955
      6934      6957      6954      6956      6934      6957      6959      6960
      6934      6957      6959      6964      6935      6934      6936      6937
      6935      6934      6936      6938      6935      6934      6936      6946
      6935      6934      6957      6954      6935      6934      6957      6958
      6935      6934      6957      6959      6936      6934      6957      6954
      6936      6934      6957      6958      6936      6934      6957      6959
      6936      6938      6941      6942      6936      6938      6941      6943
      6936      6938      6941      6944      6936      6946      6944      6941
      6936      6946      6944      6945      6936      6946      6944      6970
      6936      6946      6947      6948      6936      6946      6947      6949
      6936      6946      6947      6950      6936      6946      6951      6952
      6936      6946      6951      6953      6936      6946      6951      6954
      6937      6936      6934      6957      6937      6936      6938      6939
      6937      6936      6938      6940      6937      6936      6938      6941
      6937      6936      6946      6944      6937      6936      6946      6947
      6937      6936      6946      6951      6938      6936      6934      6957
      6938      6936      6946      6944      6938      6936      6946      6947
      6938      6936      6946      6951      6938      6941      6944      6945
      6938      6941      6944      6946      6938      6941      6944      6970
      6939      6938      6936      6946      6939      6938      6941      6942
      6939      6938      6941      6943      6939      6938      6941      6944
      6940      6938      6936      6946      6940      6938      6941      6942
      6940      6938      6941      6943      6940      6938      6941      6944
      6941      6938      6936      6946      6941      6944      6946      6947
      6941      6944      6946      6951      6941      6944      6970      6971
      6941      6944      6970      6972      6941      6944      6970      6976
      6942      6941      6944      6945      6942      6941      6944      6946
      6942      6941      6944      6970      6943      6941      6944      6945
      6943      6941      6944      6946      6943      6941      6944      6970
      6944      6946      6947      6948      6944      6946      6947      6949
      6944      6946      6947      6950      6944      6946      6951      6952
      6944      6946      6951      6953      6944      6946      6951      6954
      6944      6970      6972      6973      6944      6970      6972      6974
      6944      6970      6972      6975      6944      6970      6976      6977
      6944      6970      6976      6978      6944      6970      6976      6979
      6945      6944      6946      6947      6945      6944      6946      6951
      6945      6944      6970      6971      6945      6944      6970      6972
      6945      6944      6970      6976      6946      6936      6934      6957
      6946      6944      6970      6971      6946      6944      6970      6972
      6946      6944      6970      6976      6946      6951      6954      6955
      6946      6951      6954      6956      6946      6951      6954      6957
      6947      6946      6944      6970      6947      6946      6951      6952
      6947      6946      6951      6953      6947      6946      6951      6954
      6948      6947      6946      6951      6949      6947      6946      6951
      6950      6947      6946      6951      6951      6946      6944      6970
      6951      6954      6957      6958      6951      6954      6957      6959
      6952      6951      6954      6955      6952      6951      6954      6956
      6952      6951      6954      6957      6953      6951      6954      6955
      6953      6951      6954      6956      6953      6951      6954      6957
      6954      6957      6959      6960      6954      6957      6959      6964
      6955      6954      6957      6958      6955      6954      6957      6959
      6956      6954      6957      6958      6956      6954      6957      6959
      6957      6959      6960      6961      6957      6959      6960      6962
      6957      6959      6960      6963      6957      6959      6964      6965
      6957      6959      6964      6966      6957      6959      6964      6967
      6958      6957      6959      6960      6958      6957      6959      6964
      6959      6964      6967      6968      6959      6964      6967      6969
      6960      6959      6964      6965      6960      6959      6964      6966
      6960      6959      6964      6967      6961      6960      6959      6964
      6962      6960      6959      6964      6963      6960      6959      6964
      6965      6964      6967      6968      6965      6964      6967      6969
      6966      6964      6967      6968      6966      6964      6967      6969
      6970      6976      6979      6980      6970      6976      6979      6981
      6970      6976      6979      6982      6971      6970      6972      6973
      6971      6970      6972      6974      6971      6970      6972      6975
      6971      6970      6976      6977      6971      6970      6976      6978
      6971      6970      6976      6979      6972      6970      6976      6977
      6972      6970      6976      6978      6972      6970      6976      6979
      6973      6972      6970      6976      6974      6972      6970      6976
      6975      6972      6970      6976      6976      6979      6982      6983
      6976      6979      6982      6984      6976      6979      6982      6985
      6977      6976      6979      6980      6977      6976      6979      6981
      6977      6976      6979      6982      6978      6976      6979      6980
      6978      6976      6979      6981      6978      6976      6979      6982
      6979      6982      6985      6986      6979      6982      6985      6987
      6979      6982      6985      6991      6980      6979      6982      6983
      6980      6979      6982      6984      6980      6979      6982      6985
      6981      6979      6982      6983      6981      6979      6982      6984
      6981      6979      6982      6985      6982      6985      6987      6988
      6982      6985      6987      6989      6982      6985      6987      6990
      6982      6985      6991      6992      6982      6985      6991      6993
      6982      6985      6991      6994      6983      6982      6985      6986
      6983      6982      6985      6987      6983      6982      6985      6991
      6984      6982      6985      6986      6984      6982      6985      6987
      6984      6982      6985      6991      6986      6985      6987      6988
      6986      6985      6987      6989      6986      6985      6987      6990
      6986      6985      6991      6992      6986      6985      6991      6993
      6986      6985      6991      6994      6987      6985      6991      6992
      6987      6985      6991      6993      6987      6985      6991      6994
      6988      6987      6985      6991      6989      6987      6985      6991
      6990      6987      6985      6991      6995      6999      7002      7003
      6995      6999      7002      7033      6995      7041      7038      7033
      6995      7041      7038      7039      6995      7041      7038      7040
      6996      6995      6997      6998      6996      6995      6999      7000
      6996      6995      6999      7001      6996      6995      6999      7002
      6996      6995      7041      7038      6996      6995      7041      7042
      6996      6995      7041      7043      6997      6995      6999      7000
      6997      6995      6999      7001      6997      6995      6999      7002
      6997      6995      7041      7038      6997      6995      7041      7042
      6997      6995      7041      7043      6998      6997      6995      6999
      6998      6997      6995      7041      6999      6995      7041      7038
      6999      6995      7041      7042      6999      6995      7041      7043
      6999      7002      7003      7004      6999      7002      7003      7005
      6999      7002      7033      7031      6999      7002      7033      7034
      6999      7002      7033      7038      7000      6999      6995      7041
      7000      6999      7002      7003      7000      6999      7002      7033
      7001      6999      6995      7041      7001      6999      7002      7003
      7001      6999      7002      7033      7002      6999      6995      7041
      7002      7003      7005      7006      7002      7003      7005      7007
      7002      7003      7005      7008      7002      7033      7031      7008
      7002      7033      7031      7028      7002      7033      7031      7032
      7002      7033      7034      7035      7002      7033      7034      7036
      7002      7033      7034      7037      7002      7033      7038      7039
      7002      7033      7038      7040      7002      7033      7038      7041
      7003      7002      7033      7031      7003      7002      7033      7034
      7003      7002      7033      7038      7003      7005      7008      7009
      7003      7005      7008      7010      7003      7005      7008      7031
      7004      7003      7002      7033      7004      7003      7005      7006
      7004      7003      7005      7007      7004      7003      7005      7008
      7005      7003      7002      7033      7005      7008      7010      7011
      7005      7008      7010      7012      7005      7008      7010      7020
      7005      7008      7031      7028      7005      7008      7031      7032
      7005      7008      7031      7033      7006      7005      7008      7009
      7006      7005      7008      7010      7006      7005      7008      7031
      7007      7005      7008      7009      7007      7005      7008      7010
      7007      7005      7008      7031      7008      7010      7012      7013
      7008      7010      7012      7014      7008      7010      7012      7015
      7008      7010      7020      7018      7008      7010      7020      7021
      7008      7010      7020      7025      7008      7031      7028      7025
      7008      7031      7028      7029      7008      7031      7028      7030
      7008      7031      7033      7034      7008      7031      7033      7038
      7009      7008      7010      7011      7009      7008      7010      7012
      7009      7008      7010      7020      7009      7008      7031      7028
      7009      7008      7031      7032      7009      7008      7031      7033
      7010      7008      7031      7028      7010      7008      7031      7032
      7010      7008      7031      7033      7010      7012      7015      7016
      7010      7012      7015      7017      7010      7012      7015      7018
      7010      7020      7018      7015      7010      7020      7018      7019
      7010      7020      7018      7044      7010      7020      7021      7022
      7010      7020      7021      7023      7010      7020      7021      7024
      7010      7020      7025      7026      7010      7020      7025      7027
      7010      7020      7025      7028      7011      7010      7008      7031
      7011      7010      7012      7013      7011      7010      7012      7014
      7011      7010      7012      7015      7011      7010      7020      7018
      7011      7010      7020      7021      7011      7010      7020      7025
      7012      7010      7008      7031      7012      7010      7020      7018
      7012      7010      7020      7021      7012      7010      7020      7025
      7012      7015      7018      7019      7012      7015      7018      7020
      7012      7015      7018      7044      7013      7012      7010      7020
      7013      7012      7015      7016      7013      7012      7015      7017
      7013      7012      7015      7018      7014      7012      7010      7020
      7014      7012      7015      7016      7014      7012      7015      7017
      7014      7012      7015      7018      7015      7012      7010      7020
      7015      7018      7020      7021      7015      7018      7020      7025
      7015      7018      7044      7045      7015      7018      7044      7046
      7015      7018      7044      7050      7016      7015      7018      7019
      7016      7015      7018      7020      7016      7015      7018      7044
      7017      7015      7018      7019      7017      7015      7018      7020
      7017      7015      7018      7044      7018      7020      7021      7022
      7018      7020      7021      7023      7018      7020      7021      7024
      7018      7020      7025      7026      7018      7020      7025      7027
      7018      7020      7025      7028      7018      7044      7046      7047
      7018      7044      7046      7048      7018      7044      7046      7049
      7018      7044      7050      7051      7018      7044      7050      7052
      7018      7044      7050      7053      7019      7018      7020      7021
      7019      7018      7020      7025      7019      7018      7044      7045
      7019      7018      7044      7046      7019      7018      7044      7050
      7020      7010      7008      7031      7020      7018      7044      7045
      7020      7018      7044      7046      7020      7018      7044      7050
      7020      7025      7028      7029      7020      7025      7028      7030
      7020      7025      7028      7031      7021      7020      7018      7044
      7021      7020      7025      7026      7021      7020      7025      7027
      7021      7020      7025      7028      7022      7021      7020      7025
      7023      7021      7020      7025      7024      7021      7020      7025
      7025      7020      7018      7044      7025      7028      7031      7032
      7025      7028      7031      7033      7026      7025      7028      7029
      7026      7025      7028      7030      7026      7025      7028      7031
      7027      7025      7028      7029      7027      7025      7028      7030
      7027      7025      7028      7031      7028      7031      7033      7034
      7028      7031      7033      7038      7029      7028      7031      7032
      7029      7028      7031      7033      7030      7028      7031      7032
      7030      7028      7031      7033      7031      7033      7034      7035
      7031      7033      7034      7036      7031      7033      7034      7037
      7031      7033      7038      7039      7031      7033      7038      7040
      7031      7033      7038      7041      7032      7031      7033      7034
      7032      7031      7033      7038      7033      7038      7041      7042
      7033      7038      7041      7043      7034      7033      7038      7039
      7034      7033      7038      7040      7034      7033      7038      7041
      7035      7034      7033      7038      7036      7034      7033      7038
      7037      7034      7033      7038      7039      7038      7041      7042
      7039      7038      7041      7043      7040      7038      7041      7042
      7040      7038      7041      7043      7044      7050      7053      7054
      7044      7050      7053      7055      7044      7050      7053      7056
      7045      7044      7046      7047      7045      7044      7046      7048
      7045      7044      7046      7049      7045      7044      7050      7051
      7045      7044      7050      7052      7045      7044      7050      7053
      7046      7044      7050      7051      7046      7044      7050      7052
      7046      7044      7050      7053      7047      7046      7044      7050
      7048      7046      7044      7050      7049      7046      7044      7050
      7050      7053      7056      7057      7050      7053      7056      7058
      7050      7053      7056      7059      7051      7050      7053      7054
      7051      7050      7053      7055      7051      7050      7053      7056
      7052      7050      7053      7054      7052      7050      7053      7055
      7052      7050      7053      7056      7053      7056      7059      7060
      7053      7056      7059      7061      7053      7056      7059      7065
      7054      7053      7056      7057      7054      7053      7056      7058
      7054      7053      7056      7059      7055      7053      7056      7057
      7055      7053      7056      7058      7055      7053      7056      7059
      7056      7059      7061      7062      7056      7059      7061      7063
      7056      7059      7061      7064      7056      7059      7065      7066
      7056      7059      7065      7067      7056      7059      7065      7068
      7057      7056      7059      7060      7057      7056      7059      7061
      7057      7056      7059      7065      7058      7056      7059      7060
      7058      7056      7059      7061      7058      7056      7059      7065
      7060      7059      7061      7062      7060      7059      7061      7063
      7060      7059      7061      7064      7060      7059      7065      7066
      7060      7059      7065      7067      7060      7059      7065      7068
      7061      7059      7065      7066      7061      7059      7065      7067
      7061      7059      7065      7068      7062      7061      7059      7065
      7063      7061      7059      7065      7064      7061      7059      7065
       533       537       539       540       533       537       539       541
       533       537       542       543       533       537       542       544
       533       537       542       548       534       533       537       538
       534       533       537       539       534       533       537       542
       535       533       537       538       535       533       537       539
       535       533       537       542       536       533       537       538
       536       533       537       539       536       533       537       542
       537       542       548       545       538       537       539       540
       538       537       539       541       538       537       542       543
       538       537       542       544       538       537       542       548
       539       537       542       543       539       537       542       544
       539       537       542       548       540       539       537       542
       541       539       537       542       542       548       545       546
       542       548       545       547       542       548       545       549
       543       542       548       545       544       542       548       545
       545       549       550       551       545       549       550       552
       545       549       550       553       546       545       549       550
       547       545       549       550       548       545       549       550
       549       550       553       554       549       550       553       555
       549       550       553       561       550       553       555       556
       550       553       561       562       550       553       561       563
       550       553       561       564       551       550       553       554
       551       550       553       555       551       550       553       561
       552       550       553       554       552       550       553       555
       552       550       553       561       553       555       556       557
       553       555       556       558       553       561       564       565
       554       553       555       556       554       553       561       562
       554       553       561       563       554       553       561       564
       555       553       561       562       555       553       561       563
       555       553       561       564       555       556       558       559
       555       556       558       560       555       556       558       570
       556       555       553       561       556       558       570       571
       556       558       570       572       556       558       570       573
       557       556       558       559       557       556       558       560
       557       556       558       570       558       570       573       574
       558       570       573       575       558       570       573       576
       559       558       570       571       559       558       570       572
       559       558       570       573       560       558       570       571
       560       558       570       572       560       558       570       573
       561       564       565       566       561       564       565       567
       562       561       564       565       563       561       564       565
       564       565       567       568       564       565       567       569
       564       565       567       617       565       567       617       618
       565       567       617       619       565       567       617       620
       566       565       567       568       566       565       567       569
       566       565       567       617       567       617       620       621
       567       617       620       622       567       617       620       623
       568       567       617       618       568       567       617       619
       568       567       617       620       569       567       617       618
       569       567       617       619       569       567       617       620
       570       573       576       577       570       573       576       578
       571       570       573       574       571       570       573       575
       571       570       573       576       572       570       573       574
       572       570       573       575       572       570       573       576
       573       576       578       579       573       576       578       580
       574       573       576       577       574       573       576       578
       575       573       576       577       575       573       576       578
       576       578       580       581       576       578       580       582
       576       578       580       583       577       576       578       579
       577       576       578       580       578       580       583       584
       578       580       583       585       579       578       580       581
       579       578       580       582       579       578       580       583
       580       583       585       586       580       583       585       587
       581       580       583       584       581       580       583       585
       582       580       583       584       582       580       583       585
       583       585       587       588       583       585       587       589
       583       585       587       590       584       583       585       586
       584       583       585       587       585       587       590       591
       585       587       590       592       586       585       587       588
       586       585       587       589       586       585       587       590
       587       590       592       593       587       590       592       594
       588       587       590       591       588       587       590       592
       589       587       590       591       589       587       590       592
       590       592       594       595       590       592       594       596
       590       592       594       597       591       590       592       593
       591       590       592       594       592       594       597       598
       592       594       597       599       593       592       594       595
       593       592       594       596       593       592       594       597
       594       597       599       600       594       597       599       601
       595       594       597       598       595       594       597       599
       596       594       597       598       596       594       597       599
       597       599       601       602       597       599       601       603
       597       599       601       604       598       597       599       600
       598       597       599       601       599       601       604       605
       599       601       604       606       599       601       604       607
       600       599       601       602       600       599       601       603
       600       599       601       604       601       604       607       608
       601       604       607       609       601       604       607       610
       602       601       604       605       602       601       604       606
       602       601       604       607       603       601       604       605
       603       601       604       606       603       601       604       607
       604       607       610       611       604       607       610       612
       604       607       610       613       605       604       607       608
       605       604       607       609       605       604       607       610
       606       604       607       608       606       604       607       609
       606       604       607       610       607       610       613       614
       607       610       613       615       607       610       613       616
       608       607       610       611       608       607       610       612
       608       607       610       613       609       607       610       611
       609       607       610       612       609       607       610       613
       611       610       613       614       611       610       613       615
       611       610       613       616       612       610       613       614
       612       610       613       615       612       610       613       616
       617       620       623       624       617       620       623       625
       617       620       623       626       618       617       620       621
       618       617       620       622       618       617       620       623
       619       617       620       621       619       617       620       622
       619       617       620       623       620       623       626       627
       620       623       626       628       620       623       626       629
       621       620       623       624       621       620       623       625
       621       620       623       626       622       620       623       624
       622       620       623       625       622       620       623       626
       623       626       629       630       623       626       629       631
       623       626       629       632       624       623       626       627
       624       623       626       628       624       623       626       629
       625       623       626       627       625       623       626       628
       625       623       626       629       626       629       632       633
       626       629       632       634       626       629       632       635
       627       626       629       630       627       626       629       631
       627       626       629       632       628       626       629       630
       628       626       629       631       628       626       629       632
       629       632       635       636       629       632       635       637
       629       632       635       638       630       629       632       633
       630       629       632       634       630       629       632       635
       631       629       632       633       631       629       632       634
       631       629       632       635       632       635       638       639
       632       635       638       640       632       635       638       641
       633       632       635       636       633       632       635       637
       633       632       635       638       634       632       635       636
       634       632       635       637       634       632       635       638
       635       638       641       642       635       638       641       643
       635       638       641       644       636       635       638       639
       636       635       638       640       636       635       638       641
       637       635       638       639       637       635       638       640
       637       635       638       641       638       641       644       645
       638       641       644       646       638       641       644       647
       639       638       641       642       639       638       641       643
       639       638       641       644       640       638       641       642
       640       638       641       643       640       638       641       644
       641       644       647       648       641       644       647       649
       641       644       647       650       642       641       644       645
       642       641       644       646       642       641       644       647
       643       641       644       645       643       641       644       646
       643       641       644       647       644       647       650       651
       644       647       650       652       644       647       650       653
       645       644       647       648       645       644       647       649
       645       644       647       650       646       644       647       648
       646       644       647       649       646       644       647       650
       647       650       653       654       647       650       653       655
       647       650       653       656       648       647       650       651
       648       647       650       652       648       647       650       653
       649       647       650       651       649       647       650       652
       649       647       650       653       650       653       656       657
       650       653       656       658       650       653       656       659
       651       650       653       654       651       650       653       655
       651       650       653       656       652       650       653       654
       652       650       653       655       652       650       653       656
       653       656       659       660       653       656       659       661
       653       656       659       662       654       653       656       657
       654       653       656       658       654       653       656       659
       655       653       656       657       655       653       656       658
       655       653       656       659       656       659       662       663
       656       659       662       664       656       659       662       665
       657       656       659       660       657       656       659       661
       657       656       659       662       658       656       659       660
       658       656       659       661       658       656       659       662
       660       659       662       663       660       659       662       664
       660       659       662       665       661       659       662       663
       661       659       662       664       661       659       662       665
      7069      7073      7076      7077      7069      7073      7076      7107
      7069      7115      7112      7107      7069      7115      7112      7113
      7069      7115      7112      7114      7070      7069      7071      7072
      7070      7069      7073      7074      7070      7069      7073      7075
      7070      7069      7073      7076      7070      7069      7115      7112
      7070      7069      7115      7116      7070      7069      7115      7117
      7071      7069      7073      7074      7071      7069      7073      7075
      7071      7069      7073      7076      7071      7069      7115      7112
      7071      7069      7115      7116      7071      7069      7115      7117
      7072      7071      7069      7073      7072      7071      7069      7115
      7073      7069      7115      7112      7073      7069      7115      7116
      7073      7069      7115      7117      7073      7076      7077      7078
      7073      7076      7077      7079      7073      7076      7107      7105
      7073      7076      7107      7108      7073      7076      7107      7112
      7074      7073      7069      7115      7074      7073      7076      7077
      7074      7073      7076      7107      7075      7073      7069      7115
      7075      7073      7076      7077      7075      7073      7076      7107
      7076      7073      7069      7115      7076      7077      7079      7080
      7076      7077      7079      7081      7076      7077      7079      7082
      7076      7107      7105      7082      7076      7107      7105      7102
      7076      7107      7105      7106      7076      7107      7108      7109
      7076      7107      7108      7110      7076      7107      7108      7111
      7076      7107      7112      7113      7076      7107      7112      7114
      7076      7107      7112      7115      7077      7076      7107      7105
      7077      7076      7107      7108      7077      7076      7107      7112
      7077      7079      7082      7083      7077      7079      7082      7084
      7077      7079      7082      7105      7078      7077      7076      7107
      7078      7077      7079      7080      7078      7077      7079      7081
      7078      7077      7079      7082      7079      7077      7076      7107
      7079      7082      7084      7085      7079      7082      7084      7086
      7079      7082      7084      7094      7079      7082      7105      7102
      7079      7082      7105      7106      7079      7082      7105      7107
      7080      7079      7082      7083      7080      7079      7082      7084
      7080      7079      7082      7105      7081      7079      7082      7083
      7081      7079      7082      7084      7081      7079      7082      7105
      7082      7084      7086      7087      7082      7084      7086      7088
      7082      7084      7086      7089      7082      7084      7094      7092
      7082      7084      7094      7095      7082      7084      7094      7099
      7082      7105      7102      7099      7082      7105      7102      7103
      7082      7105      7102      7104      7082      7105      7107      7108
      7082      7105      7107      7112      7083      7082      7084      7085
      7083      7082      7084      7086      7083      7082      7084      7094
      7083      7082      7105      7102      7083      7082      7105      7106
      7083      7082      7105      7107      7084      7082      7105      7102
      7084      7082      7105      7106      7084      7082      7105      7107
      7084      7086      7089      7090      7084      7086      7089      7091
      7084      7086      7089      7092      7084      7094      7092      7089
      7084      7094      7092      7093      7084      7094      7092      7118
      7084      7094      7095      7096      7084      7094      7095      7097
      7084      7094      7095      7098      7084      7094      7099      7100
      7084      7094      7099      7101      7084      7094      7099      7102
      7085      7084      7082      7105      7085      7084      7086      7087
      7085      7084      7086      7088      7085      7084      7086      7089
      7085      7084      7094      7092      7085      7084      7094      7095
      7085      7084      7094      7099      7086      7084      7082      7105
      7086      7084      7094      7092      7086      7084      7094      7095
      7086      7084      7094      7099      7086      7089      7092      7093
      7086      7089      7092      7094      7086      7089      7092      7118
      7087      7086      7084      7094      7087      7086      7089      7090
      7087      7086      7089      7091      7087      7086      7089      7092
      7088      7086      7084      7094      7088      7086      7089      7090
      7088      7086      7089      7091      7088      7086      7089      7092
      7089      7086      7084      7094      7089      7092      7094      7095
      7089      7092      7094      7099      7089      7092      7118      7119
      7089      7092      7118      7120      7089      7092      7118      7124
      7090      7089      7092      7093      7090      7089      7092      7094
      7090      7089      7092      7118      7091      7089      7092      7093
      7091      7089      7092      7094      7091      7089      7092      7118
      7092      7094      7095      7096      7092      7094      7095      7097
      7092      7094      7095      7098      7092      7094      7099      7100
      7092      7094      7099      7101      7092      7094      7099      7102
      7092      7118      7120      7121      7092      7118      7120      7122
      7092      7118      7120      7123      7092      7118      7124      7125
      7092      7118      7124      7126      7092      7118      7124      7127
      7093      7092      7094      7095      7093      7092      7094      7099
      7093      7092      7118      7119      7093      7092      7118      7120
      7093      7092      7118      7124      7094      7084      7082      7105
      7094      7092      7118      7119      7094      7092      7118      7120
      7094      7092      7118      7124      7094      7099      7102      7103
      7094      7099      7102      7104      7094      7099      7102      7105
      7095      7094      7092      7118      7095      7094      7099      7100
      7095      7094      7099      7101      7095      7094      7099      7102
      7096      7095      7094      7099      7097      7095      7094      7099
      7098      7095      7094      7099      7099      7094      7092      7118
      7099      7102      7105      7106      7099      7102      7105      7107
      7100      7099      7102      7103      7100      7099      7102      7104
      7100      7099      7102      7105      7101      7099      7102      7103
      7101      7099      7102      7104      7101      7099      7102      7105
      7102      7105      7107      7108      7102      7105      7107      7112
      7103      7102      7105      7106      7103      7102      7105      7107
      7104      7102      7105      7106      7104      7102      7105      7107
      7105      7107      7108      7109      7105      7107      7108      7110
      7105      7107      7108      7111      7105      7107      7112      7113
      7105      7107      7112      7114      7105      7107      7112      7115
      7106      7105      7107      7108      7106      7105      7107      7112
      7107      7112      7115      7116      7107      7112      7115      7117
      7108      7107      7112      7113      7108      7107      7112      7114
      7108      7107      7112      7115      7109      7108      7107      7112
      7110      7108      7107      7112      7111      7108      7107      7112
      7113      7112      7115      7116      7113      7112      7115      7117
      7114      7112      7115      7116      7114      7112      7115      7117
      7118      7124      7127      7128      7118      7124      7127      7129
      7118      7124      7127      7130      7119      7118      7120      7121
      7119      7118      7120      7122      7119      7118      7120      7123
      7119      7118      7124      7125      7119      7118      7124      7126
      7119      7118      7124      7127      7120      7118      7124      7125
      7120      7118      7124      7126      7120      7118      7124      7127
      7121      7120      7118      7124      7122      7120      7118      7124
      7123      7120      7118      7124      7124      7127      7130      7131
      7124      7127      7130      7132      7124      7127      7130      7133
      7125      7124      7127      7128      7125      7124      7127      7129
      7125      7124      7127      7130      7126      7124      7127      7128
      7126      7124      7127      7129      7126      7124      7127      7130
      7127      7130      7133      7134      7127      7130      7133      7135
      7127      7130      7133      7139      7128      7127      7130      7131
      7128      7127      7130      7132      7128      7127      7130      7133
      7129      7127      7130      7131      7129      7127      7130      7132
      7129      7127      7130      7133      7130      7133      7135      7136
      7130      7133      7135      7137      7130      7133      7135      7138
      7130      7133      7139      7140      7130      7133      7139      7141
      7130      7133      7139      7142      7131      7130      7133      7134
      7131      7130      7133      7135      7131      7130      7133      7139
      7132      7130      7133      7134      7132      7130      7133      7135
      7132      7130      7133      7139      7134      7133      7135      7136
      7134      7133      7135      7137      7134      7133      7135      7138
      7134      7133      7139      7140      7134      7133      7139      7141
      7134      7133      7139      7142      7135      7133      7139      7140
      7135      7133      7139      7141      7135      7133      7139      7142
      7136      7135      7133      7139      7137      7135      7133      7139
      7138      7135      7133      7139     11026     11039     11042     11043
     11026     11039     11042     11044     11026     11039     11042     11049
     11027     11026     11031     11032     11027     11026     11031     11033
     11027     11026     11031     11034     11027     11026     11035     11036
     11027     11026     11035     11037     11027     11026     11035     11038
     11027     11026     11039     11040     11027     11026     11039     11041
     11027     11026     11039     11042     11028     11027     11026     11031
     11028     11027     11026     11035     11028     11027     11026     11039
     11029     11027     11026     11031     11029     11027     11026     11035
     11029     11027     11026     11039     11030     11027     11026     11031
     11030     11027     11026     11035     11030     11027     11026     11039
     11031     11026     11035     11036     11031     11026     11035     11037
     11031     11026     11035     11038     11031     11026     11039     11040
     11031     11026     11039     11041     11031     11026     11039     11042
     11032     11031     11026     11035     11032     11031     11026     11039
     11033     11031     11026     11035     11033     11031     11026     11039
     11034     11031     11026     11035     11034     11031     11026     11039
     11035     11026     11039     11040     11035     11026     11039     11041
     11035     11026     11039     11042     11036     11035     11026     11039
     11037     11035     11026     11039     11038     11035     11026     11039
     11039     11042     11049     11045     11040     11039     11042     11043
     11040     11039     11042     11044     11040     11039     11042     11049
     11041     11039     11042     11043     11041     11039     11042     11044
     11041     11039     11042     11049     11042     11049     11045     11046
     11042     11049     11045     11047     11042     11049     11045     11048
     11043     11042     11049     11045     11044     11042     11049     11045
     11045     11048     11050     11051     11045     11048     11050     11052
     11045     11048     11050     11055     11046     11045     11048     11050
     11047     11045     11048     11050     11048     11050     11055     11053
     11048     11050     11055     11056     11048     11050     11055     11057
     11049     11045     11048     11050     11050     11055     11053     11054
     11050     11055     11053     11105     11050     11055     11057     11058
     11050     11055     11057     11059     11050     11055     11057     11061
     11051     11050     11055     11053     11051     11050     11055     11056
     11051     11050     11055     11057     11052     11050     11055     11053
     11052     11050     11055     11056     11052     11050     11055     11057
     11053     11055     11057     11058     11053     11055     11057     11059
     11053     11055     11057     11061     11053     11105     11107     11108
     11053     11105     11107     11109     11053     11105     11107     11110
     11054     11053     11055     11056     11054     11053     11055     11057
     11054     11053     11105     11106     11054     11053     11105     11107
     11055     11053     11105     11106     11055     11053     11105     11107
     11055     11057     11059     11060     11055     11057     11061     11062
     11055     11057     11061     11063     11056     11055     11053     11105
     11056     11055     11057     11058     11056     11055     11057     11059
     11056     11055     11057     11061     11057     11055     11053     11105
     11057     11061     11063     11064     11057     11061     11063     11065
     11058     11057     11059     11060     11058     11057     11061     11062
     11058     11057     11061     11063     11059     11057     11061     11062
     11059     11057     11061     11063     11060     11059     11057     11061
     11061     11063     11065     11066     11061     11063     11065     11067
     11061     11063     11065     11068     11062     11061     11063     11064
     11062     11061     11063     11065     11063     11065     11068     11069
     11063     11065     11068     11070     11063     11065     11068     11071
     11064     11063     11065     11066     11064     11063     11065     11067
     11064     11063     11065     11068     11065     11068     11071     11072
     11065     11068     11071     11073     11065     11068     11071     11074
     11066     11065     11068     11069     11066     11065     11068     11070
     11066     11065     11068     11071     11067     11065     11068     11069
     11067     11065     11068     11070     11067     11065     11068     11071
     11068     11071     11074     11075     11068     11071     11074     11076
     11068     11071     11074     11077     11069     11068     11071     11072
     11069     11068     11071     11073     11069     11068     11071     11074
     11070     11068     11071     11072     11070     11068     11071     11073
     11070     11068     11071     11074     11071     11074     11077     11078
     11071     11074     11077     11079     11071     11074     11077     11080
     11072     11071     11074     11075     11072     11071     11074     11076
     11072     11071     11074     11077     11073     11071     11074     11075
     11073     11071     11074     11076     11073     11071     11074     11077
     11074     11077     11080     11081     11074     11077     11080     11082
     11074     11077     11080     11083     11075     11074     11077     11078
     11075     11074     11077     11079     11075     11074     11077     11080
     11076     11074     11077     11078     11076     11074     11077     11079
     11076     11074     11077     11080     11077     11080     11083     11084
     11077     11080     11083     11085     11077     11080     11083     11086
     11078     11077     11080     11081     11078     11077     11080     11082
     11078     11077     11080     11083     11079     11077     11080     11081
     11079     11077     11080     11082     11079     11077     11080     11083
     11080     11083     11086     11087     11080     11083     11086     11088
     11080     11083     11086     11089     11081     11080     11083     11084
     11081     11080     11083     11085     11081     11080     11083     11086
     11082     11080     11083     11084     11082     11080     11083     11085
     11082     11080     11083     11086     11083     11086     11089     11090
     11083     11086     11089     11091     11083     11086     11089     11092
     11084     11083     11086     11087     11084     11083     11086     11088
     11084     11083     11086     11089     11085     11083     11086     11087
     11085     11083     11086     11088     11085     11083     11086     11089
     11086     11089     11092     11093     11086     11089     11092     11094
     11086     11089     11092     11095     11087     11086     11089     11090
     11087     11086     11089     11091     11087     11086     11089     11092
     11088     11086     11089     11090     11088     11086     11089     11091
     11088     11086     11089     11092     11089     11092     11095     11096
     11089     11092     11095     11097     11089     11092     11095     11098
     11090     11089     11092     11093     11090     11089     11092     11094
     11090     11089     11092     11095     11091     11089     11092     11093
     11091     11089     11092     11094     11091     11089     11092     11095
     11092     11095     11098     11099     11092     11095     11098     11100
     11092     11095     11098     11101     11093     11092     11095     11096
     11093     11092     11095     11097     11093     11092     11095     11098
     11094     11092     11095     11096     11094     11092     11095     11097
     11094     11092     11095     11098     11095     11098     11101     11102
     11095     11098     11101     11103     11095     11098     11101     11104
     11096     11095     11098     11099     11096     11095     11098     11100
     11096     11095     11098     11101     11097     11095     11098     11099
     11097     11095     11098     11100     11097     11095     11098     11101
     11099     11098     11101     11102     11099     11098     11101     11103
     11099     11098     11101     11104     11100     11098     11101     11102
     11100     11098     11101     11103     11100     11098     11101     11104
     11105     11107     11110     11111     11105     11107     11110     11112
     11105     11107     11110     11113     11106     11105     11107     11108
     11106     11105     11107     11109     11106     11105     11107     11110
     11107     11110     11113     11114     11107     11110     11113     11115
     11107     11110     11113     11116     11108     11107     11110     11111
     11108     11107     11110     11112     11108     11107     11110     11113
     11109     11107     11110     11111     11109     11107     11110     11112
     11109     11107     11110     11113     11110     11113     11116     11117
     11110     11113     11116     11118     11110     11113     11116     11119
     11111     11110     11113     11114     11111     11110     11113     11115
     11111     11110     11113     11116     11112     11110     11113     11114
     11112     11110     11113     11115     11112     11110     11113     11116
     11113     11116     11119     11120     11113     11116     11119     11121
     11113     11116     11119     11122     11114     11113     11116     11117
     11114     11113     11116     11118     11114     11113     11116     11119
     11115     11113     11116     11117     11115     11113     11116     11118
     11115     11113     11116     11119     11116     11119     11122     11123
     11116     11119     11122     11124     11116     11119     11122     11125
     11117     11116     11119     11120     11117     11116     11119     11121
     11117     11116     11119     11122     11118     11116     11119     11120
     11118     11116     11119     11121     11118     11116     11119     11122
     11119     11122     11125     11126     11119     11122     11125     11127
     11119     11122     11125     11128     11120     11119     11122     11123
     11120     11119     11122     11124     11120     11119     11122     11125
     11121     11119     11122     11123     11121     11119     11122     11124
     11121     11119     11122     11125     11122     11125     11128     11129
     11122     11125     11128     11130     11123     11122     11125     11126
     11123     11122     11125     11127     11123     11122     11125     11128
     11124     11122     11125     11126     11124     11122     11125     11127
     11124     11122     11125     11128     11125     11128     11130     11131
     11125     11128     11130     11132     11126     11125     11128     11129
     11126     11125     11128     11130     11127     11125     11128     11129
     11127     11125     11128     11130     11128     11130     11132     11133
     11128     11130     11132     11134     11128     11130     11132     11135
     11129     11128     11130     11131     11129     11128     11130     11132
     11130     11132     11135     11136     11130     11132     11135     11137
     11130     11132     11135     11138     11131     11130     11132     11133
     11131     11130     11132     11134     11131     11130     11132     11135
     11132     11135     11138     11139     11132     11135     11138     11140
     11132     11135     11138     11141     11133     11132     11135     11136
     11133     11132     11135     11137     11133     11132     11135     11138
     11134     11132     11135     11136     11134     11132     11135     11137
     11134     11132     11135     11138     11135     11138     11141     11142
     11135     11138     11141     11143     11135     11138     11141     11144
     11136     11135     11138     11139     11136     11135     11138     11140
     11136     11135     11138     11141     11137     11135     11138     11139
     11137     11135     11138     11140     11137     11135     11138     11141
     11138     11141     11144     11145     11138     11141     11144     11146
     11138     11141     11144     11147     11139     11138     11141     11142
     11139     11138     11141     11143     11139     11138     11141     11144
     11140     11138     11141     11142     11140     11138     11141     11143
     11140     11138     11141     11144     11141     11144     11147     11148
     11141     11144     11147     11149     11141     11144     11147     11150
     11142     11141     11144     11145     11142     11141     11144     11146
     11142     11141     11144     11147     11143     11141     11144     11145
     11143     11141     11144     11146     11143     11141     11144     11147
     11144     11147     11150     11151     11144     11147     11150     11152
     11144     11147     11150     11153     11145     11144     11147     11148
     11145     11144     11147     11149     11145     11144     11147     11150
     11146     11144     11147     11148     11146     11144     11147     11149
     11146     11144     11147     11150     11147     11150     11153     11154
     11147     11150     11153     11155     11147     11150     11153     11156
     11148     11147     11150     11151     11148     11147     11150     11152
     11148     11147     11150     11153     11149     11147     11150     11151
     11149     11147     11150     11152     11149     11147     11150     11153
     11151     11150     11153     11154     11151     11150     11153     11155
     11151     11150     11153     11156     11152     11150     11153     11154
     11152     11150     11153     11155     11152     11150     11153     11156
     15611     15615     15618     15619     15611     15615     15618     15620
     15611     15615     15618     15624     15612     15611     15615     15616
     15612     15611     15615     15617     15612     15611     15615     15618
     15613     15611     15615     15616     15613     15611     15615     15617
     15613     15611     15615     15618     15614     15611     15615     15616
     15614     15611     15615     15617     15614     15611     15615     15618
     15615     15618     15624     15621     15616     15615     15618     15619
     15616     15615     15618     15620     15616     15615     15618     15624
     15617     15615     15618     15619     15617     15615     15618     15620
     15617     15615     15618     15624     15618     15624     15621     15622
     15618     15624     15621     15623     15618     15624     15621     15625
     15619     15618     15624     15621     15620     15618     15624     15621
     15621     15625     15626     15627     15621     15625     15626     15628
     15621     15625     15626     15629     15622     15621     15625     15626
     15623     15621     15625     15626     15624     15621     15625     15626
     15625     15626     15629     15630     15625     15626     15629     15631
     15625     15626     15629     15637     15626     15629     15631     15632
     15626     15629     15637     15638     15626     15629     15637     15639
     15626     15629     15637     15640     15627     15626     15629     15630
     15627     15626     15629     15631     15627     15626     15629     15637
     15628     15626     15629     15630     15628     15626     15629     15631
     15628     15626     15629     15637     15629     15631     15632     15633
     15629     15631     15632     15634     15629     15637     15640     15641
     15630     15629     15631     15632     15630     15629     15637     15638
     15630     15629     15637     15639     15630     15629     15637     15640
     15631     15629     15637     15638     15631     15629     15637     15639
     15631     15629     15637     15640     15631     15632     15634     15635
     15631     15632     15634     15636     15631     15632     15634     15646
     15632     15631     15629     15637     15632     15634     15646     15647
     15632     15634     15646     15648     15632     15634     15646     15649
     15633     15632     15634     15635     15633     15632     15634     15636
     15633     15632     15634     15646     15634     15646     15649     15650
     15634     15646     15649     15651     15634     15646     15649     15652
     15635     15634     15646     15647     15635     15634     15646     15648
     15635     15634     15646     15649     15636     15634     15646     15647
     15636     15634     15646     15648     15636     15634     15646     15649
     15637     15640     15641     15642     15637     15640     15641     15643
     15638     15637     15640     15641     15639     15637     15640     15641
     15640     15641     15643     15644     15640     15641     15643     15645
     15640     15641     15643     15693     15641     15643     15693     15694
     15641     15643     15693     15695     15641     15643     15693     15696
     15642     15641     15643     15644     15642     15641     15643     15645
     15642     15641     15643     15693     15643     15693     15696     15697
     15643     15693     15696     15698     15643     15693     15696     15699
     15644     15643     15693     15694     15644     15643     15693     15695
     15644     15643     15693     15696     15645     15643     15693     15694
     15645     15643     15693     15695     15645     15643     15693     15696
     15646     15649     15652     15653     15646     15649     15652     15654
     15647     15646     15649     15650     15647     15646     15649     15651
     15647     15646     15649     15652     15648     15646     15649     15650
     15648     15646     15649     15651     15648     15646     15649     15652
     15649     15652     15654     15655     15649     15652     15654     15656
     15650     15649     15652     15653     15650     15649     15652     15654
     15651     15649     15652     15653     15651     15649     15652     15654
     15652     15654     15656     15657     15652     15654     15656     15658
     15652     15654     15656     15659     15653     15652     15654     15655
     15653     15652     15654     15656     15654     15656     15659     15660
     15654     15656     15659     15661     15655     15654     15656     15657
     15655     15654     15656     15658     15655     15654     15656     15659
     15656     15659     15661     15662     15656     15659     15661     15663
     15657     15656     15659     15660     15657     15656     15659     15661
     15658     15656     15659     15660     15658     15656     15659     15661
     15659     15661     15663     15664     15659     15661     15663     15665
     15659     15661     15663     15666     15660     15659     15661     15662
     15660     15659     15661     15663     15661     15663     15666     15667
     15661     15663     15666     15668     15662     15661     15663     15664
     15662     15661     15663     15665     15662     15661     15663     15666
     15663     15666     15668     15669     15663     15666     15668     15670
     15664     15663     15666     15667     15664     15663     15666     15668
     15665     15663     15666     15667     15665     15663     15666     15668
     15666     15668     15670     15671     15666     15668     15670     15672
     15666     15668     15670     15673     15667     15666     15668     15669
     15667     15666     15668     15670     15668     15670     15673     15674
     15668     15670     15673     15675     15669     15668     15670     15671
     15669     15668     15670     15672     15669     15668     15670     15673
     15670     15673     15675     15676     15670     15673     15675     15677
     15671     15670     15673     15674     15671     15670     15673     15675
     15672     15670     15673     15674     15672     15670     15673     15675
     15673     15675     15677     15678     15673     15675     15677     15679
     15673     15675     15677     15680     15674     15673     15675     15676
     15674     15673     15675     15677     15675     15677     15680     15681
     15675     15677     15680     15682     15675     15677     15680     15683
     15676     15675     15677     15678     15676     15675     15677     15679
     15676     15675     15677     15680     15677     15680     15683     15684
     15677     15680     15683     15685     15677     15680     15683     15686
     15678     15677     15680     15681     15678     15677     15680     15682
     15678     15677     15680     15683     15679     15677     15680     15681
     15679     15677     15680     15682     15679     15677     15680     15683
     15680     15683     15686     15687     15680     15683     15686     15688
     15680     15683     15686     15689     15681     15680     15683     15684
     15681     15680     15683     15685     15681     15680     15683     15686
     15682     15680     15683     15684     15682     15680     15683     15685
     15682     15680     15683     15686     15683     15686     15689     15690
     15683     15686     15689     15691     15683     15686     15689     15692
     15684     15683     15686     15687     15684     15683     15686     15688
     15684     15683     15686     15689     15685     15683     15686     15687
     15685     15683     15686     15688     15685     15683     15686     15689
     15687     15686     15689     15690     15687     15686     15689     15691
     15687     15686     15689     15692     15688     15686     15689     15690
     15688     15686     15689     15691     15688     15686     15689     15692
     15693     15696     15699     15700     15693     15696     15699     15701
     15693     15696     15699     15702     15694     15693     15696     15697
     15694     15693     15696     15698     15694     15693     15696     15699
     15695     15693     15696     15697     15695     15693     15696     15698
     15695     15693     15696     15699     15696     15699     15702     15703
     15696     15699     15702     15704     15696     15699     15702     15705
     15697     15696     15699     15700     15697     15696     15699     15701
     15697     15696     15699     15702     15698     15696     15699     15700
     15698     15696     15699     15701     15698     15696     15699     15702
     15699     15702     15705     15706     15699     15702     15705     15707
     15699     15702     15705     15708     15700     15699     15702     15703
     15700     15699     15702     15704     15700     15699     15702     15705
     15701     15699     15702     15703     15701     15699     15702     15704
     15701     15699     15702     15705     15702     15705     15708     15709
     15702     15705     15708     15710     15702     15705     15708     15711
     15703     15702     15705     15706     15703     15702     15705     15707
     15703     15702     15705     15708     15704     15702     15705     15706
     15704     15702     15705     15707     15704     15702     15705     15708
     15705     15708     15711     15712     15705     15708     15711     15713
     15705     15708     15711     15714     15706     15705     15708     15709
     15706     15705     15708     15710     15706     15705     15708     15711
     15707     15705     15708     15709     15707     15705     15708     15710
     15707     15705     15708     15711     15708     15711     15714     15715
     15708     15711     15714     15716     15708     15711     15714     15717
     15709     15708     15711     15712     15709     15708     15711     15713
     15709     15708     15711     15714     15710     15708     15711     15712
     15710     15708     15711     15713     15710     15708     15711     15714
     15711     15714     15717     15718     15711     15714     15717     15719
     15711     15714     15717     15720     15712     15711     15714     15715
     15712     15711     15714     15716     15712     15711     15714     15717
     15713     15711     15714     15715     15713     15711     15714     15716
     15713     15711     15714     15717     15714     15717     15720     15721
     15714     15717     15720     15722     15714     15717     15720     15723
     15715     15714     15717     15718     15715     15714     15717     15719
     15715     15714     15717     15720     15716     15714     15717     15718
     15716     15714     15717     15719     15716     15714     15717     15720
     15717     15720     15723     15724     15717     15720     15723     15725
     15717     15720     15723     15726     15718     15717     15720     15721
     15718     15717     15720     15722     15718     15717     15720     15723
     15719     15717     15720     15721     15719     15717     15720     15722
     15719     15717     15720     15723     15720     15723     15726     15727
     15720     15723     15726     15728     15720     15723     15726     15729
     15721     15720     15723     15724     15721     15720     15723     15725
     15721     15720     15723     15726     15722     15720     15723     15724
     15722     15720     15723     15725     15722     15720     15723     15726
     15723     15726     15729     15730     15723     15726     15729     15731
     15723     15726     15729     15732     15724     15723     15726     15727
     15724     15723     15726     15728     15724     15723     15726     15729
     15725     15723     15726     15727     15725     15723     15726     15728
     15725     15723     15726     15729     15726     15729     15732     15733
     15726     15729     15732     15734     15726     15729     15732     15735
     15727     15726     15729     15730     15727     15726     15729     15731
     15727     15726     15729     15732     15728     15726     15729     15730
     15728     15726     15729     15731     15728     15726     15729     15732
     15729     15732     15735     15736     15729     15732     15735     15737
     15729     15732     15735     15738     15730     15729     15732     15733
     15730     15729     15732     15734     15730     15729     15732     15735
     15731     15729     15732     15733     15731     15729     15732     15734
     15731     15729     15732     15735     15732     15735     15738     15739
     15732     15735     15738     15740     15732     15735     15738     15741
     15733     15732     15735     15736     15733     15732     15735     15737
     15733     15732     15735     15738     15734     15732     15735     15736
     15734     15732     15735     15737     15734     15732     15735     15738
     15736     15735     15738     15739     15736     15735     15738     15740
     15736     15735     15738     15741     15737     15735     15738     15739
     15737     15735     15738     15740     15737     15735     15738     15741
      7143      7147      7150      7151      7143      7147      7150      7181
      7143      7189      7186      7181      7143      7189      7186      7187
      7143      7189      7186      7188      7144      7143      7145      7146
      7144      7143      7147      7148      7144      7143      7147      7149
      7144      7143      7147      7150      7144      7143      7189      7186
      7144      7143      7189      7190      7144      7143      7189      7191
      7145      7143      7147      7148      7145      7143      7147      7149
      7145      7143      7147      7150      7145      7143      7189      7186
      7145      7143      7189      7190      7145      7143      7189      7191
      7146      7145      7143      7147      7146      7145      7143      7189
      7147      7143      7189      7186      7147      7143      7189      7190
      7147      7143      7189      7191      7147      7150      7151      7152
      7147      7150      7151      7153      7147      7150      7181      7179
      7147      7150      7181      7182      7147      7150      7181      7186
      7148      7147      7143      7189      7148      7147      7150      7151
      7148      7147      7150      7181      7149      7147      7143      7189
      7149      7147      7150      7151      7149      7147      7150      7181
      7150      7147      7143      7189      7150      7151      7153      7154
      7150      7151      7153      7155      7150      7151      7153      7156
      7150      7181      7179      7156      7150      7181      7179      7176
      7150      7181      7179      7180      7150      7181      7182      7183
      7150      7181      7182      7184      7150      7181      7182      7185
      7150      7181      7186      7187      7150      7181      7186      7188
      7150      7181      7186      7189      7151      7150      7181      7179
      7151      7150      7181      7182      7151      7150      7181      7186
      7151      7153      7156      7157      7151      7153      7156      7158
      7151      7153      7156      7179      7152      7151      7150      7181
      7152      7151      7153      7154      7152      7151      7153      7155
      7152      7151      7153      7156      7153      7151      7150      7181
      7153      7156      7158      7159      7153      7156      7158      7160
      7153      7156      7158      7168      7153      7156      7179      7176
      7153      7156      7179      7180      7153      7156      7179      7181
      7154      7153      7156      7157      7154      7153      7156      7158
      7154      7153      7156      7179      7155      7153      7156      7157
      7155      7153      7156      7158      7155      7153      7156      7179
      7156      7158      7160      7161      7156      7158      7160      7162
      7156      7158      7160      7163      7156      7158      7168      7166
      7156      7158      7168      7169      7156      7158      7168      7173
      7156      7179      7176      7173      7156      7179      7176      7177
      7156      7179      7176      7178      7156      7179      7181      7182
      7156      7179      7181      7186      7157      7156      7158      7159
      7157      7156      7158      7160      7157      7156      7158      7168
      7157      7156      7179      7176      7157      7156      7179      7180
      7157      7156      7179      7181      7158      7156      7179      7176
      7158      7156      7179      7180      7158      7156      7179      7181
      7158      7160      7163      7164      7158      7160      7163      7165
      7158      7160      7163      7166      7158      7168      7166      7163
      7158      7168      7166      7167      7158      7168      7166      7192
      7158      7168      7169      7170      7158      7168      7169      7171
      7158      7168      7169      7172      7158      7168      7173      7174
      7158      7168      7173      7175      7158      7168      7173      7176
      7159      7158      7156      7179      7159      7158      7160      7161
      7159      7158      7160      7162      7159      7158      7160      7163
      7159      7158      7168      7166      7159      7158      7168      7169
      7159      7158      7168      7173      7160      7158      7156      7179
      7160      7158      7168      7166      7160      7158      7168      7169
      7160      7158      7168      7173      7160      7163      7166      7167
      7160      7163      7166      7168      7160      7163      7166      7192
      7161      7160      7158      7168      7161      7160      7163      7164
      7161      7160      7163      7165      7161      7160      7163      7166
      7162      7160      7158      7168      7162      7160      7163      7164
      7162      7160      7163      7165      7162      7160      7163      7166
      7163      7160      7158      7168      7163      7166      7168      7169
      7163      7166      7168      7173      7163      7166      7192      7193
      7163      7166      7192      7194      7163      7166      7192      7198
      7164      7163      7166      7167      7164      7163      7166      7168
      7164      7163      7166      7192      7165      7163      7166      7167
      7165      7163      7166      7168      7165      7163      7166      7192
      7166      7168      7169      7170      7166      7168      7169      7171
      7166      7168      7169      7172      7166      7168      7173      7174
      7166      7168      7173      7175      7166      7168      7173      7176
      7166      7192      7194      7195      7166      7192      7194      7196
      7166      7192      7194      7197      7166      7192      7198      7199
      7166      7192      7198      7200      7166      7192      7198      7201
      7167      7166      7168      7169      7167      7166      7168      7173
      7167      7166      7192      7193      7167      7166      7192      7194
      7167      7166      7192      7198      7168      7158      7156      7179
      7168      7166      7192      7193      7168      7166      7192      7194
      7168      7166      7192      7198      7168      7173      7176      7177
      7168      7173      7176      7178      7168      7173      7176      7179
      7169      7168      7166      7192      7169      7168      7173      7174
      7169      7168      7173      7175      7169      7168      7173      7176
      7170      7169      7168      7173      7171      7169      7168      7173
      7172      7169      7168      7173      7173      7168      7166      7192
      7173      7176      7179      7180      7173      7176      7179      7181
      7174      7173      7176      7177      7174      7173      7176      7178
      7174      7173      7176      7179      7175      7173      7176      7177
      7175      7173      7176      7178      7175      7173      7176      7179
      7176      7179      7181      7182      7176      7179      7181      7186
      7177      7176      7179      7180      7177      7176      7179      7181
      7178      7176      7179      7180      7178      7176      7179      7181
      7179      7181      7182      7183      7179      7181      7182      7184
      7179      7181      7182      7185      7179      7181      7186      7187
      7179      7181      7186      7188      7179      7181      7186      7189
      7180      7179      7181      7182      7180      7179      7181      7186
      7181      7186      7189      7190      7181      7186      7189      7191
      7182      7181      7186      7187      7182      7181      7186      7188
      7182      7181      7186      7189      7183      7182      7181      7186
      7184      7182      7181      7186      7185      7182      7181      7186
      7187      7186      7189      7190      7187      7186      7189      7191
      7188      7186      7189      7190      7188      7186      7189      7191
      7192      7198      7201      7202      7192      7198      7201      7203
      7192      7198      7201      7204      7193      7192      7194      7195
      7193      7192      7194      7196      7193      7192      7194      7197
      7193      7192      7198      7199      7193      7192      7198      7200
      7193      7192      7198      7201      7194      7192      7198      7199
      7194      7192      7198      7200      7194      7192      7198      7201
      7195      7194      7192      7198      7196      7194      7192      7198
      7197      7194      7192      7198      7198      7201      7204      7205
      7198      7201      7204      7206      7198      7201      7204      7207
      7199      7198      7201      7202      7199      7198      7201      7203
      7199      7198      7201      7204      7200      7198      7201      7202
      7200      7198      7201      7203      7200      7198      7201      7204
      7201      7204      7207      7208      7201      7204      7207      7209
      7201      7204      7207      7213      7202      7201      7204      7205
      7202      7201      7204      7206      7202      7201      7204      7207
      7203      7201      7204      7205      7203      7201      7204      7206
      7203      7201      7204      7207      7204      7207      7209      7210
      7204      7207      7209      7211      7204      7207      7209      7212
      7204      7207      7213      7214      7204      7207      7213      7215
      7204      7207      7213      7216      7205      7204      7207      7208
      7205      7204      7207      7209      7205      7204      7207      7213
      7206      7204      7207      7208      7206      7204      7207      7209
      7206      7204      7207      7213      7208      7207      7209      7210
      7208      7207      7209      7211      7208      7207      7209      7212
      7208      7207      7213      7214      7208      7207      7213      7215
      7208      7207      7213      7216      7209      7207      7213      7214
      7209      7207      7213      7215      7209      7207      7213      7216
      7210      7209      7207      7213      7211      7209      7207      7213
      7212      7209      7207      7213      2549      2550      2565      2566
      2549      2550      2565      2567      2549      2550      2565      2571
      2550      2549      2553      2554      2550      2549      2553      2555
      2550      2549      2553      2556      2550      2549      2557      2558
      2550      2549      2557      2559      2550      2549      2557      2560
      2550      2549      2561      2562      2550      2549      2561      2563
      2550      2549      2561      2564      2550      2565      2571      2568
      2551      2550      2549      2553      2551      2550      2549      2557
      2551      2550      2549      2561      2551      2550      2565      2566
      2551      2550      2565      2567      2551      2550      2565      2571
      2552      2550      2549      2553      2552      2550      2549      2557
      2552      2550      2549      2561      2552      2550      2565      2566
      2552      2550      2565      2567      2552      2550      2565      2571
      2553      2549      2550      2565      2553      2549      2557      2558
      2553      2549      2557      2559      2553      2549      2557      2560
      2553      2549      2561      2562      2553      2549      2561      2563
      2553      2549      2561      2564      2554      2553      2549      2557
      2554      2553      2549      2561      2555      2553      2549      2557
      2555      2553      2549      2561      2556      2553      2549      2557
      2556      2553      2549      2561      2557      2549      2550      2565
      2557      2549      2561      2562      2557      2549      2561      2563
      2557      2549      2561      2564      2558      2557      2549      2561
      2559      2557      2549      2561      2560      2557      2549      2561
      2561      2549      2550      2565      2565      2571      2568      2569
      2565      2571      2568      2570      2565      2571      2568      2572
      2566      2565      2571      2568      2567      2565      2571      2568
      2568      2572      2573      2574      2568      2572      2573      2575
      2568      2572      2573      2576      2569      2568      2572      2573
      2570      2568      2572      2573      2571      2568      2572      2573
      2572      2573      2576      2577      2572      2573      2576      2578
      2572      2573      2576      2584      2573      2576      2578      2579
      2573      2576      2584      2585      2573      2576      2584      2586
      2573      2576      2584      2587      2574      2573      2576      2577
      2574      2573      2576      2578      2574      2573      2576      2584
      2575      2573      2576      2577      2575      2573      2576      2578
      2575      2573      2576      2584      2576      2578      2579      2580
      2576      2578      2579      2581      2576      2584      2587      2588
      2577      2576      2578      2579      2577      2576      2584      2585
      2577      2576      2584      2586      2577      2576      2584      2587
      2578      2576      2584      2585      2578      2576      2584      2586
      2578      2576      2584      2587      2578      2579      2581      2582
      2578      2579      2581      2583      2578      2579      2581      2593
      2579      2578      2576      2584      2579      2581      2593      2594
      2579      2581      2593      2595      2579      2581      2593      2596
      2580      2579      2581      2582      2580      2579      2581      2583
      2580      2579      2581      2593      2581      2593      2596      2597
      2581      2593      2596      2598      2581      2593      2596      2599
      2582      2581      2593      2594      2582      2581      2593      2595
      2582      2581      2593      2596      2583      2581      2593      2594
      2583      2581      2593      2595      2583      2581      2593      2596
      2584      2587      2588      2589      2584      2587      2588      2590
      2585      2584      2587      2588      2586      2584      2587      2588
      2587      2588      2590      2591      2587      2588      2590      2592
      2587      2588      2590      2640      2588      2590      2640      2641
      2588      2590      2640      2642      2588      2590      2640      2643
      2589      2588      2590      2591      2589      2588      2590      2592
      2589      2588      2590      2640      2590      2640      2643      2644
      2590      2640      2643      2645      2590      2640      2643      2646
      2591      2590      2640      2641      2591      2590      2640      2642
      2591      2590      2640      2643      2592      2590      2640      2641
      2592      2590      2640      2642      2592      2590      2640      2643
      2593      2596      2599      2600      2593      2596      2599      2601
      2594      2593      2596      2597      2594      2593      2596      2598
      2594      2593      2596      2599      2595      2593      2596      2597
      2595      2593      2596      2598      2595      2593      2596      2599
      2596      2599      2601      2602      2596      2599      2601      2603
      2597      2596      2599      2600      2597      2596      2599      2601
      2598      2596      2599      2600      2598      2596      2599      2601
      2599      2601      2603      2604      2599      2601      2603      2605
      2599      2601      2603      2606      2600      2599      2601      2602
      2600      2599      2601      2603      2601      2603      2606      2607
      2601      2603      2606      2608      2602      2601      2603      2604
      2602      2601      2603      2605      2602      2601      2603      2606
      2603      2606      2608      2609      2603      2606      2608      2610
      2604      2603      2606      2607      2604      2603      2606      2608
      2605      2603      2606      2607      2605      2603      2606      2608
      2606      2608      2610      2611      2606      2608      2610      2612
      2606      2608      2610      2613      2607      2606      2608      2609
      2607      2606      2608      2610      2608      2610      2613      2614
      2608      2610      2613      2615      2609      2608      2610      2611
      2609      2608      2610      2612      2609      2608      2610      2613
      2610      2613      2615      2616      2610      2613      2615      2617
      2611      2610      2613      2614      2611      2610      2613      2615
      2612      2610      2613      2614      2612      2610      2613      2615
      2613      2615      2617      2618      2613      2615      2617      2619
      2613      2615      2617      2620      2614      2613      2615      2616
      2614      2613      2615      2617      2615      2617      2620      2621
      2615      2617      2620      2622      2616      2615      2617      2618
      2616      2615      2617      2619      2616      2615      2617      2620
      2617      2620      2622      2623      2617      2620      2622      2624
      2618      2617      2620      2621      2618      2617      2620      2622
      2619      2617      2620      2621      2619      2617      2620      2622
      2620      2622      2624      2625      2620      2622      2624      2626
      2620      2622      2624      2627      2621      2620      2622      2623
      2621      2620      2622      2624      2622      2624      2627      2628
      2622      2624      2627      2629      2622      2624      2627      2630
      2623      2622      2624      2625      2623      2622      2624      2626
      2623      2622      2624      2627      2624      2627      2630      2631
      2624      2627      2630      2632      2624      2627      2630      2633
      2625      2624      2627      2628      2625      2624      2627      2629
      2625      2624      2627      2630      2626      2624      2627      2628
      2626      2624      2627      2629      2626      2624      2627      2630
      2627      2630      2633      2634      2627      2630      2633      2635
      2627      2630      2633      2636      2628      2627      2630      2631
      2628      2627      2630      2632      2628      2627      2630      2633
      2629      2627      2630      2631      2629      2627      2630      2632
      2629      2627      2630      2633      2630      2633      2636      2637
      2630      2633      2636      2638      2630      2633      2636      2639
      2631      2630      2633      2634      2631      2630      2633      2635
      2631      2630      2633      2636      2632      2630      2633      2634
      2632      2630      2633      2635      2632      2630      2633      2636
      2634      2633      2636      2637      2634      2633      2636      2638
      2634      2633      2636      2639      2635      2633      2636      2637
      2635      2633      2636      2638      2635      2633      2636      2639
      2640      2643      2646      2647      2640      2643      2646      2648
      2640      2643      2646      2649      2641      2640      2643      2644
      2641      2640      2643      2645      2641      2640      2643      2646
      2642      2640      2643      2644      2642      2640      2643      2645
      2642      2640      2643      2646      2643      2646      2649      2650
      2643      2646      2649      2651      2643      2646      2649      2652
      2644      2643      2646      2647      2644      2643      2646      2648
      2644      2643      2646      2649      2645      2643      2646      2647
      2645      2643      2646      2648      2645      2643      2646      2649
      2646      2649      2652      2653      2646      2649      2652      2654
      2646      2649      2652      2655      2647      2646      2649      2650
      2647      2646      2649      2651      2647      2646      2649      2652
      2648      2646      2649      2650      2648      2646      2649      2651
      2648      2646      2649      2652      2649      2652      2655      2656
      2649      2652      2655      2657      2649      2652      2655      2658
      2650      2649      2652      2653      2650      2649      2652      2654
      2650      2649      2652      2655      2651      2649      2652      2653
      2651      2649      2652      2654      2651      2649      2652      2655
      2652      2655      2658      2659      2652      2655      2658      2660
      2652      2655      2658      2661      2653      2652      2655      2656
      2653      2652      2655      2657      2653      2652      2655      2658
      2654      2652      2655      2656      2654      2652      2655      2657
      2654      2652      2655      2658      2655      2658      2661      2662
      2655      2658      2661      2663      2655      2658      2661      2664
      2656      2655      2658      2659      2656      2655      2658      2660
      2656      2655      2658      2661      2657      2655      2658      2659
      2657      2655      2658      2660      2657      2655      2658      2661
      2658      2661      2664      2665      2658      2661      2664      2666
      2658      2661      2664      2667      2659      2658      2661      2662
      2659      2658      2661      2663      2659      2658      2661      2664
      2660      2658      2661      2662      2660      2658      2661      2663
      2660      2658      2661      2664      2661      2664      2667      2668
      2661      2664      2667      2669      2661      2664      2667      2670
      2662      2661      2664      2665      2662      2661      2664      2666
      2662      2661      2664      2667      2663      2661      2664      2665
      2663      2661      2664      2666      2663      2661      2664      2667
      2664      2667      2670      2671      2664      2667      2670      2672
      2664      2667      2670      2673      2665      2664      2667      2668
      2665      2664      2667      2669      2665      2664      2667      2670
      2666      2664      2667      2668      2666      2664      2667      2669
      2666      2664      2667      2670      2667      2670      2673      2674
      2667      2670      2673      2675      2667      2670      2673      2676
      2668      2667      2670      2671      2668      2667      2670      2672
      2668      2667      2670      2673      2669      2667      2670      2671
      2669      2667      2670      2672      2669      2667      2670      2673
      2670      2673      2676      2677      2670      2673      2676      2678
      2670      2673      2676      2679      2671      2670      2673      2674
      2671      2670      2673      2675      2671      2670      2673      2676
      2672      2670      2673      2674      2672      2670      2673      2675
      2672      2670      2673      2676      2673      2676      2679      2680
      2673      2676      2679      2681      2673      2676      2679      2682
      2674      2673      2676      2677      2674      2673      2676      2678
      2674      2673      2676      2679      2675      2673      2676      2677
      2675      2673      2676      2678      2675      2673      2676      2679
      2676      2679      2682      2683      2676      2679      2682      2684
      2676      2679      2682      2685      2677      2676      2679      2680
      2677      2676      2679      2681      2677      2676      2679      2682
      2678      2676      2679      2680      2678      2676      2679      2681
      2678      2676      2679      2682      2679      2682      2685      2686
      2679      2682      2685      2687      2679      2682      2685      2688
      2680      2679      2682      2683      2680      2679      2682      2684
      2680      2679      2682      2685      2681      2679      2682      2683
      2681      2679      2682      2684      2681      2679      2682      2685
      2683      2682      2685      2686      2683      2682      2685      2687
      2683      2682      2685      2688      2684      2682      2685      2686
      2684      2682      2685      2687      2684      2682      2685      2688
     11157     11170     11173     11174     11157     11170     11173     11175
     11157     11170     11173     11180     11158     11157     11162     11163
     11158     11157     11162     11164     11158     11157     11162     11165
     11158     11157     11166     11167     11158     11157     11166     11168
     11158     11157     11166     11169     11158     11157     11170     11171
     11158     11157     11170     11172     11158     11157     11170     11173
     11159     11158     11157     11162     11159     11158     11157     11166
     11159     11158     11157     11170     11160     11158     11157     11162
     11160     11158     11157     11166     11160     11158     11157     11170
     11161     11158     11157     11162     11161     11158     11157     11166
     11161     11158     11157     11170     11162     11157     11166     11167
     11162     11157     11166     11168     11162     11157     11166     11169
     11162     11157     11170     11171     11162     11157     11170     11172
     11162     11157     11170     11173     11163     11162     11157     11166
     11163     11162     11157     11170     11164     11162     11157     11166
     11164     11162     11157     11170     11165     11162     11157     11166
     11165     11162     11157     11170     11166     11157     11170     11171
     11166     11157     11170     11172     11166     11157     11170     11173
     11167     11166     11157     11170     11168     11166     11157     11170
     11169     11166     11157     11170     11170     11173     11180     11176
     11171     11170     11173     11174     11171     11170     11173     11175
     11171     11170     11173     11180     11172     11170     11173     11174
     11172     11170     11173     11175     11172     11170     11173     11180
     11173     11180     11176     11177     11173     11180     11176     11178
     11173     11180     11176     11179     11174     11173     11180     11176
     11175     11173     11180     11176     11176     11179     11181     11182
     11176     11179     11181     11183     11176     11179     11181     11186
     11177     11176     11179     11181     11178     11176     11179     11181
     11179     11181     11186     11184     11179     11181     11186     11187
     11179     11181     11186     11188     11180     11176     11179     11181
     11181     11186     11184     11185     11181     11186     11184     11236
     11181     11186     11188     11189     11181     11186     11188     11190
     11181     11186     11188     11192     11182     11181     11186     11184
     11182     11181     11186     11187     11182     11181     11186     11188
     11183     11181     11186     11184     11183     11181     11186     11187
     11183     11181     11186     11188     11184     11186     11188     11189
     11184     11186     11188     11190     11184     11186     11188     11192
     11184     11236     11238     11239     11184     11236     11238     11240
     11184     11236     11238     11241     11185     11184     11186     11187
     11185     11184     11186     11188     11185     11184     11236     11237
     11185     11184     11236     11238     11186     11184     11236     11237
     11186     11184     11236     11238     11186     11188     11190     11191
     11186     11188     11192     11193     11186     11188     11192     11194
     11187     11186     11184     11236     11187     11186     11188     11189
     11187     11186     11188     11190     11187     11186     11188     11192
     11188     11186     11184     11236     11188     11192     11194     11195
     11188     11192     11194     11196     11189     11188     11190     11191
     11189     11188     11192     11193     11189     11188     11192     11194
     11190     11188     11192     11193     11190     11188     11192     11194
     11191     11190     11188     11192     11192     11194     11196     11197
     11192     11194     11196     11198     11192     11194     11196     11199
     11193     11192     11194     11195     11193     11192     11194     11196
     11194     11196     11199     11200     11194     11196     11199     11201
     11194     11196     11199     11202     11195     11194     11196     11197
     11195     11194     11196     11198     11195     11194     11196     11199
     11196     11199     11202     11203     11196     11199     11202     11204
     11196     11199     11202     11205     11197     11196     11199     11200
     11197     11196     11199     11201     11197     11196     11199     11202
     11198     11196     11199     11200     11198     11196     11199     11201
     11198     11196     11199     11202     11199     11202     11205     11206
     11199     11202     11205     11207     11199     11202     11205     11208
     11200     11199     11202     11203     11200     11199     11202     11204
     11200     11199     11202     11205     11201     11199     11202     11203
     11201     11199     11202     11204     11201     11199     11202     11205
     11202     11205     11208     11209     11202     11205     11208     11210
     11202     11205     11208     11211     11203     11202     11205     11206
     11203     11202     11205     11207     11203     11202     11205     11208
     11204     11202     11205     11206     11204     11202     11205     11207
     11204     11202     11205     11208     11205     11208     11211     11212
     11205     11208     11211     11213     11205     11208     11211     11214
     11206     11205     11208     11209     11206     11205     11208     11210
     11206     11205     11208     11211     11207     11205     11208     11209
     11207     11205     11208     11210     11207     11205     11208     11211
     11208     11211     11214     11215     11208     11211     11214     11216
     11208     11211     11214     11217     11209     11208     11211     11212
     11209     11208     11211     11213     11209     11208     11211     11214
     11210     11208     11211     11212     11210     11208     11211     11213
     11210     11208     11211     11214     11211     11214     11217     11218
     11211     11214     11217     11219     11211     11214     11217     11220
     11212     11211     11214     11215     11212     11211     11214     11216
     11212     11211     11214     11217     11213     11211     11214     11215
     11213     11211     11214     11216     11213     11211     11214     11217
     11214     11217     11220     11221     11214     11217     11220     11222
     11214     11217     11220     11223     11215     11214     11217     11218
     11215     11214     11217     11219     11215     11214     11217     11220
     11216     11214     11217     11218     11216     11214     11217     11219
     11216     11214     11217     11220     11217     11220     11223     11224
     11217     11220     11223     11225     11217     11220     11223     11226
     11218     11217     11220     11221     11218     11217     11220     11222
     11218     11217     11220     11223     11219     11217     11220     11221
     11219     11217     11220     11222     11219     11217     11220     11223
     11220     11223     11226     11227     11220     11223     11226     11228
     11220     11223     11226     11229     11221     11220     11223     11224
     11221     11220     11223     11225     11221     11220     11223     11226
     11222     11220     11223     11224     11222     11220     11223     11225
     11222     11220     11223     11226     11223     11226     11229     11230
     11223     11226     11229     11231     11223     11226     11229     11232
     11224     11223     11226     11227     11224     11223     11226     11228
     11224     11223     11226     11229     11225     11223     11226     11227
     11225     11223     11226     11228     11225     11223     11226     11229
     11226     11229     11232     11233     11226     11229     11232     11234
     11226     11229     11232     11235     11227     11226     11229     11230
     11227     11226     11229     11231     11227     11226     11229     11232
     11228     11226     11229     11230     11228     11226     11229     11231
     11228     11226     11229     11232     11230     11229     11232     11233
     11230     11229     11232     11234     11230     11229     11232     11235
     11231     11229     11232     11233     11231     11229     11232     11234
     11231     11229     11232     11235     11236     11238     11241     11242
     11236     11238     11241     11243     11236     11238     11241     11244
     11237     11236     11238     11239     11237     11236     11238     11240
     11237     11236     11238     11241     11238     11241     11244     11245
     11238     11241     11244     11246     11238     11241     11244     11247
     11239     11238     11241     11242     11239     11238     11241     11243
     11239     11238     11241     11244     11240     11238     11241     11242
     11240     11238     11241     11243     11240     11238     11241     11244
     11241     11244     11247     11248     11241     11244     11247     11249
     11241     11244     11247     11250     11242     11241     11244     11245
     11242     11241     11244     11246     11242     11241     11244     11247
     11243     11241     11244     11245     11243     11241     11244     11246
     11243     11241     11244     11247     11244     11247     11250     11251
     11244     11247     11250     11252     11244     11247     11250     11253
     11245     11244     11247     11248     11245     11244     11247     11249
     11245     11244     11247     11250     11246     11244     11247     11248
     11246     11244     11247     11249     11246     11244     11247     11250
     11247     11250     11253     11254     11247     11250     11253     11255
     11247     11250     11253     11256     11248     11247     11250     11251
     11248     11247     11250     11252     11248     11247     11250     11253
     11249     11247     11250     11251     11249     11247     11250     11252
     11249     11247     11250     11253     11250     11253     11256     11257
     11250     11253     11256     11258     11250     11253     11256     11259
     11251     11250     11253     11254     11251     11250     11253     11255
     11251     11250     11253     11256     11252     11250     11253     11254
     11252     11250     11253     11255     11252     11250     11253     11256
     11253     11256     11259     11260     11253     11256     11259     11261
     11254     11253     11256     11257     11254     11253     11256     11258
     11254     11253     11256     11259     11255     11253     11256     11257
     11255     11253     11256     11258     11255     11253     11256     11259
     11256     11259     11261     11262     11256     11259     11261     11263
     11257     11256     11259     11260     11257     11256     11259     11261
     11258     11256     11259     11260     11258     11256     11259     11261
     11259     11261     11263     11264     11259     11261     11263     11265
     11259     11261     11263     11266     11260     11259     11261     11262
     11260     11259     11261     11263     11261     11263     11266     11267
     11261     11263     11266     11268     11261     11263     11266     11269
     11262     11261     11263     11264     11262     11261     11263     11265
     11262     11261     11263     11266     11263     11266     11269     11270
     11263     11266     11269     11271     11263     11266     11269     11272
     11264     11263     11266     11267     11264     11263     11266     11268
     11264     11263     11266     11269     11265     11263     11266     11267
     11265     11263     11266     11268     11265     11263     11266     11269
     11266     11269     11272     11273     11266     11269     11272     11274
     11266     11269     11272     11275     11267     11266     11269     11270
     11267     11266     11269     11271     11267     11266     11269     11272
     11268     11266     11269     11270     11268     11266     11269     11271
     11268     11266     11269     11272     11269     11272     11275     11276
     11269     11272     11275     11277     11269     11272     11275     11278
     11270     11269     11272     11273     11270     11269     11272     11274
     11270     11269     11272     11275     11271     11269     11272     11273
     11271     11269     11272     11274     11271     11269     11272     11275
     11272     11275     11278     11279     11272     11275     11278     11280
     11272     11275     11278     11281     11273     11272     11275     11276
     11273     11272     11275     11277     11273     11272     11275     11278
     11274     11272     11275     11276     11274     11272     11275     11277
     11274     11272     11275     11278     11275     11278     11281     11282
     11275     11278     11281     11283     11275     11278     11281     11284
     11276     11275     11278     11279     11276     11275     11278     11280
     11276     11275     11278     11281     11277     11275     11278     11279
     11277     11275     11278     11280     11277     11275     11278     11281
     11278     11281     11284     11285     11278     11281     11284     11286
     11278     11281     11284     11287     11279     11278     11281     11282
     11279     11278     11281     11283     11279     11278     11281     11284
     11280     11278     11281     11282     11280     11278     11281     11283
     11280     11278     11281     11284     11282     11281     11284     11285
     11282     11281     11284     11286     11282     11281     11284     11287
     11283     11281     11284     11285     11283     11281     11284     11286
     11283     11281     11284     11287     11288     11301     11304     11305
     11288     11301     11304     11306     11288     11301     11304     11311
     11289     11288     11293     11294     11289     11288     11293     11295
     11289     11288     11293     11296     11289     11288     11297     11298
     11289     11288     11297     11299     11289     11288     11297     11300
     11289     11288     11301     11302     11289     11288     11301     11303
     11289     11288     11301     11304     11290     11289     11288     11293
     11290     11289     11288     11297     11290     11289     11288     11301
     11291     11289     11288     11293     11291     11289     11288     11297
     11291     11289     11288     11301     11292     11289     11288     11293
     11292     11289     11288     11297     11292     11289     11288     11301
     11293     11288     11297     11298     11293     11288     11297     11299
     11293     11288     11297     11300     11293     11288     11301     11302
     11293     11288     11301     11303     11293     11288     11301     11304
     11294     11293     11288     11297     11294     11293     11288     11301
     11295     11293     11288     11297     11295     11293     11288     11301
     11296     11293     11288     11297     11296     11293     11288     11301
     11297     11288     11301     11302     11297     11288     11301     11303
     11297     11288     11301     11304     11298     11297     11288     11301
     11299     11297     11288     11301     11300     11297     11288     11301
     11301     11304     11311     11307     11302     11301     11304     11305
     11302     11301     11304     11306     11302     11301     11304     11311
     11303     11301     11304     11305     11303     11301     11304     11306
     11303     11301     11304     11311     11304     11311     11307     11308
     11304     11311     11307     11309     11304     11311     11307     11310
     11305     11304     11311     11307     11306     11304     11311     11307
     11307     11310     11312     11313     11307     11310     11312     11314
     11307     11310     11312     11317     11308     11307     11310     11312
     11309     11307     11310     11312     11310     11312     11317     11315
     11310     11312     11317     11318     11310     11312     11317     11319
     11311     11307     11310     11312     11312     11317     11315     11316
     11312     11317     11315     11367     11312     11317     11319     11320
     11312     11317     11319     11321     11312     11317     11319     11323
     11313     11312     11317     11315     11313     11312     11317     11318
     11313     11312     11317     11319     11314     11312     11317     11315
     11314     11312     11317     11318     11314     11312     11317     11319
     11315     11317     11319     11320     11315     11317     11319     11321
     11315     11317     11319     11323     11315     11367     11369     11370
     11315     11367     11369     11371     11315     11367     11369     11372
     11316     11315     11317     11318     11316     11315     11317     11319
     11316     11315     11367     11368     11316     11315     11367     11369
     11317     11315     11367     11368     11317     11315     11367     11369
     11317     11319     11321     11322     11317     11319     11323     11324
     11317     11319     11323     11325     11318     11317     11315     11367
     11318     11317     11319     11320     11318     11317     11319     11321
     11318     11317     11319     11323     11319     11317     11315     11367
     11319     11323     11325     11326     11319     11323     11325     11327
     11320     11319     11321     11322     11320     11319     11323     11324
     11320     11319     11323     11325     11321     11319     11323     11324
     11321     11319     11323     11325     11322     11321     11319     11323
     11323     11325     11327     11328     11323     11325     11327     11329
     11323     11325     11327     11330     11324     11323     11325     11326
     11324     11323     11325     11327     11325     11327     11330     11331
     11325     11327     11330     11332     11325     11327     11330     11333
     11326     11325     11327     11328     11326     11325     11327     11329
     11326     11325     11327     11330     11327     11330     11333     11334
     11327     11330     11333     11335     11327     11330     11333     11336
     11328     11327     11330     11331     11328     11327     11330     11332
     11328     11327     11330     11333     11329     11327     11330     11331
     11329     11327     11330     11332     11329     11327     11330     11333
     11330     11333     11336     11337     11330     11333     11336     11338
     11330     11333     11336     11339     11331     11330     11333     11334
     11331     11330     11333     11335     11331     11330     11333     11336
     11332     11330     11333     11334     11332     11330     11333     11335
     11332     11330     11333     11336     11333     11336     11339     11340
     11333     11336     11339     11341     11333     11336     11339     11342
     11334     11333     11336     11337     11334     11333     11336     11338
     11334     11333     11336     11339     11335     11333     11336     11337
     11335     11333     11336     11338     11335     11333     11336     11339
     11336     11339     11342     11343     11336     11339     11342     11344
     11336     11339     11342     11345     11337     11336     11339     11340
     11337     11336     11339     11341     11337     11336     11339     11342
     11338     11336     11339     11340     11338     11336     11339     11341
     11338     11336     11339     11342     11339     11342     11345     11346
     11339     11342     11345     11347     11339     11342     11345     11348
     11340     11339     11342     11343     11340     11339     11342     11344
     11340     11339     11342     11345     11341     11339     11342     11343
     11341     11339     11342     11344     11341     11339     11342     11345
     11342     11345     11348     11349     11342     11345     11348     11350
     11342     11345     11348     11351     11343     11342     11345     11346
     11343     11342     11345     11347     11343     11342     11345     11348
     11344     11342     11345     11346     11344     11342     11345     11347
     11344     11342     11345     11348     11345     11348     11351     11352
     11345     11348     11351     11353     11345     11348     11351     11354
     11346     11345     11348     11349     11346     11345     11348     11350
     11346     11345     11348     11351     11347     11345     11348     11349
     11347     11345     11348     11350     11347     11345     11348     11351
     11348     11351     11354     11355     11348     11351     11354     11356
     11348     11351     11354     11357     11349     11348     11351     11352
     11349     11348     11351     11353     11349     11348     11351     11354
     11350     11348     11351     11352     11350     11348     11351     11353
     11350     11348     11351     11354     11351     11354     11357     11358
     11351     11354     11357     11359     11351     11354     11357     11360
     11352     11351     11354     11355     11352     11351     11354     11356
     11352     11351     11354     11357     11353     11351     11354     11355
     11353     11351     11354     11356     11353     11351     11354     11357
     11354     11357     11360     11361     11354     11357     11360     11362
     11354     11357     11360     11363     11355     11354     11357     11358
     11355     11354     11357     11359     11355     11354     11357     11360
     11356     11354     11357     11358     11356     11354     11357     11359
     11356     11354     11357     11360     11357     11360     11363     11364
     11357     11360     11363     11365     11357     11360     11363     11366
     11358     11357     11360     11361     11358     11357     11360     11362
     11358     11357     11360     11363     11359     11357     11360     11361
     11359     11357     11360     11362     11359     11357     11360     11363
     11361     11360     11363     11364     11361     11360     11363     11365
     11361     11360     11363     11366     11362     11360     11363     11364
     11362     11360     11363     11365     11362     11360     11363     11366
     11367     11369     11372     11373     11367     11369     11372     11374
     11367     11369     11372     11375     11368     11367     11369     11370
     11368     11367     11369     11371     11368     11367     11369     11372
     11369     11372     11375     11376     11369     11372     11375     11377
     11369     11372     11375     11378     11370     11369     11372     11373
     11370     11369     11372     11374     11370     11369     11372     11375
     11371     11369     11372     11373     11371     11369     11372     11374
     11371     11369     11372     11375     11372     11375     11378     11379
     11372     11375     11378     11380     11372     11375     11378     11381
     11373     11372     11375     11376     11373     11372     11375     11377
     11373     11372     11375     11378     11374     11372     11375     11376
     11374     11372     11375     11377     11374     11372     11375     11378
     11375     11378     11381     11382     11375     11378     11381     11383
     11375     11378     11381     11384     11376     11375     11378     11379
     11376     11375     11378     11380     11376     11375     11378     11381
     11377     11375     11378     11379     11377     11375     11378     11380
     11377     11375     11378     11381     11378     11381     11384     11385
     11378     11381     11384     11386     11378     11381     11384     11387
     11379     11378     11381     11382     11379     11378     11381     11383
     11379     11378     11381     11384     11380     11378     11381     11382
     11380     11378     11381     11383     11380     11378     11381     11384
     11381     11384     11387     11388     11381     11384     11387     11389
     11381     11384     11387     11390     11382     11381     11384     11385
     11382     11381     11384     11386     11382     11381     11384     11387
     11383     11381     11384     11385     11383     11381     11384     11386
     11383     11381     11384     11387     11384     11387     11390     11391
     11384     11387     11390     11392     11385     11384     11387     11388
     11385     11384     11387     11389     11385     11384     11387     11390
     11386     11384     11387     11388     11386     11384     11387     11389
     11386     11384     11387     11390     11387     11390     11392     11393
     11387     11390     11392     11394     11388     11387     11390     11391
     11388     11387     11390     11392     11389     11387     11390     11391
     11389     11387     11390     11392     11390     11392     11394     11395
     11390     11392     11394     11396     11390     11392     11394     11397
     11391     11390     11392     11393     11391     11390     11392     11394
     11392     11394     11397     11398     11392     11394     11397     11399
     11392     11394     11397     11400     11393     11392     11394     11395
     11393     11392     11394     11396     11393     11392     11394     11397
     11394     11397     11400     11401     11394     11397     11400     11402
     11394     11397     11400     11403     11395     11394     11397     11398
     11395     11394     11397     11399     11395     11394     11397     11400
     11396     11394     11397     11398     11396     11394     11397     11399
     11396     11394     11397     11400     11397     11400     11403     11404
     11397     11400     11403     11405     11397     11400     11403     11406
     11398     11397     11400     11401     11398     11397     11400     11402
     11398     11397     11400     11403     11399     11397     11400     11401
     11399     11397     11400     11402     11399     11397     11400     11403
     11400     11403     11406     11407     11400     11403     11406     11408
     11400     11403     11406     11409     11401     11400     11403     11404
     11401     11400     11403     11405     11401     11400     11403     11406
     11402     11400     11403     11404     11402     11400     11403     11405
     11402     11400     11403     11406     11403     11406     11409     11410
     11403     11406     11409     11411     11403     11406     11409     11412
     11404     11403     11406     11407     11404     11403     11406     11408
     11404     11403     11406     11409     11405     11403     11406     11407
     11405     11403     11406     11408     11405     11403     11406     11409
     11406     11409     11412     11413     11406     11409     11412     11414
     11406     11409     11412     11415     11407     11406     11409     11410
     11407     11406     11409     11411     11407     11406     11409     11412
     11408     11406     11409     11410     11408     11406     11409     11411
     11408     11406     11409     11412     11409     11412     11415     11416
     11409     11412     11415     11417     11409     11412     11415     11418
     11410     11409     11412     11413     11410     11409     11412     11414
     11410     11409     11412     11415     11411     11409     11412     11413
     11411     11409     11412     11414     11411     11409     11412     11415
     11413     11412     11415     11416     11413     11412     11415     11417
     11413     11412     11415     11418     11414     11412     11415     11416
     11414     11412     11415     11417     11414     11412     11415     11418
     11419     11432     11435     11436     11419     11432     11435     11437
     11419     11432     11435     11442     11420     11419     11424     11425
     11420     11419     11424     11426     11420     11419     11424     11427
     11420     11419     11428     11429     11420     11419     11428     11430
     11420     11419     11428     11431     11420     11419     11432     11433
     11420     11419     11432     11434     11420     11419     11432     11435
     11421     11420     11419     11424     11421     11420     11419     11428
     11421     11420     11419     11432     11422     11420     11419     11424
     11422     11420     11419     11428     11422     11420     11419     11432
     11423     11420     11419     11424     11423     11420     11419     11428
     11423     11420     11419     11432     11424     11419     11428     11429
     11424     11419     11428     11430     11424     11419     11428     11431
     11424     11419     11432     11433     11424     11419     11432     11434
     11424     11419     11432     11435     11425     11424     11419     11428
     11425     11424     11419     11432     11426     11424     11419     11428
     11426     11424     11419     11432     11427     11424     11419     11428
     11427     11424     11419     11432     11428     11419     11432     11433
     11428     11419     11432     11434     11428     11419     11432     11435
     11429     11428     11419     11432     11430     11428     11419     11432
     11431     11428     11419     11432     11432     11435     11442     11438
     11433     11432     11435     11436     11433     11432     11435     11437
     11433     11432     11435     11442     11434     11432     11435     11436
     11434     11432     11435     11437     11434     11432     11435     11442
     11435     11442     11438     11439     11435     11442     11438     11440
     11435     11442     11438     11441     11436     11435     11442     11438
     11437     11435     11442     11438     11438     11441     11443     11444
     11438     11441     11443     11445     11438     11441     11443     11448
     11439     11438     11441     11443     11440     11438     11441     11443
     11441     11443     11448     11446     11441     11443     11448     11449
     11441     11443     11448     11450     11442     11438     11441     11443
     11443     11448     11446     11447     11443     11448     11446     11498
     11443     11448     11450     11451     11443     11448     11450     11452
     11443     11448     11450     11454     11444     11443     11448     11446
     11444     11443     11448     11449     11444     11443     11448     11450
     11445     11443     11448     11446     11445     11443     11448     11449
     11445     11443     11448     11450     11446     11448     11450     11451
     11446     11448     11450     11452     11446     11448     11450     11454
     11446     11498     11500     11501     11446     11498     11500     11502
     11446     11498     11500     11503     11447     11446     11448     11449
     11447     11446     11448     11450     11447     11446     11498     11499
     11447     11446     11498     11500     11448     11446     11498     11499
     11448     11446     11498     11500     11448     11450     11452     11453
     11448     11450     11454     11455     11448     11450     11454     11456
     11449     11448     11446     11498     11449     11448     11450     11451
     11449     11448     11450     11452     11449     11448     11450     11454
     11450     11448     11446     11498     11450     11454     11456     11457
     11450     11454     11456     11458     11451     11450     11452     11453
     11451     11450     11454     11455     11451     11450     11454     11456
     11452     11450     11454     11455     11452     11450     11454     11456
     11453     11452     11450     11454     11454     11456     11458     11459
     11454     11456     11458     11460     11454     11456     11458     11461
     11455     11454     11456     11457     11455     11454     11456     11458
     11456     11458     11461     11462     11456     11458     11461     11463
     11456     11458     11461     11464     11457     11456     11458     11459
     11457     11456     11458     11460     11457     11456     11458     11461
     11458     11461     11464     11465     11458     11461     11464     11466
     11458     11461     11464     11467     11459     11458     11461     11462
     11459     11458     11461     11463     11459     11458     11461     11464
     11460     11458     11461     11462     11460     11458     11461     11463
     11460     11458     11461     11464     11461     11464     11467     11468
     11461     11464     11467     11469     11461     11464     11467     11470
     11462     11461     11464     11465     11462     11461     11464     11466
     11462     11461     11464     11467     11463     11461     11464     11465
     11463     11461     11464     11466     11463     11461     11464     11467
     11464     11467     11470     11471     11464     11467     11470     11472
     11464     11467     11470     11473     11465     11464     11467     11468
     11465     11464     11467     11469     11465     11464     11467     11470
     11466     11464     11467     11468     11466     11464     11467     11469
     11466     11464     11467     11470     11467     11470     11473     11474
     11467     11470     11473     11475     11467     11470     11473     11476
     11468     11467     11470     11471     11468     11467     11470     11472
     11468     11467     11470     11473     11469     11467     11470     11471
     11469     11467     11470     11472     11469     11467     11470     11473
     11470     11473     11476     11477     11470     11473     11476     11478
     11470     11473     11476     11479     11471     11470     11473     11474
     11471     11470     11473     11475     11471     11470     11473     11476
     11472     11470     11473     11474     11472     11470     11473     11475
     11472     11470     11473     11476     11473     11476     11479     11480
     11473     11476     11479     11481     11473     11476     11479     11482
     11474     11473     11476     11477     11474     11473     11476     11478
     11474     11473     11476     11479     11475     11473     11476     11477
     11475     11473     11476     11478     11475     11473     11476     11479
     11476     11479     11482     11483     11476     11479     11482     11484
     11476     11479     11482     11485     11477     11476     11479     11480
     11477     11476     11479     11481     11477     11476     11479     11482
     11478     11476     11479     11480     11478     11476     11479     11481
     11478     11476     11479     11482     11479     11482     11485     11486
     11479     11482     11485     11487     11479     11482     11485     11488
     11480     11479     11482     11483     11480     11479     11482     11484
     11480     11479     11482     11485     11481     11479     11482     11483
     11481     11479     11482     11484     11481     11479     11482     11485
     11482     11485     11488     11489     11482     11485     11488     11490
     11482     11485     11488     11491     11483     11482     11485     11486
     11483     11482     11485     11487     11483     11482     11485     11488
     11484     11482     11485     11486     11484     11482     11485     11487
     11484     11482     11485     11488     11485     11488     11491     11492
     11485     11488     11491     11493     11485     11488     11491     11494
     11486     11485     11488     11489     11486     11485     11488     11490
     11486     11485     11488     11491     11487     11485     11488     11489
     11487     11485     11488     11490     11487     11485     11488     11491
     11488     11491     11494     11495     11488     11491     11494     11496
     11488     11491     11494     11497     11489     11488     11491     11492
     11489     11488     11491     11493     11489     11488     11491     11494
     11490     11488     11491     11492     11490     11488     11491     11493
     11490     11488     11491     11494     11492     11491     11494     11495
     11492     11491     11494     11496     11492     11491     11494     11497
     11493     11491     11494     11495     11493     11491     11494     11496
     11493     11491     11494     11497     11498     11500     11503     11504
     11498     11500     11503     11505     11498     11500     11503     11506
     11499     11498     11500     11501     11499     11498     11500     11502
     11499     11498     11500     11503     11500     11503     11506     11507
     11500     11503     11506     11508     11500     11503     11506     11509
     11501     11500     11503     11504     11501     11500     11503     11505
     11501     11500     11503     11506     11502     11500     11503     11504
     11502     11500     11503     11505     11502     11500     11503     11506
     11503     11506     11509     11510     11503     11506     11509     11511
     11503     11506     11509     11512     11504     11503     11506     11507
     11504     11503     11506     11508     11504     11503     11506     11509
     11505     11503     11506     11507     11505     11503     11506     11508
     11505     11503     11506     11509     11506     11509     11512     11513
     11506     11509     11512     11514     11506     11509     11512     11515
     11507     11506     11509     11510     11507     11506     11509     11511
     11507     11506     11509     11512     11508     11506     11509     11510
     11508     11506     11509     11511     11508     11506     11509     11512
     11509     11512     11515     11516     11509     11512     11515     11517
     11509     11512     11515     11518     11510     11509     11512     11513
     11510     11509     11512     11514     11510     11509     11512     11515
     11511     11509     11512     11513     11511     11509     11512     11514
     11511     11509     11512     11515     11512     11515     11518     11519
     11512     11515     11518     11520     11512     11515     11518     11521
     11513     11512     11515     11516     11513     11512     11515     11517
     11513     11512     11515     11518     11514     11512     11515     11516
     11514     11512     11515     11517     11514     11512     11515     11518
     11515     11518     11521     11522     11515     11518     11521     11523
     11516     11515     11518     11519     11516     11515     11518     11520
     11516     11515     11518     11521     11517     11515     11518     11519
     11517     11515     11518     11520     11517     11515     11518     11521
     11518     11521     11523     11524     11518     11521     11523     11525
     11519     11518     11521     11522     11519     11518     11521     11523
     11520     11518     11521     11522     11520     11518     11521     11523
     11521     11523     11525     11526     11521     11523     11525     11527
     11521     11523     11525     11528     11522     11521     11523     11524
     11522     11521     11523     11525     11523     11525     11528     11529
     11523     11525     11528     11530     11523     11525     11528     11531
     11524     11523     11525     11526     11524     11523     11525     11527
     11524     11523     11525     11528     11525     11528     11531     11532
     11525     11528     11531     11533     11525     11528     11531     11534
     11526     11525     11528     11529     11526     11525     11528     11530
     11526     11525     11528     11531     11527     11525     11528     11529
     11527     11525     11528     11530     11527     11525     11528     11531
     11528     11531     11534     11535     11528     11531     11534     11536
     11528     11531     11534     11537     11529     11528     11531     11532
     11529     11528     11531     11533     11529     11528     11531     11534
     11530     11528     11531     11532     11530     11528     11531     11533
     11530     11528     11531     11534     11531     11534     11537     11538
     11531     11534     11537     11539     11531     11534     11537     11540
     11532     11531     11534     11535     11532     11531     11534     11536
     11532     11531     11534     11537     11533     11531     11534     11535
     11533     11531     11534     11536     11533     11531     11534     11537
     11534     11537     11540     11541     11534     11537     11540     11542
     11534     11537     11540     11543     11535     11534     11537     11538
     11535     11534     11537     11539     11535     11534     11537     11540
     11536     11534     11537     11538     11536     11534     11537     11539
     11536     11534     11537     11540     11537     11540     11543     11544
     11537     11540     11543     11545     11537     11540     11543     11546
     11538     11537     11540     11541     11538     11537     11540     11542
     11538     11537     11540     11543     11539     11537     11540     11541
     11539     11537     11540     11542     11539     11537     11540     11543
     11540     11543     11546     11547     11540     11543     11546     11548
     11540     11543     11546     11549     11541     11540     11543     11544
     11541     11540     11543     11545     11541     11540     11543     11546
     11542     11540     11543     11544     11542     11540     11543     11545
     11542     11540     11543     11546     11544     11543     11546     11547
     11544     11543     11546     11548     11544     11543     11546     11549
     11545     11543     11546     11547     11545     11543     11546     11548
     11545     11543     11546     11549      2689      2690      2705      2706
      2689      2690      2705      2707      2689      2690      2705      2711
      2690      2689      2693      2694      2690      2689      2693      2695
      2690      2689      2693      2696      2690      2689      2697      2698
      2690      2689      2697      2699      2690      2689      2697      2700
      2690      2689      2701      2702      2690      2689      2701      2703
      2690      2689      2701      2704      2690      2705      2711      2708
      2691      2690      2689      2693      2691      2690      2689      2697
      2691      2690      2689      2701      2691      2690      2705      2706
      2691      2690      2705      2707      2691      2690      2705      2711
      2692      2690      2689      2693      2692      2690      2689      2697
      2692      2690      2689      2701      2692      2690      2705      2706
      2692      2690      2705      2707      2692      2690      2705      2711
      2693      2689      2690      2705      2693      2689      2697      2698
      2693      2689      2697      2699      2693      2689      2697      2700
      2693      2689      2701      2702      2693      2689      2701      2703
      2693      2689      2701      2704      2694      2693      2689      2697
      2694      2693      2689      2701      2695      2693      2689      2697
      2695      2693      2689      2701      2696      2693      2689      2697
      2696      2693      2689      2701      2697      2689      2690      2705
      2697      2689      2701      2702      2697      2689      2701      2703
      2697      2689      2701      2704      2698      2697      2689      2701
      2699      2697      2689      2701      2700      2697      2689      2701
      2701      2689      2690      2705      2705      2711      2708      2709
      2705      2711      2708      2710      2705      2711      2708      2712
      2706      2705      2711      2708      2707      2705      2711      2708
      2708      2712      2713      2714      2708      2712      2713      2715
      2708      2712      2713      2716      2709      2708      2712      2713
      2710      2708      2712      2713      2711      2708      2712      2713
      2712      2713      2716      2717      2712      2713      2716      2718
      2712      2713      2716      2724      2713      2716      2718      2719
      2713      2716      2724      2725      2713      2716      2724      2726
      2713      2716      2724      2727      2714      2713      2716      2717
      2714      2713      2716      2718      2714      2713      2716      2724
      2715      2713      2716      2717      2715      2713      2716      2718
      2715      2713      2716      2724      2716      2718      2719      2720
      2716      2718      2719      2721      2716      2724      2727      2728
      2717      2716      2718      2719      2717      2716      2724      2725
      2717      2716      2724      2726      2717      2716      2724      2727
      2718      2716      2724      2725      2718      2716      2724      2726
      2718      2716      2724      2727      2718      2719      2721      2722
      2718      2719      2721      2723      2718      2719      2721      2733
      2719      2718      2716      2724      2719      2721      2733      2734
      2719      2721      2733      2735      2719      2721      2733      2736
      2720      2719      2721      2722      2720      2719      2721      2723
      2720      2719      2721      2733      2721      2733      2736      2737
      2721      2733      2736      2738      2721      2733      2736      2739
      2722      2721      2733      2734      2722      2721      2733      2735
      2722      2721      2733      2736      2723      2721      2733      2734
      2723      2721      2733      2735      2723      2721      2733      2736
      2724      2727      2728      2729      2724      2727      2728      2730
      2725      2724      2727      2728      2726      2724      2727      2728
      2727      2728      2730      2731      2727      2728      2730      2732
      2727      2728      2730      2780      2728      2730      2780      2781
      2728      2730      2780      2782      2728      2730      2780      2783
      2729      2728      2730      2731      2729      2728      2730      2732
      2729      2728      2730      2780      2730      2780      2783      2784
      2730      2780      2783      2785      2730      2780      2783      2786
      2731      2730      2780      2781      2731      2730      2780      2782
      2731      2730      2780      2783      2732      2730      2780      2781
      2732      2730      2780      2782      2732      2730      2780      2783
      2733      2736      2739      2740      2733      2736      2739      2741
      2734      2733      2736      2737      2734      2733      2736      2738
      2734      2733      2736      2739      2735      2733      2736      2737
      2735      2733      2736      2738      2735      2733      2736      2739
      2736      2739      2741      2742      2736      2739      2741      2743
      2737      2736      2739      2740      2737      2736      2739      2741
      2738      2736      2739      2740      2738      2736      2739      2741
      2739      2741      2743      2744      2739      2741      2743      2745
      2739      2741      2743      2746      2740      2739      2741      2742
      2740      2739      2741      2743      2741      2743      2746      2747
      2741      2743      2746      2748      2742      2741      2743      2744
      2742      2741      2743      2745      2742      2741      2743      2746
      2743      2746      2748      2749      2743      2746      2748      2750
      2744      2743      2746      2747      2744      2743      2746      2748
      2745      2743      2746      2747      2745      2743      2746      2748
      2746      2748      2750      2751      2746      2748      2750      2752
      2746      2748      2750      2753      2747      2746      2748      2749
      2747      2746      2748      2750      2748      2750      2753      2754
      2748      2750      2753      2755      2749      2748      2750      2751
      2749      2748      2750      2752      2749      2748      2750      2753
      2750      2753      2755      2756      2750      2753      2755      2757
      2751      2750      2753      2754      2751      2750      2753      2755
      2752      2750      2753      2754      2752      2750      2753      2755
      2753      2755      2757      2758      2753      2755      2757      2759
      2753      2755      2757      2760      2754      2753      2755      2756
      2754      2753      2755      2757      2755      2757      2760      2761
      2755      2757      2760      2762      2756      2755      2757      2758
      2756      2755      2757      2759      2756      2755      2757      2760
      2757      2760      2762      2763      2757      2760      2762      2764
      2758      2757      2760      2761      2758      2757      2760      2762
      2759      2757      2760      2761      2759      2757      2760      2762
      2760      2762      2764      2765      2760      2762      2764      2766
      2760      2762      2764      2767      2761      2760      2762      2763
      2761      2760      2762      2764      2762      2764      2767      2768
      2762      2764      2767      2769      2762      2764      2767      2770
      2763      2762      2764      2765      2763      2762      2764      2766
      2763      2762      2764      2767      2764      2767      2770      2771
      2764      2767      2770      2772      2764      2767      2770      2773
      2765      2764      2767      2768      2765      2764      2767      2769
      2765      2764      2767      2770      2766      2764      2767      2768
      2766      2764      2767      2769      2766      2764      2767      2770
      2767      2770      2773      2774      2767      2770      2773      2775
      2767      2770      2773      2776      2768      2767      2770      2771
      2768      2767      2770      2772      2768      2767      2770      2773
      2769      2767      2770      2771      2769      2767      2770      2772
      2769      2767      2770      2773      2770      2773      2776      2777
      2770      2773      2776      2778      2770      2773      2776      2779
      2771      2770      2773      2774      2771      2770      2773      2775
      2771      2770      2773      2776      2772      2770      2773      2774
      2772      2770      2773      2775      2772      2770      2773      2776
      2774      2773      2776      2777      2774      2773      2776      2778
      2774      2773      2776      2779      2775      2773      2776      2777
      2775      2773      2776      2778      2775      2773      2776      2779
      2780      2783      2786      2787      2780      2783      2786      2788
      2780      2783      2786      2789      2781      2780      2783      2784
      2781      2780      2783      2785      2781      2780      2783      2786
      2782      2780      2783      2784      2782      2780      2783      2785
      2782      2780      2783      2786      2783      2786      2789      2790
      2783      2786      2789      2791      2783      2786      2789      2792
      2784      2783      2786      2787      2784      2783      2786      2788
      2784      2783      2786      2789      2785      2783      2786      2787
      2785      2783      2786      2788      2785      2783      2786      2789
      2786      2789      2792      2793      2786      2789      2792      2794
      2786      2789      2792      2795      2787      2786      2789      2790
      2787      2786      2789      2791      2787      2786      2789      2792
      2788      2786      2789      2790      2788      2786      2789      2791
      2788      2786      2789      2792      2789      2792      2795      2796
      2789      2792      2795      2797      2789      2792      2795      2798
      2790      2789      2792      2793      2790      2789      2792      2794
      2790      2789      2792      2795      2791      2789      2792      2793
      2791      2789      2792      2794      2791      2789      2792      2795
      2792      2795      2798      2799      2792      2795      2798      2800
      2792      2795      2798      2801      2793      2792      2795      2796
      2793      2792      2795      2797      2793      2792      2795      2798
      2794      2792      2795      2796      2794      2792      2795      2797
      2794      2792      2795      2798      2795      2798      2801      2802
      2795      2798      2801      2803      2795      2798      2801      2804
      2796      2795      2798      2799      2796      2795      2798      2800
      2796      2795      2798      2801      2797      2795      2798      2799
      2797      2795      2798      2800      2797      2795      2798      2801
      2798      2801      2804      2805      2798      2801      2804      2806
      2798      2801      2804      2807      2799      2798      2801      2802
      2799      2798      2801      2803      2799      2798      2801      2804
      2800      2798      2801      2802      2800      2798      2801      2803
      2800      2798      2801      2804      2801      2804      2807      2808
      2801      2804      2807      2809      2801      2804      2807      2810
      2802      2801      2804      2805      2802      2801      2804      2806
      2802      2801      2804      2807      2803      2801      2804      2805
      2803      2801      2804      2806      2803      2801      2804      2807
      2804      2807      2810      2811      2804      2807      2810      2812
      2804      2807      2810      2813      2805      2804      2807      2808
      2805      2804      2807      2809      2805      2804      2807      2810
      2806      2804      2807      2808      2806      2804      2807      2809
      2806      2804      2807      2810      2807      2810      2813      2814
      2807      2810      2813      2815      2807      2810      2813      2816
      2808      2807      2810      2811      2808      2807      2810      2812
      2808      2807      2810      2813      2809      2807      2810      2811
      2809      2807      2810      2812      2809      2807      2810      2813
      2810      2813      2816      2817      2810      2813      2816      2818
      2810      2813      2816      2819      2811      2810      2813      2814
      2811      2810      2813      2815      2811      2810      2813      2816
      2812      2810      2813      2814      2812      2810      2813      2815
      2812      2810      2813      2816      2813      2816      2819      2820
      2813      2816      2819      2821      2813      2816      2819      2822
      2814      2813      2816      2817      2814      2813      2816      2818
      2814      2813      2816      2819      2815      2813      2816      2817
      2815      2813      2816      2818      2815      2813      2816      2819
      2816      2819      2822      2823      2816      2819      2822      2824
      2816      2819      2822      2825      2817      2816      2819      2820
      2817      2816      2819      2821      2817      2816      2819      2822
      2818      2816      2819      2820      2818      2816      2819      2821
      2818      2816      2819      2822      2819      2822      2825      2826
      2819      2822      2825      2827      2819      2822      2825      2828
      2820      2819      2822      2823      2820      2819      2822      2824
      2820      2819      2822      2825      2821      2819      2822      2823
      2821      2819      2822      2824      2821      2819      2822      2825
      2823      2822      2825      2826      2823      2822      2825      2827
      2823      2822      2825      2828      2824      2822      2825      2826
      2824      2822      2825      2827      2824      2822      2825      2828
       666       670       672       673       666       670       672       674
       666       670       675       676       666       670       675       677
       666       670       675       681       667       666       670       671
       667       666       670       672       667       666       670       675
       668       666       670       671       668       666       670       672
       668       666       670       675       669       666       670       671
       669       666       670       672       669       666       670       675
       670       675       681       678       671       670       672       673
       671       670       672       674       671       670       675       676
       671       670       675       677       671       670       675       681
       672       670       675       676       672       670       675       677
       672       670       675       681       673       672       670       675
       674       672       670       675       675       681       678       679
       675       681       678       680       675       681       678       682
       676       675       681       678       677       675       681       678
       678       682       683       684       678       682       683       685
       678       682       683       686       679       678       682       683
       680       678       682       683       681       678       682       683
       682       683       686       687       682       683       686       688
       682       683       686       694       683       686       688       689
       683       686       694       695       683       686       694       696
       683       686       694       697       684       683       686       687
       684       683       686       688       684       683       686       694
       685       683       686       687       685       683       686       688
       685       683       686       694       686       688       689       690
       686       688       689       691       686       694       697       698
       687       686       688       689       687       686       694       695
       687       686       694       696       687       686       694       697
       688       686       694       695       688       686       694       696
       688       686       694       697       688       689       691       692
       688       689       691       693       688       689       691       703
       689       688       686       694       689       691       703       704
       689       691       703       705       689       691       703       706
       690       689       691       692       690       689       691       693
       690       689       691       703       691       703       706       707
       691       703       706       708       691       703       706       709
       692       691       703       704       692       691       703       705
       692       691       703       706       693       691       703       704
       693       691       703       705       693       691       703       706
       694       697       698       699       694       697       698       700
       695       694       697       698       696       694       697       698
       697       698       700       701       697       698       700       702
       697       698       700       750       698       700       750       751
       698       700       750       752       698       700       750       753
       699       698       700       701       699       698       700       702
       699       698       700       750       700       750       753       754
       700       750       753       755       700       750       753       756
       701       700       750       751       701       700       750       752
       701       700       750       753       702       700       750       751
       702       700       750       752       702       700       750       753
       703       706       709       710       703       706       709       711
       704       703       706       707       704       703       706       708
       704       703       706       709       705       703       706       707
       705       703       706       708       705       703       706       709
       706       709       711       712       706       709       711       713
       707       706       709       710       707       706       709       711
       708       706       709       710       708       706       709       711
       709       711       713       714       709       711       713       715
       709       711       713       716       710       709       711       712
       710       709       711       713       711       713       716       717
       711       713       716       718       712       711       713       714
       712       711       713       715       712       711       713       716
       713       716       718       719       713       716       718       720
       714       713       716       717       714       713       716       718
       715       713       716       717       715       713       716       718
       716       718       720       721       716       718       720       722
       716       718       720       723       717       716       718       719
       717       716       718       720       718       720       723       724
       718       720       723       725       719       718       720       721
       719       718       720       722       719       718       720       723
       720       723       725       726       720       723       725       727
       721       720       723       724       721       720       723       725
       722       720       723       724       722       720       723       725
       723       725       727       728       723       725       727       729
       723       725       727       730       724       723       725       726
       724       723       725       727       725       727       730       731
       725       727       730       732       726       725       727       728
       726       725       727       729       726       725       727       730
       727       730       732       733       727       730       732       734
       728       727       730       731       728       727       730       732
       729       727       730       731       729       727       730       732
       730       732       734       735       730       732       734       736
       730       732       734       737       731       730       732       733
       731       730       732       734       732       734       737       738
       732       734       737       739       732       734       737       740
       733       732       734       735       733       732       734       736
       733       732       734       737       734       737       740       741
       734       737       740       742       734       737       740       743
       735       734       737       738       735       734       737       739
       735       734       737       740       736       734       737       738
       736       734       737       739       736       734       737       740
       737       740       743       744       737       740       743       745
       737       740       743       746       738       737       740       741
       738       737       740       742       738       737       740       743
       739       737       740       741       739       737       740       742
       739       737       740       743       740       743       746       747
       740       743       746       748       740       743       746       749
       741       740       743       744       741       740       743       745
       741       740       743       746       742       740       743       744
       742       740       743       745       742       740       743       746
       744       743       746       747       744       743       746       748
       744       743       746       749       745       743       746       747
       745       743       746       748       745       743       746       749
       750       753       756       757       750       753       756       758
       750       753       756       759       751       750       753       754
       751       750       753       755       751       750       753       756
       752       750       753       754       752       750       753       755
       752       750       753       756       753       756       759       760
       753       756       759       761       753       756       759       762
       754       753       756       757       754       753       756       758
       754       753       756       759       755       753       756       757
       755       753       756       758       755       753       756       759
       756       759       762       763       756       759       762       764
       756       759       762       765       757       756       759       760
       757       756       759       761       757       756       759       762
       758       756       759       760       758       756       759       761
       758       756       759       762       759       762       765       766
       759       762       765       767       759       762       765       768
       760       759       762       763       760       759       762       764
       760       759       762       765       761       759       762       763
       761       759       762       764       761       759       762       765
       762       765       768       769       762       765       768       770
       762       765       768       771       763       762       765       766
       763       762       765       767       763       762       765       768
       764       762       765       766       764       762       765       767
       764       762       765       768       765       768       771       772
       765       768       771       773       765       768       771       774
       766       765       768       769       766       765       768       770
       766       765       768       771       767       765       768       769
       767       765       768       770       767       765       768       771
       768       771       774       775       768       771       774       776
       768       771       774       777       769       768       771       772
       769       768       771       773       769       768       771       774
       770       768       771       772       770       768       771       773
       770       768       771       774       771       774       777       778
       771       774       777       779       771       774       777       780
       772       771       774       775       772       771       774       776
       772       771       774       777       773       771       774       775
       773       771       774       776       773       771       774       777
       774       777       780       781       774       777       780       782
       774       777       780       783       775       774       777       778
       775       774       777       779       775       774       777       780
       776       774       777       778       776       774       777       779
       776       774       777       780       777       780       783       784
       777       780       783       785       777       780       783       786
       778       777       780       781       778       777       780       782
       778       777       780       783       779       777       780       781
       779       777       780       782       779       777       780       783
       780       783       786       787       780       783       786       788
       780       783       786       789       781       780       783       784
       781       780       783       785       781       780       783       786
       782       780       783       784       782       780       783       785
       782       780       783       786       783       786       789       790
       783       786       789       791       783       786       789       792
       784       783       786       787       784       783       786       788
       784       783       786       789       785       783       786       787
       785       783       786       788       785       783       786       789
       786       789       792       793       786       789       792       794
       786       789       792       795       787       786       789       790
       787       786       789       791       787       786       789       792
       788       786       789       790       788       786       789       791
       788       786       789       792       789       792       795       796
       789       792       795       797       789       792       795       798
       790       789       792       793       790       789       792       794
       790       789       792       795       791       789       792       793
       791       789       792       794       791       789       792       795
       793       792       795       796       793       792       795       797
       793       792       795       798       794       792       795       796
       794       792       795       797       794       792       795       798
     11550     11563     11566     11567     11550     11563     11566     11568
     11550     11563     11566     11573     11551     11550     11555     11556
     11551     11550     11555     11557     11551     11550     11555     11558
     11551     11550     11559     11560     11551     11550     11559     11561
     11551     11550     11559     11562     11551     11550     11563     11564
     11551     11550     11563     11565     11551     11550     11563     11566
     11552     11551     11550     11555     11552     11551     11550     11559
     11552     11551     11550     11563     11553     11551     11550     11555
     11553     11551     11550     11559     11553     11551     11550     11563
     11554     11551     11550     11555     11554     11551     11550     11559
     11554     11551     11550     11563     11555     11550     11559     11560
     11555     11550     11559     11561     11555     11550     11559     11562
     11555     11550     11563     11564     11555     11550     11563     11565
     11555     11550     11563     11566     11556     11555     11550     11559
     11556     11555     11550     11563     11557     11555     11550     11559
     11557     11555     11550     11563     11558     11555     11550     11559
     11558     11555     11550     11563     11559     11550     11563     11564
     11559     11550     11563     11565     11559     11550     11563     11566
     11560     11559     11550     11563     11561     11559     11550     11563
     11562     11559     11550     11563     11563     11566     11573     11569
     11564     11563     11566     11567     11564     11563     11566     11568
     11564     11563     11566     11573     11565     11563     11566     11567
     11565     11563     11566     11568     11565     11563     11566     11573
     11566     11573     11569     11570     11566     11573     11569     11571
     11566     11573     11569     11572     11567     11566     11573     11569
     11568     11566     11573     11569     11569     11572     11574     11575
     11569     11572     11574     11576     11569     11572     11574     11579
     11570     11569     11572     11574     11571     11569     11572     11574
     11572     11574     11579     11577     11572     11574     11579     11580
     11572     11574     11579     11581     11573     11569     11572     11574
     11574     11579     11577     11578     11574     11579     11577     11629
     11574     11579     11581     11582     11574     11579     11581     11583
     11574     11579     11581     11585     11575     11574     11579     11577
     11575     11574     11579     11580     11575     11574     11579     11581
     11576     11574     11579     11577     11576     11574     11579     11580
     11576     11574     11579     11581     11577     11579     11581     11582
     11577     11579     11581     11583     11577     11579     11581     11585
     11577     11629     11631     11632     11577     11629     11631     11633
     11577     11629     11631     11634     11578     11577     11579     11580
     11578     11577     11579     11581     11578     11577     11629     11630
     11578     11577     11629     11631     11579     11577     11629     11630
     11579     11577     11629     11631     11579     11581     11583     11584
     11579     11581     11585     11586     11579     11581     11585     11587
     11580     11579     11577     11629     11580     11579     11581     11582
     11580     11579     11581     11583     11580     11579     11581     11585
     11581     11579     11577     11629     11581     11585     11587     11588
     11581     11585     11587     11589     11582     11581     11583     11584
     11582     11581     11585     11586     11582     11581     11585     11587
     11583     11581     11585     11586     11583     11581     11585     11587
     11584     11583     11581     11585     11585     11587     11589     11590
     11585     11587     11589     11591     11585     11587     11589     11592
     11586     11585     11587     11588     11586     11585     11587     11589
     11587     11589     11592     11593     11587     11589     11592     11594
     11587     11589     11592     11595     11588     11587     11589     11590
     11588     11587     11589     11591     11588     11587     11589     11592
     11589     11592     11595     11596     11589     11592     11595     11597
     11589     11592     11595     11598     11590     11589     11592     11593
     11590     11589     11592     11594     11590     11589     11592     11595
     11591     11589     11592     11593     11591     11589     11592     11594
     11591     11589     11592     11595     11592     11595     11598     11599
     11592     11595     11598     11600     11592     11595     11598     11601
     11593     11592     11595     11596     11593     11592     11595     11597
     11593     11592     11595     11598     11594     11592     11595     11596
     11594     11592     11595     11597     11594     11592     11595     11598
     11595     11598     11601     11602     11595     11598     11601     11603
     11595     11598     11601     11604     11596     11595     11598     11599
     11596     11595     11598     11600     11596     11595     11598     11601
     11597     11595     11598     11599     11597     11595     11598     11600
     11597     11595     11598     11601     11598     11601     11604     11605
     11598     11601     11604     11606     11598     11601     11604     11607
     11599     11598     11601     11602     11599     11598     11601     11603
     11599     11598     11601     11604     11600     11598     11601     11602
     11600     11598     11601     11603     11600     11598     11601     11604
     11601     11604     11607     11608     11601     11604     11607     11609
     11601     11604     11607     11610     11602     11601     11604     11605
     11602     11601     11604     11606     11602     11601     11604     11607
     11603     11601     11604     11605     11603     11601     11604     11606
     11603     11601     11604     11607     11604     11607     11610     11611
     11604     11607     11610     11612     11604     11607     11610     11613
     11605     11604     11607     11608     11605     11604     11607     11609
     11605     11604     11607     11610     11606     11604     11607     11608
     11606     11604     11607     11609     11606     11604     11607     11610
     11607     11610     11613     11614     11607     11610     11613     11615
     11607     11610     11613     11616     11608     11607     11610     11611
     11608     11607     11610     11612     11608     11607     11610     11613
     11609     11607     11610     11611     11609     11607     11610     11612
     11609     11607     11610     11613     11610     11613     11616     11617
     11610     11613     11616     11618     11610     11613     11616     11619
     11611     11610     11613     11614     11611     11610     11613     11615
     11611     11610     11613     11616     11612     11610     11613     11614
     11612     11610     11613     11615     11612     11610     11613     11616
     11613     11616     11619     11620     11613     11616     11619     11621
     11613     11616     11619     11622     11614     11613     11616     11617
     11614     11613     11616     11618     11614     11613     11616     11619
     11615     11613     11616     11617     11615     11613     11616     11618
     11615     11613     11616     11619     11616     11619     11622     11623
     11616     11619     11622     11624     11616     11619     11622     11625
     11617     11616     11619     11620     11617     11616     11619     11621
     11617     11616     11619     11622     11618     11616     11619     11620
     11618     11616     11619     11621     11618     11616     11619     11622
     11619     11622     11625     11626     11619     11622     11625     11627
     11619     11622     11625     11628     11620     11619     11622     11623
     11620     11619     11622     11624     11620     11619     11622     11625
     11621     11619     11622     11623     11621     11619     11622     11624
     11621     11619     11622     11625     11623     11622     11625     11626
     11623     11622     11625     11627     11623     11622     11625     11628
     11624     11622     11625     11626     11624     11622     11625     11627
     11624     11622     11625     11628     11629     11631     11634     11635
     11629     11631     11634     11636     11629     11631     11634     11637
     11630     11629     11631     11632     11630     11629     11631     11633
     11630     11629     11631     11634     11631     11634     11637     11638
     11631     11634     11637     11639     11631     11634     11637     11640
     11632     11631     11634     11635     11632     11631     11634     11636
     11632     11631     11634     11637     11633     11631     11634     11635
     11633     11631     11634     11636     11633     11631     11634     11637
     11634     11637     11640     11641     11634     11637     11640     11642
     11634     11637     11640     11643     11635     11634     11637     11638
     11635     11634     11637     11639     11635     11634     11637     11640
     11636     11634     11637     11638     11636     11634     11637     11639
     11636     11634     11637     11640     11637     11640     11643     11644
     11637     11640     11643     11645     11637     11640     11643     11646
     11638     11637     11640     11641     11638     11637     11640     11642
     11638     11637     11640     11643     11639     11637     11640     11641
     11639     11637     11640     11642     11639     11637     11640     11643
     11640     11643     11646     11647     11640     11643     11646     11648
     11640     11643     11646     11649     11641     11640     11643     11644
     11641     11640     11643     11645     11641     11640     11643     11646
     11642     11640     11643     11644     11642     11640     11643     11645
     11642     11640     11643     11646     11643     11646     11649     11650
     11643     11646     11649     11651     11643     11646     11649     11652
     11644     11643     11646     11647     11644     11643     11646     11648
     11644     11643     11646     11649     11645     11643     11646     11647
     11645     11643     11646     11648     11645     11643     11646     11649
     11646     11649     11652     11653     11646     11649     11652     11654
     11647     11646     11649     11650     11647     11646     11649     11651
     11647     11646     11649     11652     11648     11646     11649     11650
     11648     11646     11649     11651     11648     11646     11649     11652
     11649     11652     11654     11655     11649     11652     11654     11656
     11650     11649     11652     11653     11650     11649     11652     11654
     11651     11649     11652     11653     11651     11649     11652     11654
     11652     11654     11656     11657     11652     11654     11656     11658
     11652     11654     11656     11659     11653     11652     11654     11655
     11653     11652     11654     11656     11654     11656     11659     11660
     11654     11656     11659     11661     11654     11656     11659     11662
     11655     11654     11656     11657     11655     11654     11656     11658
     11655     11654     11656     11659     11656     11659     11662     11663
     11656     11659     11662     11664     11656     11659     11662     11665
     11657     11656     11659     11660     11657     11656     11659     11661
     11657     11656     11659     11662     11658     11656     11659     11660
     11658     11656     11659     11661     11658     11656     11659     11662
     11659     11662     11665     11666     11659     11662     11665     11667
     11659     11662     11665     11668     11660     11659     11662     11663
     11660     11659     11662     11664     11660     11659     11662     11665
     11661     11659     11662     11663     11661     11659     11662     11664
     11661     11659     11662     11665     11662     11665     11668     11669
     11662     11665     11668     11670     11662     11665     11668     11671
     11663     11662     11665     11666     11663     11662     11665     11667
     11663     11662     11665     11668     11664     11662     11665     11666
     11664     11662     11665     11667     11664     11662     11665     11668
     11665     11668     11671     11672     11665     11668     11671     11673
     11665     11668     11671     11674     11666     11665     11668     11669
     11666     11665     11668     11670     11666     11665     11668     11671
     11667     11665     11668     11669     11667     11665     11668     11670
     11667     11665     11668     11671     11668     11671     11674     11675
     11668     11671     11674     11676     11668     11671     11674     11677
     11669     11668     11671     11672     11669     11668     11671     11673
     11669     11668     11671     11674     11670     11668     11671     11672
     11670     11668     11671     11673     11670     11668     11671     11674
     11671     11674     11677     11678     11671     11674     11677     11679
     11671     11674     11677     11680     11672     11671     11674     11675
     11672     11671     11674     11676     11672     11671     11674     11677
     11673     11671     11674     11675     11673     11671     11674     11676
     11673     11671     11674     11677     11675     11674     11677     11678
     11675     11674     11677     11679     11675     11674     11677     11680
     11676     11674     11677     11678     11676     11674     11677     11679
     11676     11674     11677     11680     15742     15746     15749     15750
     15742     15746     15749     15751     15742     15746     15749     15755
     15743     15742     15746     15747     15743     15742     15746     15748
     15743     15742     15746     15749     15744     15742     15746     15747
     15744     15742     15746     15748     15744     15742     15746     15749
     15745     15742     15746     15747     15745     15742     15746     15748
     15745     15742     15746     15749     15746     15749     15755     15752
     15747     15746     15749     15750     15747     15746     15749     15751
     15747     15746     15749     15755     15748     15746     15749     15750
     15748     15746     15749     15751     15748     15746     15749     15755
     15749     15755     15752     15753     15749     15755     15752     15754
     15749     15755     15752     15756     15750     15749     15755     15752
     15751     15749     15755     15752     15752     15756     15757     15758
     15752     15756     15757     15759     15752     15756     15757     15760
     15753     15752     15756     15757     15754     15752     15756     15757
     15755     15752     15756     15757     15756     15757     15760     15761
     15756     15757     15760     15762     15756     15757     15760     15768
     15757     15760     15762     15763     15757     15760     15768     15769
     15757     15760     15768     15770     15757     15760     15768     15771
     15758     15757     15760     15761     15758     15757     15760     15762
     15758     15757     15760     15768     15759     15757     15760     15761
     15759     15757     15760     15762     15759     15757     15760     15768
     15760     15762     15763     15764     15760     15762     15763     15765
     15760     15768     15771     15772     15761     15760     15762     15763
     15761     15760     15768     15769     15761     15760     15768     15770
     15761     15760     15768     15771     15762     15760     15768     15769
     15762     15760     15768     15770     15762     15760     15768     15771
     15762     15763     15765     15766     15762     15763     15765     15767
     15762     15763     15765     15777     15763     15762     15760     15768
     15763     15765     15777     15778     15763     15765     15777     15779
     15763     15765     15777     15780     15764     15763     15765     15766
     15764     15763     15765     15767     15764     15763     15765     15777
     15765     15777     15780     15781     15765     15777     15780     15782
     15765     15777     15780     15783     15766     15765     15777     15778
     15766     15765     15777     15779     15766     15765     15777     15780
     15767     15765     15777     15778     15767     15765     15777     15779
     15767     15765     15777     15780     15768     15771     15772     15773
     15768     15771     15772     15774     15769     15768     15771     15772
     15770     15768     15771     15772     15771     15772     15774     15775
     15771     15772     15774     15776     15771     15772     15774     15824
     15772     15774     15824     15825     15772     15774     15824     15826
     15772     15774     15824     15827     15773     15772     15774     15775
     15773     15772     15774     15776     15773     15772     15774     15824
     15774     15824     15827     15828     15774     15824     15827     15829
     15774     15824     15827     15830     15775     15774     15824     15825
     15775     15774     15824     15826     15775     15774     15824     15827
     15776     15774     15824     15825     15776     15774     15824     15826
     15776     15774     15824     15827     15777     15780     15783     15784
     15777     15780     15783     15785     15778     15777     15780     15781
     15778     15777     15780     15782     15778     15777     15780     15783
     15779     15777     15780     15781     15779     15777     15780     15782
     15779     15777     15780     15783     15780     15783     15785     15786
     15780     15783     15785     15787     15781     15780     15783     15784
     15781     15780     15783     15785     15782     15780     15783     15784
     15782     15780     15783     15785     15783     15785     15787     15788
     15783     15785     15787     15789     15783     15785     15787     15790
     15784     15783     15785     15786     15784     15783     15785     15787
     15785     15787     15790     15791     15785     15787     15790     15792
     15786     15785     15787     15788     15786     15785     15787     15789
     15786     15785     15787     15790     15787     15790     15792     15793
     15787     15790     15792     15794     15788     15787     15790     15791
     15788     15787     15790     15792     15789     15787     15790     15791
     15789     15787     15790     15792     15790     15792     15794     15795
     15790     15792     15794     15796     15790     15792     15794     15797
     15791     15790     15792     15793     15791     15790     15792     15794
     15792     15794     15797     15798     15792     15794     15797     15799
     15793     15792     15794     15795     15793     15792     15794     15796
     15793     15792     15794     15797     15794     15797     15799     15800
     15794     15797     15799     15801     15795     15794     15797     15798
     15795     15794     15797     15799     15796     15794     15797     15798
     15796     15794     15797     15799     15797     15799     15801     15802
     15797     15799     15801     15803     15797     15799     15801     15804
     15798     15797     15799     15800     15798     15797     15799     15801
     15799     15801     15804     15805     15799     15801     15804     15806
     15800     15799     15801     15802     15800     15799     15801     15803
     15800     15799     15801     15804     15801     15804     15806     15807
     15801     15804     15806     15808     15802     15801     15804     15805
     15802     15801     15804     15806     15803     15801     15804     15805
     15803     15801     15804     15806     15804     15806     15808     15809
     15804     15806     15808     15810     15804     15806     15808     15811
     15805     15804     15806     15807     15805     15804     15806     15808
     15806     15808     15811     15812     15806     15808     15811     15813
     15806     15808     15811     15814     15807     15806     15808     15809
     15807     15806     15808     15810     15807     15806     15808     15811
     15808     15811     15814     15815     15808     15811     15814     15816
     15808     15811     15814     15817     15809     15808     15811     15812
     15809     15808     15811     15813     15809     15808     15811     15814
     15810     15808     15811     15812     15810     15808     15811     15813
     15810     15808     15811     15814     15811     15814     15817     15818
     15811     15814     15817     15819     15811     15814     15817     15820
     15812     15811     15814     15815     15812     15811     15814     15816
     15812     15811     15814     15817     15813     15811     15814     15815
     15813     15811     15814     15816     15813     15811     15814     15817
     15814     15817     15820     15821     15814     15817     15820     15822
     15814     15817     15820     15823     15815     15814     15817     15818
     15815     15814     15817     15819     15815     15814     15817     15820
     15816     15814     15817     15818     15816     15814     15817     15819
     15816     15814     15817     15820     15818     15817     15820     15821
     15818     15817     15820     15822     15818     15817     15820     15823
     15819     15817     15820     15821     15819     15817     15820     15822
     15819     15817     15820     15823     15824     15827     15830     15831
     15824     15827     15830     15832     15824     15827     15830     15833
     15825     15824     15827     15828     15825     15824     15827     15829
     15825     15824     15827     15830     15826     15824     15827     15828
     15826     15824     15827     15829     15826     15824     15827     15830
     15827     15830     15833     15834     15827     15830     15833     15835
     15827     15830     15833     15836     15828     15827     15830     15831
     15828     15827     15830     15832     15828     15827     15830     15833
     15829     15827     15830     15831     15829     15827     15830     15832
     15829     15827     15830     15833     15830     15833     15836     15837
     15830     15833     15836     15838     15830     15833     15836     15839
     15831     15830     15833     15834     15831     15830     15833     15835
     15831     15830     15833     15836     15832     15830     15833     15834
     15832     15830     15833     15835     15832     15830     15833     15836
     15833     15836     15839     15840     15833     15836     15839     15841
     15833     15836     15839     15842     15834     15833     15836     15837
     15834     15833     15836     15838     15834     15833     15836     15839
     15835     15833     15836     15837     15835     15833     15836     15838
     15835     15833     15836     15839     15836     15839     15842     15843
     15836     15839     15842     15844     15836     15839     15842     15845
     15837     15836     15839     15840     15837     15836     15839     15841
     15837     15836     15839     15842     15838     15836     15839     15840
     15838     15836     15839     15841     15838     15836     15839     15842
     15839     15842     15845     15846     15839     15842     15845     15847
     15839     15842     15845     15848     15840     15839     15842     15843
     15840     15839     15842     15844     15840     15839     15842     15845
     15841     15839     15842     15843     15841     15839     15842     15844
     15841     15839     15842     15845     15842     15845     15848     15849
     15842     15845     15848     15850     15842     15845     15848     15851
     15843     15842     15845     15846     15843     15842     15845     15847
     15843     15842     15845     15848     15844     15842     15845     15846
     15844     15842     15845     15847     15844     15842     15845     15848
     15845     15848     15851     15852     15845     15848     15851     15853
     15845     15848     15851     15854     15846     15845     15848     15849
     15846     15845     15848     15850     15846     15845     15848     15851
     15847     15845     15848     15849     15847     15845     15848     15850
     15847     15845     15848     15851     15848     15851     15854     15855
     15848     15851     15854     15856     15848     15851     15854     15857
     15849     15848     15851     15852     15849     15848     15851     15853
     15849     15848     15851     15854     15850     15848     15851     15852
     15850     15848     15851     15853     15850     15848     15851     15854
     15851     15854     15857     15858     15851     15854     15857     15859
     15851     15854     15857     15860     15852     15851     15854     15855
     15852     15851     15854     15856     15852     15851     15854     15857
     15853     15851     15854     15855     15853     15851     15854     15856
     15853     15851     15854     15857     15854     15857     15860     15861
     15854     15857     15860     15862     15854     15857     15860     15863
     15855     15854     15857     15858     15855     15854     15857     15859
     15855     15854     15857     15860     15856     15854     15857     15858
     15856     15854     15857     15859     15856     15854     15857     15860
     15857     15860     15863     15864     15857     15860     15863     15865
     15857     15860     15863     15866     15858     15857     15860     15861
     15858     15857     15860     15862     15858     15857     15860     15863
     15859     15857     15860     15861     15859     15857     15860     15862
     15859     15857     15860     15863     15860     15863     15866     15867
     15860     15863     15866     15868     15860     15863     15866     15869
     15861     15860     15863     15864     15861     15860     15863     15865
     15861     15860     15863     15866     15862     15860     15863     15864
     15862     15860     15863     15865     15862     15860     15863     15866
     15863     15866     15869     15870     15863     15866     15869     15871
     15863     15866     15869     15872     15864     15863     15866     15867
     15864     15863     15866     15868     15864     15863     15866     15869
     15865     15863     15866     15867     15865     15863     15866     15868
     15865     15863     15866     15869     15867     15866     15869     15870
     15867     15866     15869     15871     15867     15866     15869     15872
     15868     15866     15869     15870     15868     15866     15869     15871
     15868     15866     15869     15872      7217      7221      7224      7225
      7217      7221      7224      7255      7217      7263      7260      7255
      7217      7263      7260      7261      7217      7263      7260      7262
      7218      7217      7219      7220      7218      7217      7221      7222
      7218      7217      7221      7223      7218      7217      7221      7224
      7218      7217      7263      7260      7218      7217      7263      7264
      7218      7217      7263      7265      7219      7217      7221      7222
      7219      7217      7221      7223      7219      7217      7221      7224
      7219      7217      7263      7260      7219      7217      7263      7264
      7219      7217      7263      7265      7220      7219      7217      7221
      7220      7219      7217      7263      7221      7217      7263      7260
      7221      7217      7263      7264      7221      7217      7263      7265
      7221      7224      7225      7226      7221      7224      7225      7227
      7221      7224      7255      7253      7221      7224      7255      7256
      7221      7224      7255      7260      7222      7221      7217      7263
      7222      7221      7224      7225      7222      7221      7224      7255
      7223      7221      7217      7263      7223      7221      7224      7225
      7223      7221      7224      7255      7224      7221      7217      7263
      7224      7225      7227      7228      7224      7225      7227      7229
      7224      7225      7227      7230      7224      7255      7253      7230
      7224      7255      7253      7250      7224      7255      7253      7254
      7224      7255      7256      7257      7224      7255      7256      7258
      7224      7255      7256      7259      7224      7255      7260      7261
      7224      7255      7260      7262      7224      7255      7260      7263
      7225      7224      7255      7253      7225      7224      7255      7256
      7225      7224      7255      7260      7225      7227      7230      7231
      7225      7227      7230      7232      7225      7227      7230      7253
      7226      7225      7224      7255      7226      7225      7227      7228
      7226      7225      7227      7229      7226      7225      7227      7230
      7227      7225      7224      7255      7227      7230      7232      7233
      7227      7230      7232      7234      7227      7230      7232      7242
      7227      7230      7253      7250      7227      7230      7253      7254
      7227      7230      7253      7255      7228      7227      7230      7231
      7228      7227      7230      7232      7228      7227      7230      7253
      7229      7227      7230      7231      7229      7227      7230      7232
      7229      7227      7230      7253      7230      7232      7234      7235
      7230      7232      7234      7236      7230      7232      7234      7237
      7230      7232      7242      7240      7230      7232      7242      7243
      7230      7232      7242      7247      7230      7253      7250      7247
      7230      7253      7250      7251      7230      7253      7250      7252
      7230      7253      7255      7256      7230      7253      7255      7260
      7231      7230      7232      7233      7231      7230      7232      7234
      7231      7230      7232      7242      7231      7230      7253      7250
      7231      7230      7253      7254      7231      7230      7253      7255
      7232      7230      7253      7250      7232      7230      7253      7254
      7232      7230      7253      7255      7232      7234      7237      7238
      7232      7234      7237      7239      7232      7234      7237      7240
      7232      7242      7240      7237      7232      7242      7240      7241
      7232      7242      7240      7266      7232      7242      7243      7244
      7232      7242      7243      7245      7232      7242      7243      7246
      7232      7242      7247      7248      7232      7242      7247      7249
      7232      7242      7247      7250      7233      7232      7230      7253
      7233      7232      7234      7235      7233      7232      7234      7236
      7233      7232      7234      7237      7233      7232      7242      7240
      7233      7232      7242      7243      7233      7232      7242      7247
      7234      7232      7230      7253      7234      7232      7242      7240
      7234      7232      7242      7243      7234      7232      7242      7247
      7234      7237      7240      7241      7234      7237      7240      7242
      7234      7237      7240      7266      7235      7234      7232      7242
      7235      7234      7237      7238      7235      7234      7237      7239
      7235      7234      7237      7240      7236      7234      7232      7242
      7236      7234      7237      7238      7236      7234      7237      7239
      7236      7234      7237      7240      7237      7234      7232      7242
      7237      7240      7242      7243      7237      7240      7242      7247
      7237      7240      7266      7267      7237      7240      7266      7268
      7237      7240      7266      7272      7238      7237      7240      7241
      7238      7237      7240      7242      7238      7237      7240      7266
      7239      7237      7240      7241      7239      7237      7240      7242
      7239      7237      7240      7266      7240      7242      7243      7244
      7240      7242      7243      7245      7240      7242      7243      7246
      7240      7242      7247      7248      7240      7242      7247      7249
      7240      7242      7247      7250      7240      7266      7268      7269
      7240      7266      7268      7270      7240      7266      7268      7271
      7240      7266      7272      7273      7240      7266      7272      7274
      7240      7266      7272      7275      7241      7240      7242      7243
      7241      7240      7242      7247      7241      7240      7266      7267
      7241      7240      7266      7268      7241      7240      7266      7272
      7242      7232      7230      7253      7242      7240      7266      7267
      7242      7240      7266      7268      7242      7240      7266      7272
      7242      7247      7250      7251      7242      7247      7250      7252
      7242      7247      7250      7253      7243      7242      7240      7266
      7243      7242      7247      7248      7243      7242      7247      7249
      7243      7242      7247      7250      7244      7243      7242      7247
      7245      7243      7242      7247      7246      7243      7242      7247
      7247      7242      7240      7266      7247      7250      7253      7254
      7247      7250      7253      7255      7248      7247      7250      7251
      7248      7247      7250      7252      7248      7247      7250      7253
      7249      7247      7250      7251      7249      7247      7250      7252
      7249      7247      7250      7253      7250      7253      7255      7256
      7250      7253      7255      7260      7251      7250      7253      7254
      7251      7250      7253      7255      7252      7250      7253      7254
      7252      7250      7253      7255      7253      7255      7256      7257
      7253      7255      7256      7258      7253      7255      7256      7259
      7253      7255      7260      7261      7253      7255      7260      7262
      7253      7255      7260      7263      7254      7253      7255      7256
      7254      7253      7255      7260      7255      7260      7263      7264
      7255      7260      7263      7265      7256      7255      7260      7261
      7256      7255      7260      7262      7256      7255      7260      7263
      7257      7256      7255      7260      7258      7256      7255      7260
      7259      7256      7255      7260      7261      7260      7263      7264
      7261      7260      7263      7265      7262      7260      7263      7264
      7262      7260      7263      7265      7266      7272      7275      7276
      7266      7272      7275      7277      7266      7272      7275      7278
      7267      7266      7268      7269      7267      7266      7268      7270
      7267      7266      7268      7271      7267      7266      7272      7273
      7267      7266      7272      7274      7267      7266      7272      7275
      7268      7266      7272      7273      7268      7266      7272      7274
      7268      7266      7272      7275      7269      7268      7266      7272
      7270      7268      7266      7272      7271      7268      7266      7272
      7272      7275      7278      7279      7272      7275      7278      7280
      7272      7275      7278      7281      7273      7272      7275      7276
      7273      7272      7275      7277      7273      7272      7275      7278
      7274      7272      7275      7276      7274      7272      7275      7277
      7274      7272      7275      7278      7275      7278      7281      7282
      7275      7278      7281      7283      7275      7278      7281      7287
      7276      7275      7278      7279      7276      7275      7278      7280
      7276      7275      7278      7281      7277      7275      7278      7279
      7277      7275      7278      7280      7277      7275      7278      7281
      7278      7281      7283      7284      7278      7281      7283      7285
      7278      7281      7283      7286      7278      7281      7287      7288
      7278      7281      7287      7289      7278      7281      7287      7290
      7279      7278      7281      7282      7279      7278      7281      7283
      7279      7278      7281      7287      7280      7278      7281      7282
      7280      7278      7281      7283      7280      7278      7281      7287
      7282      7281      7283      7284      7282      7281      7283      7285
      7282      7281      7283      7286      7282      7281      7287      7288
      7282      7281      7287      7289      7282      7281      7287      7290
      7283      7281      7287      7288      7283      7281      7287      7289
      7283      7281      7287      7290      7284      7283      7281      7287
      7285      7283      7281      7287      7286      7283      7281      7287
     15873     15877     15880     15881     15873     15877     15880     15882
     15873     15877     15880     15886     15874     15873     15877     15878
     15874     15873     15877     15879     15874     15873     15877     15880
     15875     15873     15877     15878     15875     15873     15877     15879
     15875     15873     15877     15880     15876     15873     15877     15878
     15876     15873     15877     15879     15876     15873     15877     15880
     15877     15880     15886     15883     15878     15877     15880     15881
     15878     15877     15880     15882     15878     15877     15880     15886
     15879     15877     15880     15881     15879     15877     15880     15882
     15879     15877     15880     15886     15880     15886     15883     15884
     15880     15886     15883     15885     15880     15886     15883     15887
     15881     15880     15886     15883     15882     15880     15886     15883
     15883     15887     15888     15889     15883     15887     15888     15890
     15883     15887     15888     15891     15884     15883     15887     15888
     15885     15883     15887     15888     15886     15883     15887     15888
     15887     15888     15891     15892     15887     15888     15891     15893
     15887     15888     15891     15899     15888     15891     15893     15894
     15888     15891     15899     15900     15888     15891     15899     15901
     15888     15891     15899     15902     15889     15888     15891     15892
     15889     15888     15891     15893     15889     15888     15891     15899
     15890     15888     15891     15892     15890     15888     15891     15893
     15890     15888     15891     15899     15891     15893     15894     15895
     15891     15893     15894     15896     15891     15899     15902     15903
     15892     15891     15893     15894     15892     15891     15899     15900
     15892     15891     15899     15901     15892     15891     15899     15902
     15893     15891     15899     15900     15893     15891     15899     15901
     15893     15891     15899     15902     15893     15894     15896     15897
     15893     15894     15896     15898     15893     15894     15896     15908
     15894     15893     15891     15899     15894     15896     15908     15909
     15894     15896     15908     15910     15894     15896     15908     15911
     15895     15894     15896     15897     15895     15894     15896     15898
     15895     15894     15896     15908     15896     15908     15911     15912
     15896     15908     15911     15913     15896     15908     15911     15914
     15897     15896     15908     15909     15897     15896     15908     15910
     15897     15896     15908     15911     15898     15896     15908     15909
     15898     15896     15908     15910     15898     15896     15908     15911
     15899     15902     15903     15904     15899     15902     15903     15905
     15900     15899     15902     15903     15901     15899     15902     15903
     15902     15903     15905     15906     15902     15903     15905     15907
     15902     15903     15905     15955     15903     15905     15955     15956
     15903     15905     15955     15957     15903     15905     15955     15958
     15904     15903     15905     15906     15904     15903     15905     15907
     15904     15903     15905     15955     15905     15955     15958     15959
     15905     15955     15958     15960     15905     15955     15958     15961
     15906     15905     15955     15956     15906     15905     15955     15957
     15906     15905     15955     15958     15907     15905     15955     15956
     15907     15905     15955     15957     15907     15905     15955     15958
     15908     15911     15914     15915     15908     15911     15914     15916
     15909     15908     15911     15912     15909     15908     15911     15913
     15909     15908     15911     15914     15910     15908     15911     15912
     15910     15908     15911     15913     15910     15908     15911     15914
     15911     15914     15916     15917     15911     15914     15916     15918
     15912     15911     15914     15915     15912     15911     15914     15916
     15913     15911     15914     15915     15913     15911     15914     15916
     15914     15916     15918     15919     15914     15916     15918     15920
     15914     15916     15918     15921     15915     15914     15916     15917
     15915     15914     15916     15918     15916     15918     15921     15922
     15916     15918     15921     15923     15917     15916     15918     15919
     15917     15916     15918     15920     15917     15916     15918     15921
     15918     15921     15923     15924     15918     15921     15923     15925
     15919     15918     15921     15922     15919     15918     15921     15923
     15920     15918     15921     15922     15920     15918     15921     15923
     15921     15923     15925     15926     15921     15923     15925     15927
     15921     15923     15925     15928     15922     15921     15923     15924
     15922     15921     15923     15925     15923     15925     15928     15929
     15923     15925     15928     15930     15924     15923     15925     15926
     15924     15923     15925     15927     15924     15923     15925     15928
     15925     15928     15930     15931     15925     15928     15930     15932
     15926     15925     15928     15929     15926     15925     15928     15930
     15927     15925     15928     15929     15927     15925     15928     15930
     15928     15930     15932     15933     15928     15930     15932     15934
     15928     15930     15932     15935     15929     15928     15930     15931
     15929     15928     15930     15932     15930     15932     15935     15936
     15930     15932     15935     15937     15931     15930     15932     15933
     15931     15930     15932     15934     15931     15930     15932     15935
     15932     15935     15937     15938     15932     15935     15937     15939
     15933     15932     15935     15936     15933     15932     15935     15937
     15934     15932     15935     15936     15934     15932     15935     15937
     15935     15937     15939     15940     15935     15937     15939     15941
     15935     15937     15939     15942     15936     15935     15937     15938
     15936     15935     15937     15939     15937     15939     15942     15943
     15937     15939     15942     15944     15937     15939     15942     15945
     15938     15937     15939     15940     15938     15937     15939     15941
     15938     15937     15939     15942     15939     15942     15945     15946
     15939     15942     15945     15947     15939     15942     15945     15948
     15940     15939     15942     15943     15940     15939     15942     15944
     15940     15939     15942     15945     15941     15939     15942     15943
     15941     15939     15942     15944     15941     15939     15942     15945
     15942     15945     15948     15949     15942     15945     15948     15950
     15942     15945     15948     15951     15943     15942     15945     15946
     15943     15942     15945     15947     15943     15942     15945     15948
     15944     15942     15945     15946     15944     15942     15945     15947
     15944     15942     15945     15948     15945     15948     15951     15952
     15945     15948     15951     15953     15945     15948     15951     15954
     15946     15945     15948     15949     15946     15945     15948     15950
     15946     15945     15948     15951     15947     15945     15948     15949
     15947     15945     15948     15950     15947     15945     15948     15951
     15949     15948     15951     15952     15949     15948     15951     15953
     15949     15948     15951     15954     15950     15948     15951     15952
     15950     15948     15951     15953     15950     15948     15951     15954
     15955     15958     15961     15962     15955     15958     15961     15963
     15955     15958     15961     15964     15956     15955     15958     15959
     15956     15955     15958     15960     15956     15955     15958     15961
     15957     15955     15958     15959     15957     15955     15958     15960
     15957     15955     15958     15961     15958     15961     15964     15965
     15958     15961     15964     15966     15958     15961     15964     15967
     15959     15958     15961     15962     15959     15958     15961     15963
     15959     15958     15961     15964     15960     15958     15961     15962
     15960     15958     15961     15963     15960     15958     15961     15964
     15961     15964     15967     15968     15961     15964     15967     15969
     15961     15964     15967     15970     15962     15961     15964     15965
     15962     15961     15964     15966     15962     15961     15964     15967
     15963     15961     15964     15965     15963     15961     15964     15966
     15963     15961     15964     15967     15964     15967     15970     15971
     15964     15967     15970     15972     15964     15967     15970     15973
     15965     15964     15967     15968     15965     15964     15967     15969
     15965     15964     15967     15970     15966     15964     15967     15968
     15966     15964     15967     15969     15966     15964     15967     15970
     15967     15970     15973     15974     15967     15970     15973     15975
     15967     15970     15973     15976     15968     15967     15970     15971
     15968     15967     15970     15972     15968     15967     15970     15973
     15969     15967     15970     15971     15969     15967     15970     15972
     15969     15967     15970     15973     15970     15973     15976     15977
     15970     15973     15976     15978     15970     15973     15976     15979
     15971     15970     15973     15974     15971     15970     15973     15975
     15971     15970     15973     15976     15972     15970     15973     15974
     15972     15970     15973     15975     15972     15970     15973     15976
     15973     15976     15979     15980     15973     15976     15979     15981
     15973     15976     15979     15982     15974     15973     15976     15977
     15974     15973     15976     15978     15974     15973     15976     15979
     15975     15973     15976     15977     15975     15973     15976     15978
     15975     15973     15976     15979     15976     15979     15982     15983
     15976     15979     15982     15984     15976     15979     15982     15985
     15977     15976     15979     15980     15977     15976     15979     15981
     15977     15976     15979     15982     15978     15976     15979     15980
     15978     15976     15979     15981     15978     15976     15979     15982
     15979     15982     15985     15986     15979     15982     15985     15987
     15979     15982     15985     15988     15980     15979     15982     15983
     15980     15979     15982     15984     15980     15979     15982     15985
     15981     15979     15982     15983     15981     15979     15982     15984
     15981     15979     15982     15985     15982     15985     15988     15989
     15982     15985     15988     15990     15982     15985     15988     15991
     15983     15982     15985     15986     15983     15982     15985     15987
     15983     15982     15985     15988     15984     15982     15985     15986
     15984     15982     15985     15987     15984     15982     15985     15988
     15985     15988     15991     15992     15985     15988     15991     15993
     15985     15988     15991     15994     15986     15985     15988     15989
     15986     15985     15988     15990     15986     15985     15988     15991
     15987     15985     15988     15989     15987     15985     15988     15990
     15987     15985     15988     15991     15988     15991     15994     15995
     15988     15991     15994     15996     15988     15991     15994     15997
     15989     15988     15991     15992     15989     15988     15991     15993
     15989     15988     15991     15994     15990     15988     15991     15992
     15990     15988     15991     15993     15990     15988     15991     15994
     15991     15994     15997     15998     15991     15994     15997     15999
     15991     15994     15997     16000     15992     15991     15994     15995
     15992     15991     15994     15996     15992     15991     15994     15997
     15993     15991     15994     15995     15993     15991     15994     15996
     15993     15991     15994     15997     15994     15997     16000     16001
     15994     15997     16000     16002     15994     15997     16000     16003
     15995     15994     15997     15998     15995     15994     15997     15999
     15995     15994     15997     16000     15996     15994     15997     15998
     15996     15994     15997     15999     15996     15994     15997     16000
     15998     15997     16000     16001     15998     15997     16000     16002
     15998     15997     16000     16003     15999     15997     16000     16001
     15999     15997     16000     16002     15999     15997     16000     16003
      2829      2830      2845      2846      2829      2830      2845      2847
      2829      2830      2845      2851      2830      2829      2833      2834
      2830      2829      2833      2835      2830      2829      2833      2836
      2830      2829      2837      2838      2830      2829      2837      2839
      2830      2829      2837      2840      2830      2829      2841      2842
      2830      2829      2841      2843      2830      2829      2841      2844
      2830      2845      2851      2848      2831      2830      2829      2833
      2831      2830      2829      2837      2831      2830      2829      2841
      2831      2830      2845      2846      2831      2830      2845      2847
      2831      2830      2845      2851      2832      2830      2829      2833
      2832      2830      2829      2837      2832      2830      2829      2841
      2832      2830      2845      2846      2832      2830      2845      2847
      2832      2830      2845      2851      2833      2829      2830      2845
      2833      2829      2837      2838      2833      2829      2837      2839
      2833      2829      2837      2840      2833      2829      2841      2842
      2833      2829      2841      2843      2833      2829      2841      2844
      2834      2833      2829      2837      2834      2833      2829      2841
      2835      2833      2829      2837      2835      2833      2829      2841
      2836      2833      2829      2837      2836      2833      2829      2841
      2837      2829      2830      2845      2837      2829      2841      2842
      2837      2829      2841      2843      2837      2829      2841      2844
      2838      2837      2829      2841      2839      2837      2829      2841
      2840      2837      2829      2841      2841      2829      2830      2845
      2845      2851      2848      2849      2845      2851      2848      2850
      2845      2851      2848      2852      2846      2845      2851      2848
      2847      2845      2851      2848      2848      2852      2853      2854
      2848      2852      2853      2855      2848      2852      2853      2856
      2849      2848      2852      2853      2850      2848      2852      2853
      2851      2848      2852      2853      2852      2853      2856      2857
      2852      2853      2856      2858      2852      2853      2856      2864
      2853      2856      2858      2859      2853      2856      2864      2865
      2853      2856      2864      2866      2853      2856      2864      2867
      2854      2853      2856      2857      2854      2853      2856      2858
      2854      2853      2856      2864      2855      2853      2856      2857
      2855      2853      2856      2858      2855      2853      2856      2864
      2856      2858      2859      2860      2856      2858      2859      2861
      2856      2864      2867      2868      2857      2856      2858      2859
      2857      2856      2864      2865      2857      2856      2864      2866
      2857      2856      2864      2867      2858      2856      2864      2865
      2858      2856      2864      2866      2858      2856      2864      2867
      2858      2859      2861      2862      2858      2859      2861      2863
      2858      2859      2861      2873      2859      2858      2856      2864
      2859      2861      2873      2874      2859      2861      2873      2875
      2859      2861      2873      2876      2860      2859      2861      2862
      2860      2859      2861      2863      2860      2859      2861      2873
      2861      2873      2876      2877      2861      2873      2876      2878
      2861      2873      2876      2879      2862      2861      2873      2874
      2862      2861      2873      2875      2862      2861      2873      2876
      2863      2861      2873      2874      2863      2861      2873      2875
      2863      2861      2873      2876      2864      2867      2868      2869
      2864      2867      2868      2870      2865      2864      2867      2868
      2866      2864      2867      2868      2867      2868      2870      2871
      2867      2868      2870      2872      2867      2868      2870      2920
      2868      2870      2920      2921      2868      2870      2920      2922
      2868      2870      2920      2923      2869      2868      2870      2871
      2869      2868      2870      2872      2869      2868      2870      2920
      2870      2920      2923      2924      2870      2920      2923      2925
      2870      2920      2923      2926      2871      2870      2920      2921
      2871      2870      2920      2922      2871      2870      2920      2923
      2872      2870      2920      2921      2872      2870      2920      2922
      2872      2870      2920      2923      2873      2876      2879      2880
      2873      2876      2879      2881      2874      2873      2876      2877
      2874      2873      2876      2878      2874      2873      2876      2879
      2875      2873      2876      2877      2875      2873      2876      2878
      2875      2873      2876      2879      2876      2879      2881      2882
      2876      2879      2881      2883      2877      2876      2879      2880
      2877      2876      2879      2881      2878      2876      2879      2880
      2878      2876      2879      2881      2879      2881      2883      2884
      2879      2881      2883      2885      2879      2881      2883      2886
      2880      2879      2881      2882      2880      2879      2881      2883
      2881      2883      2886      2887      2881      2883      2886      2888
      2882      2881      2883      2884      2882      2881      2883      2885
      2882      2881      2883      2886      2883      2886      2888      2889
      2883      2886      2888      2890      2884      2883      2886      2887
      2884      2883      2886      2888      2885      2883      2886      2887
      2885      2883      2886      2888      2886      2888      2890      2891
      2886      2888      2890      2892      2886      2888      2890      2893
      2887      2886      2888      2889      2887      2886      2888      2890
      2888      2890      2893      2894      2888      2890      2893      2895
      2889      2888      2890      2891      2889      2888      2890      2892
      2889      2888      2890      2893      2890      2893      2895      2896
      2890      2893      2895      2897      2891      2890      2893      2894
      2891      2890      2893      2895      2892      2890      2893      2894
      2892      2890      2893      2895      2893      2895      2897      2898
      2893      2895      2897      2899      2893      2895      2897      2900
      2894      2893      2895      2896      2894      2893      2895      2897
      2895      2897      2900      2901      2895      2897      2900      2902
      2896      2895      2897      2898      2896      2895      2897      2899
      2896      2895      2897      2900      2897      2900      2902      2903
      2897      2900      2902      2904      2898      2897      2900      2901
      2898      2897      2900      2902      2899      2897      2900      2901
      2899      2897      2900      2902      2900      2902      2904      2905
      2900      2902      2904      2906      2900      2902      2904      2907
      2901      2900      2902      2903      2901      2900      2902      2904
      2902      2904      2907      2908      2902      2904      2907      2909
      2902      2904      2907      2910      2903      2902      2904      2905
      2903      2902      2904      2906      2903      2902      2904      2907
      2904      2907      2910      2911      2904      2907      2910      2912
      2904      2907      2910      2913      2905      2904      2907      2908
      2905      2904      2907      2909      2905      2904      2907      2910
      2906      2904      2907      2908      2906      2904      2907      2909
      2906      2904      2907      2910      2907      2910      2913      2914
      2907      2910      2913      2915      2907      2910      2913      2916
      2908      2907      2910      2911      2908      2907      2910      2912
      2908      2907      2910      2913      2909      2907      2910      2911
      2909      2907      2910      2912      2909      2907      2910      2913
      2910      2913      2916      2917      2910      2913      2916      2918
      2910      2913      2916      2919      2911      2910      2913      2914
      2911      2910      2913      2915      2911      2910      2913      2916
      2912      2910      2913      2914      2912      2910      2913      2915
      2912      2910      2913      2916      2914      2913      2916      2917
      2914      2913      2916      2918      2914      2913      2916      2919
      2915      2913      2916      2917      2915      2913      2916      2918
      2915      2913      2916      2919      2920      2923      2926      2927
      2920      2923      2926      2928      2920      2923      2926      2929
      2921      2920      2923      2924      2921      2920      2923      2925
      2921      2920      2923      2926      2922      2920      2923      2924
      2922      2920      2923      2925      2922      2920      2923      2926
      2923      2926      2929      2930      2923      2926      2929      2931
      2923      2926      2929      2932      2924      2923      2926      2927
      2924      2923      2926      2928      2924      2923      2926      2929
      2925      2923      2926      2927      2925      2923      2926      2928
      2925      2923      2926      2929      2926      2929      2932      2933
      2926      2929      2932      2934      2926      2929      2932      2935
      2927      2926      2929      2930      2927      2926      2929      2931
      2927      2926      2929      2932      2928      2926      2929      2930
      2928      2926      2929      2931      2928      2926      2929      2932
      2929      2932      2935      2936      2929      2932      2935      2937
      2929      2932      2935      2938      2930      2929      2932      2933
      2930      2929      2932      2934      2930      2929      2932      2935
      2931      2929      2932      2933      2931      2929      2932      2934
      2931      2929      2932      2935      2932      2935      2938      2939
      2932      2935      2938      2940      2932      2935      2938      2941
      2933      2932      2935      2936      2933      2932      2935      2937
      2933      2932      2935      2938      2934      2932      2935      2936
      2934      2932      2935      2937      2934      2932      2935      2938
      2935      2938      2941      2942      2935      2938      2941      2943
      2935      2938      2941      2944      2936      2935      2938      2939
      2936      2935      2938      2940      2936      2935      2938      2941
      2937      2935      2938      2939      2937      2935      2938      2940
      2937      2935      2938      2941      2938      2941      2944      2945
      2938      2941      2944      2946      2938      2941      2944      2947
      2939      2938      2941      2942      2939      2938      2941      2943
      2939      2938      2941      2944      2940      2938      2941      2942
      2940      2938      2941      2943      2940      2938      2941      2944
      2941      2944      2947      2948      2941      2944      2947      2949
      2941      2944      2947      2950      2942      2941      2944      2945
      2942      2941      2944      2946      2942      2941      2944      2947
      2943      2941      2944      2945      2943      2941      2944      2946
      2943      2941      2944      2947      2944      2947      2950      2951
      2944      2947      2950      2952      2944      2947      2950      2953
      2945      2944      2947      2948      2945      2944      2947      2949
      2945      2944      2947      2950      2946      2944      2947      2948
      2946      2944      2947      2949      2946      2944      2947      2950
      2947      2950      2953      2954      2947      2950      2953      2955
      2947      2950      2953      2956      2948      2947      2950      2951
      2948      2947      2950      2952      2948      2947      2950      2953
      2949      2947      2950      2951      2949      2947      2950      2952
      2949      2947      2950      2953      2950      2953      2956      2957
      2950      2953      2956      2958      2950      2953      2956      2959
      2951      2950      2953      2954      2951      2950      2953      2955
      2951      2950      2953      2956      2952      2950      2953      2954
      2952      2950      2953      2955      2952      2950      2953      2956
      2953      2956      2959      2960      2953      2956      2959      2961
      2953      2956      2959      2962      2954      2953      2956      2957
      2954      2953      2956      2958      2954      2953      2956      2959
      2955      2953      2956      2957      2955      2953      2956      2958
      2955      2953      2956      2959      2956      2959      2962      2963
      2956      2959      2962      2964      2956      2959      2962      2965
      2957      2956      2959      2960      2957      2956      2959      2961
      2957      2956      2959      2962      2958      2956      2959      2960
      2958      2956      2959      2961      2958      2956      2959      2962
      2959      2962      2965      2966      2959      2962      2965      2967
      2959      2962      2965      2968      2960      2959      2962      2963
      2960      2959      2962      2964      2960      2959      2962      2965
      2961      2959      2962      2963      2961      2959      2962      2964
      2961      2959      2962      2965      2963      2962      2965      2966
      2963      2962      2965      2967      2963      2962      2965      2968
      2964      2962      2965      2966      2964      2962      2965      2967
      2964      2962      2965      2968       799       803       805       806
       799       803       805       807       799       803       808       809
       799       803       808       810       799       803       808       814
       800       799       803       804       800       799       803       805
       800       799       803       808       801       799       803       804
       801       799       803       805       801       799       803       808
       802       799       803       804       802       799       803       805
       802       799       803       808       803       808       814       811
       804       803       805       806       804       803       805       807
       804       803       808       809       804       803       808       810
       804       803       808       814       805       803       808       809
       805       803       808       810       805       803       808       814
       806       805       803       808       807       805       803       808
       808       814       811       812       808       814       811       813
       808       814       811       815       809       808       814       811
       810       808       814       811       811       815       816       817
       811       815       816       818       811       815       816       819
       812       811       815       816       813       811       815       816
       814       811       815       816       815       816       819       820
       815       816       819       821       815       816       819       827
       816       819       821       822       816       819       827       828
       816       819       827       829       816       819       827       830
       817       816       819       820       817       816       819       821
       817       816       819       827       818       816       819       820
       818       816       819       821       818       816       819       827
       819       821       822       823       819       821       822       824
       819       827       830       831       820       819       821       822
       820       819       827       828       820       819       827       829
       820       819       827       830       821       819       827       828
       821       819       827       829       821       819       827       830
       821       822       824       825       821       822       824       826
       821       822       824       836       822       821       819       827
       822       824       836       837       822       824       836       838
       822       824       836       839       823       822       824       825
       823       822       824       826       823       822       824       836
       824       836       839       840       824       836       839       841
       824       836       839       842       825       824       836       837
       825       824       836       838       825       824       836       839
       826       824       836       837       826       824       836       838
       826       824       836       839       827       830       831       832
       827       830       831       833       828       827       830       831
       829       827       830       831       830       831       833       834
       830       831       833       835       830       831       833       883
       831       833       883       884       831       833       883       885
       831       833       883       886       832       831       833       834
       832       831       833       835       832       831       833       883
       833       883       886       887       833       883       886       888
       833       883       886       889       834       833       883       884
       834       833       883       885       834       833       883       886
       835       833       883       884       835       833       883       885
       835       833       883       886       836       839       842       843
       836       839       842       844       837       836       839       840
       837       836       839       841       837       836       839       842
       838       836       839       840       838       836       839       841
       838       836       839       842       839       842       844       845
       839       842       844       846       840       839       842       843
       840       839       842       844       841       839       842       843
       841       839       842       844       842       844       846       847
       842       844       846       848       842       844       846       849
       843       842       844       845       843       842       844       846
       844       846       849       850       844       846       849       851
       845       844       846       847       845       844       846       848
       845       844       846       849       846       849       851       852
       846       849       851       853       847       846       849       850
       847       846       849       851       848       846       849       850
       848       846       849       851       849       851       853       854
       849       851       853       855       849       851       853       856
       850       849       851       852       850       849       851       853
       851       853       856       857       851       853       856       858
       852       851       853       854       852       851       853       855
       852       851       853       856       853       856       858       859
       853       856       858       860       854       853       856       857
       854       853       856       858       855       853       856       857
       855       853       856       858       856       858       860       861
       856       858       860       862       856       858       860       863
       857       856       858       859       857       856       858       860
       858       860       863       864       858       860       863       865
       859       858       860       861       859       858       860       862
       859       858       860       863       860       863       865       866
       860       863       865       867       861       860       863       864
       861       860       863       865       862       860       863       864
       862       860       863       865       863       865       867       868
       863       865       867       869       863       865       867       870
       864       863       865       866       864       863       865       867
       865       867       870       871       865       867       870       872
       865       867       870       873       866       865       867       868
       866       865       867       869       866       865       867       870
       867       870       873       874       867       870       873       875
       867       870       873       876       868       867       870       871
       868       867       870       872       868       867       870       873
       869       867       870       871       869       867       870       872
       869       867       870       873       870       873       876       877
       870       873       876       878       870       873       876       879
       871       870       873       874       871       870       873       875
       871       870       873       876       872       870       873       874
       872       870       873       875       872       870       873       876
       873       876       879       880       873       876       879       881
       873       876       879       882       874       873       876       877
       874       873       876       878       874       873       876       879
       875       873       876       877       875       873       876       878
       875       873       876       879       877       876       879       880
       877       876       879       881       877       876       879       882
       878       876       879       880       878       876       879       881
       878       876       879       882       883       886       889       890
       883       886       889       891       883       886       889       892
       884       883       886       887       884       883       886       888
       884       883       886       889       885       883       886       887
       885       883       886       888       885       883       886       889
       886       889       892       893       886       889       892       894
       886       889       892       895       887       886       889       890
       887       886       889       891       887       886       889       892
       888       886       889       890       888       886       889       891
       888       886       889       892       889       892       895       896
       889       892       895       897       889       892       895       898
       890       889       892       893       890       889       892       894
       890       889       892       895       891       889       892       893
       891       889       892       894       891       889       892       895
       892       895       898       899       892       895       898       900
       892       895       898       901       893       892       895       896
       893       892       895       897       893       892       895       898
       894       892       895       896       894       892       895       897
       894       892       895       898       895       898       901       902
       895       898       901       903       895       898       901       904
       896       895       898       899       896       895       898       900
       896       895       898       901       897       895       898       899
       897       895       898       900       897       895       898       901
       898       901       904       905       898       901       904       906
       898       901       904       907       899       898       901       902
       899       898       901       903       899       898       901       904
       900       898       901       902       900       898       901       903
       900       898       901       904       901       904       907       908
       901       904       907       909       901       904       907       910
       902       901       904       905       902       901       904       906
       902       901       904       907       903       901       904       905
       903       901       904       906       903       901       904       907
       904       907       910       911       904       907       910       912
       904       907       910       913       905       904       907       908
       905       904       907       909       905       904       907       910
       906       904       907       908       906       904       907       909
       906       904       907       910       907       910       913       914
       907       910       913       915       907       910       913       916
       908       907       910       911       908       907       910       912
       908       907       910       913       909       907       910       911
       909       907       910       912       909       907       910       913
       910       913       916       917       910       913       916       918
       910       913       916       919       911       910       913       914
       911       910       913       915       911       910       913       916
       912       910       913       914       912       910       913       915
       912       910       913       916       913       916       919       920
       913       916       919       921       913       916       919       922
       914       913       916       917       914       913       916       918
       914       913       916       919       915       913       916       917
       915       913       916       918       915       913       916       919
       916       919       922       923       916       919       922       924
       916       919       922       925       917       916       919       920
       917       916       919       921       917       916       919       922
       918       916       919       920       918       916       919       921
       918       916       919       922       919       922       925       926
       919       922       925       927       919       922       925       928
       920       919       922       923       920       919       922       924
       920       919       922       925       921       919       922       923
       921       919       922       924       921       919       922       925
       922       925       928       929       922       925       928       930
       922       925       928       931       923       922       925       926
       923       922       925       927       923       922       925       928
       924       922       925       926       924       922       925       927
       924       922       925       928       926       925       928       929
       926       925       928       930       926       925       928       931
       927       925       928       929       927       925       928       930
       927       925       928       931      7291      7295      7298      7299
      7291      7295      7298      7329      7291      7337      7334      7329
      7291      7337      7334      7335      7291      7337      7334      7336
      7292      7291      7293      7294      7292      7291      7295      7296
      7292      7291      7295      7297      7292      7291      7295      7298
      7292      7291      7337      7334      7292      7291      7337      7338
      7292      7291      7337      7339      7293      7291      7295      7296
      7293      7291      7295      7297      7293      7291      7295      7298
      7293      7291      7337      7334      7293      7291      7337      7338
      7293      7291      7337      7339      7294      7293      7291      7295
      7294      7293      7291      7337      7295      7291      7337      7334
      7295      7291      7337      7338      7295      7291      7337      7339
      7295      7298      7299      7300      7295      7298      7299      7301
      7295      7298      7329      7327      7295      7298      7329      7330
      7295      7298      7329      7334      7296      7295      7291      7337
      7296      7295      7298      7299      7296      7295      7298      7329
      7297      7295      7291      7337      7297      7295      7298      7299
      7297      7295      7298      7329      7298      7295      7291      7337
      7298      7299      7301      7302      7298      7299      7301      7303
      7298      7299      7301      7304      7298      7329      7327      7304
      7298      7329      7327      7324      7298      7329      7327      7328
      7298      7329      7330      7331      7298      7329      7330      7332
      7298      7329      7330      7333      7298      7329      7334      7335
      7298      7329      7334      7336      7298      7329      7334      7337
      7299      7298      7329      7327      7299      7298      7329      7330
      7299      7298      7329      7334      7299      7301      7304      7305
      7299      7301      7304      7306      7299      7301      7304      7327
      7300      7299      7298      7329      7300      7299      7301      7302
      7300      7299      7301      7303      7300      7299      7301      7304
      7301      7299      7298      7329      7301      7304      7306      7307
      7301      7304      7306      7308      7301      7304      7306      7316
      7301      7304      7327      7324      7301      7304      7327      7328
      7301      7304      7327      7329      7302      7301      7304      7305
      7302      7301      7304      7306      7302      7301      7304      7327
      7303      7301      7304      7305      7303      7301      7304      7306
      7303      7301      7304      7327      7304      7306      7308      7309
      7304      7306      7308      7310      7304      7306      7308      7311
      7304      7306      7316      7314      7304      7306      7316      7317
      7304      7306      7316      7321      7304      7327      7324      7321
      7304      7327      7324      7325      7304      7327      7324      7326
      7304      7327      7329      7330      7304      7327      7329      7334
      7305      7304      7306      7307      7305      7304      7306      7308
      7305      7304      7306      7316      7305      7304      7327      7324
      7305      7304      7327      7328      7305      7304      7327      7329
      7306      7304      7327      7324      7306      7304      7327      7328
      7306      7304      7327      7329      7306      7308      7311      7312
      7306      7308      7311      7313      7306      7308      7311      7314
      7306      7316      7314      7311      7306      7316      7314      7315
      7306      7316      7314      7340      7306      7316      7317      7318
      7306      7316      7317      7319      7306      7316      7317      7320
      7306      7316      7321      7322      7306      7316      7321      7323
      7306      7316      7321      7324      7307      7306      7304      7327
      7307      7306      7308      7309      7307      7306      7308      7310
      7307      7306      7308      7311      7307      7306      7316      7314
      7307      7306      7316      7317      7307      7306      7316      7321
      7308      7306      7304      7327      7308      7306      7316      7314
      7308      7306      7316      7317      7308      7306      7316      7321
      7308      7311      7314      7315      7308      7311      7314      7316
      7308      7311      7314      7340      7309      7308      7306      7316
      7309      7308      7311      7312      7309      7308      7311      7313
      7309      7308      7311      7314      7310      7308      7306      7316
      7310      7308      7311      7312      7310      7308      7311      7313
      7310      7308      7311      7314      7311      7308      7306      7316
      7311      7314      7316      7317      7311      7314      7316      7321
      7311      7314      7340      7341      7311      7314      7340      7342
      7311      7314      7340      7346      7312      7311      7314      7315
      7312      7311      7314      7316      7312      7311      7314      7340
      7313      7311      7314      7315      7313      7311      7314      7316
      7313      7311      7314      7340      7314      7316      7317      7318
      7314      7316      7317      7319      7314      7316      7317      7320
      7314      7316      7321      7322      7314      7316      7321      7323
      7314      7316      7321      7324      7314      7340      7342      7343
      7314      7340      7342      7344      7314      7340      7342      7345
      7314      7340      7346      7347      7314      7340      7346      7348
      7314      7340      7346      7349      7315      7314      7316      7317
      7315      7314      7316      7321      7315      7314      7340      7341
      7315      7314      7340      7342      7315      7314      7340      7346
      7316      7306      7304      7327      7316      7314      7340      7341
      7316      7314      7340      7342      7316      7314      7340      7346
      7316      7321      7324      7325      7316      7321      7324      7326
      7316      7321      7324      7327      7317      7316      7314      7340
      7317      7316      7321      7322      7317      7316      7321      7323
      7317      7316      7321      7324      7318      7317      7316      7321
      7319      7317      7316      7321      7320      7317      7316      7321
      7321      7316      7314      7340      7321      7324      7327      7328
      7321      7324      7327      7329      7322      7321      7324      7325
      7322      7321      7324      7326      7322      7321      7324      7327
      7323      7321      7324      7325      7323      7321      7324      7326
      7323      7321      7324      7327      7324      7327      7329      7330
      7324      7327      7329      7334      7325      7324      7327      7328
      7325      7324      7327      7329      7326      7324      7327      7328
      7326      7324      7327      7329      7327      7329      7330      7331
      7327      7329      7330      7332      7327      7329      7330      7333
      7327      7329      7334      7335      7327      7329      7334      7336
      7327      7329      7334      7337      7328      7327      7329      7330
      7328      7327      7329      7334      7329      7334      7337      7338
      7329      7334      7337      7339      7330      7329      7334      7335
      7330      7329      7334      7336      7330      7329      7334      7337
      7331      7330      7329      7334      7332      7330      7329      7334
      7333      7330      7329      7334      7335      7334      7337      7338
      7335      7334      7337      7339      7336      7334      7337      7338
      7336      7334      7337      7339      7340      7346      7349      7350
      7340      7346      7349      7351      7340      7346      7349      7352
      7341      7340      7342      7343      7341      7340      7342      7344
      7341      7340      7342      7345      7341      7340      7346      7347
      7341      7340      7346      7348      7341      7340      7346      7349
      7342      7340      7346      7347      7342      7340      7346      7348
      7342      7340      7346      7349      7343      7342      7340      7346
      7344      7342      7340      7346      7345      7342      7340      7346
      7346      7349      7352      7353      7346      7349      7352      7354
      7346      7349      7352      7355      7347      7346      7349      7350
      7347      7346      7349      7351      7347      7346      7349      7352
      7348      7346      7349      7350      7348      7346      7349      7351
      7348      7346      7349      7352      7349      7352      7355      7356
      7349      7352      7355      7357      7349      7352      7355      7361
      7350      7349      7352      7353      7350      7349      7352      7354
      7350      7349      7352      7355      7351      7349      7352      7353
      7351      7349      7352      7354      7351      7349      7352      7355
      7352      7355      7357      7358      7352      7355      7357      7359
      7352      7355      7357      7360      7352      7355      7361      7362
      7352      7355      7361      7363      7352      7355      7361      7364
      7353      7352      7355      7356      7353      7352      7355      7357
      7353      7352      7355      7361      7354      7352      7355      7356
      7354      7352      7355      7357      7354      7352      7355      7361
      7356      7355      7357      7358      7356      7355      7357      7359
      7356      7355      7357      7360      7356      7355      7361      7362
      7356      7355      7361      7363      7356      7355      7361      7364
      7357      7355      7361      7362      7357      7355      7361      7363
      7357      7355      7361      7364      7358      7357      7355      7361
      7359      7357      7355      7361      7360      7357      7355      7361
     11681     11694     11697     11698     11681     11694     11697     11699
     11681     11694     11697     11704     11682     11681     11686     11687
     11682     11681     11686     11688     11682     11681     11686     11689
     11682     11681     11690     11691     11682     11681     11690     11692
     11682     11681     11690     11693     11682     11681     11694     11695
     11682     11681     11694     11696     11682     11681     11694     11697
     11683     11682     11681     11686     11683     11682     11681     11690
     11683     11682     11681     11694     11684     11682     11681     11686
     11684     11682     11681     11690     11684     11682     11681     11694
     11685     11682     11681     11686     11685     11682     11681     11690
     11685     11682     11681     11694     11686     11681     11690     11691
     11686     11681     11690     11692     11686     11681     11690     11693
     11686     11681     11694     11695     11686     11681     11694     11696
     11686     11681     11694     11697     11687     11686     11681     11690
     11687     11686     11681     11694     11688     11686     11681     11690
     11688     11686     11681     11694     11689     11686     11681     11690
     11689     11686     11681     11694     11690     11681     11694     11695
     11690     11681     11694     11696     11690     11681     11694     11697
     11691     11690     11681     11694     11692     11690     11681     11694
     11693     11690     11681     11694     11694     11697     11704     11700
     11695     11694     11697     11698     11695     11694     11697     11699
     11695     11694     11697     11704     11696     11694     11697     11698
     11696     11694     11697     11699     11696     11694     11697     11704
     11697     11704     11700     11701     11697     11704     11700     11702
     11697     11704     11700     11703     11698     11697     11704     11700
     11699     11697     11704     11700     11700     11703     11705     11706
     11700     11703     11705     11707     11700     11703     11705     11710
     11701     11700     11703     11705     11702     11700     11703     11705
     11703     11705     11710     11708     11703     11705     11710     11711
     11703     11705     11710     11712     11704     11700     11703     11705
     11705     11710     11708     11709     11705     11710     11708     11760
     11705     11710     11712     11713     11705     11710     11712     11714
     11705     11710     11712     11716     11706     11705     11710     11708
     11706     11705     11710     11711     11706     11705     11710     11712
     11707     11705     11710     11708     11707     11705     11710     11711
     11707     11705     11710     11712     11708     11710     11712     11713
     11708     11710     11712     11714     11708     11710     11712     11716
     11708     11760     11762     11763     11708     11760     11762     11764
     11708     11760     11762     11765     11709     11708     11710     11711
     11709     11708     11710     11712     11709     11708     11760     11761
     11709     11708     11760     11762     11710     11708     11760     11761
     11710     11708     11760     11762     11710     11712     11714     11715
     11710     11712     11716     11717     11710     11712     11716     11718
     11711     11710     11708     11760     11711     11710     11712     11713
     11711     11710     11712     11714     11711     11710     11712     11716
     11712     11710     11708     11760     11712     11716     11718     11719
     11712     11716     11718     11720     11713     11712     11714     11715
     11713     11712     11716     11717     11713     11712     11716     11718
     11714     11712     11716     11717     11714     11712     11716     11718
     11715     11714     11712     11716     11716     11718     11720     11721
     11716     11718     11720     11722     11716     11718     11720     11723
     11717     11716     11718     11719     11717     11716     11718     11720
     11718     11720     11723     11724     11718     11720     11723     11725
     11718     11720     11723     11726     11719     11718     11720     11721
     11719     11718     11720     11722     11719     11718     11720     11723
     11720     11723     11726     11727     11720     11723     11726     11728
     11720     11723     11726     11729     11721     11720     11723     11724
     11721     11720     11723     11725     11721     11720     11723     11726
     11722     11720     11723     11724     11722     11720     11723     11725
     11722     11720     11723     11726     11723     11726     11729     11730
     11723     11726     11729     11731     11723     11726     11729     11732
     11724     11723     11726     11727     11724     11723     11726     11728
     11724     11723     11726     11729     11725     11723     11726     11727
     11725     11723     11726     11728     11725     11723     11726     11729
     11726     11729     11732     11733     11726     11729     11732     11734
     11726     11729     11732     11735     11727     11726     11729     11730
     11727     11726     11729     11731     11727     11726     11729     11732
     11728     11726     11729     11730     11728     11726     11729     11731
     11728     11726     11729     11732     11729     11732     11735     11736
     11729     11732     11735     11737     11729     11732     11735     11738
     11730     11729     11732     11733     11730     11729     11732     11734
     11730     11729     11732     11735     11731     11729     11732     11733
     11731     11729     11732     11734     11731     11729     11732     11735
     11732     11735     11738     11739     11732     11735     11738     11740
     11732     11735     11738     11741     11733     11732     11735     11736
     11733     11732     11735     11737     11733     11732     11735     11738
     11734     11732     11735     11736     11734     11732     11735     11737
     11734     11732     11735     11738     11735     11738     11741     11742
     11735     11738     11741     11743     11735     11738     11741     11744
     11736     11735     11738     11739     11736     11735     11738     11740
     11736     11735     11738     11741     11737     11735     11738     11739
     11737     11735     11738     11740     11737     11735     11738     11741
     11738     11741     11744     11745     11738     11741     11744     11746
     11738     11741     11744     11747     11739     11738     11741     11742
     11739     11738     11741     11743     11739     11738     11741     11744
     11740     11738     11741     11742     11740     11738     11741     11743
     11740     11738     11741     11744     11741     11744     11747     11748
     11741     11744     11747     11749     11741     11744     11747     11750
     11742     11741     11744     11745     11742     11741     11744     11746
     11742     11741     11744     11747     11743     11741     11744     11745
     11743     11741     11744     11746     11743     11741     11744     11747
     11744     11747     11750     11751     11744     11747     11750     11752
     11744     11747     11750     11753     11745     11744     11747     11748
     11745     11744     11747     11749     11745     11744     11747     11750
     11746     11744     11747     11748     11746     11744     11747     11749
     11746     11744     11747     11750     11747     11750     11753     11754
     11747     11750     11753     11755     11747     11750     11753     11756
     11748     11747     11750     11751     11748     11747     11750     11752
     11748     11747     11750     11753     11749     11747     11750     11751
     11749     11747     11750     11752     11749     11747     11750     11753
     11750     11753     11756     11757     11750     11753     11756     11758
     11750     11753     11756     11759     11751     11750     11753     11754
     11751     11750     11753     11755     11751     11750     11753     11756
     11752     11750     11753     11754     11752     11750     11753     11755
     11752     11750     11753     11756     11754     11753     11756     11757
     11754     11753     11756     11758     11754     11753     11756     11759
     11755     11753     11756     11757     11755     11753     11756     11758
     11755     11753     11756     11759     11760     11762     11765     11766
     11760     11762     11765     11767     11760     11762     11765     11768
     11761     11760     11762     11763     11761     11760     11762     11764
     11761     11760     11762     11765     11762     11765     11768     11769
     11762     11765     11768     11770     11762     11765     11768     11771
     11763     11762     11765     11766     11763     11762     11765     11767
     11763     11762     11765     11768     11764     11762     11765     11766
     11764     11762     11765     11767     11764     11762     11765     11768
     11765     11768     11771     11772     11765     11768     11771     11773
     11765     11768     11771     11774     11766     11765     11768     11769
     11766     11765     11768     11770     11766     11765     11768     11771
     11767     11765     11768     11769     11767     11765     11768     11770
     11767     11765     11768     11771     11768     11771     11774     11775
     11768     11771     11774     11776     11768     11771     11774     11777
     11769     11768     11771     11772     11769     11768     11771     11773
     11769     11768     11771     11774     11770     11768     11771     11772
     11770     11768     11771     11773     11770     11768     11771     11774
     11771     11774     11777     11778     11771     11774     11777     11779
     11771     11774     11777     11780     11772     11771     11774     11775
     11772     11771     11774     11776     11772     11771     11774     11777
     11773     11771     11774     11775     11773     11771     11774     11776
     11773     11771     11774     11777     11774     11777     11780     11781
     11774     11777     11780     11782     11774     11777     11780     11783
     11775     11774     11777     11778     11775     11774     11777     11779
     11775     11774     11777     11780     11776     11774     11777     11778
     11776     11774     11777     11779     11776     11774     11777     11780
     11777     11780     11783     11784     11777     11780     11783     11785
     11778     11777     11780     11781     11778     11777     11780     11782
     11778     11777     11780     11783     11779     11777     11780     11781
     11779     11777     11780     11782     11779     11777     11780     11783
     11780     11783     11785     11786     11780     11783     11785     11787
     11781     11780     11783     11784     11781     11780     11783     11785
     11782     11780     11783     11784     11782     11780     11783     11785
     11783     11785     11787     11788     11783     11785     11787     11789
     11783     11785     11787     11790     11784     11783     11785     11786
     11784     11783     11785     11787     11785     11787     11790     11791
     11785     11787     11790     11792     11785     11787     11790     11793
     11786     11785     11787     11788     11786     11785     11787     11789
     11786     11785     11787     11790     11787     11790     11793     11794
     11787     11790     11793     11795     11787     11790     11793     11796
     11788     11787     11790     11791     11788     11787     11790     11792
     11788     11787     11790     11793     11789     11787     11790     11791
     11789     11787     11790     11792     11789     11787     11790     11793
     11790     11793     11796     11797     11790     11793     11796     11798
     11790     11793     11796     11799     11791     11790     11793     11794
     11791     11790     11793     11795     11791     11790     11793     11796
     11792     11790     11793     11794     11792     11790     11793     11795
     11792     11790     11793     11796     11793     11796     11799     11800
     11793     11796     11799     11801     11793     11796     11799     11802
     11794     11793     11796     11797     11794     11793     11796     11798
     11794     11793     11796     11799     11795     11793     11796     11797
     11795     11793     11796     11798     11795     11793     11796     11799
     11796     11799     11802     11803     11796     11799     11802     11804
     11796     11799     11802     11805     11797     11796     11799     11800
     11797     11796     11799     11801     11797     11796     11799     11802
     11798     11796     11799     11800     11798     11796     11799     11801
     11798     11796     11799     11802     11799     11802     11805     11806
     11799     11802     11805     11807     11799     11802     11805     11808
     11800     11799     11802     11803     11800     11799     11802     11804
     11800     11799     11802     11805     11801     11799     11802     11803
     11801     11799     11802     11804     11801     11799     11802     11805
     11802     11805     11808     11809     11802     11805     11808     11810
     11802     11805     11808     11811     11803     11802     11805     11806
     11803     11802     11805     11807     11803     11802     11805     11808
     11804     11802     11805     11806     11804     11802     11805     11807
     11804     11802     11805     11808     11806     11805     11808     11809
     11806     11805     11808     11810     11806     11805     11808     11811
     11807     11805     11808     11809     11807     11805     11808     11810
     11807     11805     11808     11811       932       936       938       939
       932       936       938       940       932       936       941       942
       932       936       941       943       932       936       941       947
       933       932       936       937       933       932       936       938
       933       932       936       941       934       932       936       937
       934       932       936       938       934       932       936       941
       935       932       936       937       935       932       936       938
       935       932       936       941       936       941       947       944
       937       936       938       939       937       936       938       940
       937       936       941       942       937       936       941       943
       937       936       941       947       938       936       941       942
       938       936       941       943       938       936       941       947
       939       938       936       941       940       938       936       941
       941       947       944       945       941       947       944       946
       941       947       944       948       942       941       947       944
       943       941       947       944       944       948       949       950
       944       948       949       951       944       948       949       952
       945       944       948       949       946       944       948       949
       947       944       948       949       948       949       952       953
       948       949       952       954       948       949       952       960
       949       952       954       955       949       952       960       961
       949       952       960       962       949       952       960       963
       950       949       952       953       950       949       952       954
       950       949       952       960       951       949       952       953
       951       949       952       954       951       949       952       960
       952       954       955       956       952       954       955       957
       952       960       963       964       953       952       954       955
       953       952       960       961       953       952       960       962
       953       952       960       963       954       952       960       961
       954       952       960       962       954       952       960       963
       954       955       957       958       954       955       957       959
       954       955       957       969       955       954       952       960
       955       957       969       970       955       957       969       971
       955       957       969       972       956       955       957       958
       956       955       957       959       956       955       957       969
       957       969       972       973       957       969       972       974
       957       969       972       975       958       957       969       970
       958       957       969       971       958       957       969       972
       959       957       969       970       959       957       969       971
       959       957       969       972       960       963       964       965
       960       963       964       966       961       960       963       964
       962       960       963       964       963       964       966       967
       963       964       966       968       963       964       966      1016
       964       966      1016      1017       964       966      1016      1018
       964       966      1016      1019       965       964       966       967
       965       964       966       968       965       964       966      1016
       966      1016      1019      1020       966      1016      1019      1021
       966      1016      1019      1022       967       966      1016      1017
       967       966      1016      1018       967       966      1016      1019
       968       966      1016      1017       968       966      1016      1018
       968       966      1016      1019       969       972       975       976
       969       972       975       977       970       969       972       973
       970       969       972       974       970       969       972       975
       971       969       972       973       971       969       972       974
       971       969       972       975       972       975       977       978
       972       975       977       979       973       972       975       976
       973       972       975       977       974       972       975       976
       974       972       975       977       975       977       979       980
       975       977       979       981       975       977       979       982
       976       975       977       978       976       975       977       979
       977       979       982       983       977       979       982       984
       978       977       979       980       978       977       979       981
       978       977       979       982       979       982       984       985
       979       982       984       986       980       979       982       983
       980       979       982       984       981       979       982       983
       981       979       982       984       982       984       986       987
       982       984       986       988       982       984       986       989
       983       982       984       985       983       982       984       986
       984       986       989       990       984       986       989       991
       985       984       986       987       985       984       986       988
       985       984       986       989       986       989       991       992
       986       989       991       993       987       986       989       990
       987       986       989       991       988       986       989       990
       988       986       989       991       989       991       993       994
       989       991       993       995       989       991       993       996
       990       989       991       992       990       989       991       993
       991       993       996       997       991       993       996       998
       992       991       993       994       992       991       993       995
       992       991       993       996       993       996       998       999
       993       996       998      1000       994       993       996       997
       994       993       996       998       995       993       996       997
       995       993       996       998       996       998      1000      1001
       996       998      1000      1002       996       998      1000      1003
       997       996       998       999       997       996       998      1000
       998      1000      1003      1004       998      1000      1003      1005
       998      1000      1003      1006       999       998      1000      1001
       999       998      1000      1002       999       998      1000      1003
      1000      1003      1006      1007      1000      1003      1006      1008
      1000      1003      1006      1009      1001      1000      1003      1004
      1001      1000      1003      1005      1001      1000      1003      1006
      1002      1000      1003      1004      1002      1000      1003      1005
      1002      1000      1003      1006      1003      1006      1009      1010
      1003      1006      1009      1011      1003      1006      1009      1012
      1004      1003      1006      1007      1004      1003      1006      1008
      1004      1003      1006      1009      1005      1003      1006      1007
      1005      1003      1006      1008      1005      1003      1006      1009
      1006      1009      1012      1013      1006      1009      1012      1014
      1006      1009      1012      1015      1007      1006      1009      1010
      1007      1006      1009      1011      1007      1006      1009      1012
      1008      1006      1009      1010      1008      1006      1009      1011
      1008      1006      1009      1012      1010      1009      1012      1013
      1010      1009      1012      1014      1010      1009      1012      1015
      1011      1009      1012      1013      1011      1009      1012      1014
      1011      1009      1012      1015      1016      1019      1022      1023
      1016      1019      1022      1024      1016      1019      1022      1025
      1017      1016      1019      1020      1017      1016      1019      1021
      1017      1016      1019      1022      1018      1016      1019      1020
      1018      1016      1019      1021      1018      1016      1019      1022
      1019      1022      1025      1026      1019      1022      1025      1027
      1019      1022      1025      1028      1020      1019      1022      1023
      1020      1019      1022      1024      1020      1019      1022      1025
      1021      1019      1022      1023      1021      1019      1022      1024
      1021      1019      1022      1025      1022      1025      1028      1029
      1022      1025      1028      1030      1022      1025      1028      1031
      1023      1022      1025      1026      1023      1022      1025      1027
      1023      1022      1025      1028      1024      1022      1025      1026
      1024      1022      1025      1027      1024      1022      1025      1028
      1025      1028      1031      1032      1025      1028      1031      1033
      1025      1028      1031      1034      1026      1025      1028      1029
      1026      1025      1028      1030      1026      1025      1028      1031
      1027      1025      1028      1029      1027      1025      1028      1030
      1027      1025      1028      1031      1028      1031      1034      1035
      1028      1031      1034      1036      1028      1031      1034      1037
      1029      1028      1031      1032      1029      1028      1031      1033
      1029      1028      1031      1034      1030      1028      1031      1032
      1030      1028      1031      1033      1030      1028      1031      1034
      1031      1034      1037      1038      1031      1034      1037      1039
      1031      1034      1037      1040      1032      1031      1034      1035
      1032      1031      1034      1036      1032      1031      1034      1037
      1033      1031      1034      1035      1033      1031      1034      1036
      1033      1031      1034      1037      1034      1037      1040      1041
      1034      1037      1040      1042      1034      1037      1040      1043
      1035      1034      1037      1038      1035      1034      1037      1039
      1035      1034      1037      1040      1036      1034      1037      1038
      1036      1034      1037      1039      1036      1034      1037      1040
      1037      1040      1043      1044      1037      1040      1043      1045
      1037      1040      1043      1046      1038      1037      1040      1041
      1038      1037      1040      1042      1038      1037      1040      1043
      1039      1037      1040      1041      1039      1037      1040      1042
      1039      1037      1040      1043      1040      1043      1046      1047
      1040      1043      1046      1048      1040      1043      1046      1049
      1041      1040      1043      1044      1041      1040      1043      1045
      1041      1040      1043      1046      1042      1040      1043      1044
      1042      1040      1043      1045      1042      1040      1043      1046
      1043      1046      1049      1050      1043      1046      1049      1051
      1043      1046      1049      1052      1044      1043      1046      1047
      1044      1043      1046      1048      1044      1043      1046      1049
      1045      1043      1046      1047      1045      1043      1046      1048
      1045      1043      1046      1049      1046      1049      1052      1053
      1046      1049      1052      1054      1046      1049      1052      1055
      1047      1046      1049      1050      1047      1046      1049      1051
      1047      1046      1049      1052      1048      1046      1049      1050
      1048      1046      1049      1051      1048      1046      1049      1052
      1049      1052      1055      1056      1049      1052      1055      1057
      1049      1052      1055      1058      1050      1049      1052      1053
      1050      1049      1052      1054      1050      1049      1052      1055
      1051      1049      1052      1053      1051      1049      1052      1054
      1051      1049      1052      1055      1052      1055      1058      1059
      1052      1055      1058      1060      1052      1055      1058      1061
      1053      1052      1055      1056      1053      1052      1055      1057
      1053      1052      1055      1058      1054      1052      1055      1056
      1054      1052      1055      1057      1054      1052      1055      1058
      1055      1058      1061      1062      1055      1058      1061      1063
      1055      1058      1061      1064      1056      1055      1058      1059
      1056      1055      1058      1060      1056      1055      1058      1061
      1057      1055      1058      1059      1057      1055      1058      1060
      1057      1055      1058      1061      1059      1058      1061      1062
      1059      1058      1061      1063      1059      1058      1061      1064
      1060      1058      1061      1062      1060      1058      1061      1063
      1060      1058      1061      1064      2969      2970      2985      2986
      2969      2970      2985      2987      2969      2970      2985      2991
      2970      2969      2973      2974      2970      2969      2973      2975
      2970      2969      2973      2976      2970      2969      2977      2978
      2970      2969      2977      2979      2970      2969      2977      2980
      2970      2969      2981      2982      2970      2969      2981      2983
      2970      2969      2981      2984      2970      2985      2991      2988
      2971      2970      2969      2973      2971      2970      2969      2977
      2971      2970      2969      2981      2971      2970      2985      2986
      2971      2970      2985      2987      2971      2970      2985      2991
      2972      2970      2969      2973      2972      2970      2969      2977
      2972      2970      2969      2981      2972      2970      2985      2986
      2972      2970      2985      2987      2972      2970      2985      2991
      2973      2969      2970      2985      2973      2969      2977      2978
      2973      2969      2977      2979      2973      2969      2977      2980
      2973      2969      2981      2982      2973      2969      2981      2983
      2973      2969      2981      2984      2974      2973      2969      2977
      2974      2973      2969      2981      2975      2973      2969      2977
      2975      2973      2969      2981      2976      2973      2969      2977
      2976      2973      2969      2981      2977      2969      2970      2985
      2977      2969      2981      2982      2977      2969      2981      2983
      2977      2969      2981      2984      2978      2977      2969      2981
      2979      2977      2969      2981      2980      2977      2969      2981
      2981      2969      2970      2985      2985      2991      2988      2989
      2985      2991      2988      2990      2985      2991      2988      2992
      2986      2985      2991      2988      2987      2985      2991      2988
      2988      2992      2993      2994      2988      2992      2993      2995
      2988      2992      2993      2996      2989      2988      2992      2993
      2990      2988      2992      2993      2991      2988      2992      2993
      2992      2993      2996      2997      2992      2993      2996      2998
      2992      2993      2996      3004      2993      2996      2998      2999
      2993      2996      3004      3005      2993      2996      3004      3006
      2993      2996      3004      3007      2994      2993      2996      2997
      2994      2993      2996      2998      2994      2993      2996      3004
      2995      2993      2996      2997      2995      2993      2996      2998
      2995      2993      2996      3004      2996      2998      2999      3000
      2996      2998      2999      3001      2996      3004      3007      3008
      2997      2996      2998      2999      2997      2996      3004      3005
      2997      2996      3004      3006      2997      2996      3004      3007
      2998      2996      3004      3005      2998      2996      3004      3006
      2998      2996      3004      3007      2998      2999      3001      3002
      2998      2999      3001      3003      2998      2999      3001      3013
      2999      2998      2996      3004      2999      3001      3013      3014
      2999      3001      3013      3015      2999      3001      3013      3016
      3000      2999      3001      3002      3000      2999      3001      3003
      3000      2999      3001      3013      3001      3013      3016      3017
      3001      3013      3016      3018      3001      3013      3016      3019
      3002      3001      3013      3014      3002      3001      3013      3015
      3002      3001      3013      3016      3003      3001      3013      3014
      3003      3001      3013      3015      3003      3001      3013      3016
      3004      3007      3008      3009      3004      3007      3008      3010
      3005      3004      3007      3008      3006      3004      3007      3008
      3007      3008      3010      3011      3007      3008      3010      3012
      3007      3008      3010      3060      3008      3010      3060      3061
      3008      3010      3060      3062      3008      3010      3060      3063
      3009      3008      3010      3011      3009      3008      3010      3012
      3009      3008      3010      3060      3010      3060      3063      3064
      3010      3060      3063      3065      3010      3060      3063      3066
      3011      3010      3060      3061      3011      3010      3060      3062
      3011      3010      3060      3063      3012      3010      3060      3061
      3012      3010      3060      3062      3012      3010      3060      3063
      3013      3016      3019      3020      3013      3016      3019      3021
      3014      3013      3016      3017      3014      3013      3016      3018
      3014      3013      3016      3019      3015      3013      3016      3017
      3015      3013      3016      3018      3015      3013      3016      3019
      3016      3019      3021      3022      3016      3019      3021      3023
      3017      3016      3019      3020      3017      3016      3019      3021
      3018      3016      3019      3020      3018      3016      3019      3021
      3019      3021      3023      3024      3019      3021      3023      3025
      3019      3021      3023      3026      3020      3019      3021      3022
      3020      3019      3021      3023      3021      3023      3026      3027
      3021      3023      3026      3028      3022      3021      3023      3024
      3022      3021      3023      3025      3022      3021      3023      3026
      3023      3026      3028      3029      3023      3026      3028      3030
      3024      3023      3026      3027      3024      3023      3026      3028
      3025      3023      3026      3027      3025      3023      3026      3028
      3026      3028      3030      3031      3026      3028      3030      3032
      3026      3028      3030      3033      3027      3026      3028      3029
      3027      3026      3028      3030      3028      3030      3033      3034
      3028      3030      3033      3035      3029      3028      3030      3031
      3029      3028      3030      3032      3029      3028      3030      3033
      3030      3033      3035      3036      3030      3033      3035      3037
      3031      3030      3033      3034      3031      3030      3033      3035
      3032      3030      3033      3034      3032      3030      3033      3035
      3033      3035      3037      3038      3033      3035      3037      3039
      3033      3035      3037      3040      3034      3033      3035      3036
      3034      3033      3035      3037      3035      3037      3040      3041
      3035      3037      3040      3042      3036      3035      3037      3038
      3036      3035      3037      3039      3036      3035      3037      3040
      3037      3040      3042      3043      3037      3040      3042      3044
      3038      3037      3040      3041      3038      3037      3040      3042
      3039      3037      3040      3041      3039      3037      3040      3042
      3040      3042      3044      3045      3040      3042      3044      3046
      3040      3042      3044      3047      3041      3040      3042      3043
      3041      3040      3042      3044      3042      3044      3047      3048
      3042      3044      3047      3049      3042      3044      3047      3050
      3043      3042      3044      3045      3043      3042      3044      3046
      3043      3042      3044      3047      3044      3047      3050      3051
      3044      3047      3050      3052      3044      3047      3050      3053
      3045      3044      3047      3048      3045      3044      3047      3049
      3045      3044      3047      3050      3046      3044      3047      3048
      3046      3044      3047      3049      3046      3044      3047      3050
      3047      3050      3053      3054      3047      3050      3053      3055
      3047      3050      3053      3056      3048      3047      3050      3051
      3048      3047      3050      3052      3048      3047      3050      3053
      3049      3047      3050      3051      3049      3047      3050      3052
      3049      3047      3050      3053      3050      3053      3056      3057
      3050      3053      3056      3058      3050      3053      3056      3059
      3051      3050      3053      3054      3051      3050      3053      3055
      3051      3050      3053      3056      3052      3050      3053      3054
      3052      3050      3053      3055      3052      3050      3053      3056
      3054      3053      3056      3057      3054      3053      3056      3058
      3054      3053      3056      3059      3055      3053      3056      3057
      3055      3053      3056      3058      3055      3053      3056      3059
      3060      3063      3066      3067      3060      3063      3066      3068
      3060      3063      3066      3069      3061      3060      3063      3064
      3061      3060      3063      3065      3061      3060      3063      3066
      3062      3060      3063      3064      3062      3060      3063      3065
      3062      3060      3063      3066      3063      3066      3069      3070
      3063      3066      3069      3071      3063      3066      3069      3072
      3064      3063      3066      3067      3064      3063      3066      3068
      3064      3063      3066      3069      3065      3063      3066      3067
      3065      3063      3066      3068      3065      3063      3066      3069
      3066      3069      3072      3073      3066      3069      3072      3074
      3066      3069      3072      3075      3067      3066      3069      3070
      3067      3066      3069      3071      3067      3066      3069      3072
      3068      3066      3069      3070      3068      3066      3069      3071
      3068      3066      3069      3072      3069      3072      3075      3076
      3069      3072      3075      3077      3069      3072      3075      3078
      3070      3069      3072      3073      3070      3069      3072      3074
      3070      3069      3072      3075      3071      3069      3072      3073
      3071      3069      3072      3074      3071      3069      3072      3075
      3072      3075      3078      3079      3072      3075      3078      3080
      3072      3075      3078      3081      3073      3072      3075      3076
      3073      3072      3075      3077      3073      3072      3075      3078
      3074      3072      3075      3076      3074      3072      3075      3077
      3074      3072      3075      3078      3075      3078      3081      3082
      3075      3078      3081      3083      3075      3078      3081      3084
      3076      3075      3078      3079      3076      3075      3078      3080
      3076      3075      3078      3081      3077      3075      3078      3079
      3077      3075      3078      3080      3077      3075      3078      3081
      3078      3081      3084      3085      3078      3081      3084      3086
      3078      3081      3084      3087      3079      3078      3081      3082
      3079      3078      3081      3083      3079      3078      3081      3084
      3080      3078      3081      3082      3080      3078      3081      3083
      3080      3078      3081      3084      3081      3084      3087      3088
      3081      3084      3087      3089      3081      3084      3087      3090
      3082      3081      3084      3085      3082      3081      3084      3086
      3082      3081      3084      3087      3083      3081      3084      3085
      3083      3081      3084      3086      3083      3081      3084      3087
      3084      3087      3090      3091      3084      3087      3090      3092
      3084      3087      3090      3093      3085      3084      3087      3088
      3085      3084      3087      3089      3085      3084      3087      3090
      3086      3084      3087      3088      3086      3084      3087      3089
      3086      3084      3087      3090      3087      3090      3093      3094
      3087      3090      3093      3095      3087      3090      3093      3096
      3088      3087      3090      3091      3088      3087      3090      3092
      3088      3087      3090      3093      3089      3087      3090      3091
      3089      3087      3090      3092      3089      3087      3090      3093
      3090      3093      3096      3097      3090      3093      3096      3098
      3090      3093      3096      3099      3091      3090      3093      3094
      3091      3090      3093      3095      3091      3090      3093      3096
      3092      3090      3093      3094      3092      3090      3093      3095
      3092      3090      3093      3096      3093      3096      3099      3100
      3093      3096      3099      3101      3093      3096      3099      3102
      3094      3093      3096      3097      3094      3093      3096      3098
      3094      3093      3096      3099      3095      3093      3096      3097
      3095      3093      3096      3098      3095      3093      3096      3099
      3096      3099      3102      3103      3096      3099      3102      3104
      3096      3099      3102      3105      3097      3096      3099      3100
      3097      3096      3099      3101      3097      3096      3099      3102
      3098      3096      3099      3100      3098      3096      3099      3101
      3098      3096      3099      3102      3099      3102      3105      3106
      3099      3102      3105      3107      3099      3102      3105      3108
      3100      3099      3102      3103      3100      3099      3102      3104
      3100      3099      3102      3105      3101      3099      3102      3103
      3101      3099      3102      3104      3101      3099      3102      3105
      3103      3102      3105      3106      3103      3102      3105      3107
      3103      3102      3105      3108      3104      3102      3105      3106
      3104      3102      3105      3107      3104      3102      3105      3108
      7365      7369      7372      7373      7365      7369      7372      7403
      7365      7411      7408      7403      7365      7411      7408      7409
      7365      7411      7408      7410      7366      7365      7367      7368
      7366      7365      7369      7370      7366      7365      7369      7371
      7366      7365      7369      7372      7366      7365      7411      7408
      7366      7365      7411      7412      7366      7365      7411      7413
      7367      7365      7369      7370      7367      7365      7369      7371
      7367      7365      7369      7372      7367      7365      7411      7408
      7367      7365      7411      7412      7367      7365      7411      7413
      7368      7367      7365      7369      7368      7367      7365      7411
      7369      7365      7411      7408      7369      7365      7411      7412
      7369      7365      7411      7413      7369      7372      7373      7374
      7369      7372      7373      7375      7369      7372      7403      7401
      7369      7372      7403      7404      7369      7372      7403      7408
      7370      7369      7365      7411      7370      7369      7372      7373
      7370      7369      7372      7403      7371      7369      7365      7411
      7371      7369      7372      7373      7371      7369      7372      7403
      7372      7369      7365      7411      7372      7373      7375      7376
      7372      7373      7375      7377      7372      7373      7375      7378
      7372      7403      7401      7378      7372      7403      7401      7398
      7372      7403      7401      7402      7372      7403      7404      7405
      7372      7403      7404      7406      7372      7403      7404      7407
      7372      7403      7408      7409      7372      7403      7408      7410
      7372      7403      7408      7411      7373      7372      7403      7401
      7373      7372      7403      7404      7373      7372      7403      7408
      7373      7375      7378      7379      7373      7375      7378      7380
      7373      7375      7378      7401      7374      7373      7372      7403
      7374      7373      7375      7376      7374      7373      7375      7377
      7374      7373      7375      7378      7375      7373      7372      7403
      7375      7378      7380      7381      7375      7378      7380      7382
      7375      7378      7380      7390      7375      7378      7401      7398
      7375      7378      7401      7402      7375      7378      7401      7403
      7376      7375      7378      7379      7376      7375      7378      7380
      7376      7375      7378      7401      7377      7375      7378      7379
      7377      7375      7378      7380      7377      7375      7378      7401
      7378      7380      7382      7383      7378      7380      7382      7384
      7378      7380      7382      7385      7378      7380      7390      7388
      7378      7380      7390      7391      7378      7380      7390      7395
      7378      7401      7398      7395      7378      7401      7398      7399
      7378      7401      7398      7400      7378      7401      7403      7404
      7378      7401      7403      7408      7379      7378      7380      7381
      7379      7378      7380      7382      7379      7378      7380      7390
      7379      7378      7401      7398      7379      7378      7401      7402
      7379      7378      7401      7403      7380      7378      7401      7398
      7380      7378      7401      7402      7380      7378      7401      7403
      7380      7382      7385      7386      7380      7382      7385      7387
      7380      7382      7385      7388      7380      7390      7388      7385
      7380      7390      7388      7389      7380      7390      7388      7414
      7380      7390      7391      7392      7380      7390      7391      7393
      7380      7390      7391      7394      7380      7390      7395      7396
      7380      7390      7395      7397      7380      7390      7395      7398
      7381      7380      7378      7401      7381      7380      7382      7383
      7381      7380      7382      7384      7381      7380      7382      7385
      7381      7380      7390      7388      7381      7380      7390      7391
      7381      7380      7390      7395      7382      7380      7378      7401
      7382      7380      7390      7388      7382      7380      7390      7391
      7382      7380      7390      7395      7382      7385      7388      7389
      7382      7385      7388      7390      7382      7385      7388      7414
      7383      7382      7380      7390      7383      7382      7385      7386
      7383      7382      7385      7387      7383      7382      7385      7388
      7384      7382      7380      7390      7384      7382      7385      7386
      7384      7382      7385      7387      7384      7382      7385      7388
      7385      7382      7380      7390      7385      7388      7390      7391
      7385      7388      7390      7395      7385      7388      7414      7415
      7385      7388      7414      7416      7385      7388      7414      7420
      7386      7385      7388      7389      7386      7385      7388      7390
      7386      7385      7388      7414      7387      7385      7388      7389
      7387      7385      7388      7390      7387      7385      7388      7414
      7388      7390      7391      7392      7388      7390      7391      7393
      7388      7390      7391      7394      7388      7390      7395      7396
      7388      7390      7395      7397      7388      7390      7395      7398
      7388      7414      7416      7417      7388      7414      7416      7418
      7388      7414      7416      7419      7388      7414      7420      7421
      7388      7414      7420      7422      7388      7414      7420      7423
      7389      7388      7390      7391      7389      7388      7390      7395
      7389      7388      7414      7415      7389      7388      7414      7416
      7389      7388      7414      7420      7390      7380      7378      7401
      7390      7388      7414      7415      7390      7388      7414      7416
      7390      7388      7414      7420      7390      7395      7398      7399
      7390      7395      7398      7400      7390      7395      7398      7401
      7391      7390      7388      7414      7391      7390      7395      7396
      7391      7390      7395      7397      7391      7390      7395      7398
      7392      7391      7390      7395      7393      7391      7390      7395
      7394      7391      7390      7395      7395      7390      7388      7414
      7395      7398      7401      7402      7395      7398      7401      7403
      7396      7395      7398      7399      7396      7395      7398      7400
      7396      7395      7398      7401      7397      7395      7398      7399
      7397      7395      7398      7400      7397      7395      7398      7401
      7398      7401      7403      7404      7398      7401      7403      7408
      7399      7398      7401      7402      7399      7398      7401      7403
      7400      7398      7401      7402      7400      7398      7401      7403
      7401      7403      7404      7405      7401      7403      7404      7406
      7401      7403      7404      7407      7401      7403      7408      7409
      7401      7403      7408      7410      7401      7403      7408      7411
      7402      7401      7403      7404      7402      7401      7403      7408
      7403      7408      7411      7412      7403      7408      7411      7413
      7404      7403      7408      7409      7404      7403      7408      7410
      7404      7403      7408      7411      7405      7404      7403      7408
      7406      7404      7403      7408      7407      7404      7403      7408
      7409      7408      7411      7412      7409      7408      7411      7413
      7410      7408      7411      7412      7410      7408      7411      7413
      7414      7420      7423      7424      7414      7420      7423      7425
      7414      7420      7423      7426      7415      7414      7416      7417
      7415      7414      7416      7418      7415      7414      7416      7419
      7415      7414      7420      7421      7415      7414      7420      7422
      7415      7414      7420      7423      7416      7414      7420      7421
      7416      7414      7420      7422      7416      7414      7420      7423
      7417      7416      7414      7420      7418      7416      7414      7420
      7419      7416      7414      7420      7420      7423      7426      7427
      7420      7423      7426      7428      7420      7423      7426      7429
      7421      7420      7423      7424      7421      7420      7423      7425
      7421      7420      7423      7426      7422      7420      7423      7424
      7422      7420      7423      7425      7422      7420      7423      7426
      7423      7426      7429      7430      7423      7426      7429      7431
      7423      7426      7429      7435      7424      7423      7426      7427
      7424      7423      7426      7428      7424      7423      7426      7429
      7425      7423      7426      7427      7425      7423      7426      7428
      7425      7423      7426      7429      7426      7429      7431      7432
      7426      7429      7431      7433      7426      7429      7431      7434
      7426      7429      7435      7436      7426      7429      7435      7437
      7426      7429      7435      7438      7427      7426      7429      7430
      7427      7426      7429      7431      7427      7426      7429      7435
      7428      7426      7429      7430      7428      7426      7429      7431
      7428      7426      7429      7435      7430      7429      7431      7432
      7430      7429      7431      7433      7430      7429      7431      7434
      7430      7429      7435      7436      7430      7429      7435      7437
      7430      7429      7435      7438      7431      7429      7435      7436
      7431      7429      7435      7437      7431      7429      7435      7438
      7432      7431      7429      7435      7433      7431      7429      7435
      7434      7431      7429      7435     20803     20816     20819     20820
     20803     20816     20819     20821     20803     20816     20819     20825
     20804     20803     20808     20809     20804     20803     20808     20810
     20804     20803     20808     20811     20804     20803     20812     20813
     20804     20803     20812     20814     20804     20803     20812     20815
     20804     20803     20816     20817     20804     20803     20816     20818
     20804     20803     20816     20819     20805     20804     20803     20808
     20805     20804     20803     20812     20805     20804     20803     20816
     20806     20804     20803     20808     20806     20804     20803     20812
     20806     20804     20803     20816     20807     20804     20803     20808
     20807     20804     20803     20812     20807     20804     20803     20816
     20808     20803     20812     20813     20808     20803     20812     20814
     20808     20803     20812     20815     20808     20803     20816     20817
     20808     20803     20816     20818     20808     20803     20816     20819
     20809     20808     20803     20812     20809     20808     20803     20816
     20810     20808     20803     20812     20810     20808     20803     20816
     20811     20808     20803     20812     20811     20808     20803     20816
     20812     20803     20816     20817     20812     20803     20816     20818
     20812     20803     20816     20819     20813     20812     20803     20816
     20814     20812     20803     20816     20815     20812     20803     20816
     20816     20819     20825     20822     20817     20816     20819     20820
     20817     20816     20819     20821     20817     20816     20819     20825
     20818     20816     20819     20820     20818     20816     20819     20821
     20818     20816     20819     20825     20819     20825     20822     20823
     20819     20825     20822     20824     20819     20825     20822     20826
     20820     20819     20825     20822     20821     20819     20825     20822
     20822     20826     20827     20828     20822     20826     20827     20829
     20822     20826     20827     20830     20823     20822     20826     20827
     20824     20822     20826     20827     20825     20822     20826     20827
     20826     20827     20830     20831     20826     20827     20830     20832
     20826     20827     20830     20838     20827     20830     20832     20833
     20827     20830     20838     20839     20827     20830     20838     20840
     20827     20830     20838     20841     20828     20827     20830     20831
     20828     20827     20830     20832     20828     20827     20830     20838
     20829     20827     20830     20831     20829     20827     20830     20832
     20829     20827     20830     20838     20830     20832     20833     20834
     20830     20832     20833     20835     20830     20838     20841     20842
     20831     20830     20832     20833     20831     20830     20838     20839
     20831     20830     20838     20840     20831     20830     20838     20841
     20832     20830     20838     20839     20832     20830     20838     20840
     20832     20830     20838     20841     20832     20833     20835     20836
     20832     20833     20835     20837     20832     20833     20835     20847
     20833     20832     20830     20838     20833     20835     20847     20848
     20833     20835     20847     20849     20833     20835     20847     20850
     20834     20833     20835     20836     20834     20833     20835     20837
     20834     20833     20835     20847     20835     20847     20850     20851
     20835     20847     20850     20852     20835     20847     20850     20853
     20836     20835     20847     20848     20836     20835     20847     20849
     20836     20835     20847     20850     20837     20835     20847     20848
     20837     20835     20847     20849     20837     20835     20847     20850
     20838     20841     20842     20843     20838     20841     20842     20844
     20839     20838     20841     20842     20840     20838     20841     20842
     20841     20842     20844     20845     20841     20842     20844     20846
     20841     20842     20844     20892     20842     20844     20892     20893
     20842     20844     20892     20894     20842     20844     20892     20895
     20843     20842     20844     20845     20843     20842     20844     20846
     20843     20842     20844     20892     20844     20892     20895     20896
     20844     20892     20895     20897     20844     20892     20895     20898
     20845     20844     20892     20893     20845     20844     20892     20894
     20845     20844     20892     20895     20846     20844     20892     20893
     20846     20844     20892     20894     20846     20844     20892     20895
     20847     20850     20853     20854     20847     20850     20853     20855
     20847     20850     20853     20856     20848     20847     20850     20851
     20848     20847     20850     20852     20848     20847     20850     20853
     20849     20847     20850     20851     20849     20847     20850     20852
     20849     20847     20850     20853     20850     20853     20856     20857
     20850     20853     20856     20858     20850     20853     20856     20859
     20851     20850     20853     20854     20851     20850     20853     20855
     20851     20850     20853     20856     20852     20850     20853     20854
     20852     20850     20853     20855     20852     20850     20853     20856
     20853     20856     20859     20860     20853     20856     20859     20861
     20853     20856     20859     20862     20854     20853     20856     20857
     20854     20853     20856     20858     20854     20853     20856     20859
     20855     20853     20856     20857     20855     20853     20856     20858
     20855     20853     20856     20859     20856     20859     20862     20863
     20856     20859     20862     20864     20856     20859     20862     20865
     20857     20856     20859     20860     20857     20856     20859     20861
     20857     20856     20859     20862     20858     20856     20859     20860
     20858     20856     20859     20861     20858     20856     20859     20862
     20859     20862     20865     20866     20859     20862     20865     20867
     20860     20859     20862     20863     20860     20859     20862     20864
     20860     20859     20862     20865     20861     20859     20862     20863
     20861     20859     20862     20864     20861     20859     20862     20865
     20862     20865     20867     20868     20862     20865     20867     20869
     20863     20862     20865     20866     20863     20862     20865     20867
     20864     20862     20865     20866     20864     20862     20865     20867
     20865     20867     20869     20870     20865     20867     20869     20871
     20865     20867     20869     20872     20866     20865     20867     20868
     20866     20865     20867     20869     20867     20869     20872     20873
     20867     20869     20872     20874     20868     20867     20869     20870
     20868     20867     20869     20871     20868     20867     20869     20872
     20869     20872     20874     20875     20869     20872     20874     20876
     20870     20869     20872     20873     20870     20869     20872     20874
     20871     20869     20872     20873     20871     20869     20872     20874
     20872     20874     20876     20877     20872     20874     20876     20878
     20872     20874     20876     20879     20873     20872     20874     20875
     20873     20872     20874     20876     20874     20876     20879     20880
     20874     20876     20879     20881     20874     20876     20879     20882
     20875     20874     20876     20877     20875     20874     20876     20878
     20875     20874     20876     20879     20876     20879     20882     20883
     20876     20879     20882     20884     20876     20879     20882     20885
     20877     20876     20879     20880     20877     20876     20879     20881
     20877     20876     20879     20882     20878     20876     20879     20880
     20878     20876     20879     20881     20878     20876     20879     20882
     20879     20882     20885     20886     20879     20882     20885     20887
     20879     20882     20885     20888     20880     20879     20882     20883
     20880     20879     20882     20884     20880     20879     20882     20885
     20881     20879     20882     20883     20881     20879     20882     20884
     20881     20879     20882     20885     20882     20885     20888     20889
     20882     20885     20888     20890     20882     20885     20888     20891
     20883     20882     20885     20886     20883     20882     20885     20887
     20883     20882     20885     20888     20884     20882     20885     20886
     20884     20882     20885     20887     20884     20882     20885     20888
     20886     20885     20888     20889     20886     20885     20888     20890
     20886     20885     20888     20891     20887     20885     20888     20889
     20887     20885     20888     20890     20887     20885     20888     20891
     20892     20895     20898     20899     20892     20895     20898     20900
     20892     20895     20898     20901     20893     20892     20895     20896
     20893     20892     20895     20897     20893     20892     20895     20898
     20894     20892     20895     20896     20894     20892     20895     20897
     20894     20892     20895     20898     20895     20898     20901     20902
     20895     20898     20901     20903     20895     20898     20901     20904
     20896     20895     20898     20899     20896     20895     20898     20900
     20896     20895     20898     20901     20897     20895     20898     20899
     20897     20895     20898     20900     20897     20895     20898     20901
     20898     20901     20904     20905     20898     20901     20904     20906
     20898     20901     20904     20907     20899     20898     20901     20902
     20899     20898     20901     20903     20899     20898     20901     20904
     20900     20898     20901     20902     20900     20898     20901     20903
     20900     20898     20901     20904     20901     20904     20907     20908
     20901     20904     20907     20909     20901     20904     20907     20910
     20902     20901     20904     20905     20902     20901     20904     20906
     20902     20901     20904     20907     20903     20901     20904     20905
     20903     20901     20904     20906     20903     20901     20904     20907
     20904     20907     20910     20911     20904     20907     20910     20912
     20904     20907     20910     20913     20905     20904     20907     20908
     20905     20904     20907     20909     20905     20904     20907     20910
     20906     20904     20907     20908     20906     20904     20907     20909
     20906     20904     20907     20910     20907     20910     20913     20914
     20907     20910     20913     20915     20907     20910     20913     20916
     20908     20907     20910     20911     20908     20907     20910     20912
     20908     20907     20910     20913     20909     20907     20910     20911
     20909     20907     20910     20912     20909     20907     20910     20913
     20910     20913     20916     20917     20910     20913     20916     20918
     20910     20913     20916     20919     20911     20910     20913     20914
     20911     20910     20913     20915     20911     20910     20913     20916
     20912     20910     20913     20914     20912     20910     20913     20915
     20912     20910     20913     20916     20913     20916     20919     20920
     20913     20916     20919     20921     20913     20916     20919     20922
     20914     20913     20916     20917     20914     20913     20916     20918
     20914     20913     20916     20919     20915     20913     20916     20917
     20915     20913     20916     20918     20915     20913     20916     20919
     20916     20919     20922     20923     20916     20919     20922     20924
     20916     20919     20922     20925     20917     20916     20919     20920
     20917     20916     20919     20921     20917     20916     20919     20922
     20918     20916     20919     20920     20918     20916     20919     20921
     20918     20916     20919     20922     20919     20922     20925     20926
     20919     20922     20925     20927     20919     20922     20925     20928
     20920     20919     20922     20923     20920     20919     20922     20924
     20920     20919     20922     20925     20921     20919     20922     20923
     20921     20919     20922     20924     20921     20919     20922     20925
     20922     20925     20928     20929     20922     20925     20928     20930
     20922     20925     20928     20931     20923     20922     20925     20926
     20923     20922     20925     20927     20923     20922     20925     20928
     20924     20922     20925     20926     20924     20922     20925     20927
     20924     20922     20925     20928     20925     20928     20931     20932
     20925     20928     20931     20933     20925     20928     20931     20934
     20926     20925     20928     20929     20926     20925     20928     20930
     20926     20925     20928     20931     20927     20925     20928     20929
     20927     20925     20928     20930     20927     20925     20928     20931
     20928     20931     20934     20935     20928     20931     20934     20936
     20928     20931     20934     20937     20929     20928     20931     20932
     20929     20928     20931     20933     20929     20928     20931     20934
     20930     20928     20931     20932     20930     20928     20931     20933
     20930     20928     20931     20934     20931     20934     20937     20938
     20931     20934     20937     20939     20931     20934     20937     20940
     20932     20931     20934     20935     20932     20931     20934     20936
     20932     20931     20934     20937     20933     20931     20934     20935
     20933     20931     20934     20936     20933     20931     20934     20937
     20935     20934     20937     20938     20935     20934     20937     20939
     20935     20934     20937     20940     20936     20934     20937     20938
     20936     20934     20937     20939     20936     20934     20937     20940
     20941     20954     20957     20958     20941     20954     20957     20959
     20941     20954     20957     20963     20942     20941     20946     20947
     20942     20941     20946     20948     20942     20941     20946     20949
     20942     20941     20950     20951     20942     20941     20950     20952
     20942     20941     20950     20953     20942     20941     20954     20955
     20942     20941     20954     20956     20942     20941     20954     20957
     20943     20942     20941     20946     20943     20942     20941     20950
     20943     20942     20941     20954     20944     20942     20941     20946
     20944     20942     20941     20950     20944     20942     20941     20954
     20945     20942     20941     20946     20945     20942     20941     20950
     20945     20942     20941     20954     20946     20941     20950     20951
     20946     20941     20950     20952     20946     20941     20950     20953
     20946     20941     20954     20955     20946     20941     20954     20956
     20946     20941     20954     20957     20947     20946     20941     20950
     20947     20946     20941     20954     20948     20946     20941     20950
     20948     20946     20941     20954     20949     20946     20941     20950
     20949     20946     20941     20954     20950     20941     20954     20955
     20950     20941     20954     20956     20950     20941     20954     20957
     20951     20950     20941     20954     20952     20950     20941     20954
     20953     20950     20941     20954     20954     20957     20963     20960
     20955     20954     20957     20958     20955     20954     20957     20959
     20955     20954     20957     20963     20956     20954     20957     20958
     20956     20954     20957     20959     20956     20954     20957     20963
     20957     20963     20960     20961     20957     20963     20960     20962
     20957     20963     20960     20964     20958     20957     20963     20960
     20959     20957     20963     20960     20960     20964     20965     20966
     20960     20964     20965     20967     20960     20964     20965     20968
     20961     20960     20964     20965     20962     20960     20964     20965
     20963     20960     20964     20965     20964     20965     20968     20969
     20964     20965     20968     20970     20964     20965     20968     20976
     20965     20968     20970     20971     20965     20968     20976     20977
     20965     20968     20976     20978     20965     20968     20976     20979
     20966     20965     20968     20969     20966     20965     20968     20970
     20966     20965     20968     20976     20967     20965     20968     20969
     20967     20965     20968     20970     20967     20965     20968     20976
     20968     20970     20971     20972     20968     20970     20971     20973
     20968     20976     20979     20980     20969     20968     20970     20971
     20969     20968     20976     20977     20969     20968     20976     20978
     20969     20968     20976     20979     20970     20968     20976     20977
     20970     20968     20976     20978     20970     20968     20976     20979
     20970     20971     20973     20974     20970     20971     20973     20975
     20970     20971     20973     20985     20971     20970     20968     20976
     20971     20973     20985     20986     20971     20973     20985     20987
     20971     20973     20985     20988     20972     20971     20973     20974
     20972     20971     20973     20975     20972     20971     20973     20985
     20973     20985     20988     20989     20973     20985     20988     20990
     20973     20985     20988     20991     20974     20973     20985     20986
     20974     20973     20985     20987     20974     20973     20985     20988
     20975     20973     20985     20986     20975     20973     20985     20987
     20975     20973     20985     20988     20976     20979     20980     20981
     20976     20979     20980     20982     20977     20976     20979     20980
     20978     20976     20979     20980     20979     20980     20982     20983
     20979     20980     20982     20984     20979     20980     20982     21030
     20980     20982     21030     21031     20980     20982     21030     21032
     20980     20982     21030     21033     20981     20980     20982     20983
     20981     20980     20982     20984     20981     20980     20982     21030
     20982     21030     21033     21034     20982     21030     21033     21035
     20982     21030     21033     21036     20983     20982     21030     21031
     20983     20982     21030     21032     20983     20982     21030     21033
     20984     20982     21030     21031     20984     20982     21030     21032
     20984     20982     21030     21033     20985     20988     20991     20992
     20985     20988     20991     20993     20985     20988     20991     20994
     20986     20985     20988     20989     20986     20985     20988     20990
     20986     20985     20988     20991     20987     20985     20988     20989
     20987     20985     20988     20990     20987     20985     20988     20991
     20988     20991     20994     20995     20988     20991     20994     20996
     20988     20991     20994     20997     20989     20988     20991     20992
     20989     20988     20991     20993     20989     20988     20991     20994
     20990     20988     20991     20992     20990     20988     20991     20993
     20990     20988     20991     20994     20991     20994     20997     20998
     20991     20994     20997     20999     20991     20994     20997     21000
     20992     20991     20994     20995     20992     20991     20994     20996
     20992     20991     20994     20997     20993     20991     20994     20995
     20993     20991     20994     20996     20993     20991     20994     20997
     20994     20997     21000     21001     20994     20997     21000     21002
     20994     20997     21000     21003     20995     20994     20997     20998
     20995     20994     20997     20999     20995     20994     20997     21000
     20996     20994     20997     20998     20996     20994     20997     20999
     20996     20994     20997     21000     20997     21000     21003     21004
     20997     21000     21003     21005     20998     20997     21000     21001
     20998     20997     21000     21002     20998     20997     21000     21003
     20999     20997     21000     21001     20999     20997     21000     21002
     20999     20997     21000     21003     21000     21003     21005     21006
     21000     21003     21005     21007     21001     21000     21003     21004
     21001     21000     21003     21005     21002     21000     21003     21004
     21002     21000     21003     21005     21003     21005     21007     21008
     21003     21005     21007     21009     21003     21005     21007     21010
     21004     21003     21005     21006     21004     21003     21005     21007
     21005     21007     21010     21011     21005     21007     21010     21012
     21006     21005     21007     21008     21006     21005     21007     21009
     21006     21005     21007     21010     21007     21010     21012     21013
     21007     21010     21012     21014     21008     21007     21010     21011
     21008     21007     21010     21012     21009     21007     21010     21011
     21009     21007     21010     21012     21010     21012     21014     21015
     21010     21012     21014     21016     21010     21012     21014     21017
     21011     21010     21012     21013     21011     21010     21012     21014
     21012     21014     21017     21018     21012     21014     21017     21019
     21012     21014     21017     21020     21013     21012     21014     21015
     21013     21012     21014     21016     21013     21012     21014     21017
     21014     21017     21020     21021     21014     21017     21020     21022
     21014     21017     21020     21023     21015     21014     21017     21018
     21015     21014     21017     21019     21015     21014     21017     21020
     21016     21014     21017     21018     21016     21014     21017     21019
     21016     21014     21017     21020     21017     21020     21023     21024
     21017     21020     21023     21025     21017     21020     21023     21026
     21018     21017     21020     21021     21018     21017     21020     21022
     21018     21017     21020     21023     21019     21017     21020     21021
     21019     21017     21020     21022     21019     21017     21020     21023
     21020     21023     21026     21027     21020     21023     21026     21028
     21020     21023     21026     21029     21021     21020     21023     21024
     21021     21020     21023     21025     21021     21020     21023     21026
     21022     21020     21023     21024     21022     21020     21023     21025
     21022     21020     21023     21026     21024     21023     21026     21027
     21024     21023     21026     21028     21024     21023     21026     21029
     21025     21023     21026     21027     21025     21023     21026     21028
     21025     21023     21026     21029     21030     21033     21036     21037
     21030     21033     21036     21038     21030     21033     21036     21039
     21031     21030     21033     21034     21031     21030     21033     21035
     21031     21030     21033     21036     21032     21030     21033     21034
     21032     21030     21033     21035     21032     21030     21033     21036
     21033     21036     21039     21040     21033     21036     21039     21041
     21033     21036     21039     21042     21034     21033     21036     21037
     21034     21033     21036     21038     21034     21033     21036     21039
     21035     21033     21036     21037     21035     21033     21036     21038
     21035     21033     21036     21039     21036     21039     21042     21043
     21036     21039     21042     21044     21036     21039     21042     21045
     21037     21036     21039     21040     21037     21036     21039     21041
     21037     21036     21039     21042     21038     21036     21039     21040
     21038     21036     21039     21041     21038     21036     21039     21042
     21039     21042     21045     21046     21039     21042     21045     21047
     21039     21042     21045     21048     21040     21039     21042     21043
     21040     21039     21042     21044     21040     21039     21042     21045
     21041     21039     21042     21043     21041     21039     21042     21044
     21041     21039     21042     21045     21042     21045     21048     21049
     21042     21045     21048     21050     21042     21045     21048     21051
     21043     21042     21045     21046     21043     21042     21045     21047
     21043     21042     21045     21048     21044     21042     21045     21046
     21044     21042     21045     21047     21044     21042     21045     21048
     21045     21048     21051     21052     21045     21048     21051     21053
     21045     21048     21051     21054     21046     21045     21048     21049
     21046     21045     21048     21050     21046     21045     21048     21051
     21047     21045     21048     21049     21047     21045     21048     21050
     21047     21045     21048     21051     21048     21051     21054     21055
     21048     21051     21054     21056     21048     21051     21054     21057
     21049     21048     21051     21052     21049     21048     21051     21053
     21049     21048     21051     21054     21050     21048     21051     21052
     21050     21048     21051     21053     21050     21048     21051     21054
     21051     21054     21057     21058     21051     21054     21057     21059
     21051     21054     21057     21060     21052     21051     21054     21055
     21052     21051     21054     21056     21052     21051     21054     21057
     21053     21051     21054     21055     21053     21051     21054     21056
     21053     21051     21054     21057     21054     21057     21060     21061
     21054     21057     21060     21062     21054     21057     21060     21063
     21055     21054     21057     21058     21055     21054     21057     21059
     21055     21054     21057     21060     21056     21054     21057     21058
     21056     21054     21057     21059     21056     21054     21057     21060
     21057     21060     21063     21064     21057     21060     21063     21065
     21057     21060     21063     21066     21058     21057     21060     21061
     21058     21057     21060     21062     21058     21057     21060     21063
     21059     21057     21060     21061     21059     21057     21060     21062
     21059     21057     21060     21063     21060     21063     21066     21067
     21060     21063     21066     21068     21060     21063     21066     21069
     21061     21060     21063     21064     21061     21060     21063     21065
     21061     21060     21063     21066     21062     21060     21063     21064
     21062     21060     21063     21065     21062     21060     21063     21066
     21063     21066     21069     21070     21063     21066     21069     21071
     21063     21066     21069     21072     21064     21063     21066     21067
     21064     21063     21066     21068     21064     21063     21066     21069
     21065     21063     21066     21067     21065     21063     21066     21068
     21065     21063     21066     21069     21066     21069     21072     21073
     21066     21069     21072     21074     21066     21069     21072     21075
     21067     21066     21069     21070     21067     21066     21069     21071
     21067     21066     21069     21072     21068     21066     21069     21070
     21068     21066     21069     21071     21068     21066     21069     21072
     21069     21072     21075     21076     21069     21072     21075     21077
     21069     21072     21075     21078     21070     21069     21072     21073
     21070     21069     21072     21074     21070     21069     21072     21075
     21071     21069     21072     21073     21071     21069     21072     21074
     21071     21069     21072     21075     21073     21072     21075     21076
     21073     21072     21075     21077     21073     21072     21075     21078
     21074     21072     21075     21076     21074     21072     21075     21077
     21074     21072     21075     21078      4771      4772      4787      4788
      4771      4772      4787      4789      4771      4772      4787      4793
      4772      4771      4775      4776      4772      4771      4775      4777
      4772      4771      4775      4778      4772      4771      4779      4780
      4772      4771      4779      4781      4772      4771      4779      4782
      4772      4771      4783      4784      4772      4771      4783      4785
      4772      4771      4783      4786      4772      4787      4793      4790
      4773      4772      4771      4775      4773      4772      4771      4779
      4773      4772      4771      4783      4773      4772      4787      4788
      4773      4772      4787      4789      4773      4772      4787      4793
      4774      4772      4771      4775      4774      4772      4771      4779
      4774      4772      4771      4783      4774      4772      4787      4788
      4774      4772      4787      4789      4774      4772      4787      4793
      4775      4771      4772      4787      4775      4771      4779      4780
      4775      4771      4779      4781      4775      4771      4779      4782
      4775      4771      4783      4784      4775      4771      4783      4785
      4775      4771      4783      4786      4776      4775      4771      4779
      4776      4775      4771      4783      4777      4775      4771      4779
      4777      4775      4771      4783      4778      4775      4771      4779
      4778      4775      4771      4783      4779      4771      4772      4787
      4779      4771      4783      4784      4779      4771      4783      4785
      4779      4771      4783      4786      4780      4779      4771      4783
      4781      4779      4771      4783      4782      4779      4771      4783
      4783      4771      4772      4787      4787      4793      4790      4791
      4787      4793      4790      4792      4787      4793      4790      4794
      4788      4787      4793      4790      4789      4787      4793      4790
      4790      4794      4795      4796      4790      4794      4795      4797
      4790      4794      4795      4798      4791      4790      4794      4795
      4792      4790      4794      4795      4793      4790      4794      4795
      4794      4795      4798      4799      4794      4795      4798      4800
      4794      4795      4798      4806      4795      4798      4800      4801
      4795      4798      4806      4807      4795      4798      4806      4808
      4795      4798      4806      4809      4796      4795      4798      4799
      4796      4795      4798      4800      4796      4795      4798      4806
      4797      4795      4798      4799      4797      4795      4798      4800
      4797      4795      4798      4806      4798      4800      4801      4802
      4798      4800      4801      4803      4798      4806      4809      4810
      4799      4798      4800      4801      4799      4798      4806      4807
      4799      4798      4806      4808      4799      4798      4806      4809
      4800      4798      4806      4807      4800      4798      4806      4808
      4800      4798      4806      4809      4800      4801      4803      4804
      4800      4801      4803      4805      4800      4801      4803      4815
      4801      4800      4798      4806      4801      4803      4815      4816
      4801      4803      4815      4817      4801      4803      4815      4818
      4802      4801      4803      4804      4802      4801      4803      4805
      4802      4801      4803      4815      4803      4815      4818      4819
      4803      4815      4818      4820      4803      4815      4818      4821
      4804      4803      4815      4816      4804      4803      4815      4817
      4804      4803      4815      4818      4805      4803      4815      4816
      4805      4803      4815      4817      4805      4803      4815      4818
      4806      4809      4810      4811      4806      4809      4810      4812
      4807      4806      4809      4810      4808      4806      4809      4810
      4809      4810      4812      4813      4809      4810      4812      4814
      4809      4810      4812      4862      4810      4812      4862      4863
      4810      4812      4862      4864      4810      4812      4862      4865
      4811      4810      4812      4813      4811      4810      4812      4814
      4811      4810      4812      4862      4812      4862      4865      4866
      4812      4862      4865      4867      4812      4862      4865      4868
      4813      4812      4862      4863      4813      4812      4862      4864
      4813      4812      4862      4865      4814      4812      4862      4863
      4814      4812      4862      4864      4814      4812      4862      4865
      4815      4818      4821      4822      4815      4818      4821      4823
      4815      4818      4821      4824      4816      4815      4818      4819
      4816      4815      4818      4820      4816      4815      4818      4821
      4817      4815      4818      4819      4817      4815      4818      4820
      4817      4815      4818      4821      4818      4821      4824      4825
      4818      4821      4824      4826      4818      4821      4824      4827
      4819      4818      4821      4822      4819      4818      4821      4823
      4819      4818      4821      4824      4820      4818      4821      4822
      4820      4818      4821      4823      4820      4818      4821      4824
      4821      4824      4827      4828      4821      4824      4827      4829
      4821      4824      4827      4830      4822      4821      4824      4825
      4822      4821      4824      4826      4822      4821      4824      4827
      4823      4821      4824      4825      4823      4821      4824      4826
      4823      4821      4824      4827      4824      4827      4830      4831
      4824      4827      4830      4832      4824      4827      4830      4833
      4825      4824      4827      4828      4825      4824      4827      4829
      4825      4824      4827      4830      4826      4824      4827      4828
      4826      4824      4827      4829      4826      4824      4827      4830
      4827      4830      4833      4834      4827      4830      4833      4835
      4828      4827      4830      4831      4828      4827      4830      4832
      4828      4827      4830      4833      4829      4827      4830      4831
      4829      4827      4830      4832      4829      4827      4830      4833
      4830      4833      4835      4836      4830      4833      4835      4837
      4831      4830      4833      4834      4831      4830      4833      4835
      4832      4830      4833      4834      4832      4830      4833      4835
      4833      4835      4837      4838      4833      4835      4837      4839
      4833      4835      4837      4840      4834      4833      4835      4836
      4834      4833      4835      4837      4835      4837      4840      4841
      4835      4837      4840      4842      4835      4837      4840      4843
      4836      4835      4837      4838      4836      4835      4837      4839
      4836      4835      4837      4840      4837      4840      4843      4844
      4837      4840      4843      4845      4837      4840      4843      4846
      4838      4837      4840      4841      4838      4837      4840      4842
      4838      4837      4840      4843      4839      4837      4840      4841
      4839      4837      4840      4842      4839      4837      4840      4843
      4840      4843      4846      4847      4840      4843      4846      4848
      4840      4843      4846      4849      4841      4840      4843      4844
      4841      4840      4843      4845      4841      4840      4843      4846
      4842      4840      4843      4844      4842      4840      4843      4845
      4842      4840      4843      4846      4843      4846      4849      4850
      4843      4846      4849      4851      4843      4846      4849      4852
      4844      4843      4846      4847      4844      4843      4846      4848
      4844      4843      4846      4849      4845      4843      4846      4847
      4845      4843      4846      4848      4845      4843      4846      4849
      4846      4849      4852      4853      4846      4849      4852      4854
      4846      4849      4852      4855      4847      4846      4849      4850
      4847      4846      4849      4851      4847      4846      4849      4852
      4848      4846      4849      4850      4848      4846      4849      4851
      4848      4846      4849      4852      4849      4852      4855      4856
      4849      4852      4855      4857      4849      4852      4855      4858
      4850      4849      4852      4853      4850      4849      4852      4854
      4850      4849      4852      4855      4851      4849      4852      4853
      4851      4849      4852      4854      4851      4849      4852      4855
      4852      4855      4858      4859      4852      4855      4858      4860
      4852      4855      4858      4861      4853      4852      4855      4856
      4853      4852      4855      4857      4853      4852      4855      4858
      4854      4852      4855      4856      4854      4852      4855      4857
      4854      4852      4855      4858      4856      4855      4858      4859
      4856      4855      4858      4860      4856      4855      4858      4861
      4857      4855      4858      4859      4857      4855      4858      4860
      4857      4855      4858      4861      4862      4865      4868      4869
      4862      4865      4868      4870      4862      4865      4868      4871
      4863      4862      4865      4866      4863      4862      4865      4867
      4863      4862      4865      4868      4864      4862      4865      4866
      4864      4862      4865      4867      4864      4862      4865      4868
      4865      4868      4871      4872      4865      4868      4871      4873
      4865      4868      4871      4874      4866      4865      4868      4869
      4866      4865      4868      4870      4866      4865      4868      4871
      4867      4865      4868      4869      4867      4865      4868      4870
      4867      4865      4868      4871      4868      4871      4874      4875
      4868      4871      4874      4876      4868      4871      4874      4877
      4869      4868      4871      4872      4869      4868      4871      4873
      4869      4868      4871      4874      4870      4868      4871      4872
      4870      4868      4871      4873      4870      4868      4871      4874
      4871      4874      4877      4878      4871      4874      4877      4879
      4871      4874      4877      4880      4872      4871      4874      4875
      4872      4871      4874      4876      4872      4871      4874      4877
      4873      4871      4874      4875      4873      4871      4874      4876
      4873      4871      4874      4877      4874      4877      4880      4881
      4874      4877      4880      4882      4874      4877      4880      4883
      4875      4874      4877      4878      4875      4874      4877      4879
      4875      4874      4877      4880      4876      4874      4877      4878
      4876      4874      4877      4879      4876      4874      4877      4880
      4877      4880      4883      4884      4877      4880      4883      4885
      4877      4880      4883      4886      4878      4877      4880      4881
      4878      4877      4880      4882      4878      4877      4880      4883
      4879      4877      4880      4881      4879      4877      4880      4882
      4879      4877      4880      4883      4880      4883      4886      4887
      4880      4883      4886      4888      4880      4883      4886      4889
      4881      4880      4883      4884      4881      4880      4883      4885
      4881      4880      4883      4886      4882      4880      4883      4884
      4882      4880      4883      4885      4882      4880      4883      4886
      4883      4886      4889      4890      4883      4886      4889      4891
      4883      4886      4889      4892      4884      4883      4886      4887
      4884      4883      4886      4888      4884      4883      4886      4889
      4885      4883      4886      4887      4885      4883      4886      4888
      4885      4883      4886      4889      4886      4889      4892      4893
      4886      4889      4892      4894      4886      4889      4892      4895
      4887      4886      4889      4890      4887      4886      4889      4891
      4887      4886      4889      4892      4888      4886      4889      4890
      4888      4886      4889      4891      4888      4886      4889      4892
      4889      4892      4895      4896      4889      4892      4895      4897
      4889      4892      4895      4898      4890      4889      4892      4893
      4890      4889      4892      4894      4890      4889      4892      4895
      4891      4889      4892      4893      4891      4889      4892      4894
      4891      4889      4892      4895      4892      4895      4898      4899
      4892      4895      4898      4900      4892      4895      4898      4901
      4893      4892      4895      4896      4893      4892      4895      4897
      4893      4892      4895      4898      4894      4892      4895      4896
      4894      4892      4895      4897      4894      4892      4895      4898
      4895      4898      4901      4902      4895      4898      4901      4903
      4895      4898      4901      4904      4896      4895      4898      4899
      4896      4895      4898      4900      4896      4895      4898      4901
      4897      4895      4898      4899      4897      4895      4898      4900
      4897      4895      4898      4901      4899      4898      4901      4902
      4899      4898      4901      4903      4899      4898      4901      4904
      4900      4898      4901      4902      4900      4898      4901      4903
      4900      4898      4901      4904      7439      7443      7446      7447
      7439      7443      7446      7477      7439      7485      7482      7477
      7439      7485      7482      7483      7439      7485      7482      7484
      7440      7439      7441      7442      7440      7439      7443      7444
      7440      7439      7443      7445      7440      7439      7443      7446
      7440      7439      7485      7482      7440      7439      7485      7486
      7440      7439      7485      7487      7441      7439      7443      7444
      7441      7439      7443      7445      7441      7439      7443      7446
      7441      7439      7485      7482      7441      7439      7485      7486
      7441      7439      7485      7487      7442      7441      7439      7443
      7442      7441      7439      7485      7443      7439      7485      7482
      7443      7439      7485      7486      7443      7439      7485      7487
      7443      7446      7447      7448      7443      7446      7447      7449
      7443      7446      7477      7475      7443      7446      7477      7478
      7443      7446      7477      7482      7444      7443      7439      7485
      7444      7443      7446      7447      7444      7443      7446      7477
      7445      7443      7439      7485      7445      7443      7446      7447
      7445      7443      7446      7477      7446      7443      7439      7485
      7446      7447      7449      7450      7446      7447      7449      7451
      7446      7447      7449      7452      7446      7477      7475      7452
      7446      7477      7475      7472      7446      7477      7475      7476
      7446      7477      7478      7479      7446      7477      7478      7480
      7446      7477      7478      7481      7446      7477      7482      7483
      7446      7477      7482      7484      7446      7477      7482      7485
      7447      7446      7477      7475      7447      7446      7477      7478
      7447      7446      7477      7482      7447      7449      7452      7453
      7447      7449      7452      7454      7447      7449      7452      7475
      7448      7447      7446      7477      7448      7447      7449      7450
      7448      7447      7449      7451      7448      7447      7449      7452
      7449      7447      7446      7477      7449      7452      7454      7455
      7449      7452      7454      7456      7449      7452      7454      7464
      7449      7452      7475      7472      7449      7452      7475      7476
      7449      7452      7475      7477      7450      7449      7452      7453
      7450      7449      7452      7454      7450      7449      7452      7475
      7451      7449      7452      7453      7451      7449      7452      7454
      7451      7449      7452      7475      7452      7454      7456      7457
      7452      7454      7456      7458      7452      7454      7456      7459
      7452      7454      7464      7462      7452      7454      7464      7465
      7452      7454      7464      7469      7452      7475      7472      7469
      7452      7475      7472      7473      7452      7475      7472      7474
      7452      7475      7477      7478      7452      7475      7477      7482
      7453      7452      7454      7455      7453      7452      7454      7456
      7453      7452      7454      7464      7453      7452      7475      7472
      7453      7452      7475      7476      7453      7452      7475      7477
      7454      7452      7475      7472      7454      7452      7475      7476
      7454      7452      7475      7477      7454      7456      7459      7460
      7454      7456      7459      7461      7454      7456      7459      7462
      7454      7464      7462      7459      7454      7464      7462      7463
      7454      7464      7462      7488      7454      7464      7465      7466
      7454      7464      7465      7467      7454      7464      7465      7468
      7454      7464      7469      7470      7454      7464      7469      7471
      7454      7464      7469      7472      7455      7454      7452      7475
      7455      7454      7456      7457      7455      7454      7456      7458
      7455      7454      7456      7459      7455      7454      7464      7462
      7455      7454      7464      7465      7455      7454      7464      7469
      7456      7454      7452      7475      7456      7454      7464      7462
      7456      7454      7464      7465      7456      7454      7464      7469
      7456      7459      7462      7463      7456      7459      7462      7464
      7456      7459      7462      7488      7457      7456      7454      7464
      7457      7456      7459      7460      7457      7456      7459      7461
      7457      7456      7459      7462      7458      7456      7454      7464
      7458      7456      7459      7460      7458      7456      7459      7461
      7458      7456      7459      7462      7459      7456      7454      7464
      7459      7462      7464      7465      7459      7462      7464      7469
      7459      7462      7488      7489      7459      7462      7488      7490
      7459      7462      7488      7494      7460      7459      7462      7463
      7460      7459      7462      7464      7460      7459      7462      7488
      7461      7459      7462      7463      7461      7459      7462      7464
      7461      7459      7462      7488      7462      7464      7465      7466
      7462      7464      7465      7467      7462      7464      7465      7468
      7462      7464      7469      7470      7462      7464      7469      7471
      7462      7464      7469      7472      7462      7488      7490      7491
      7462      7488      7490      7492      7462      7488      7490      7493
      7462      7488      7494      7495      7462      7488      7494      7496
      7462      7488      7494      7497      7463      7462      7464      7465
      7463      7462      7464      7469      7463      7462      7488      7489
      7463      7462      7488      7490      7463      7462      7488      7494
      7464      7454      7452      7475      7464      7462      7488      7489
      7464      7462      7488      7490      7464      7462      7488      7494
      7464      7469      7472      7473      7464      7469      7472      7474
      7464      7469      7472      7475      7465      7464      7462      7488
      7465      7464      7469      7470      7465      7464      7469      7471
      7465      7464      7469      7472      7466      7465      7464      7469
      7467      7465      7464      7469      7468      7465      7464      7469
      7469      7464      7462      7488      7469      7472      7475      7476
      7469      7472      7475      7477      7470      7469      7472      7473
      7470      7469      7472      7474      7470      7469      7472      7475
      7471      7469      7472      7473      7471      7469      7472      7474
      7471      7469      7472      7475      7472      7475      7477      7478
      7472      7475      7477      7482      7473      7472      7475      7476
      7473      7472      7475      7477      7474      7472      7475      7476
      7474      7472      7475      7477      7475      7477      7478      7479
      7475      7477      7478      7480      7475      7477      7478      7481
      7475      7477      7482      7483      7475      7477      7482      7484
      7475      7477      7482      7485      7476      7475      7477      7478
      7476      7475      7477      7482      7477      7482      7485      7486
      7477      7482      7485      7487      7478      7477      7482      7483
      7478      7477      7482      7484      7478      7477      7482      7485
      7479      7478      7477      7482      7480      7478      7477      7482
      7481      7478      7477      7482      7483      7482      7485      7486
      7483      7482      7485      7487      7484      7482      7485      7486
      7484      7482      7485      7487      7488      7494      7497      7498
      7488      7494      7497      7499      7488      7494      7497      7500
      7489      7488      7490      7491      7489      7488      7490      7492
      7489      7488      7490      7493      7489      7488      7494      7495
      7489      7488      7494      7496      7489      7488      7494      7497
      7490      7488      7494      7495      7490      7488      7494      7496
      7490      7488      7494      7497      7491      7490      7488      7494
      7492      7490      7488      7494      7493      7490      7488      7494
      7494      7497      7500      7501      7494      7497      7500      7502
      7494      7497      7500      7503      7495      7494      7497      7498
      7495      7494      7497      7499      7495      7494      7497      7500
      7496      7494      7497      7498      7496      7494      7497      7499
      7496      7494      7497      7500      7497      7500      7503      7504
      7497      7500      7503      7505      7497      7500      7503      7509
      7498      7497      7500      7501      7498      7497      7500      7502
      7498      7497      7500      7503      7499      7497      7500      7501
      7499      7497      7500      7502      7499      7497      7500      7503
      7500      7503      7505      7506      7500      7503      7505      7507
      7500      7503      7505      7508      7500      7503      7509      7510
      7500      7503      7509      7511      7500      7503      7509      7512
      7501      7500      7503      7504      7501      7500      7503      7505
      7501      7500      7503      7509      7502      7500      7503      7504
      7502      7500      7503      7505      7502      7500      7503      7509
      7504      7503      7505      7506      7504      7503      7505      7507
      7504      7503      7505      7508      7504      7503      7509      7510
      7504      7503      7509      7511      7504      7503      7509      7512
      7505      7503      7509      7510      7505      7503      7509      7511
      7505      7503      7509      7512      7506      7505      7503      7509
      7507      7505      7503      7509      7508      7505      7503      7509
     18624     18628     18631     18632     18624     18628     18631     18633
     18624     18628     18631     18637     18625     18624     18628     18629
     18625     18624     18628     18630     18625     18624     18628     18631
     18626     18624     18628     18629     18626     18624     18628     18630
     18626     18624     18628     18631     18627     18624     18628     18629
     18627     18624     18628     18630     18627     18624     18628     18631
     18628     18631     18637     18634     18629     18628     18631     18632
     18629     18628     18631     18633     18629     18628     18631     18637
     18630     18628     18631     18632     18630     18628     18631     18633
     18630     18628     18631     18637     18631     18637     18634     18635
     18631     18637     18634     18636     18631     18637     18634     18638
     18632     18631     18637     18634     18633     18631     18637     18634
     18634     18638     18639     18640     18634     18638     18639     18641
     18634     18638     18639     18642     18635     18634     18638     18639
     18636     18634     18638     18639     18637     18634     18638     18639
     18638     18639     18642     18643     18638     18639     18642     18644
     18638     18639     18642     18650     18639     18642     18644     18645
     18639     18642     18650     18651     18639     18642     18650     18652
     18639     18642     18650     18653     18640     18639     18642     18643
     18640     18639     18642     18644     18640     18639     18642     18650
     18641     18639     18642     18643     18641     18639     18642     18644
     18641     18639     18642     18650     18642     18644     18645     18646
     18642     18644     18645     18647     18642     18650     18653     18654
     18643     18642     18644     18645     18643     18642     18650     18651
     18643     18642     18650     18652     18643     18642     18650     18653
     18644     18642     18650     18651     18644     18642     18650     18652
     18644     18642     18650     18653     18644     18645     18647     18648
     18644     18645     18647     18649     18644     18645     18647     18659
     18645     18644     18642     18650     18645     18647     18659     18660
     18645     18647     18659     18661     18645     18647     18659     18662
     18646     18645     18647     18648     18646     18645     18647     18649
     18646     18645     18647     18659     18647     18659     18662     18663
     18647     18659     18662     18664     18647     18659     18662     18665
     18648     18647     18659     18660     18648     18647     18659     18661
     18648     18647     18659     18662     18649     18647     18659     18660
     18649     18647     18659     18661     18649     18647     18659     18662
     18650     18653     18654     18655     18650     18653     18654     18656
     18651     18650     18653     18654     18652     18650     18653     18654
     18653     18654     18656     18657     18653     18654     18656     18658
     18653     18654     18656     18706     18654     18656     18706     18707
     18654     18656     18706     18708     18654     18656     18706     18709
     18655     18654     18656     18657     18655     18654     18656     18658
     18655     18654     18656     18706     18656     18706     18709     18710
     18656     18706     18709     18711     18656     18706     18709     18712
     18657     18656     18706     18707     18657     18656     18706     18708
     18657     18656     18706     18709     18658     18656     18706     18707
     18658     18656     18706     18708     18658     18656     18706     18709
     18659     18662     18665     18666     18659     18662     18665     18667
     18659     18662     18665     18668     18660     18659     18662     18663
     18660     18659     18662     18664     18660     18659     18662     18665
     18661     18659     18662     18663     18661     18659     18662     18664
     18661     18659     18662     18665     18662     18665     18668     18669
     18662     18665     18668     18670     18662     18665     18668     18671
     18663     18662     18665     18666     18663     18662     18665     18667
     18663     18662     18665     18668     18664     18662     18665     18666
     18664     18662     18665     18667     18664     18662     18665     18668
     18665     18668     18671     18672     18665     18668     18671     18673
     18665     18668     18671     18674     18666     18665     18668     18669
     18666     18665     18668     18670     18666     18665     18668     18671
     18667     18665     18668     18669     18667     18665     18668     18670
     18667     18665     18668     18671     18668     18671     18674     18675
     18668     18671     18674     18676     18668     18671     18674     18677
     18669     18668     18671     18672     18669     18668     18671     18673
     18669     18668     18671     18674     18670     18668     18671     18672
     18670     18668     18671     18673     18670     18668     18671     18674
     18671     18674     18677     18678     18671     18674     18677     18679
     18672     18671     18674     18675     18672     18671     18674     18676
     18672     18671     18674     18677     18673     18671     18674     18675
     18673     18671     18674     18676     18673     18671     18674     18677
     18674     18677     18679     18680     18674     18677     18679     18681
     18675     18674     18677     18678     18675     18674     18677     18679
     18676     18674     18677     18678     18676     18674     18677     18679
     18677     18679     18681     18682     18677     18679     18681     18683
     18677     18679     18681     18684     18678     18677     18679     18680
     18678     18677     18679     18681     18679     18681     18684     18685
     18679     18681     18684     18686     18679     18681     18684     18687
     18680     18679     18681     18682     18680     18679     18681     18683
     18680     18679     18681     18684     18681     18684     18687     18688
     18681     18684     18687     18689     18681     18684     18687     18690
     18682     18681     18684     18685     18682     18681     18684     18686
     18682     18681     18684     18687     18683     18681     18684     18685
     18683     18681     18684     18686     18683     18681     18684     18687
     18684     18687     18690     18691     18684     18687     18690     18692
     18684     18687     18690     18693     18685     18684     18687     18688
     18685     18684     18687     18689     18685     18684     18687     18690
     18686     18684     18687     18688     18686     18684     18687     18689
     18686     18684     18687     18690     18687     18690     18693     18694
     18687     18690     18693     18695     18687     18690     18693     18696
     18688     18687     18690     18691     18688     18687     18690     18692
     18688     18687     18690     18693     18689     18687     18690     18691
     18689     18687     18690     18692     18689     18687     18690     18693
     18690     18693     18696     18697     18690     18693     18696     18698
     18690     18693     18696     18699     18691     18690     18693     18694
     18691     18690     18693     18695     18691     18690     18693     18696
     18692     18690     18693     18694     18692     18690     18693     18695
     18692     18690     18693     18696     18693     18696     18699     18700
     18693     18696     18699     18701     18693     18696     18699     18702
     18694     18693     18696     18697     18694     18693     18696     18698
     18694     18693     18696     18699     18695     18693     18696     18697
     18695     18693     18696     18698     18695     18693     18696     18699
     18696     18699     18702     18703     18696     18699     18702     18704
     18696     18699     18702     18705     18697     18696     18699     18700
     18697     18696     18699     18701     18697     18696     18699     18702
     18698     18696     18699     18700     18698     18696     18699     18701
     18698     18696     18699     18702     18700     18699     18702     18703
     18700     18699     18702     18704     18700     18699     18702     18705
     18701     18699     18702     18703     18701     18699     18702     18704
     18701     18699     18702     18705     18706     18709     18712     18713
     18706     18709     18712     18714     18706     18709     18712     18715
     18707     18706     18709     18710     18707     18706     18709     18711
     18707     18706     18709     18712     18708     18706     18709     18710
     18708     18706     18709     18711     18708     18706     18709     18712
     18709     18712     18715     18716     18709     18712     18715     18717
     18709     18712     18715     18718     18710     18709     18712     18713
     18710     18709     18712     18714     18710     18709     18712     18715
     18711     18709     18712     18713     18711     18709     18712     18714
     18711     18709     18712     18715     18712     18715     18718     18719
     18712     18715     18718     18720     18712     18715     18718     18721
     18713     18712     18715     18716     18713     18712     18715     18717
     18713     18712     18715     18718     18714     18712     18715     18716
     18714     18712     18715     18717     18714     18712     18715     18718
     18715     18718     18721     18722     18715     18718     18721     18723
     18715     18718     18721     18724     18716     18715     18718     18719
     18716     18715     18718     18720     18716     18715     18718     18721
     18717     18715     18718     18719     18717     18715     18718     18720
     18717     18715     18718     18721     18718     18721     18724     18725
     18718     18721     18724     18726     18718     18721     18724     18727
     18719     18718     18721     18722     18719     18718     18721     18723
     18719     18718     18721     18724     18720     18718     18721     18722
     18720     18718     18721     18723     18720     18718     18721     18724
     18721     18724     18727     18728     18721     18724     18727     18729
     18721     18724     18727     18730     18722     18721     18724     18725
     18722     18721     18724     18726     18722     18721     18724     18727
     18723     18721     18724     18725     18723     18721     18724     18726
     18723     18721     18724     18727     18724     18727     18730     18731
     18724     18727     18730     18732     18724     18727     18730     18733
     18725     18724     18727     18728     18725     18724     18727     18729
     18725     18724     18727     18730     18726     18724     18727     18728
     18726     18724     18727     18729     18726     18724     18727     18730
     18727     18730     18733     18734     18727     18730     18733     18735
     18727     18730     18733     18736     18728     18727     18730     18731
     18728     18727     18730     18732     18728     18727     18730     18733
     18729     18727     18730     18731     18729     18727     18730     18732
     18729     18727     18730     18733     18730     18733     18736     18737
     18730     18733     18736     18738     18730     18733     18736     18739
     18731     18730     18733     18734     18731     18730     18733     18735
     18731     18730     18733     18736     18732     18730     18733     18734
     18732     18730     18733     18735     18732     18730     18733     18736
     18733     18736     18739     18740     18733     18736     18739     18741
     18733     18736     18739     18742     18734     18733     18736     18737
     18734     18733     18736     18738     18734     18733     18736     18739
     18735     18733     18736     18737     18735     18733     18736     18738
     18735     18733     18736     18739     18736     18739     18742     18743
     18736     18739     18742     18744     18736     18739     18742     18745
     18737     18736     18739     18740     18737     18736     18739     18741
     18737     18736     18739     18742     18738     18736     18739     18740
     18738     18736     18739     18741     18738     18736     18739     18742
     18739     18742     18745     18746     18739     18742     18745     18747
     18739     18742     18745     18748     18740     18739     18742     18743
     18740     18739     18742     18744     18740     18739     18742     18745
     18741     18739     18742     18743     18741     18739     18742     18744
     18741     18739     18742     18745     18742     18745     18748     18749
     18742     18745     18748     18750     18742     18745     18748     18751
     18743     18742     18745     18746     18743     18742     18745     18747
     18743     18742     18745     18748     18744     18742     18745     18746
     18744     18742     18745     18747     18744     18742     18745     18748
     18745     18748     18751     18752     18745     18748     18751     18753
     18745     18748     18751     18754     18746     18745     18748     18749
     18746     18745     18748     18750     18746     18745     18748     18751
     18747     18745     18748     18749     18747     18745     18748     18750
     18747     18745     18748     18751     18749     18748     18751     18752
     18749     18748     18751     18753     18749     18748     18751     18754
     18750     18748     18751     18752     18750     18748     18751     18753
     18750     18748     18751     18754     16004     16008     16011     16012
     16004     16008     16011     16013     16004     16008     16011     16017
     16005     16004     16008     16009     16005     16004     16008     16010
     16005     16004     16008     16011     16006     16004     16008     16009
     16006     16004     16008     16010     16006     16004     16008     16011
     16007     16004     16008     16009     16007     16004     16008     16010
     16007     16004     16008     16011     16008     16011     16017     16014
     16009     16008     16011     16012     16009     16008     16011     16013
     16009     16008     16011     16017     16010     16008     16011     16012
     16010     16008     16011     16013     16010     16008     16011     16017
     16011     16017     16014     16015     16011     16017     16014     16016
     16011     16017     16014     16018     16012     16011     16017     16014
     16013     16011     16017     16014     16014     16018     16019     16020
     16014     16018     16019     16021     16014     16018     16019     16022
     16015     16014     16018     16019     16016     16014     16018     16019
     16017     16014     16018     16019     16018     16019     16022     16023
     16018     16019     16022     16024     16018     16019     16022     16030
     16019     16022     16024     16025     16019     16022     16030     16031
     16019     16022     16030     16032     16019     16022     16030     16033
     16020     16019     16022     16023     16020     16019     16022     16024
     16020     16019     16022     16030     16021     16019     16022     16023
     16021     16019     16022     16024     16021     16019     16022     16030
     16022     16024     16025     16026     16022     16024     16025     16027
     16022     16030     16033     16034     16023     16022     16024     16025
     16023     16022     16030     16031     16023     16022     16030     16032
     16023     16022     16030     16033     16024     16022     16030     16031
     16024     16022     16030     16032     16024     16022     16030     16033
     16024     16025     16027     16028     16024     16025     16027     16029
     16024     16025     16027     16039     16025     16024     16022     16030
     16025     16027     16039     16040     16025     16027     16039     16041
     16025     16027     16039     16042     16026     16025     16027     16028
     16026     16025     16027     16029     16026     16025     16027     16039
     16027     16039     16042     16043     16027     16039     16042     16044
     16027     16039     16042     16045     16028     16027     16039     16040
     16028     16027     16039     16041     16028     16027     16039     16042
     16029     16027     16039     16040     16029     16027     16039     16041
     16029     16027     16039     16042     16030     16033     16034     16035
     16030     16033     16034     16036     16031     16030     16033     16034
     16032     16030     16033     16034     16033     16034     16036     16037
     16033     16034     16036     16038     16033     16034     16036     16086
     16034     16036     16086     16087     16034     16036     16086     16088
     16034     16036     16086     16089     16035     16034     16036     16037
     16035     16034     16036     16038     16035     16034     16036     16086
     16036     16086     16089     16090     16036     16086     16089     16091
     16036     16086     16089     16092     16037     16036     16086     16087
     16037     16036     16086     16088     16037     16036     16086     16089
     16038     16036     16086     16087     16038     16036     16086     16088
     16038     16036     16086     16089     16039     16042     16045     16046
     16039     16042     16045     16047     16040     16039     16042     16043
     16040     16039     16042     16044     16040     16039     16042     16045
     16041     16039     16042     16043     16041     16039     16042     16044
     16041     16039     16042     16045     16042     16045     16047     16048
     16042     16045     16047     16049     16043     16042     16045     16046
     16043     16042     16045     16047     16044     16042     16045     16046
     16044     16042     16045     16047     16045     16047     16049     16050
     16045     16047     16049     16051     16045     16047     16049     16052
     16046     16045     16047     16048     16046     16045     16047     16049
     16047     16049     16052     16053     16047     16049     16052     16054
     16048     16047     16049     16050     16048     16047     16049     16051
     16048     16047     16049     16052     16049     16052     16054     16055
     16049     16052     16054     16056     16050     16049     16052     16053
     16050     16049     16052     16054     16051     16049     16052     16053
     16051     16049     16052     16054     16052     16054     16056     16057
     16052     16054     16056     16058     16052     16054     16056     16059
     16053     16052     16054     16055     16053     16052     16054     16056
     16054     16056     16059     16060     16054     16056     16059     16061
     16055     16054     16056     16057     16055     16054     16056     16058
     16055     16054     16056     16059     16056     16059     16061     16062
     16056     16059     16061     16063     16057     16056     16059     16060
     16057     16056     16059     16061     16058     16056     16059     16060
     16058     16056     16059     16061     16059     16061     16063     16064
     16059     16061     16063     16065     16059     16061     16063     16066
     16060     16059     16061     16062     16060     16059     16061     16063
     16061     16063     16066     16067     16061     16063     16066     16068
     16062     16061     16063     16064     16062     16061     16063     16065
     16062     16061     16063     16066     16063     16066     16068     16069
     16063     16066     16068     16070     16064     16063     16066     16067
     16064     16063     16066     16068     16065     16063     16066     16067
     16065     16063     16066     16068     16066     16068     16070     16071
     16066     16068     16070     16072     16066     16068     16070     16073
     16067     16066     16068     16069     16067     16066     16068     16070
     16068     16070     16073     16074     16068     16070     16073     16075
     16068     16070     16073     16076     16069     16068     16070     16071
     16069     16068     16070     16072     16069     16068     16070     16073
     16070     16073     16076     16077     16070     16073     16076     16078
     16070     16073     16076     16079     16071     16070     16073     16074
     16071     16070     16073     16075     16071     16070     16073     16076
     16072     16070     16073     16074     16072     16070     16073     16075
     16072     16070     16073     16076     16073     16076     16079     16080
     16073     16076     16079     16081     16073     16076     16079     16082
     16074     16073     16076     16077     16074     16073     16076     16078
     16074     16073     16076     16079     16075     16073     16076     16077
     16075     16073     16076     16078     16075     16073     16076     16079
     16076     16079     16082     16083     16076     16079     16082     16084
     16076     16079     16082     16085     16077     16076     16079     16080
     16077     16076     16079     16081     16077     16076     16079     16082
     16078     16076     16079     16080     16078     16076     16079     16081
     16078     16076     16079     16082     16080     16079     16082     16083
     16080     16079     16082     16084     16080     16079     16082     16085
     16081     16079     16082     16083     16081     16079     16082     16084
     16081     16079     16082     16085     16086     16089     16092     16093
     16086     16089     16092     16094     16086     16089     16092     16095
     16087     16086     16089     16090     16087     16086     16089     16091
     16087     16086     16089     16092     16088     16086     16089     16090
     16088     16086     16089     16091     16088     16086     16089     16092
     16089     16092     16095     16096     16089     16092     16095     16097
     16089     16092     16095     16098     16090     16089     16092     16093
     16090     16089     16092     16094     16090     16089     16092     16095
     16091     16089     16092     16093     16091     16089     16092     16094
     16091     16089     16092     16095     16092     16095     16098     16099
     16092     16095     16098     16100     16092     16095     16098     16101
     16093     16092     16095     16096     16093     16092     16095     16097
     16093     16092     16095     16098     16094     16092     16095     16096
     16094     16092     16095     16097     16094     16092     16095     16098
     16095     16098     16101     16102     16095     16098     16101     16103
     16095     16098     16101     16104     16096     16095     16098     16099
     16096     16095     16098     16100     16096     16095     16098     16101
     16097     16095     16098     16099     16097     16095     16098     16100
     16097     16095     16098     16101     16098     16101     16104     16105
     16098     16101     16104     16106     16098     16101     16104     16107
     16099     16098     16101     16102     16099     16098     16101     16103
     16099     16098     16101     16104     16100     16098     16101     16102
     16100     16098     16101     16103     16100     16098     16101     16104
     16101     16104     16107     16108     16101     16104     16107     16109
     16101     16104     16107     16110     16102     16101     16104     16105
     16102     16101     16104     16106     16102     16101     16104     16107
     16103     16101     16104     16105     16103     16101     16104     16106
     16103     16101     16104     16107     16104     16107     16110     16111
     16104     16107     16110     16112     16104     16107     16110     16113
     16105     16104     16107     16108     16105     16104     16107     16109
     16105     16104     16107     16110     16106     16104     16107     16108
     16106     16104     16107     16109     16106     16104     16107     16110
     16107     16110     16113     16114     16107     16110     16113     16115
     16107     16110     16113     16116     16108     16107     16110     16111
     16108     16107     16110     16112     16108     16107     16110     16113
     16109     16107     16110     16111     16109     16107     16110     16112
     16109     16107     16110     16113     16110     16113     16116     16117
     16110     16113     16116     16118     16110     16113     16116     16119
     16111     16110     16113     16114     16111     16110     16113     16115
     16111     16110     16113     16116     16112     16110     16113     16114
     16112     16110     16113     16115     16112     16110     16113     16116
     16113     16116     16119     16120     16113     16116     16119     16121
     16113     16116     16119     16122     16114     16113     16116     16117
     16114     16113     16116     16118     16114     16113     16116     16119
     16115     16113     16116     16117     16115     16113     16116     16118
     16115     16113     16116     16119     16116     16119     16122     16123
     16116     16119     16122     16124     16116     16119     16122     16125
     16117     16116     16119     16120     16117     16116     16119     16121
     16117     16116     16119     16122     16118     16116     16119     16120
     16118     16116     16119     16121     16118     16116     16119     16122
     16119     16122     16125     16126     16119     16122     16125     16127
     16119     16122     16125     16128     16120     16119     16122     16123
     16120     16119     16122     16124     16120     16119     16122     16125
     16121     16119     16122     16123     16121     16119     16122     16124
     16121     16119     16122     16125     16122     16125     16128     16129
     16122     16125     16128     16130     16122     16125     16128     16131
     16123     16122     16125     16126     16123     16122     16125     16127
     16123     16122     16125     16128     16124     16122     16125     16126
     16124     16122     16125     16127     16124     16122     16125     16128
     16125     16128     16131     16132     16125     16128     16131     16133
     16125     16128     16131     16134     16126     16125     16128     16129
     16126     16125     16128     16130     16126     16125     16128     16131
     16127     16125     16128     16129     16127     16125     16128     16130
     16127     16125     16128     16131     16129     16128     16131     16132
     16129     16128     16131     16133     16129     16128     16131     16134
     16130     16128     16131     16132     16130     16128     16131     16133
     16130     16128     16131     16134     21079     21092     21095     21096
     21079     21092     21095     21097     21079     21092     21095     21101
     21080     21079     21084     21085     21080     21079     21084     21086
     21080     21079     21084     21087     21080     21079     21088     21089
     21080     21079     21088     21090     21080     21079     21088     21091
     21080     21079     21092     21093     21080     21079     21092     21094
     21080     21079     21092     21095     21081     21080     21079     21084
     21081     21080     21079     21088     21081     21080     21079     21092
     21082     21080     21079     21084     21082     21080     21079     21088
     21082     21080     21079     21092     21083     21080     21079     21084
     21083     21080     21079     21088     21083     21080     21079     21092
     21084     21079     21088     21089     21084     21079     21088     21090
     21084     21079     21088     21091     21084     21079     21092     21093
     21084     21079     21092     21094     21084     21079     21092     21095
     21085     21084     21079     21088     21085     21084     21079     21092
     21086     21084     21079     21088     21086     21084     21079     21092
     21087     21084     21079     21088     21087     21084     21079     21092
     21088     21079     21092     21093     21088     21079     21092     21094
     21088     21079     21092     21095     21089     21088     21079     21092
     21090     21088     21079     21092     21091     21088     21079     21092
     21092     21095     21101     21098     21093     21092     21095     21096
     21093     21092     21095     21097     21093     21092     21095     21101
     21094     21092     21095     21096     21094     21092     21095     21097
     21094     21092     21095     21101     21095     21101     21098     21099
     21095     21101     21098     21100     21095     21101     21098     21102
     21096     21095     21101     21098     21097     21095     21101     21098
     21098     21102     21103     21104     21098     21102     21103     21105
     21098     21102     21103     21106     21099     21098     21102     21103
     21100     21098     21102     21103     21101     21098     21102     21103
     21102     21103     21106     21107     21102     21103     21106     21108
     21102     21103     21106     21114     21103     21106     21108     21109
     21103     21106     21114     21115     21103     21106     21114     21116
     21103     21106     21114     21117     21104     21103     21106     21107
     21104     21103     21106     21108     21104     21103     21106     21114
     21105     21103     21106     21107     21105     21103     21106     21108
     21105     21103     21106     21114     21106     21108     21109     21110
     21106     21108     21109     21111     21106     21114     21117     21118
     21107     21106     21108     21109     21107     21106     21114     21115
     21107     21106     21114     21116     21107     21106     21114     21117
     21108     21106     21114     21115     21108     21106     21114     21116
     21108     21106     21114     21117     21108     21109     21111     21112
     21108     21109     21111     21113     21108     21109     21111     21123
     21109     21108     21106     21114     21109     21111     21123     21124
     21109     21111     21123     21125     21109     21111     21123     21126
     21110     21109     21111     21112     21110     21109     21111     21113
     21110     21109     21111     21123     21111     21123     21126     21127
     21111     21123     21126     21128     21111     21123     21126     21129
     21112     21111     21123     21124     21112     21111     21123     21125
     21112     21111     21123     21126     21113     21111     21123     21124
     21113     21111     21123     21125     21113     21111     21123     21126
     21114     21117     21118     21119     21114     21117     21118     21120
     21115     21114     21117     21118     21116     21114     21117     21118
     21117     21118     21120     21121     21117     21118     21120     21122
     21117     21118     21120     21168     21118     21120     21168     21169
     21118     21120     21168     21170     21118     21120     21168     21171
     21119     21118     21120     21121     21119     21118     21120     21122
     21119     21118     21120     21168     21120     21168     21171     21172
     21120     21168     21171     21173     21120     21168     21171     21174
     21121     21120     21168     21169     21121     21120     21168     21170
     21121     21120     21168     21171     21122     21120     21168     21169
     21122     21120     21168     21170     21122     21120     21168     21171
     21123     21126     21129     21130     21123     21126     21129     21131
     21123     21126     21129     21132     21124     21123     21126     21127
     21124     21123     21126     21128     21124     21123     21126     21129
     21125     21123     21126     21127     21125     21123     21126     21128
     21125     21123     21126     21129     21126     21129     21132     21133
     21126     21129     21132     21134     21126     21129     21132     21135
     21127     21126     21129     21130     21127     21126     21129     21131
     21127     21126     21129     21132     21128     21126     21129     21130
     21128     21126     21129     21131     21128     21126     21129     21132
     21129     21132     21135     21136     21129     21132     21135     21137
     21129     21132     21135     21138     21130     21129     21132     21133
     21130     21129     21132     21134     21130     21129     21132     21135
     21131     21129     21132     21133     21131     21129     21132     21134
     21131     21129     21132     21135     21132     21135     21138     21139
     21132     21135     21138     21140     21132     21135     21138     21141
     21133     21132     21135     21136     21133     21132     21135     21137
     21133     21132     21135     21138     21134     21132     21135     21136
     21134     21132     21135     21137     21134     21132     21135     21138
     21135     21138     21141     21142     21135     21138     21141     21143
     21136     21135     21138     21139     21136     21135     21138     21140
     21136     21135     21138     21141     21137     21135     21138     21139
     21137     21135     21138     21140     21137     21135     21138     21141
     21138     21141     21143     21144     21138     21141     21143     21145
     21139     21138     21141     21142     21139     21138     21141     21143
     21140     21138     21141     21142     21140     21138     21141     21143
     21141     21143     21145     21146     21141     21143     21145     21147
     21141     21143     21145     21148     21142     21141     21143     21144
     21142     21141     21143     21145     21143     21145     21148     21149
     21143     21145     21148     21150     21144     21143     21145     21146
     21144     21143     21145     21147     21144     21143     21145     21148
     21145     21148     21150     21151     21145     21148     21150     21152
     21146     21145     21148     21149     21146     21145     21148     21150
     21147     21145     21148     21149     21147     21145     21148     21150
     21148     21150     21152     21153     21148     21150     21152     21154
     21148     21150     21152     21155     21149     21148     21150     21151
     21149     21148     21150     21152     21150     21152     21155     21156
     21150     21152     21155     21157     21150     21152     21155     21158
     21151     21150     21152     21153     21151     21150     21152     21154
     21151     21150     21152     21155     21152     21155     21158     21159
     21152     21155     21158     21160     21152     21155     21158     21161
     21153     21152     21155     21156     21153     21152     21155     21157
     21153     21152     21155     21158     21154     21152     21155     21156
     21154     21152     21155     21157     21154     21152     21155     21158
     21155     21158     21161     21162     21155     21158     21161     21163
     21155     21158     21161     21164     21156     21155     21158     21159
     21156     21155     21158     21160     21156     21155     21158     21161
     21157     21155     21158     21159     21157     21155     21158     21160
     21157     21155     21158     21161     21158     21161     21164     21165
     21158     21161     21164     21166     21158     21161     21164     21167
     21159     21158     21161     21162     21159     21158     21161     21163
     21159     21158     21161     21164     21160     21158     21161     21162
     21160     21158     21161     21163     21160     21158     21161     21164
     21162     21161     21164     21165     21162     21161     21164     21166
     21162     21161     21164     21167     21163     21161     21164     21165
     21163     21161     21164     21166     21163     21161     21164     21167
     21168     21171     21174     21175     21168     21171     21174     21176
     21168     21171     21174     21177     21169     21168     21171     21172
     21169     21168     21171     21173     21169     21168     21171     21174
     21170     21168     21171     21172     21170     21168     21171     21173
     21170     21168     21171     21174     21171     21174     21177     21178
     21171     21174     21177     21179     21171     21174     21177     21180
     21172     21171     21174     21175     21172     21171     21174     21176
     21172     21171     21174     21177     21173     21171     21174     21175
     21173     21171     21174     21176     21173     21171     21174     21177
     21174     21177     21180     21181     21174     21177     21180     21182
     21174     21177     21180     21183     21175     21174     21177     21178
     21175     21174     21177     21179     21175     21174     21177     21180
     21176     21174     21177     21178     21176     21174     21177     21179
     21176     21174     21177     21180     21177     21180     21183     21184
     21177     21180     21183     21185     21177     21180     21183     21186
     21178     21177     21180     21181     21178     21177     21180     21182
     21178     21177     21180     21183     21179     21177     21180     21181
     21179     21177     21180     21182     21179     21177     21180     21183
     21180     21183     21186     21187     21180     21183     21186     21188
     21180     21183     21186     21189     21181     21180     21183     21184
     21181     21180     21183     21185     21181     21180     21183     21186
     21182     21180     21183     21184     21182     21180     21183     21185
     21182     21180     21183     21186     21183     21186     21189     21190
     21183     21186     21189     21191     21183     21186     21189     21192
     21184     21183     21186     21187     21184     21183     21186     21188
     21184     21183     21186     21189     21185     21183     21186     21187
     21185     21183     21186     21188     21185     21183     21186     21189
     21186     21189     21192     21193     21186     21189     21192     21194
     21186     21189     21192     21195     21187     21186     21189     21190
     21187     21186     21189     21191     21187     21186     21189     21192
     21188     21186     21189     21190     21188     21186     21189     21191
     21188     21186     21189     21192     21189     21192     21195     21196
     21189     21192     21195     21197     21189     21192     21195     21198
     21190     21189     21192     21193     21190     21189     21192     21194
     21190     21189     21192     21195     21191     21189     21192     21193
     21191     21189     21192     21194     21191     21189     21192     21195
     21192     21195     21198     21199     21192     21195     21198     21200
     21192     21195     21198     21201     21193     21192     21195     21196
     21193     21192     21195     21197     21193     21192     21195     21198
     21194     21192     21195     21196     21194     21192     21195     21197
     21194     21192     21195     21198     21195     21198     21201     21202
     21195     21198     21201     21203     21195     21198     21201     21204
     21196     21195     21198     21199     21196     21195     21198     21200
     21196     21195     21198     21201     21197     21195     21198     21199
     21197     21195     21198     21200     21197     21195     21198     21201
     21198     21201     21204     21205     21198     21201     21204     21206
     21198     21201     21204     21207     21199     21198     21201     21202
     21199     21198     21201     21203     21199     21198     21201     21204
     21200     21198     21201     21202     21200     21198     21201     21203
     21200     21198     21201     21204     21201     21204     21207     21208
     21201     21204     21207     21209     21201     21204     21207     21210
     21202     21201     21204     21205     21202     21201     21204     21206
     21202     21201     21204     21207     21203     21201     21204     21205
     21203     21201     21204     21206     21203     21201     21204     21207
     21204     21207     21210     21211     21204     21207     21210     21212
     21204     21207     21210     21213     21205     21204     21207     21208
     21205     21204     21207     21209     21205     21204     21207     21210
     21206     21204     21207     21208     21206     21204     21207     21209
     21206     21204     21207     21210     21207     21210     21213     21214
     21207     21210     21213     21215     21207     21210     21213     21216
     21208     21207     21210     21211     21208     21207     21210     21212
     21208     21207     21210     21213     21209     21207     21210     21211
     21209     21207     21210     21212     21209     21207     21210     21213
     21211     21210     21213     21214     21211     21210     21213     21215
     21211     21210     21213     21216     21212     21210     21213     21214
     21212     21210     21213     21215     21212     21210     21213     21216
      3109      3110      3125      3126      3109      3110      3125      3127
      3109      3110      3125      3131      3110      3109      3113      3114
      3110      3109      3113      3115      3110      3109      3113      3116
      3110      3109      3117      3118      3110      3109      3117      3119
      3110      3109      3117      3120      3110      3109      3121      3122
      3110      3109      3121      3123      3110      3109      3121      3124
      3110      3125      3131      3128      3111      3110      3109      3113
      3111      3110      3109      3117      3111      3110      3109      3121
      3111      3110      3125      3126      3111      3110      3125      3127
      3111      3110      3125      3131      3112      3110      3109      3113
      3112      3110      3109      3117      3112      3110      3109      3121
      3112      3110      3125      3126      3112      3110      3125      3127
      3112      3110      3125      3131      3113      3109      3110      3125
      3113      3109      3117      3118      3113      3109      3117      3119
      3113      3109      3117      3120      3113      3109      3121      3122
      3113      3109      3121      3123      3113      3109      3121      3124
      3114      3113      3109      3117      3114      3113      3109      3121
      3115      3113      3109      3117      3115      3113      3109      3121
      3116      3113      3109      3117      3116      3113      3109      3121
      3117      3109      3110      3125      3117      3109      3121      3122
      3117      3109      3121      3123      3117      3109      3121      3124
      3118      3117      3109      3121      3119      3117      3109      3121
      3120      3117      3109      3121      3121      3109      3110      3125
      3125      3131      3128      3129      3125      3131      3128      3130
      3125      3131      3128      3132      3126      3125      3131      3128
      3127      3125      3131      3128      3128      3132      3133      3134
      3128      3132      3133      3135      3128      3132      3133      3136
      3129      3128      3132      3133      3130      3128      3132      3133
      3131      3128      3132      3133      3132      3133      3136      3137
      3132      3133      3136      3138      3132      3133      3136      3144
      3133      3136      3138      3139      3133      3136      3144      3145
      3133      3136      3144      3146      3133      3136      3144      3147
      3134      3133      3136      3137      3134      3133      3136      3138
      3134      3133      3136      3144      3135      3133      3136      3137
      3135      3133      3136      3138      3135      3133      3136      3144
      3136      3138      3139      3140      3136      3138      3139      3141
      3136      3144      3147      3148      3137      3136      3138      3139
      3137      3136      3144      3145      3137      3136      3144      3146
      3137      3136      3144      3147      3138      3136      3144      3145
      3138      3136      3144      3146      3138      3136      3144      3147
      3138      3139      3141      3142      3138      3139      3141      3143
      3138      3139      3141      3153      3139      3138      3136      3144
      3139      3141      3153      3154      3139      3141      3153      3155
      3139      3141      3153      3156      3140      3139      3141      3142
      3140      3139      3141      3143      3140      3139      3141      3153
      3141      3153      3156      3157      3141      3153      3156      3158
      3141      3153      3156      3159      3142      3141      3153      3154
      3142      3141      3153      3155      3142      3141      3153      3156
      3143      3141      3153      3154      3143      3141      3153      3155
      3143      3141      3153      3156      3144      3147      3148      3149
      3144      3147      3148      3150      3145      3144      3147      3148
      3146      3144      3147      3148      3147      3148      3150      3151
      3147      3148      3150      3152      3147      3148      3150      3200
      3148      3150      3200      3201      3148      3150      3200      3202
      3148      3150      3200      3203      3149      3148      3150      3151
      3149      3148      3150      3152      3149      3148      3150      3200
      3150      3200      3203      3204      3150      3200      3203      3205
      3150      3200      3203      3206      3151      3150      3200      3201
      3151      3150      3200      3202      3151      3150      3200      3203
      3152      3150      3200      3201      3152      3150      3200      3202
      3152      3150      3200      3203      3153      3156      3159      3160
      3153      3156      3159      3161      3154      3153      3156      3157
      3154      3153      3156      3158      3154      3153      3156      3159
      3155      3153      3156      3157      3155      3153      3156      3158
      3155      3153      3156      3159      3156      3159      3161      3162
      3156      3159      3161      3163      3157      3156      3159      3160
      3157      3156      3159      3161      3158      3156      3159      3160
      3158      3156      3159      3161      3159      3161      3163      3164
      3159      3161      3163      3165      3159      3161      3163      3166
      3160      3159      3161      3162      3160      3159      3161      3163
      3161      3163      3166      3167      3161      3163      3166      3168
      3162      3161      3163      3164      3162      3161      3163      3165
      3162      3161      3163      3166      3163      3166      3168      3169
      3163      3166      3168      3170      3164      3163      3166      3167
      3164      3163      3166      3168      3165      3163      3166      3167
      3165      3163      3166      3168      3166      3168      3170      3171
      3166      3168      3170      3172      3166      3168      3170      3173
      3167      3166      3168      3169      3167      3166      3168      3170
      3168      3170      3173      3174      3168      3170      3173      3175
      3169      3168      3170      3171      3169      3168      3170      3172
      3169      3168      3170      3173      3170      3173      3175      3176
      3170      3173      3175      3177      3171      3170      3173      3174
      3171      3170      3173      3175      3172      3170      3173      3174
      3172      3170      3173      3175      3173      3175      3177      3178
      3173      3175      3177      3179      3173      3175      3177      3180
      3174      3173      3175      3176      3174      3173      3175      3177
      3175      3177      3180      3181      3175      3177      3180      3182
      3176      3175      3177      3178      3176      3175      3177      3179
      3176      3175      3177      3180      3177      3180      3182      3183
      3177      3180      3182      3184      3178      3177      3180      3181
      3178      3177      3180      3182      3179      3177      3180      3181
      3179      3177      3180      3182      3180      3182      3184      3185
      3180      3182      3184      3186      3180      3182      3184      3187
      3181      3180      3182      3183      3181      3180      3182      3184
      3182      3184      3187      3188      3182      3184      3187      3189
      3182      3184      3187      3190      3183      3182      3184      3185
      3183      3182      3184      3186      3183      3182      3184      3187
      3184      3187      3190      3191      3184      3187      3190      3192
      3184      3187      3190      3193      3185      3184      3187      3188
      3185      3184      3187      3189      3185      3184      3187      3190
      3186      3184      3187      3188      3186      3184      3187      3189
      3186      3184      3187      3190      3187      3190      3193      3194
      3187      3190      3193      3195      3187      3190      3193      3196
      3188      3187      3190      3191      3188      3187      3190      3192
      3188      3187      3190      3193      3189      3187      3190      3191
      3189      3187      3190      3192      3189      3187      3190      3193
      3190      3193      3196      3197      3190      3193      3196      3198
      3190      3193      3196      3199      3191      3190      3193      3194
      3191      3190      3193      3195      3191      3190      3193      3196
      3192      3190      3193      3194      3192      3190      3193      3195
      3192      3190      3193      3196      3194      3193      3196      3197
      3194      3193      3196      3198      3194      3193      3196      3199
      3195      3193      3196      3197      3195      3193      3196      3198
      3195      3193      3196      3199      3200      3203      3206      3207
      3200      3203      3206      3208      3200      3203      3206      3209
      3201      3200      3203      3204      3201      3200      3203      3205
      3201      3200      3203      3206      3202      3200      3203      3204
      3202      3200      3203      3205      3202      3200      3203      3206
      3203      3206      3209      3210      3203      3206      3209      3211
      3203      3206      3209      3212      3204      3203      3206      3207
      3204      3203      3206      3208      3204      3203      3206      3209
      3205      3203      3206      3207      3205      3203      3206      3208
      3205      3203      3206      3209      3206      3209      3212      3213
      3206      3209      3212      3214      3206      3209      3212      3215
      3207      3206      3209      3210      3207      3206      3209      3211
      3207      3206      3209      3212      3208      3206      3209      3210
      3208      3206      3209      3211      3208      3206      3209      3212
      3209      3212      3215      3216      3209      3212      3215      3217
      3209      3212      3215      3218      3210      3209      3212      3213
      3210      3209      3212      3214      3210      3209      3212      3215
      3211      3209      3212      3213      3211      3209      3212      3214
      3211      3209      3212      3215      3212      3215      3218      3219
      3212      3215      3218      3220      3212      3215      3218      3221
      3213      3212      3215      3216      3213      3212      3215      3217
      3213      3212      3215      3218      3214      3212      3215      3216
      3214      3212      3215      3217      3214      3212      3215      3218
      3215      3218      3221      3222      3215      3218      3221      3223
      3215      3218      3221      3224      3216      3215      3218      3219
      3216      3215      3218      3220      3216      3215      3218      3221
      3217      3215      3218      3219      3217      3215      3218      3220
      3217      3215      3218      3221      3218      3221      3224      3225
      3218      3221      3224      3226      3218      3221      3224      3227
      3219      3218      3221      3222      3219      3218      3221      3223
      3219      3218      3221      3224      3220      3218      3221      3222
      3220      3218      3221      3223      3220      3218      3221      3224
      3221      3224      3227      3228      3221      3224      3227      3229
      3221      3224      3227      3230      3222      3221      3224      3225
      3222      3221      3224      3226      3222      3221      3224      3227
      3223      3221      3224      3225      3223      3221      3224      3226
      3223      3221      3224      3227      3224      3227      3230      3231
      3224      3227      3230      3232      3224      3227      3230      3233
      3225      3224      3227      3228      3225      3224      3227      3229
      3225      3224      3227      3230      3226      3224      3227      3228
      3226      3224      3227      3229      3226      3224      3227      3230
      3227      3230      3233      3234      3227      3230      3233      3235
      3227      3230      3233      3236      3228      3227      3230      3231
      3228      3227      3230      3232      3228      3227      3230      3233
      3229      3227      3230      3231      3229      3227      3230      3232
      3229      3227      3230      3233      3230      3233      3236      3237
      3230      3233      3236      3238      3230      3233      3236      3239
      3231      3230      3233      3234      3231      3230      3233      3235
      3231      3230      3233      3236      3232      3230      3233      3234
      3232      3230      3233      3235      3232      3230      3233      3236
      3233      3236      3239      3240      3233      3236      3239      3241
      3233      3236      3239      3242      3234      3233      3236      3237
      3234      3233      3236      3238      3234      3233      3236      3239
      3235      3233      3236      3237      3235      3233      3236      3238
      3235      3233      3236      3239      3236      3239      3242      3243
      3236      3239      3242      3244      3236      3239      3242      3245
      3237      3236      3239      3240      3237      3236      3239      3241
      3237      3236      3239      3242      3238      3236      3239      3240
      3238      3236      3239      3241      3238      3236      3239      3242
      3239      3242      3245      3246      3239      3242      3245      3247
      3239      3242      3245      3248      3240      3239      3242      3243
      3240      3239      3242      3244      3240      3239      3242      3245
      3241      3239      3242      3243      3241      3239      3242      3244
      3241      3239      3242      3245      3243      3242      3245      3246
      3243      3242      3245      3247      3243      3242      3245      3248
      3244      3242      3245      3246      3244      3242      3245      3247
      3244      3242      3245      3248     11812     11825     11828     11829
     11812     11825     11828     11830     11812     11825     11828     11835
     11813     11812     11817     11818     11813     11812     11817     11819
     11813     11812     11817     11820     11813     11812     11821     11822
     11813     11812     11821     11823     11813     11812     11821     11824
     11813     11812     11825     11826     11813     11812     11825     11827
     11813     11812     11825     11828     11814     11813     11812     11817
     11814     11813     11812     11821     11814     11813     11812     11825
     11815     11813     11812     11817     11815     11813     11812     11821
     11815     11813     11812     11825     11816     11813     11812     11817
     11816     11813     11812     11821     11816     11813     11812     11825
     11817     11812     11821     11822     11817     11812     11821     11823
     11817     11812     11821     11824     11817     11812     11825     11826
     11817     11812     11825     11827     11817     11812     11825     11828
     11818     11817     11812     11821     11818     11817     11812     11825
     11819     11817     11812     11821     11819     11817     11812     11825
     11820     11817     11812     11821     11820     11817     11812     11825
     11821     11812     11825     11826     11821     11812     11825     11827
     11821     11812     11825     11828     11822     11821     11812     11825
     11823     11821     11812     11825     11824     11821     11812     11825
     11825     11828     11835     11831     11826     11825     11828     11829
     11826     11825     11828     11830     11826     11825     11828     11835
     11827     11825     11828     11829     11827     11825     11828     11830
     11827     11825     11828     11835     11828     11835     11831     11832
     11828     11835     11831     11833     11828     11835     11831     11834
     11829     11828     11835     11831     11830     11828     11835     11831
     11831     11834     11836     11837     11831     11834     11836     11838
     11831     11834     11836     11841     11832     11831     11834     11836
     11833     11831     11834     11836     11834     11836     11841     11839
     11834     11836     11841     11842     11834     11836     11841     11843
     11835     11831     11834     11836     11836     11841     11839     11840
     11836     11841     11839     11891     11836     11841     11843     11844
     11836     11841     11843     11845     11836     11841     11843     11847
     11837     11836     11841     11839     11837     11836     11841     11842
     11837     11836     11841     11843     11838     11836     11841     11839
     11838     11836     11841     11842     11838     11836     11841     11843
     11839     11841     11843     11844     11839     11841     11843     11845
     11839     11841     11843     11847     11839     11891     11893     11894
     11839     11891     11893     11895     11839     11891     11893     11896
     11840     11839     11841     11842     11840     11839     11841     11843
     11840     11839     11891     11892     11840     11839     11891     11893
     11841     11839     11891     11892     11841     11839     11891     11893
     11841     11843     11845     11846     11841     11843     11847     11848
     11841     11843     11847     11849     11842     11841     11839     11891
     11842     11841     11843     11844     11842     11841     11843     11845
     11842     11841     11843     11847     11843     11841     11839     11891
     11843     11847     11849     11850     11843     11847     11849     11851
     11844     11843     11845     11846     11844     11843     11847     11848
     11844     11843     11847     11849     11845     11843     11847     11848
     11845     11843     11847     11849     11846     11845     11843     11847
     11847     11849     11851     11852     11847     11849     11851     11853
     11847     11849     11851     11854     11848     11847     11849     11850
     11848     11847     11849     11851     11849     11851     11854     11855
     11849     11851     11854     11856     11849     11851     11854     11857
     11850     11849     11851     11852     11850     11849     11851     11853
     11850     11849     11851     11854     11851     11854     11857     11858
     11851     11854     11857     11859     11851     11854     11857     11860
     11852     11851     11854     11855     11852     11851     11854     11856
     11852     11851     11854     11857     11853     11851     11854     11855
     11853     11851     11854     11856     11853     11851     11854     11857
     11854     11857     11860     11861     11854     11857     11860     11862
     11854     11857     11860     11863     11855     11854     11857     11858
     11855     11854     11857     11859     11855     11854     11857     11860
     11856     11854     11857     11858     11856     11854     11857     11859
     11856     11854     11857     11860     11857     11860     11863     11864
     11857     11860     11863     11865     11857     11860     11863     11866
     11858     11857     11860     11861     11858     11857     11860     11862
     11858     11857     11860     11863     11859     11857     11860     11861
     11859     11857     11860     11862     11859     11857     11860     11863
     11860     11863     11866     11867     11860     11863     11866     11868
     11860     11863     11866     11869     11861     11860     11863     11864
     11861     11860     11863     11865     11861     11860     11863     11866
     11862     11860     11863     11864     11862     11860     11863     11865
     11862     11860     11863     11866     11863     11866     11869     11870
     11863     11866     11869     11871     11863     11866     11869     11872
     11864     11863     11866     11867     11864     11863     11866     11868
     11864     11863     11866     11869     11865     11863     11866     11867
     11865     11863     11866     11868     11865     11863     11866     11869
     11866     11869     11872     11873     11866     11869     11872     11874
     11866     11869     11872     11875     11867     11866     11869     11870
     11867     11866     11869     11871     11867     11866     11869     11872
     11868     11866     11869     11870     11868     11866     11869     11871
     11868     11866     11869     11872     11869     11872     11875     11876
     11869     11872     11875     11877     11869     11872     11875     11878
     11870     11869     11872     11873     11870     11869     11872     11874
     11870     11869     11872     11875     11871     11869     11872     11873
     11871     11869     11872     11874     11871     11869     11872     11875
     11872     11875     11878     11879     11872     11875     11878     11880
     11872     11875     11878     11881     11873     11872     11875     11876
     11873     11872     11875     11877     11873     11872     11875     11878
     11874     11872     11875     11876     11874     11872     11875     11877
     11874     11872     11875     11878     11875     11878     11881     11882
     11875     11878     11881     11883     11875     11878     11881     11884
     11876     11875     11878     11879     11876     11875     11878     11880
     11876     11875     11878     11881     11877     11875     11878     11879
     11877     11875     11878     11880     11877     11875     11878     11881
     11878     11881     11884     11885     11878     11881     11884     11886
     11878     11881     11884     11887     11879     11878     11881     11882
     11879     11878     11881     11883     11879     11878     11881     11884
     11880     11878     11881     11882     11880     11878     11881     11883
     11880     11878     11881     11884     11881     11884     11887     11888
     11881     11884     11887     11889     11881     11884     11887     11890
     11882     11881     11884     11885     11882     11881     11884     11886
     11882     11881     11884     11887     11883     11881     11884     11885
     11883     11881     11884     11886     11883     11881     11884     11887
     11885     11884     11887     11888     11885     11884     11887     11889
     11885     11884     11887     11890     11886     11884     11887     11888
     11886     11884     11887     11889     11886     11884     11887     11890
     11891     11893     11896     11897     11891     11893     11896     11898
     11891     11893     11896     11899     11892     11891     11893     11894
     11892     11891     11893     11895     11892     11891     11893     11896
     11893     11896     11899     11900     11893     11896     11899     11901
     11893     11896     11899     11902     11894     11893     11896     11897
     11894     11893     11896     11898     11894     11893     11896     11899
     11895     11893     11896     11897     11895     11893     11896     11898
     11895     11893     11896     11899     11896     11899     11902     11903
     11896     11899     11902     11904     11896     11899     11902     11905
     11897     11896     11899     11900     11897     11896     11899     11901
     11897     11896     11899     11902     11898     11896     11899     11900
     11898     11896     11899     11901     11898     11896     11899     11902
     11899     11902     11905     11906     11899     11902     11905     11907
     11899     11902     11905     11908     11900     11899     11902     11903
     11900     11899     11902     11904     11900     11899     11902     11905
     11901     11899     11902     11903     11901     11899     11902     11904
     11901     11899     11902     11905     11902     11905     11908     11909
     11902     11905     11908     11910     11902     11905     11908     11911
     11903     11902     11905     11906     11903     11902     11905     11907
     11903     11902     11905     11908     11904     11902     11905     11906
     11904     11902     11905     11907     11904     11902     11905     11908
     11905     11908     11911     11912     11905     11908     11911     11913
     11905     11908     11911     11914     11906     11905     11908     11909
     11906     11905     11908     11910     11906     11905     11908     11911
     11907     11905     11908     11909     11907     11905     11908     11910
     11907     11905     11908     11911     11908     11911     11914     11915
     11908     11911     11914     11916     11909     11908     11911     11912
     11909     11908     11911     11913     11909     11908     11911     11914
     11910     11908     11911     11912     11910     11908     11911     11913
     11910     11908     11911     11914     11911     11914     11916     11917
     11911     11914     11916     11918     11912     11911     11914     11915
     11912     11911     11914     11916     11913     11911     11914     11915
     11913     11911     11914     11916     11914     11916     11918     11919
     11914     11916     11918     11920     11914     11916     11918     11921
     11915     11914     11916     11917     11915     11914     11916     11918
     11916     11918     11921     11922     11916     11918     11921     11923
     11916     11918     11921     11924     11917     11916     11918     11919
     11917     11916     11918     11920     11917     11916     11918     11921
     11918     11921     11924     11925     11918     11921     11924     11926
     11918     11921     11924     11927     11919     11918     11921     11922
     11919     11918     11921     11923     11919     11918     11921     11924
     11920     11918     11921     11922     11920     11918     11921     11923
     11920     11918     11921     11924     11921     11924     11927     11928
     11921     11924     11927     11929     11921     11924     11927     11930
     11922     11921     11924     11925     11922     11921     11924     11926
     11922     11921     11924     11927     11923     11921     11924     11925
     11923     11921     11924     11926     11923     11921     11924     11927
     11924     11927     11930     11931     11924     11927     11930     11932
     11924     11927     11930     11933     11925     11924     11927     11928
     11925     11924     11927     11929     11925     11924     11927     11930
     11926     11924     11927     11928     11926     11924     11927     11929
     11926     11924     11927     11930     11927     11930     11933     11934
     11927     11930     11933     11935     11927     11930     11933     11936
     11928     11927     11930     11931     11928     11927     11930     11932
     11928     11927     11930     11933     11929     11927     11930     11931
     11929     11927     11930     11932     11929     11927     11930     11933
     11930     11933     11936     11937     11930     11933     11936     11938
     11930     11933     11936     11939     11931     11930     11933     11934
     11931     11930     11933     11935     11931     11930     11933     11936
     11932     11930     11933     11934     11932     11930     11933     11935
     11932     11930     11933     11936     11933     11936     11939     11940
     11933     11936     11939     11941     11933     11936     11939     11942
     11934     11933     11936     11937     11934     11933     11936     11938
     11934     11933     11936     11939     11935     11933     11936     11937
     11935     11933     11936     11938     11935     11933     11936     11939
     11937     11936     11939     11940     11937     11936     11939     11941
     11937     11936     11939     11942     11938     11936     11939     11940
     11938     11936     11939     11941     11938     11936     11939     11942
     16135     16139     16142     16143     16135     16139     16142     16144
     16135     16139     16142     16148     16136     16135     16139     16140
     16136     16135     16139     16141     16136     16135     16139     16142
     16137     16135     16139     16140     16137     16135     16139     16141
     16137     16135     16139     16142     16138     16135     16139     16140
     16138     16135     16139     16141     16138     16135     16139     16142
     16139     16142     16148     16145     16140     16139     16142     16143
     16140     16139     16142     16144     16140     16139     16142     16148
     16141     16139     16142     16143     16141     16139     16142     16144
     16141     16139     16142     16148     16142     16148     16145     16146
     16142     16148     16145     16147     16142     16148     16145     16149
     16143     16142     16148     16145     16144     16142     16148     16145
     16145     16149     16150     16151     16145     16149     16150     16152
     16145     16149     16150     16153     16146     16145     16149     16150
     16147     16145     16149     16150     16148     16145     16149     16150
     16149     16150     16153     16154     16149     16150     16153     16155
     16149     16150     16153     16161     16150     16153     16155     16156
     16150     16153     16161     16162     16150     16153     16161     16163
     16150     16153     16161     16164     16151     16150     16153     16154
     16151     16150     16153     16155     16151     16150     16153     16161
     16152     16150     16153     16154     16152     16150     16153     16155
     16152     16150     16153     16161     16153     16155     16156     16157
     16153     16155     16156     16158     16153     16161     16164     16165
     16154     16153     16155     16156     16154     16153     16161     16162
     16154     16153     16161     16163     16154     16153     16161     16164
     16155     16153     16161     16162     16155     16153     16161     16163
     16155     16153     16161     16164     16155     16156     16158     16159
     16155     16156     16158     16160     16155     16156     16158     16170
     16156     16155     16153     16161     16156     16158     16170     16171
     16156     16158     16170     16172     16156     16158     16170     16173
     16157     16156     16158     16159     16157     16156     16158     16160
     16157     16156     16158     16170     16158     16170     16173     16174
     16158     16170     16173     16175     16158     16170     16173     16176
     16159     16158     16170     16171     16159     16158     16170     16172
     16159     16158     16170     16173     16160     16158     16170     16171
     16160     16158     16170     16172     16160     16158     16170     16173
     16161     16164     16165     16166     16161     16164     16165     16167
     16162     16161     16164     16165     16163     16161     16164     16165
     16164     16165     16167     16168     16164     16165     16167     16169
     16164     16165     16167     16217     16165     16167     16217     16218
     16165     16167     16217     16219     16165     16167     16217     16220
     16166     16165     16167     16168     16166     16165     16167     16169
     16166     16165     16167     16217     16167     16217     16220     16221
     16167     16217     16220     16222     16167     16217     16220     16223
     16168     16167     16217     16218     16168     16167     16217     16219
     16168     16167     16217     16220     16169     16167     16217     16218
     16169     16167     16217     16219     16169     16167     16217     16220
     16170     16173     16176     16177     16170     16173     16176     16178
     16171     16170     16173     16174     16171     16170     16173     16175
     16171     16170     16173     16176     16172     16170     16173     16174
     16172     16170     16173     16175     16172     16170     16173     16176
     16173     16176     16178     16179     16173     16176     16178     16180
     16174     16173     16176     16177     16174     16173     16176     16178
     16175     16173     16176     16177     16175     16173     16176     16178
     16176     16178     16180     16181     16176     16178     16180     16182
     16176     16178     16180     16183     16177     16176     16178     16179
     16177     16176     16178     16180     16178     16180     16183     16184
     16178     16180     16183     16185     16179     16178     16180     16181
     16179     16178     16180     16182     16179     16178     16180     16183
     16180     16183     16185     16186     16180     16183     16185     16187
     16181     16180     16183     16184     16181     16180     16183     16185
     16182     16180     16183     16184     16182     16180     16183     16185
     16183     16185     16187     16188     16183     16185     16187     16189
     16183     16185     16187     16190     16184     16183     16185     16186
     16184     16183     16185     16187     16185     16187     16190     16191
     16185     16187     16190     16192     16186     16185     16187     16188
     16186     16185     16187     16189     16186     16185     16187     16190
     16187     16190     16192     16193     16187     16190     16192     16194
     16188     16187     16190     16191     16188     16187     16190     16192
     16189     16187     16190     16191     16189     16187     16190     16192
     16190     16192     16194     16195     16190     16192     16194     16196
     16190     16192     16194     16197     16191     16190     16192     16193
     16191     16190     16192     16194     16192     16194     16197     16198
     16192     16194     16197     16199     16193     16192     16194     16195
     16193     16192     16194     16196     16193     16192     16194     16197
     16194     16197     16199     16200     16194     16197     16199     16201
     16195     16194     16197     16198     16195     16194     16197     16199
     16196     16194     16197     16198     16196     16194     16197     16199
     16197     16199     16201     16202     16197     16199     16201     16203
     16197     16199     16201     16204     16198     16197     16199     16200
     16198     16197     16199     16201     16199     16201     16204     16205
     16199     16201     16204     16206     16199     16201     16204     16207
     16200     16199     16201     16202     16200     16199     16201     16203
     16200     16199     16201     16204     16201     16204     16207     16208
     16201     16204     16207     16209     16201     16204     16207     16210
     16202     16201     16204     16205     16202     16201     16204     16206
     16202     16201     16204     16207     16203     16201     16204     16205
     16203     16201     16204     16206     16203     16201     16204     16207
     16204     16207     16210     16211     16204     16207     16210     16212
     16204     16207     16210     16213     16205     16204     16207     16208
     16205     16204     16207     16209     16205     16204     16207     16210
     16206     16204     16207     16208     16206     16204     16207     16209
     16206     16204     16207     16210     16207     16210     16213     16214
     16207     16210     16213     16215     16207     16210     16213     16216
     16208     16207     16210     16211     16208     16207     16210     16212
     16208     16207     16210     16213     16209     16207     16210     16211
     16209     16207     16210     16212     16209     16207     16210     16213
     16211     16210     16213     16214     16211     16210     16213     16215
     16211     16210     16213     16216     16212     16210     16213     16214
     16212     16210     16213     16215     16212     16210     16213     16216
     16217     16220     16223     16224     16217     16220     16223     16225
     16217     16220     16223     16226     16218     16217     16220     16221
     16218     16217     16220     16222     16218     16217     16220     16223
     16219     16217     16220     16221     16219     16217     16220     16222
     16219     16217     16220     16223     16220     16223     16226     16227
     16220     16223     16226     16228     16220     16223     16226     16229
     16221     16220     16223     16224     16221     16220     16223     16225
     16221     16220     16223     16226     16222     16220     16223     16224
     16222     16220     16223     16225     16222     16220     16223     16226
     16223     16226     16229     16230     16223     16226     16229     16231
     16223     16226     16229     16232     16224     16223     16226     16227
     16224     16223     16226     16228     16224     16223     16226     16229
     16225     16223     16226     16227     16225     16223     16226     16228
     16225     16223     16226     16229     16226     16229     16232     16233
     16226     16229     16232     16234     16226     16229     16232     16235
     16227     16226     16229     16230     16227     16226     16229     16231
     16227     16226     16229     16232     16228     16226     16229     16230
     16228     16226     16229     16231     16228     16226     16229     16232
     16229     16232     16235     16236     16229     16232     16235     16237
     16229     16232     16235     16238     16230     16229     16232     16233
     16230     16229     16232     16234     16230     16229     16232     16235
     16231     16229     16232     16233     16231     16229     16232     16234
     16231     16229     16232     16235     16232     16235     16238     16239
     16232     16235     16238     16240     16232     16235     16238     16241
     16233     16232     16235     16236     16233     16232     16235     16237
     16233     16232     16235     16238     16234     16232     16235     16236
     16234     16232     16235     16237     16234     16232     16235     16238
     16235     16238     16241     16242     16235     16238     16241     16243
     16235     16238     16241     16244     16236     16235     16238     16239
     16236     16235     16238     16240     16236     16235     16238     16241
     16237     16235     16238     16239     16237     16235     16238     16240
     16237     16235     16238     16241     16238     16241     16244     16245
     16238     16241     16244     16246     16238     16241     16244     16247
     16239     16238     16241     16242     16239     16238     16241     16243
     16239     16238     16241     16244     16240     16238     16241     16242
     16240     16238     16241     16243     16240     16238     16241     16244
     16241     16244     16247     16248     16241     16244     16247     16249
     16241     16244     16247     16250     16242     16241     16244     16245
     16242     16241     16244     16246     16242     16241     16244     16247
     16243     16241     16244     16245     16243     16241     16244     16246
     16243     16241     16244     16247     16244     16247     16250     16251
     16244     16247     16250     16252     16244     16247     16250     16253
     16245     16244     16247     16248     16245     16244     16247     16249
     16245     16244     16247     16250     16246     16244     16247     16248
     16246     16244     16247     16249     16246     16244     16247     16250
     16247     16250     16253     16254     16247     16250     16253     16255
     16247     16250     16253     16256     16248     16247     16250     16251
     16248     16247     16250     16252     16248     16247     16250     16253
     16249     16247     16250     16251     16249     16247     16250     16252
     16249     16247     16250     16253     16250     16253     16256     16257
     16250     16253     16256     16258     16250     16253     16256     16259
     16251     16250     16253     16254     16251     16250     16253     16255
     16251     16250     16253     16256     16252     16250     16253     16254
     16252     16250     16253     16255     16252     16250     16253     16256
     16253     16256     16259     16260     16253     16256     16259     16261
     16253     16256     16259     16262     16254     16253     16256     16257
     16254     16253     16256     16258     16254     16253     16256     16259
     16255     16253     16256     16257     16255     16253     16256     16258
     16255     16253     16256     16259     16256     16259     16262     16263
     16256     16259     16262     16264     16256     16259     16262     16265
     16257     16256     16259     16260     16257     16256     16259     16261
     16257     16256     16259     16262     16258     16256     16259     16260
     16258     16256     16259     16261     16258     16256     16259     16262
     16260     16259     16262     16263     16260     16259     16262     16264
     16260     16259     16262     16265     16261     16259     16262     16263
     16261     16259     16262     16264     16261     16259     16262     16265
     16266     16270     16273     16274     16266     16270     16273     16275
     16266     16270     16273     16279     16267     16266     16270     16271
     16267     16266     16270     16272     16267     16266     16270     16273
     16268     16266     16270     16271     16268     16266     16270     16272
     16268     16266     16270     16273     16269     16266     16270     16271
     16269     16266     16270     16272     16269     16266     16270     16273
     16270     16273     16279     16276     16271     16270     16273     16274
     16271     16270     16273     16275     16271     16270     16273     16279
     16272     16270     16273     16274     16272     16270     16273     16275
     16272     16270     16273     16279     16273     16279     16276     16277
     16273     16279     16276     16278     16273     16279     16276     16280
     16274     16273     16279     16276     16275     16273     16279     16276
     16276     16280     16281     16282     16276     16280     16281     16283
     16276     16280     16281     16284     16277     16276     16280     16281
     16278     16276     16280     16281     16279     16276     16280     16281
     16280     16281     16284     16285     16280     16281     16284     16286
     16280     16281     16284     16292     16281     16284     16286     16287
     16281     16284     16292     16293     16281     16284     16292     16294
     16281     16284     16292     16295     16282     16281     16284     16285
     16282     16281     16284     16286     16282     16281     16284     16292
     16283     16281     16284     16285     16283     16281     16284     16286
     16283     16281     16284     16292     16284     16286     16287     16288
     16284     16286     16287     16289     16284     16292     16295     16296
     16285     16284     16286     16287     16285     16284     16292     16293
     16285     16284     16292     16294     16285     16284     16292     16295
     16286     16284     16292     16293     16286     16284     16292     16294
     16286     16284     16292     16295     16286     16287     16289     16290
     16286     16287     16289     16291     16286     16287     16289     16301
     16287     16286     16284     16292     16287     16289     16301     16302
     16287     16289     16301     16303     16287     16289     16301     16304
     16288     16287     16289     16290     16288     16287     16289     16291
     16288     16287     16289     16301     16289     16301     16304     16305
     16289     16301     16304     16306     16289     16301     16304     16307
     16290     16289     16301     16302     16290     16289     16301     16303
     16290     16289     16301     16304     16291     16289     16301     16302
     16291     16289     16301     16303     16291     16289     16301     16304
     16292     16295     16296     16297     16292     16295     16296     16298
     16293     16292     16295     16296     16294     16292     16295     16296
     16295     16296     16298     16299     16295     16296     16298     16300
     16295     16296     16298     16348     16296     16298     16348     16349
     16296     16298     16348     16350     16296     16298     16348     16351
     16297     16296     16298     16299     16297     16296     16298     16300
     16297     16296     16298     16348     16298     16348     16351     16352
     16298     16348     16351     16353     16298     16348     16351     16354
     16299     16298     16348     16349     16299     16298     16348     16350
     16299     16298     16348     16351     16300     16298     16348     16349
     16300     16298     16348     16350     16300     16298     16348     16351
     16301     16304     16307     16308     16301     16304     16307     16309
     16302     16301     16304     16305     16302     16301     16304     16306
     16302     16301     16304     16307     16303     16301     16304     16305
     16303     16301     16304     16306     16303     16301     16304     16307
     16304     16307     16309     16310     16304     16307     16309     16311
     16305     16304     16307     16308     16305     16304     16307     16309
     16306     16304     16307     16308     16306     16304     16307     16309
     16307     16309     16311     16312     16307     16309     16311     16313
     16307     16309     16311     16314     16308     16307     16309     16310
     16308     16307     16309     16311     16309     16311     16314     16315
     16309     16311     16314     16316     16310     16309     16311     16312
     16310     16309     16311     16313     16310     16309     16311     16314
     16311     16314     16316     16317     16311     16314     16316     16318
     16312     16311     16314     16315     16312     16311     16314     16316
     16313     16311     16314     16315     16313     16311     16314     16316
     16314     16316     16318     16319     16314     16316     16318     16320
     16314     16316     16318     16321     16315     16314     16316     16317
     16315     16314     16316     16318     16316     16318     16321     16322
     16316     16318     16321     16323     16317     16316     16318     16319
     16317     16316     16318     16320     16317     16316     16318     16321
     16318     16321     16323     16324     16318     16321     16323     16325
     16319     16318     16321     16322     16319     16318     16321     16323
     16320     16318     16321     16322     16320     16318     16321     16323
     16321     16323     16325     16326     16321     16323     16325     16327
     16321     16323     16325     16328     16322     16321     16323     16324
     16322     16321     16323     16325     16323     16325     16328     16329
     16323     16325     16328     16330     16324     16323     16325     16326
     16324     16323     16325     16327     16324     16323     16325     16328
     16325     16328     16330     16331     16325     16328     16330     16332
     16326     16325     16328     16329     16326     16325     16328     16330
     16327     16325     16328     16329     16327     16325     16328     16330
     16328     16330     16332     16333     16328     16330     16332     16334
     16328     16330     16332     16335     16329     16328     16330     16331
     16329     16328     16330     16332     16330     16332     16335     16336
     16330     16332     16335     16337     16330     16332     16335     16338
     16331     16330     16332     16333     16331     16330     16332     16334
     16331     16330     16332     16335     16332     16335     16338     16339
     16332     16335     16338     16340     16332     16335     16338     16341
     16333     16332     16335     16336     16333     16332     16335     16337
     16333     16332     16335     16338     16334     16332     16335     16336
     16334     16332     16335     16337     16334     16332     16335     16338
     16335     16338     16341     16342     16335     16338     16341     16343
     16335     16338     16341     16344     16336     16335     16338     16339
     16336     16335     16338     16340     16336     16335     16338     16341
     16337     16335     16338     16339     16337     16335     16338     16340
     16337     16335     16338     16341     16338     16341     16344     16345
     16338     16341     16344     16346     16338     16341     16344     16347
     16339     16338     16341     16342     16339     16338     16341     16343
     16339     16338     16341     16344     16340     16338     16341     16342
     16340     16338     16341     16343     16340     16338     16341     16344
     16342     16341     16344     16345     16342     16341     16344     16346
     16342     16341     16344     16347     16343     16341     16344     16345
     16343     16341     16344     16346     16343     16341     16344     16347
     16348     16351     16354     16355     16348     16351     16354     16356
     16348     16351     16354     16357     16349     16348     16351     16352
     16349     16348     16351     16353     16349     16348     16351     16354
     16350     16348     16351     16352     16350     16348     16351     16353
     16350     16348     16351     16354     16351     16354     16357     16358
     16351     16354     16357     16359     16351     16354     16357     16360
     16352     16351     16354     16355     16352     16351     16354     16356
     16352     16351     16354     16357     16353     16351     16354     16355
     16353     16351     16354     16356     16353     16351     16354     16357
     16354     16357     16360     16361     16354     16357     16360     16362
     16354     16357     16360     16363     16355     16354     16357     16358
     16355     16354     16357     16359     16355     16354     16357     16360
     16356     16354     16357     16358     16356     16354     16357     16359
     16356     16354     16357     16360     16357     16360     16363     16364
     16357     16360     16363     16365     16357     16360     16363     16366
     16358     16357     16360     16361     16358     16357     16360     16362
     16358     16357     16360     16363     16359     16357     16360     16361
     16359     16357     16360     16362     16359     16357     16360     16363
     16360     16363     16366     16367     16360     16363     16366     16368
     16360     16363     16366     16369     16361     16360     16363     16364
     16361     16360     16363     16365     16361     16360     16363     16366
     16362     16360     16363     16364     16362     16360     16363     16365
     16362     16360     16363     16366     16363     16366     16369     16370
     16363     16366     16369     16371     16363     16366     16369     16372
     16364     16363     16366     16367     16364     16363     16366     16368
     16364     16363     16366     16369     16365     16363     16366     16367
     16365     16363     16366     16368     16365     16363     16366     16369
     16366     16369     16372     16373     16366     16369     16372     16374
     16366     16369     16372     16375     16367     16366     16369     16370
     16367     16366     16369     16371     16367     16366     16369     16372
     16368     16366     16369     16370     16368     16366     16369     16371
     16368     16366     16369     16372     16369     16372     16375     16376
     16369     16372     16375     16377     16369     16372     16375     16378
     16370     16369     16372     16373     16370     16369     16372     16374
     16370     16369     16372     16375     16371     16369     16372     16373
     16371     16369     16372     16374     16371     16369     16372     16375
     16372     16375     16378     16379     16372     16375     16378     16380
     16372     16375     16378     16381     16373     16372     16375     16376
     16373     16372     16375     16377     16373     16372     16375     16378
     16374     16372     16375     16376     16374     16372     16375     16377
     16374     16372     16375     16378     16375     16378     16381     16382
     16375     16378     16381     16383     16375     16378     16381     16384
     16376     16375     16378     16379     16376     16375     16378     16380
     16376     16375     16378     16381     16377     16375     16378     16379
     16377     16375     16378     16380     16377     16375     16378     16381
     16378     16381     16384     16385     16378     16381     16384     16386
     16378     16381     16384     16387     16379     16378     16381     16382
     16379     16378     16381     16383     16379     16378     16381     16384
     16380     16378     16381     16382     16380     16378     16381     16383
     16380     16378     16381     16384     16381     16384     16387     16388
     16381     16384     16387     16389     16381     16384     16387     16390
     16382     16381     16384     16385     16382     16381     16384     16386
     16382     16381     16384     16387     16383     16381     16384     16385
     16383     16381     16384     16386     16383     16381     16384     16387
     16384     16387     16390     16391     16384     16387     16390     16392
     16384     16387     16390     16393     16385     16384     16387     16388
     16385     16384     16387     16389     16385     16384     16387     16390
     16386     16384     16387     16388     16386     16384     16387     16389
     16386     16384     16387     16390     16387     16390     16393     16394
     16387     16390     16393     16395     16387     16390     16393     16396
     16388     16387     16390     16391     16388     16387     16390     16392
     16388     16387     16390     16393     16389     16387     16390     16391
     16389     16387     16390     16392     16389     16387     16390     16393
     16391     16390     16393     16394     16391     16390     16393     16395
     16391     16390     16393     16396     16392     16390     16393     16394
     16392     16390     16393     16395     16392     16390     16393     16396
     16397     16401     16404     16405     16397     16401     16404     16406
     16397     16401     16404     16410     16398     16397     16401     16402
     16398     16397     16401     16403     16398     16397     16401     16404
     16399     16397     16401     16402     16399     16397     16401     16403
     16399     16397     16401     16404     16400     16397     16401     16402
     16400     16397     16401     16403     16400     16397     16401     16404
     16401     16404     16410     16407     16402     16401     16404     16405
     16402     16401     16404     16406     16402     16401     16404     16410
     16403     16401     16404     16405     16403     16401     16404     16406
     16403     16401     16404     16410     16404     16410     16407     16408
     16404     16410     16407     16409     16404     16410     16407     16411
     16405     16404     16410     16407     16406     16404     16410     16407
     16407     16411     16412     16413     16407     16411     16412     16414
     16407     16411     16412     16415     16408     16407     16411     16412
     16409     16407     16411     16412     16410     16407     16411     16412
     16411     16412     16415     16416     16411     16412     16415     16417
     16411     16412     16415     16423     16412     16415     16417     16418
     16412     16415     16423     16424     16412     16415     16423     16425
     16412     16415     16423     16426     16413     16412     16415     16416
     16413     16412     16415     16417     16413     16412     16415     16423
     16414     16412     16415     16416     16414     16412     16415     16417
     16414     16412     16415     16423     16415     16417     16418     16419
     16415     16417     16418     16420     16415     16423     16426     16427
     16416     16415     16417     16418     16416     16415     16423     16424
     16416     16415     16423     16425     16416     16415     16423     16426
     16417     16415     16423     16424     16417     16415     16423     16425
     16417     16415     16423     16426     16417     16418     16420     16421
     16417     16418     16420     16422     16417     16418     16420     16432
     16418     16417     16415     16423     16418     16420     16432     16433
     16418     16420     16432     16434     16418     16420     16432     16435
     16419     16418     16420     16421     16419     16418     16420     16422
     16419     16418     16420     16432     16420     16432     16435     16436
     16420     16432     16435     16437     16420     16432     16435     16438
     16421     16420     16432     16433     16421     16420     16432     16434
     16421     16420     16432     16435     16422     16420     16432     16433
     16422     16420     16432     16434     16422     16420     16432     16435
     16423     16426     16427     16428     16423     16426     16427     16429
     16424     16423     16426     16427     16425     16423     16426     16427
     16426     16427     16429     16430     16426     16427     16429     16431
     16426     16427     16429     16479     16427     16429     16479     16480
     16427     16429     16479     16481     16427     16429     16479     16482
     16428     16427     16429     16430     16428     16427     16429     16431
     16428     16427     16429     16479     16429     16479     16482     16483
     16429     16479     16482     16484     16429     16479     16482     16485
     16430     16429     16479     16480     16430     16429     16479     16481
     16430     16429     16479     16482     16431     16429     16479     16480
     16431     16429     16479     16481     16431     16429     16479     16482
     16432     16435     16438     16439     16432     16435     16438     16440
     16433     16432     16435     16436     16433     16432     16435     16437
     16433     16432     16435     16438     16434     16432     16435     16436
     16434     16432     16435     16437     16434     16432     16435     16438
     16435     16438     16440     16441     16435     16438     16440     16442
     16436     16435     16438     16439     16436     16435     16438     16440
     16437     16435     16438     16439     16437     16435     16438     16440
     16438     16440     16442     16443     16438     16440     16442     16444
     16438     16440     16442     16445     16439     16438     16440     16441
     16439     16438     16440     16442     16440     16442     16445     16446
     16440     16442     16445     16447     16441     16440     16442     16443
     16441     16440     16442     16444     16441     16440     16442     16445
     16442     16445     16447     16448     16442     16445     16447     16449
     16443     16442     16445     16446     16443     16442     16445     16447
     16444     16442     16445     16446     16444     16442     16445     16447
     16445     16447     16449     16450     16445     16447     16449     16451
     16445     16447     16449     16452     16446     16445     16447     16448
     16446     16445     16447     16449     16447     16449     16452     16453
     16447     16449     16452     16454     16448     16447     16449     16450
     16448     16447     16449     16451     16448     16447     16449     16452
     16449     16452     16454     16455     16449     16452     16454     16456
     16450     16449     16452     16453     16450     16449     16452     16454
     16451     16449     16452     16453     16451     16449     16452     16454
     16452     16454     16456     16457     16452     16454     16456     16458
     16452     16454     16456     16459     16453     16452     16454     16455
     16453     16452     16454     16456     16454     16456     16459     16460
     16454     16456     16459     16461     16455     16454     16456     16457
     16455     16454     16456     16458     16455     16454     16456     16459
     16456     16459     16461     16462     16456     16459     16461     16463
     16457     16456     16459     16460     16457     16456     16459     16461
     16458     16456     16459     16460     16458     16456     16459     16461
     16459     16461     16463     16464     16459     16461     16463     16465
     16459     16461     16463     16466     16460     16459     16461     16462
     16460     16459     16461     16463     16461     16463     16466     16467
     16461     16463     16466     16468     16461     16463     16466     16469
     16462     16461     16463     16464     16462     16461     16463     16465
     16462     16461     16463     16466     16463     16466     16469     16470
     16463     16466     16469     16471     16463     16466     16469     16472
     16464     16463     16466     16467     16464     16463     16466     16468
     16464     16463     16466     16469     16465     16463     16466     16467
     16465     16463     16466     16468     16465     16463     16466     16469
     16466     16469     16472     16473     16466     16469     16472     16474
     16466     16469     16472     16475     16467     16466     16469     16470
     16467     16466     16469     16471     16467     16466     16469     16472
     16468     16466     16469     16470     16468     16466     16469     16471
     16468     16466     16469     16472     16469     16472     16475     16476
     16469     16472     16475     16477     16469     16472     16475     16478
     16470     16469     16472     16473     16470     16469     16472     16474
     16470     16469     16472     16475     16471     16469     16472     16473
     16471     16469     16472     16474     16471     16469     16472     16475
     16473     16472     16475     16476     16473     16472     16475     16477
     16473     16472     16475     16478     16474     16472     16475     16476
     16474     16472     16475     16477     16474     16472     16475     16478
     16479     16482     16485     16486     16479     16482     16485     16487
     16479     16482     16485     16488     16480     16479     16482     16483
     16480     16479     16482     16484     16480     16479     16482     16485
     16481     16479     16482     16483     16481     16479     16482     16484
     16481     16479     16482     16485     16482     16485     16488     16489
     16482     16485     16488     16490     16482     16485     16488     16491
     16483     16482     16485     16486     16483     16482     16485     16487
     16483     16482     16485     16488     16484     16482     16485     16486
     16484     16482     16485     16487     16484     16482     16485     16488
     16485     16488     16491     16492     16485     16488     16491     16493
     16485     16488     16491     16494     16486     16485     16488     16489
     16486     16485     16488     16490     16486     16485     16488     16491
     16487     16485     16488     16489     16487     16485     16488     16490
     16487     16485     16488     16491     16488     16491     16494     16495
     16488     16491     16494     16496     16488     16491     16494     16497
     16489     16488     16491     16492     16489     16488     16491     16493
     16489     16488     16491     16494     16490     16488     16491     16492
     16490     16488     16491     16493     16490     16488     16491     16494
     16491     16494     16497     16498     16491     16494     16497     16499
     16491     16494     16497     16500     16492     16491     16494     16495
     16492     16491     16494     16496     16492     16491     16494     16497
     16493     16491     16494     16495     16493     16491     16494     16496
     16493     16491     16494     16497     16494     16497     16500     16501
     16494     16497     16500     16502     16494     16497     16500     16503
     16495     16494     16497     16498     16495     16494     16497     16499
     16495     16494     16497     16500     16496     16494     16497     16498
     16496     16494     16497     16499     16496     16494     16497     16500
     16497     16500     16503     16504     16497     16500     16503     16505
     16497     16500     16503     16506     16498     16497     16500     16501
     16498     16497     16500     16502     16498     16497     16500     16503
     16499     16497     16500     16501     16499     16497     16500     16502
     16499     16497     16500     16503     16500     16503     16506     16507
     16500     16503     16506     16508     16500     16503     16506     16509
     16501     16500     16503     16504     16501     16500     16503     16505
     16501     16500     16503     16506     16502     16500     16503     16504
     16502     16500     16503     16505     16502     16500     16503     16506
     16503     16506     16509     16510     16503     16506     16509     16511
     16503     16506     16509     16512     16504     16503     16506     16507
     16504     16503     16506     16508     16504     16503     16506     16509
     16505     16503     16506     16507     16505     16503     16506     16508
     16505     16503     16506     16509     16506     16509     16512     16513
     16506     16509     16512     16514     16506     16509     16512     16515
     16507     16506     16509     16510     16507     16506     16509     16511
     16507     16506     16509     16512     16508     16506     16509     16510
     16508     16506     16509     16511     16508     16506     16509     16512
     16509     16512     16515     16516     16509     16512     16515     16517
     16509     16512     16515     16518     16510     16509     16512     16513
     16510     16509     16512     16514     16510     16509     16512     16515
     16511     16509     16512     16513     16511     16509     16512     16514
     16511     16509     16512     16515     16512     16515     16518     16519
     16512     16515     16518     16520     16512     16515     16518     16521
     16513     16512     16515     16516     16513     16512     16515     16517
     16513     16512     16515     16518     16514     16512     16515     16516
     16514     16512     16515     16517     16514     16512     16515     16518
     16515     16518     16521     16522     16515     16518     16521     16523
     16515     16518     16521     16524     16516     16515     16518     16519
     16516     16515     16518     16520     16516     16515     16518     16521
     16517     16515     16518     16519     16517     16515     16518     16520
     16517     16515     16518     16521     16518     16521     16524     16525
     16518     16521     16524     16526     16518     16521     16524     16527
     16519     16518     16521     16522     16519     16518     16521     16523
     16519     16518     16521     16524     16520     16518     16521     16522
     16520     16518     16521     16523     16520     16518     16521     16524
     16522     16521     16524     16525     16522     16521     16524     16526
     16522     16521     16524     16527     16523     16521     16524     16525
     16523     16521     16524     16526     16523     16521     16524     16527
      1065      1069      1071      1072      1065      1069      1071      1073
      1065      1069      1074      1075      1065      1069      1074      1076
      1065      1069      1074      1080      1066      1065      1069      1070
      1066      1065      1069      1071      1066      1065      1069      1074
      1067      1065      1069      1070      1067      1065      1069      1071
      1067      1065      1069      1074      1068      1065      1069      1070
      1068      1065      1069      1071      1068      1065      1069      1074
      1069      1074      1080      1077      1070      1069      1071      1072
      1070      1069      1071      1073      1070      1069      1074      1075
      1070      1069      1074      1076      1070      1069      1074      1080
      1071      1069      1074      1075      1071      1069      1074      1076
      1071      1069      1074      1080      1072      1071      1069      1074
      1073      1071      1069      1074      1074      1080      1077      1078
      1074      1080      1077      1079      1074      1080      1077      1081
      1075      1074      1080      1077      1076      1074      1080      1077
      1077      1081      1082      1083      1077      1081      1082      1084
      1077      1081      1082      1085      1078      1077      1081      1082
      1079      1077      1081      1082      1080      1077      1081      1082
      1081      1082      1085      1086      1081      1082      1085      1087
      1081      1082      1085      1093      1082      1085      1087      1088
      1082      1085      1093      1094      1082      1085      1093      1095
      1082      1085      1093      1096      1083      1082      1085      1086
      1083      1082      1085      1087      1083      1082      1085      1093
      1084      1082      1085      1086      1084      1082      1085      1087
      1084      1082      1085      1093      1085      1087      1088      1089
      1085      1087      1088      1090      1085      1093      1096      1097
      1086      1085      1087      1088      1086      1085      1093      1094
      1086      1085      1093      1095      1086      1085      1093      1096
      1087      1085      1093      1094      1087      1085      1093      1095
      1087      1085      1093      1096      1087      1088      1090      1091
      1087      1088      1090      1092      1087      1088      1090      1102
      1088      1087      1085      1093      1088      1090      1102      1103
      1088      1090      1102      1104      1088      1090      1102      1105
      1089      1088      1090      1091      1089      1088      1090      1092
      1089      1088      1090      1102      1090      1102      1105      1106
      1090      1102      1105      1107      1090      1102      1105      1108
      1091      1090      1102      1103      1091      1090      1102      1104
      1091      1090      1102      1105      1092      1090      1102      1103
      1092      1090      1102      1104      1092      1090      1102      1105
      1093      1096      1097      1098      1093      1096      1097      1099
      1094      1093      1096      1097      1095      1093      1096      1097
      1096      1097      1099      1100      1096      1097      1099      1101
      1096      1097      1099      1149      1097      1099      1149      1150
      1097      1099      1149      1151      1097      1099      1149      1152
      1098      1097      1099      1100      1098      1097      1099      1101
      1098      1097      1099      1149      1099      1149      1152      1153
      1099      1149      1152      1154      1099      1149      1152      1155
      1100      1099      1149      1150      1100      1099      1149      1151
      1100      1099      1149      1152      1101      1099      1149      1150
      1101      1099      1149      1151      1101      1099      1149      1152
      1102      1105      1108      1109      1102      1105      1108      1110
      1103      1102      1105      1106      1103      1102      1105      1107
      1103      1102      1105      1108      1104      1102      1105      1106
      1104      1102      1105      1107      1104      1102      1105      1108
      1105      1108      1110      1111      1105      1108      1110      1112
      1106      1105      1108      1109      1106      1105      1108      1110
      1107      1105      1108      1109      1107      1105      1108      1110
      1108      1110      1112      1113      1108      1110      1112      1114
      1108      1110      1112      1115      1109      1108      1110      1111
      1109      1108      1110      1112      1110      1112      1115      1116
      1110      1112      1115      1117      1111      1110      1112      1113
      1111      1110      1112      1114      1111      1110      1112      1115
      1112      1115      1117      1118      1112      1115      1117      1119
      1113      1112      1115      1116      1113      1112      1115      1117
      1114      1112      1115      1116      1114      1112      1115      1117
      1115      1117      1119      1120      1115      1117      1119      1121
      1115      1117      1119      1122      1116      1115      1117      1118
      1116      1115      1117      1119      1117      1119      1122      1123
      1117      1119      1122      1124      1118      1117      1119      1120
      1118      1117      1119      1121      1118      1117      1119      1122
      1119      1122      1124      1125      1119      1122      1124      1126
      1120      1119      1122      1123      1120      1119      1122      1124
      1121      1119      1122      1123      1121      1119      1122      1124
      1122      1124      1126      1127      1122      1124      1126      1128
      1122      1124      1126      1129      1123      1122      1124      1125
      1123      1122      1124      1126      1124      1126      1129      1130
      1124      1126      1129      1131      1125      1124      1126      1127
      1125      1124      1126      1128      1125      1124      1126      1129
      1126      1129      1131      1132      1126      1129      1131      1133
      1127      1126      1129      1130      1127      1126      1129      1131
      1128      1126      1129      1130      1128      1126      1129      1131
      1129      1131      1133      1134      1129      1131      1133      1135
      1129      1131      1133      1136      1130      1129      1131      1132
      1130      1129      1131      1133      1131      1133      1136      1137
      1131      1133      1136      1138      1131      1133      1136      1139
      1132      1131      1133      1134      1132      1131      1133      1135
      1132      1131      1133      1136      1133      1136      1139      1140
      1133      1136      1139      1141      1133      1136      1139      1142
      1134      1133      1136      1137      1134      1133      1136      1138
      1134      1133      1136      1139      1135      1133      1136      1137
      1135      1133      1136      1138      1135      1133      1136      1139
      1136      1139      1142      1143      1136      1139      1142      1144
      1136      1139      1142      1145      1137      1136      1139      1140
      1137      1136      1139      1141      1137      1136      1139      1142
      1138      1136      1139      1140      1138      1136      1139      1141
      1138      1136      1139      1142      1139      1142      1145      1146
      1139      1142      1145      1147      1139      1142      1145      1148
      1140      1139      1142      1143      1140      1139      1142      1144
      1140      1139      1142      1145      1141      1139      1142      1143
      1141      1139      1142      1144      1141      1139      1142      1145
      1143      1142      1145      1146      1143      1142      1145      1147
      1143      1142      1145      1148      1144      1142      1145      1146
      1144      1142      1145      1147      1144      1142      1145      1148
      1149      1152      1155      1156      1149      1152      1155      1157
      1149      1152      1155      1158      1150      1149      1152      1153
      1150      1149      1152      1154      1150      1149      1152      1155
      1151      1149      1152      1153      1151      1149      1152      1154
      1151      1149      1152      1155      1152      1155      1158      1159
      1152      1155      1158      1160      1152      1155      1158      1161
      1153      1152      1155      1156      1153      1152      1155      1157
      1153      1152      1155      1158      1154      1152      1155      1156
      1154      1152      1155      1157      1154      1152      1155      1158
      1155      1158      1161      1162      1155      1158      1161      1163
      1155      1158      1161      1164      1156      1155      1158      1159
      1156      1155      1158      1160      1156      1155      1158      1161
      1157      1155      1158      1159      1157      1155      1158      1160
      1157      1155      1158      1161      1158      1161      1164      1165
      1158      1161      1164      1166      1158      1161      1164      1167
      1159      1158      1161      1162      1159      1158      1161      1163
      1159      1158      1161      1164      1160      1158      1161      1162
      1160      1158      1161      1163      1160      1158      1161      1164
      1161      1164      1167      1168      1161      1164      1167      1169
      1161      1164      1167      1170      1162      1161      1164      1165
      1162      1161      1164      1166      1162      1161      1164      1167
      1163      1161      1164      1165      1163      1161      1164      1166
      1163      1161      1164      1167      1164      1167      1170      1171
      1164      1167      1170      1172      1164      1167      1170      1173
      1165      1164      1167      1168      1165      1164      1167      1169
      1165      1164      1167      1170      1166      1164      1167      1168
      1166      1164      1167      1169      1166      1164      1167      1170
      1167      1170      1173      1174      1167      1170      1173      1175
      1167      1170      1173      1176      1168      1167      1170      1171
      1168      1167      1170      1172      1168      1167      1170      1173
      1169      1167      1170      1171      1169      1167      1170      1172
      1169      1167      1170      1173      1170      1173      1176      1177
      1170      1173      1176      1178      1170      1173      1176      1179
      1171      1170      1173      1174      1171      1170      1173      1175
      1171      1170      1173      1176      1172      1170      1173      1174
      1172      1170      1173      1175      1172      1170      1173      1176
      1173      1176      1179      1180      1173      1176      1179      1181
      1173      1176      1179      1182      1174      1173      1176      1177
      1174      1173      1176      1178      1174      1173      1176      1179
      1175      1173      1176      1177      1175      1173      1176      1178
      1175      1173      1176      1179      1176      1179      1182      1183
      1176      1179      1182      1184      1176      1179      1182      1185
      1177      1176      1179      1180      1177      1176      1179      1181
      1177      1176      1179      1182      1178      1176      1179      1180
      1178      1176      1179      1181      1178      1176      1179      1182
      1179      1182      1185      1186      1179      1182      1185      1187
      1179      1182      1185      1188      1180      1179      1182      1183
      1180      1179      1182      1184      1180      1179      1182      1185
      1181      1179      1182      1183      1181      1179      1182      1184
      1181      1179      1182      1185      1182      1185      1188      1189
      1182      1185      1188      1190      1182      1185      1188      1191
      1183      1182      1185      1186      1183      1182      1185      1187
      1183      1182      1185      1188      1184      1182      1185      1186
      1184      1182      1185      1187      1184      1182      1185      1188
      1185      1188      1191      1192      1185      1188      1191      1193
      1185      1188      1191      1194      1186      1185      1188      1189
      1186      1185      1188      1190      1186      1185      1188      1191
      1187      1185      1188      1189      1187      1185      1188      1190
      1187      1185      1188      1191      1188      1191      1194      1195
      1188      1191      1194      1196      1188      1191      1194      1197
      1189      1188      1191      1192      1189      1188      1191      1193
      1189      1188      1191      1194      1190      1188      1191      1192
      1190      1188      1191      1193      1190      1188      1191      1194
      1192      1191      1194      1195      1192      1191      1194      1196
      1192      1191      1194      1197      1193      1191      1194      1195
      1193      1191      1194      1196      1193      1191      1194      1197
     11943     11956     11959     11960     11943     11956     11959     11961
     11943     11956     11959     11966     11944     11943     11948     11949
     11944     11943     11948     11950     11944     11943     11948     11951
     11944     11943     11952     11953     11944     11943     11952     11954
     11944     11943     11952     11955     11944     11943     11956     11957
     11944     11943     11956     11958     11944     11943     11956     11959
     11945     11944     11943     11948     11945     11944     11943     11952
     11945     11944     11943     11956     11946     11944     11943     11948
     11946     11944     11943     11952     11946     11944     11943     11956
     11947     11944     11943     11948     11947     11944     11943     11952
     11947     11944     11943     11956     11948     11943     11952     11953
     11948     11943     11952     11954     11948     11943     11952     11955
     11948     11943     11956     11957     11948     11943     11956     11958
     11948     11943     11956     11959     11949     11948     11943     11952
     11949     11948     11943     11956     11950     11948     11943     11952
     11950     11948     11943     11956     11951     11948     11943     11952
     11951     11948     11943     11956     11952     11943     11956     11957
     11952     11943     11956     11958     11952     11943     11956     11959
     11953     11952     11943     11956     11954     11952     11943     11956
     11955     11952     11943     11956     11956     11959     11966     11962
     11957     11956     11959     11960     11957     11956     11959     11961
     11957     11956     11959     11966     11958     11956     11959     11960
     11958     11956     11959     11961     11958     11956     11959     11966
     11959     11966     11962     11963     11959     11966     11962     11964
     11959     11966     11962     11965     11960     11959     11966     11962
     11961     11959     11966     11962     11962     11965     11967     11968
     11962     11965     11967     11969     11962     11965     11967     11972
     11963     11962     11965     11967     11964     11962     11965     11967
     11965     11967     11972     11970     11965     11967     11972     11973
     11965     11967     11972     11974     11966     11962     11965     11967
     11967     11972     11970     11971     11967     11972     11970     12022
     11967     11972     11974     11975     11967     11972     11974     11976
     11967     11972     11974     11978     11968     11967     11972     11970
     11968     11967     11972     11973     11968     11967     11972     11974
     11969     11967     11972     11970     11969     11967     11972     11973
     11969     11967     11972     11974     11970     11972     11974     11975
     11970     11972     11974     11976     11970     11972     11974     11978
     11970     12022     12024     12025     11970     12022     12024     12026
     11970     12022     12024     12027     11971     11970     11972     11973
     11971     11970     11972     11974     11971     11970     12022     12023
     11971     11970     12022     12024     11972     11970     12022     12023
     11972     11970     12022     12024     11972     11974     11976     11977
     11972     11974     11978     11979     11972     11974     11978     11980
     11973     11972     11970     12022     11973     11972     11974     11975
     11973     11972     11974     11976     11973     11972     11974     11978
     11974     11972     11970     12022     11974     11978     11980     11981
     11974     11978     11980     11982     11975     11974     11976     11977
     11975     11974     11978     11979     11975     11974     11978     11980
     11976     11974     11978     11979     11976     11974     11978     11980
     11977     11976     11974     11978     11978     11980     11982     11983
     11978     11980     11982     11984     11978     11980     11982     11985
     11979     11978     11980     11981     11979     11978     11980     11982
     11980     11982     11985     11986     11980     11982     11985     11987
     11980     11982     11985     11988     11981     11980     11982     11983
     11981     11980     11982     11984     11981     11980     11982     11985
     11982     11985     11988     11989     11982     11985     11988     11990
     11982     11985     11988     11991     11983     11982     11985     11986
     11983     11982     11985     11987     11983     11982     11985     11988
     11984     11982     11985     11986     11984     11982     11985     11987
     11984     11982     11985     11988     11985     11988     11991     11992
     11985     11988     11991     11993     11985     11988     11991     11994
     11986     11985     11988     11989     11986     11985     11988     11990
     11986     11985     11988     11991     11987     11985     11988     11989
     11987     11985     11988     11990     11987     11985     11988     11991
     11988     11991     11994     11995     11988     11991     11994     11996
     11988     11991     11994     11997     11989     11988     11991     11992
     11989     11988     11991     11993     11989     11988     11991     11994
     11990     11988     11991     11992     11990     11988     11991     11993
     11990     11988     11991     11994     11991     11994     11997     11998
     11991     11994     11997     11999     11991     11994     11997     12000
     11992     11991     11994     11995     11992     11991     11994     11996
     11992     11991     11994     11997     11993     11991     11994     11995
     11993     11991     11994     11996     11993     11991     11994     11997
     11994     11997     12000     12001     11994     11997     12000     12002
     11994     11997     12000     12003     11995     11994     11997     11998
     11995     11994     11997     11999     11995     11994     11997     12000
     11996     11994     11997     11998     11996     11994     11997     11999
     11996     11994     11997     12000     11997     12000     12003     12004
     11997     12000     12003     12005     11997     12000     12003     12006
     11998     11997     12000     12001     11998     11997     12000     12002
     11998     11997     12000     12003     11999     11997     12000     12001
     11999     11997     12000     12002     11999     11997     12000     12003
     12000     12003     12006     12007     12000     12003     12006     12008
     12000     12003     12006     12009     12001     12000     12003     12004
     12001     12000     12003     12005     12001     12000     12003     12006
     12002     12000     12003     12004     12002     12000     12003     12005
     12002     12000     12003     12006     12003     12006     12009     12010
     12003     12006     12009     12011     12003     12006     12009     12012
     12004     12003     12006     12007     12004     12003     12006     12008
     12004     12003     12006     12009     12005     12003     12006     12007
     12005     12003     12006     12008     12005     12003     12006     12009
     12006     12009     12012     12013     12006     12009     12012     12014
     12006     12009     12012     12015     12007     12006     12009     12010
     12007     12006     12009     12011     12007     12006     12009     12012
     12008     12006     12009     12010     12008     12006     12009     12011
     12008     12006     12009     12012     12009     12012     12015     12016
     12009     12012     12015     12017     12009     12012     12015     12018
     12010     12009     12012     12013     12010     12009     12012     12014
     12010     12009     12012     12015     12011     12009     12012     12013
     12011     12009     12012     12014     12011     12009     12012     12015
     12012     12015     12018     12019     12012     12015     12018     12020
     12012     12015     12018     12021     12013     12012     12015     12016
     12013     12012     12015     12017     12013     12012     12015     12018
     12014     12012     12015     12016     12014     12012     12015     12017
     12014     12012     12015     12018     12016     12015     12018     12019
     12016     12015     12018     12020     12016     12015     12018     12021
     12017     12015     12018     12019     12017     12015     12018     12020
     12017     12015     12018     12021     12022     12024     12027     12028
     12022     12024     12027     12029     12022     12024     12027     12030
     12023     12022     12024     12025     12023     12022     12024     12026
     12023     12022     12024     12027     12024     12027     12030     12031
     12024     12027     12030     12032     12024     12027     12030     12033
     12025     12024     12027     12028     12025     12024     12027     12029
     12025     12024     12027     12030     12026     12024     12027     12028
     12026     12024     12027     12029     12026     12024     12027     12030
     12027     12030     12033     12034     12027     12030     12033     12035
     12027     12030     12033     12036     12028     12027     12030     12031
     12028     12027     12030     12032     12028     12027     12030     12033
     12029     12027     12030     12031     12029     12027     12030     12032
     12029     12027     12030     12033     12030     12033     12036     12037
     12030     12033     12036     12038     12030     12033     12036     12039
     12031     12030     12033     12034     12031     12030     12033     12035
     12031     12030     12033     12036     12032     12030     12033     12034
     12032     12030     12033     12035     12032     12030     12033     12036
     12033     12036     12039     12040     12033     12036     12039     12041
     12033     12036     12039     12042     12034     12033     12036     12037
     12034     12033     12036     12038     12034     12033     12036     12039
     12035     12033     12036     12037     12035     12033     12036     12038
     12035     12033     12036     12039     12036     12039     12042     12043
     12036     12039     12042     12044     12036     12039     12042     12045
     12037     12036     12039     12040     12037     12036     12039     12041
     12037     12036     12039     12042     12038     12036     12039     12040
     12038     12036     12039     12041     12038     12036     12039     12042
     12039     12042     12045     12046     12039     12042     12045     12047
     12040     12039     12042     12043     12040     12039     12042     12044
     12040     12039     12042     12045     12041     12039     12042     12043
     12041     12039     12042     12044     12041     12039     12042     12045
     12042     12045     12047     12048     12042     12045     12047     12049
     12043     12042     12045     12046     12043     12042     12045     12047
     12044     12042     12045     12046     12044     12042     12045     12047
     12045     12047     12049     12050     12045     12047     12049     12051
     12045     12047     12049     12052     12046     12045     12047     12048
     12046     12045     12047     12049     12047     12049     12052     12053
     12047     12049     12052     12054     12047     12049     12052     12055
     12048     12047     12049     12050     12048     12047     12049     12051
     12048     12047     12049     12052     12049     12052     12055     12056
     12049     12052     12055     12057     12049     12052     12055     12058
     12050     12049     12052     12053     12050     12049     12052     12054
     12050     12049     12052     12055     12051     12049     12052     12053
     12051     12049     12052     12054     12051     12049     12052     12055
     12052     12055     12058     12059     12052     12055     12058     12060
     12052     12055     12058     12061     12053     12052     12055     12056
     12053     12052     12055     12057     12053     12052     12055     12058
     12054     12052     12055     12056     12054     12052     12055     12057
     12054     12052     12055     12058     12055     12058     12061     12062
     12055     12058     12061     12063     12055     12058     12061     12064
     12056     12055     12058     12059     12056     12055     12058     12060
     12056     12055     12058     12061     12057     12055     12058     12059
     12057     12055     12058     12060     12057     12055     12058     12061
     12058     12061     12064     12065     12058     12061     12064     12066
     12058     12061     12064     12067     12059     12058     12061     12062
     12059     12058     12061     12063     12059     12058     12061     12064
     12060     12058     12061     12062     12060     12058     12061     12063
     12060     12058     12061     12064     12061     12064     12067     12068
     12061     12064     12067     12069     12061     12064     12067     12070
     12062     12061     12064     12065     12062     12061     12064     12066
     12062     12061     12064     12067     12063     12061     12064     12065
     12063     12061     12064     12066     12063     12061     12064     12067
     12064     12067     12070     12071     12064     12067     12070     12072
     12064     12067     12070     12073     12065     12064     12067     12068
     12065     12064     12067     12069     12065     12064     12067     12070
     12066     12064     12067     12068     12066     12064     12067     12069
     12066     12064     12067     12070     12068     12067     12070     12071
     12068     12067     12070     12072     12068     12067     12070     12073
     12069     12067     12070     12071     12069     12067     12070     12072
     12069     12067     12070     12073      4905      4906      4921      4922
      4905      4906      4921      4923      4905      4906      4921      4927
      4906      4905      4909      4910      4906      4905      4909      4911
      4906      4905      4909      4912      4906      4905      4913      4914
      4906      4905      4913      4915      4906      4905      4913      4916
      4906      4905      4917      4918      4906      4905      4917      4919
      4906      4905      4917      4920      4906      4921      4927      4924
      4907      4906      4905      4909      4907      4906      4905      4913
      4907      4906      4905      4917      4907      4906      4921      4922
      4907      4906      4921      4923      4907      4906      4921      4927
      4908      4906      4905      4909      4908      4906      4905      4913
      4908      4906      4905      4917      4908      4906      4921      4922
      4908      4906      4921      4923      4908      4906      4921      4927
      4909      4905      4906      4921      4909      4905      4913      4914
      4909      4905      4913      4915      4909      4905      4913      4916
      4909      4905      4917      4918      4909      4905      4917      4919
      4909      4905      4917      4920      4910      4909      4905      4913
      4910      4909      4905      4917      4911      4909      4905      4913
      4911      4909      4905      4917      4912      4909      4905      4913
      4912      4909      4905      4917      4913      4905      4906      4921
      4913      4905      4917      4918      4913      4905      4917      4919
      4913      4905      4917      4920      4914      4913      4905      4917
      4915      4913      4905      4917      4916      4913      4905      4917
      4917      4905      4906      4921      4921      4927      4924      4925
      4921      4927      4924      4926      4921      4927      4924      4928
      4922      4921      4927      4924      4923      4921      4927      4924
      4924      4928      4929      4930      4924      4928      4929      4931
      4924      4928      4929      4932      4925      4924      4928      4929
      4926      4924      4928      4929      4927      4924      4928      4929
      4928      4929      4932      4933      4928      4929      4932      4934
      4928      4929      4932      4940      4929      4932      4934      4935
      4929      4932      4940      4941      4929      4932      4940      4942
      4929      4932      4940      4943      4930      4929      4932      4933
      4930      4929      4932      4934      4930      4929      4932      4940
      4931      4929      4932      4933      4931      4929      4932      4934
      4931      4929      4932      4940      4932      4934      4935      4936
      4932      4934      4935      4937      4932      4940      4943      4944
      4933      4932      4934      4935      4933      4932      4940      4941
      4933      4932      4940      4942      4933      4932      4940      4943
      4934      4932      4940      4941      4934      4932      4940      4942
      4934      4932      4940      4943      4934      4935      4937      4938
      4934      4935      4937      4939      4934      4935      4937      4949
      4935      4934      4932      4940      4935      4937      4949      4950
      4935      4937      4949      4951      4935      4937      4949      4952
      4936      4935      4937      4938      4936      4935      4937      4939
      4936      4935      4937      4949      4937      4949      4952      4953
      4937      4949      4952      4954      4937      4949      4952      4955
      4938      4937      4949      4950      4938      4937      4949      4951
      4938      4937      4949      4952      4939      4937      4949      4950
      4939      4937      4949      4951      4939      4937      4949      4952
      4940      4943      4944      4945      4940      4943      4944      4946
      4941      4940      4943      4944      4942      4940      4943      4944
      4943      4944      4946      4947      4943      4944      4946      4948
      4943      4944      4946      4996      4944      4946      4996      4997
      4944      4946      4996      4998      4944      4946      4996      4999
      4945      4944      4946      4947      4945      4944      4946      4948
      4945      4944      4946      4996      4946      4996      4999      5000
      4946      4996      4999      5001      4946      4996      4999      5002
      4947      4946      4996      4997      4947      4946      4996      4998
      4947      4946      4996      4999      4948      4946      4996      4997
      4948      4946      4996      4998      4948      4946      4996      4999
      4949      4952      4955      4956      4949      4952      4955      4957
      4949      4952      4955      4958      4950      4949      4952      4953
      4950      4949      4952      4954      4950      4949      4952      4955
      4951      4949      4952      4953      4951      4949      4952      4954
      4951      4949      4952      4955      4952      4955      4958      4959
      4952      4955      4958      4960      4952      4955      4958      4961
      4953      4952      4955      4956      4953      4952      4955      4957
      4953      4952      4955      4958      4954      4952      4955      4956
      4954      4952      4955      4957      4954      4952      4955      4958
      4955      4958      4961      4962      4955      4958      4961      4963
      4955      4958      4961      4964      4956      4955      4958      4959
      4956      4955      4958      4960      4956      4955      4958      4961
      4957      4955      4958      4959      4957      4955      4958      4960
      4957      4955      4958      4961      4958      4961      4964      4965
      4958      4961      4964      4966      4958      4961      4964      4967
      4959      4958      4961      4962      4959      4958      4961      4963
      4959      4958      4961      4964      4960      4958      4961      4962
      4960      4958      4961      4963      4960      4958      4961      4964
      4961      4964      4967      4968      4961      4964      4967      4969
      4962      4961      4964      4965      4962      4961      4964      4966
      4962      4961      4964      4967      4963      4961      4964      4965
      4963      4961      4964      4966      4963      4961      4964      4967
      4964      4967      4969      4970      4964      4967      4969      4971
      4965      4964      4967      4968      4965      4964      4967      4969
      4966      4964      4967      4968      4966      4964      4967      4969
      4967      4969      4971      4972      4967      4969      4971      4973
      4967      4969      4971      4974      4968      4967      4969      4970
      4968      4967      4969      4971      4969      4971      4974      4975
      4969      4971      4974      4976      4969      4971      4974      4977
      4970      4969      4971      4972      4970      4969      4971      4973
      4970      4969      4971      4974      4971      4974      4977      4978
      4971      4974      4977      4979      4971      4974      4977      4980
      4972      4971      4974      4975      4972      4971      4974      4976
      4972      4971      4974      4977      4973      4971      4974      4975
      4973      4971      4974      4976      4973      4971      4974      4977
      4974      4977      4980      4981      4974      4977      4980      4982
      4974      4977      4980      4983      4975      4974      4977      4978
      4975      4974      4977      4979      4975      4974      4977      4980
      4976      4974      4977      4978      4976      4974      4977      4979
      4976      4974      4977      4980      4977      4980      4983      4984
      4977      4980      4983      4985      4977      4980      4983      4986
      4978      4977      4980      4981      4978      4977      4980      4982
      4978      4977      4980      4983      4979      4977      4980      4981
      4979      4977      4980      4982      4979      4977      4980      4983
      4980      4983      4986      4987      4980      4983      4986      4988
      4980      4983      4986      4989      4981      4980      4983      4984
      4981      4980      4983      4985      4981      4980      4983      4986
      4982      4980      4983      4984      4982      4980      4983      4985
      4982      4980      4983      4986      4983      4986      4989      4990
      4983      4986      4989      4991      4983      4986      4989      4992
      4984      4983      4986      4987      4984      4983      4986      4988
      4984      4983      4986      4989      4985      4983      4986      4987
      4985      4983      4986      4988      4985      4983      4986      4989
      4986      4989      4992      4993      4986      4989      4992      4994
      4986      4989      4992      4995      4987      4986      4989      4990
      4987      4986      4989      4991      4987      4986      4989      4992
      4988      4986      4989      4990      4988      4986      4989      4991
      4988      4986      4989      4992      4990      4989      4992      4993
      4990      4989      4992      4994      4990      4989      4992      4995
      4991      4989      4992      4993      4991      4989      4992      4994
      4991      4989      4992      4995      4996      4999      5002      5003
      4996      4999      5002      5004      4996      4999      5002      5005
      4997      4996      4999      5000      4997      4996      4999      5001
      4997      4996      4999      5002      4998      4996      4999      5000
      4998      4996      4999      5001      4998      4996      4999      5002
      4999      5002      5005      5006      4999      5002      5005      5007
      4999      5002      5005      5008      5000      4999      5002      5003
      5000      4999      5002      5004      5000      4999      5002      5005
      5001      4999      5002      5003      5001      4999      5002      5004
      5001      4999      5002      5005      5002      5005      5008      5009
      5002      5005      5008      5010      5002      5005      5008      5011
      5003      5002      5005      5006      5003      5002      5005      5007
      5003      5002      5005      5008      5004      5002      5005      5006
      5004      5002      5005      5007      5004      5002      5005      5008
      5005      5008      5011      5012      5005      5008      5011      5013
      5005      5008      5011      5014      5006      5005      5008      5009
      5006      5005      5008      5010      5006      5005      5008      5011
      5007      5005      5008      5009      5007      5005      5008      5010
      5007      5005      5008      5011      5008      5011      5014      5015
      5008      5011      5014      5016      5008      5011      5014      5017
      5009      5008      5011      5012      5009      5008      5011      5013
      5009      5008      5011      5014      5010      5008      5011      5012
      5010      5008      5011      5013      5010      5008      5011      5014
      5011      5014      5017      5018      5011      5014      5017      5019
      5011      5014      5017      5020      5012      5011      5014      5015
      5012      5011      5014      5016      5012      5011      5014      5017
      5013      5011      5014      5015      5013      5011      5014      5016
      5013      5011      5014      5017      5014      5017      5020      5021
      5014      5017      5020      5022      5014      5017      5020      5023
      5015      5014      5017      5018      5015      5014      5017      5019
      5015      5014      5017      5020      5016      5014      5017      5018
      5016      5014      5017      5019      5016      5014      5017      5020
      5017      5020      5023      5024      5017      5020      5023      5025
      5017      5020      5023      5026      5018      5017      5020      5021
      5018      5017      5020      5022      5018      5017      5020      5023
      5019      5017      5020      5021      5019      5017      5020      5022
      5019      5017      5020      5023      5020      5023      5026      5027
      5020      5023      5026      5028      5020      5023      5026      5029
      5021      5020      5023      5024      5021      5020      5023      5025
      5021      5020      5023      5026      5022      5020      5023      5024
      5022      5020      5023      5025      5022      5020      5023      5026
      5023      5026      5029      5030      5023      5026      5029      5031
      5023      5026      5029      5032      5024      5023      5026      5027
      5024      5023      5026      5028      5024      5023      5026      5029
      5025      5023      5026      5027      5025      5023      5026      5028
      5025      5023      5026      5029      5026      5029      5032      5033
      5026      5029      5032      5034      5026      5029      5032      5035
      5027      5026      5029      5030      5027      5026      5029      5031
      5027      5026      5029      5032      5028      5026      5029      5030
      5028      5026      5029      5031      5028      5026      5029      5032
      5029      5032      5035      5036      5029      5032      5035      5037
      5029      5032      5035      5038      5030      5029      5032      5033
      5030      5029      5032      5034      5030      5029      5032      5035
      5031      5029      5032      5033      5031      5029      5032      5034
      5031      5029      5032      5035      5033      5032      5035      5036
      5033      5032      5035      5037      5033      5032      5035      5038
      5034      5032      5035      5036      5034      5032      5035      5037
      5034      5032      5035      5038      3249      3250      3265      3266
      3249      3250      3265      3267      3249      3250      3265      3271
      3250      3249      3253      3254      3250      3249      3253      3255
      3250      3249      3253      3256      3250      3249      3257      3258
      3250      3249      3257      3259      3250      3249      3257      3260
      3250      3249      3261      3262      3250      3249      3261      3263
      3250      3249      3261      3264      3250      3265      3271      3268
      3251      3250      3249      3253      3251      3250      3249      3257
      3251      3250      3249      3261      3251      3250      3265      3266
      3251      3250      3265      3267      3251      3250      3265      3271
      3252      3250      3249      3253      3252      3250      3249      3257
      3252      3250      3249      3261      3252      3250      3265      3266
      3252      3250      3265      3267      3252      3250      3265      3271
      3253      3249      3250      3265      3253      3249      3257      3258
      3253      3249      3257      3259      3253      3249      3257      3260
      3253      3249      3261      3262      3253      3249      3261      3263
      3253      3249      3261      3264      3254      3253      3249      3257
      3254      3253      3249      3261      3255      3253      3249      3257
      3255      3253      3249      3261      3256      3253      3249      3257
      3256      3253      3249      3261      3257      3249      3250      3265
      3257      3249      3261      3262      3257      3249      3261      3263
      3257      3249      3261      3264      3258      3257      3249      3261
      3259      3257      3249      3261      3260      3257      3249      3261
      3261      3249      3250      3265      3265      3271      3268      3269
      3265      3271      3268      3270      3265      3271      3268      3272
      3266      3265      3271      3268      3267      3265      3271      3268
      3268      3272      3273      3274      3268      3272      3273      3275
      3268      3272      3273      3276      3269      3268      3272      3273
      3270      3268      3272      3273      3271      3268      3272      3273
      3272      3273      3276      3277      3272      3273      3276      3278
      3272      3273      3276      3284      3273      3276      3278      3279
      3273      3276      3284      3285      3273      3276      3284      3286
      3273      3276      3284      3287      3274      3273      3276      3277
      3274      3273      3276      3278      3274      3273      3276      3284
      3275      3273      3276      3277      3275      3273      3276      3278
      3275      3273      3276      3284      3276      3278      3279      3280
      3276      3278      3279      3281      3276      3284      3287      3288
      3277      3276      3278      3279      3277      3276      3284      3285
      3277      3276      3284      3286      3277      3276      3284      3287
      3278      3276      3284      3285      3278      3276      3284      3286
      3278      3276      3284      3287      3278      3279      3281      3282
      3278      3279      3281      3283      3278      3279      3281      3293
      3279      3278      3276      3284      3279      3281      3293      3294
      3279      3281      3293      3295      3279      3281      3293      3296
      3280      3279      3281      3282      3280      3279      3281      3283
      3280      3279      3281      3293      3281      3293      3296      3297
      3281      3293      3296      3298      3281      3293      3296      3299
      3282      3281      3293      3294      3282      3281      3293      3295
      3282      3281      3293      3296      3283      3281      3293      3294
      3283      3281      3293      3295      3283      3281      3293      3296
      3284      3287      3288      3289      3284      3287      3288      3290
      3285      3284      3287      3288      3286      3284      3287      3288
      3287      3288      3290      3291      3287      3288      3290      3292
      3287      3288      3290      3340      3288      3290      3340      3341
      3288      3290      3340      3342      3288      3290      3340      3343
      3289      3288      3290      3291      3289      3288      3290      3292
      3289      3288      3290      3340      3290      3340      3343      3344
      3290      3340      3343      3345      3290      3340      3343      3346
      3291      3290      3340      3341      3291      3290      3340      3342
      3291      3290      3340      3343      3292      3290      3340      3341
      3292      3290      3340      3342      3292      3290      3340      3343
      3293      3296      3299      3300      3293      3296      3299      3301
      3294      3293      3296      3297      3294      3293      3296      3298
      3294      3293      3296      3299      3295      3293      3296      3297
      3295      3293      3296      3298      3295      3293      3296      3299
      3296      3299      3301      3302      3296      3299      3301      3303
      3297      3296      3299      3300      3297      3296      3299      3301
      3298      3296      3299      3300      3298      3296      3299      3301
      3299      3301      3303      3304      3299      3301      3303      3305
      3299      3301      3303      3306      3300      3299      3301      3302
      3300      3299      3301      3303      3301      3303      3306      3307
      3301      3303      3306      3308      3302      3301      3303      3304
      3302      3301      3303      3305      3302      3301      3303      3306
      3303      3306      3308      3309      3303      3306      3308      3310
      3304      3303      3306      3307      3304      3303      3306      3308
      3305      3303      3306      3307      3305      3303      3306      3308
      3306      3308      3310      3311      3306      3308      3310      3312
      3306      3308      3310      3313      3307      3306      3308      3309
      3307      3306      3308      3310      3308      3310      3313      3314
      3308      3310      3313      3315      3309      3308      3310      3311
      3309      3308      3310      3312      3309      3308      3310      3313
      3310      3313      3315      3316      3310      3313      3315      3317
      3311      3310      3313      3314      3311      3310      3313      3315
      3312      3310      3313      3314      3312      3310      3313      3315
      3313      3315      3317      3318      3313      3315      3317      3319
      3313      3315      3317      3320      3314      3313      3315      3316
      3314      3313      3315      3317      3315      3317      3320      3321
      3315      3317      3320      3322      3316      3315      3317      3318
      3316      3315      3317      3319      3316      3315      3317      3320
      3317      3320      3322      3323      3317      3320      3322      3324
      3318      3317      3320      3321      3318      3317      3320      3322
      3319      3317      3320      3321      3319      3317      3320      3322
      3320      3322      3324      3325      3320      3322      3324      3326
      3320      3322      3324      3327      3321      3320      3322      3323
      3321      3320      3322      3324      3322      3324      3327      3328
      3322      3324      3327      3329      3322      3324      3327      3330
      3323      3322      3324      3325      3323      3322      3324      3326
      3323      3322      3324      3327      3324      3327      3330      3331
      3324      3327      3330      3332      3324      3327      3330      3333
      3325      3324      3327      3328      3325      3324      3327      3329
      3325      3324      3327      3330      3326      3324      3327      3328
      3326      3324      3327      3329      3326      3324      3327      3330
      3327      3330      3333      3334      3327      3330      3333      3335
      3327      3330      3333      3336      3328      3327      3330      3331
      3328      3327      3330      3332      3328      3327      3330      3333
      3329      3327      3330      3331      3329      3327      3330      3332
      3329      3327      3330      3333      3330      3333      3336      3337
      3330      3333      3336      3338      3330      3333      3336      3339
      3331      3330      3333      3334      3331      3330      3333      3335
      3331      3330      3333      3336      3332      3330      3333      3334
      3332      3330      3333      3335      3332      3330      3333      3336
      3334      3333      3336      3337      3334      3333      3336      3338
      3334      3333      3336      3339      3335      3333      3336      3337
      3335      3333      3336      3338      3335      3333      3336      3339
      3340      3343      3346      3347      3340      3343      3346      3348
      3340      3343      3346      3349      3341      3340      3343      3344
      3341      3340      3343      3345      3341      3340      3343      3346
      3342      3340      3343      3344      3342      3340      3343      3345
      3342      3340      3343      3346      3343      3346      3349      3350
      3343      3346      3349      3351      3343      3346      3349      3352
      3344      3343      3346      3347      3344      3343      3346      3348
      3344      3343      3346      3349      3345      3343      3346      3347
      3345      3343      3346      3348      3345      3343      3346      3349
      3346      3349      3352      3353      3346      3349      3352      3354
      3346      3349      3352      3355      3347      3346      3349      3350
      3347      3346      3349      3351      3347      3346      3349      3352
      3348      3346      3349      3350      3348      3346      3349      3351
      3348      3346      3349      3352      3349      3352      3355      3356
      3349      3352      3355      3357      3349      3352      3355      3358
      3350      3349      3352      3353      3350      3349      3352      3354
      3350      3349      3352      3355      3351      3349      3352      3353
      3351      3349      3352      3354      3351      3349      3352      3355
      3352      3355      3358      3359      3352      3355      3358      3360
      3352      3355      3358      3361      3353      3352      3355      3356
      3353      3352      3355      3357      3353      3352      3355      3358
      3354      3352      3355      3356      3354      3352      3355      3357
      3354      3352      3355      3358      3355      3358      3361      3362
      3355      3358      3361      3363      3355      3358      3361      3364
      3356      3355      3358      3359      3356      3355      3358      3360
      3356      3355      3358      3361      3357      3355      3358      3359
      3357      3355      3358      3360      3357      3355      3358      3361
      3358      3361      3364      3365      3358      3361      3364      3366
      3358      3361      3364      3367      3359      3358      3361      3362
      3359      3358      3361      3363      3359      3358      3361      3364
      3360      3358      3361      3362      3360      3358      3361      3363
      3360      3358      3361      3364      3361      3364      3367      3368
      3361      3364      3367      3369      3361      3364      3367      3370
      3362      3361      3364      3365      3362      3361      3364      3366
      3362      3361      3364      3367      3363      3361      3364      3365
      3363      3361      3364      3366      3363      3361      3364      3367
      3364      3367      3370      3371      3364      3367      3370      3372
      3364      3367      3370      3373      3365      3364      3367      3368
      3365      3364      3367      3369      3365      3364      3367      3370
      3366      3364      3367      3368      3366      3364      3367      3369
      3366      3364      3367      3370      3367      3370      3373      3374
      3367      3370      3373      3375      3367      3370      3373      3376
      3368      3367      3370      3371      3368      3367      3370      3372
      3368      3367      3370      3373      3369      3367      3370      3371
      3369      3367      3370      3372      3369      3367      3370      3373
      3370      3373      3376      3377      3370      3373      3376      3378
      3370      3373      3376      3379      3371      3370      3373      3374
      3371      3370      3373      3375      3371      3370      3373      3376
      3372      3370      3373      3374      3372      3370      3373      3375
      3372      3370      3373      3376      3373      3376      3379      3380
      3373      3376      3379      3381      3373      3376      3379      3382
      3374      3373      3376      3377      3374      3373      3376      3378
      3374      3373      3376      3379      3375      3373      3376      3377
      3375      3373      3376      3378      3375      3373      3376      3379
      3376      3379      3382      3383      3376      3379      3382      3384
      3376      3379      3382      3385      3377      3376      3379      3380
      3377      3376      3379      3381      3377      3376      3379      3382
      3378      3376      3379      3380      3378      3376      3379      3381
      3378      3376      3379      3382      3379      3382      3385      3386
      3379      3382      3385      3387      3379      3382      3385      3388
      3380      3379      3382      3383      3380      3379      3382      3384
      3380      3379      3382      3385      3381      3379      3382      3383
      3381      3379      3382      3384      3381      3379      3382      3385
      3383      3382      3385      3386      3383      3382      3385      3387
      3383      3382      3385      3388      3384      3382      3385      3386
      3384      3382      3385      3387      3384      3382      3385      3388
      7513      7517      7520      7521      7513      7517      7520      7551
      7513      7559      7556      7551      7513      7559      7556      7557
      7513      7559      7556      7558      7514      7513      7515      7516
      7514      7513      7517      7518      7514      7513      7517      7519
      7514      7513      7517      7520      7514      7513      7559      7556
      7514      7513      7559      7560      7514      7513      7559      7561
      7515      7513      7517      7518      7515      7513      7517      7519
      7515      7513      7517      7520      7515      7513      7559      7556
      7515      7513      7559      7560      7515      7513      7559      7561
      7516      7515      7513      7517      7516      7515      7513      7559
      7517      7513      7559      7556      7517      7513      7559      7560
      7517      7513      7559      7561      7517      7520      7521      7522
      7517      7520      7521      7523      7517      7520      7551      7549
      7517      7520      7551      7552      7517      7520      7551      7556
      7518      7517      7513      7559      7518      7517      7520      7521
      7518      7517      7520      7551      7519      7517      7513      7559
      7519      7517      7520      7521      7519      7517      7520      7551
      7520      7517      7513      7559      7520      7521      7523      7524
      7520      7521      7523      7525      7520      7521      7523      7526
      7520      7551      7549      7526      7520      7551      7549      7546
      7520      7551      7549      7550      7520      7551      7552      7553
      7520      7551      7552      7554      7520      7551      7552      7555
      7520      7551      7556      7557      7520      7551      7556      7558
      7520      7551      7556      7559      7521      7520      7551      7549
      7521      7520      7551      7552      7521      7520      7551      7556
      7521      7523      7526      7527      7521      7523      7526      7528
      7521      7523      7526      7549      7522      7521      7520      7551
      7522      7521      7523      7524      7522      7521      7523      7525
      7522      7521      7523      7526      7523      7521      7520      7551
      7523      7526      7528      7529      7523      7526      7528      7530
      7523      7526      7528      7538      7523      7526      7549      7546
      7523      7526      7549      7550      7523      7526      7549      7551
      7524      7523      7526      7527      7524      7523      7526      7528
      7524      7523      7526      7549      7525      7523      7526      7527
      7525      7523      7526      7528      7525      7523      7526      7549
      7526      7528      7530      7531      7526      7528      7530      7532
      7526      7528      7530      7533      7526      7528      7538      7536
      7526      7528      7538      7539      7526      7528      7538      7543
      7526      7549      7546      7543      7526      7549      7546      7547
      7526      7549      7546      7548      7526      7549      7551      7552
      7526      7549      7551      7556      7527      7526      7528      7529
      7527      7526      7528      7530      7527      7526      7528      7538
      7527      7526      7549      7546      7527      7526      7549      7550
      7527      7526      7549      7551      7528      7526      7549      7546
      7528      7526      7549      7550      7528      7526      7549      7551
      7528      7530      7533      7534      7528      7530      7533      7535
      7528      7530      7533      7536      7528      7538      7536      7533
      7528      7538      7536      7537      7528      7538      7536      7562
      7528      7538      7539      7540      7528      7538      7539      7541
      7528      7538      7539      7542      7528      7538      7543      7544
      7528      7538      7543      7545      7528      7538      7543      7546
      7529      7528      7526      7549      7529      7528      7530      7531
      7529      7528      7530      7532      7529      7528      7530      7533
      7529      7528      7538      7536      7529      7528      7538      7539
      7529      7528      7538      7543      7530      7528      7526      7549
      7530      7528      7538      7536      7530      7528      7538      7539
      7530      7528      7538      7543      7530      7533      7536      7537
      7530      7533      7536      7538      7530      7533      7536      7562
      7531      7530      7528      7538      7531      7530      7533      7534
      7531      7530      7533      7535      7531      7530      7533      7536
      7532      7530      7528      7538      7532      7530      7533      7534
      7532      7530      7533      7535      7532      7530      7533      7536
      7533      7530      7528      7538      7533      7536      7538      7539
      7533      7536      7538      7543      7533      7536      7562      7563
      7533      7536      7562      7564      7533      7536      7562      7568
      7534      7533      7536      7537      7534      7533      7536      7538
      7534      7533      7536      7562      7535      7533      7536      7537
      7535      7533      7536      7538      7535      7533      7536      7562
      7536      7538      7539      7540      7536      7538      7539      7541
      7536      7538      7539      7542      7536      7538      7543      7544
      7536      7538      7543      7545      7536      7538      7543      7546
      7536      7562      7564      7565      7536      7562      7564      7566
      7536      7562      7564      7567      7536      7562      7568      7569
      7536      7562      7568      7570      7536      7562      7568      7571
      7537      7536      7538      7539      7537      7536      7538      7543
      7537      7536      7562      7563      7537      7536      7562      7564
      7537      7536      7562      7568      7538      7528      7526      7549
      7538      7536      7562      7563      7538      7536      7562      7564
      7538      7536      7562      7568      7538      7543      7546      7547
      7538      7543      7546      7548      7538      7543      7546      7549
      7539      7538      7536      7562      7539      7538      7543      7544
      7539      7538      7543      7545      7539      7538      7543      7546
      7540      7539      7538      7543      7541      7539      7538      7543
      7542      7539      7538      7543      7543      7538      7536      7562
      7543      7546      7549      7550      7543      7546      7549      7551
      7544      7543      7546      7547      7544      7543      7546      7548
      7544      7543      7546      7549      7545      7543      7546      7547
      7545      7543      7546      7548      7545      7543      7546      7549
      7546      7549      7551      7552      7546      7549      7551      7556
      7547      7546      7549      7550      7547      7546      7549      7551
      7548      7546      7549      7550      7548      7546      7549      7551
      7549      7551      7552      7553      7549      7551      7552      7554
      7549      7551      7552      7555      7549      7551      7556      7557
      7549      7551      7556      7558      7549      7551      7556      7559
      7550      7549      7551      7552      7550      7549      7551      7556
      7551      7556      7559      7560      7551      7556      7559      7561
      7552      7551      7556      7557      7552      7551      7556      7558
      7552      7551      7556      7559      7553      7552      7551      7556
      7554      7552      7551      7556      7555      7552      7551      7556
      7557      7556      7559      7560      7557      7556      7559      7561
      7558      7556      7559      7560      7558      7556      7559      7561
      7562      7568      7571      7572      7562      7568      7571      7573
      7562      7568      7571      7574      7563      7562      7564      7565
      7563      7562      7564      7566      7563      7562      7564      7567
      7563      7562      7568      7569      7563      7562      7568      7570
      7563      7562      7568      7571      7564      7562      7568      7569
      7564      7562      7568      7570      7564      7562      7568      7571
      7565      7564      7562      7568      7566      7564      7562      7568
      7567      7564      7562      7568      7568      7571      7574      7575
      7568      7571      7574      7576      7568      7571      7574      7577
      7569      7568      7571      7572      7569      7568      7571      7573
      7569      7568      7571      7574      7570      7568      7571      7572
      7570      7568      7571      7573      7570      7568      7571      7574
      7571      7574      7577      7578      7571      7574      7577      7579
      7571      7574      7577      7583      7572      7571      7574      7575
      7572      7571      7574      7576      7572      7571      7574      7577
      7573      7571      7574      7575      7573      7571      7574      7576
      7573      7571      7574      7577      7574      7577      7579      7580
      7574      7577      7579      7581      7574      7577      7579      7582
      7574      7577      7583      7584      7574      7577      7583      7585
      7574      7577      7583      7586      7575      7574      7577      7578
      7575      7574      7577      7579      7575      7574      7577      7583
      7576      7574      7577      7578      7576      7574      7577      7579
      7576      7574      7577      7583      7578      7577      7579      7580
      7578      7577      7579      7581      7578      7577      7579      7582
      7578      7577      7583      7584      7578      7577      7583      7585
      7578      7577      7583      7586      7579      7577      7583      7584
      7579      7577      7583      7585      7579      7577      7583      7586
      7580      7579      7577      7583      7581      7579      7577      7583
      7582      7579      7577      7583      7587      7591      7594      7595
      7587      7591      7594      7625      7587      7633      7630      7625
      7587      7633      7630      7631      7587      7633      7630      7632
      7588      7587      7589      7590      7588      7587      7591      7592
      7588      7587      7591      7593      7588      7587      7591      7594
      7588      7587      7633      7630      7588      7587      7633      7634
      7588      7587      7633      7635      7589      7587      7591      7592
      7589      7587      7591      7593      7589      7587      7591      7594
      7589      7587      7633      7630      7589      7587      7633      7634
      7589      7587      7633      7635      7590      7589      7587      7591
      7590      7589      7587      7633      7591      7587      7633      7630
      7591      7587      7633      7634      7591      7587      7633      7635
      7591      7594      7595      7596      7591      7594      7595      7597
      7591      7594      7625      7623      7591      7594      7625      7626
      7591      7594      7625      7630      7592      7591      7587      7633
      7592      7591      7594      7595      7592      7591      7594      7625
      7593      7591      7587      7633      7593      7591      7594      7595
      7593      7591      7594      7625      7594      7591      7587      7633
      7594      7595      7597      7598      7594      7595      7597      7599
      7594      7595      7597      7600      7594      7625      7623      7600
      7594      7625      7623      7620      7594      7625      7623      7624
      7594      7625      7626      7627      7594      7625      7626      7628
      7594      7625      7626      7629      7594      7625      7630      7631
      7594      7625      7630      7632      7594      7625      7630      7633
      7595      7594      7625      7623      7595      7594      7625      7626
      7595      7594      7625      7630      7595      7597      7600      7601
      7595      7597      7600      7602      7595      7597      7600      7623
      7596      7595      7594      7625      7596      7595      7597      7598
      7596      7595      7597      7599      7596      7595      7597      7600
      7597      7595      7594      7625      7597      7600      7602      7603
      7597      7600      7602      7604      7597      7600      7602      7612
      7597      7600      7623      7620      7597      7600      7623      7624
      7597      7600      7623      7625      7598      7597      7600      7601
      7598      7597      7600      7602      7598      7597      7600      7623
      7599      7597      7600      7601      7599      7597      7600      7602
      7599      7597      7600      7623      7600      7602      7604      7605
      7600      7602      7604      7606      7600      7602      7604      7607
      7600      7602      7612      7610      7600      7602      7612      7613
      7600      7602      7612      7617      7600      7623      7620      7617
      7600      7623      7620      7621      7600      7623      7620      7622
      7600      7623      7625      7626      7600      7623      7625      7630
      7601      7600      7602      7603      7601      7600      7602      7604
      7601      7600      7602      7612      7601      7600      7623      7620
      7601      7600      7623      7624      7601      7600      7623      7625
      7602      7600      7623      7620      7602      7600      7623      7624
      7602      7600      7623      7625      7602      7604      7607      7608
      7602      7604      7607      7609      7602      7604      7607      7610
      7602      7612      7610      7607      7602      7612      7610      7611
      7602      7612      7610      7636      7602      7612      7613      7614
      7602      7612      7613      7615      7602      7612      7613      7616
      7602      7612      7617      7618      7602      7612      7617      7619
      7602      7612      7617      7620      7603      7602      7600      7623
      7603      7602      7604      7605      7603      7602      7604      7606
      7603      7602      7604      7607      7603      7602      7612      7610
      7603      7602      7612      7613      7603      7602      7612      7617
      7604      7602      7600      7623      7604      7602      7612      7610
      7604      7602      7612      7613      7604      7602      7612      7617
      7604      7607      7610      7611      7604      7607      7610      7612
      7604      7607      7610      7636      7605      7604      7602      7612
      7605      7604      7607      7608      7605      7604      7607      7609
      7605      7604      7607      7610      7606      7604      7602      7612
      7606      7604      7607      7608      7606      7604      7607      7609
      7606      7604      7607      7610      7607      7604      7602      7612
      7607      7610      7612      7613      7607      7610      7612      7617
      7607      7610      7636      7637      7607      7610      7636      7638
      7607      7610      7636      7642      7608      7607      7610      7611
      7608      7607      7610      7612      7608      7607      7610      7636
      7609      7607      7610      7611      7609      7607      7610      7612
      7609      7607      7610      7636      7610      7612      7613      7614
      7610      7612      7613      7615      7610      7612      7613      7616
      7610      7612      7617      7618      7610      7612      7617      7619
      7610      7612      7617      7620      7610      7636      7638      7639
      7610      7636      7638      7640      7610      7636      7638      7641
      7610      7636      7642      7643      7610      7636      7642      7644
      7610      7636      7642      7645      7611      7610      7612      7613
      7611      7610      7612      7617      7611      7610      7636      7637
      7611      7610      7636      7638      7611      7610      7636      7642
      7612      7602      7600      7623      7612      7610      7636      7637
      7612      7610      7636      7638      7612      7610      7636      7642
      7612      7617      7620      7621      7612      7617      7620      7622
      7612      7617      7620      7623      7613      7612      7610      7636
      7613      7612      7617      7618      7613      7612      7617      7619
      7613      7612      7617      7620      7614      7613      7612      7617
      7615      7613      7612      7617      7616      7613      7612      7617
      7617      7612      7610      7636      7617      7620      7623      7624
      7617      7620      7623      7625      7618      7617      7620      7621
      7618      7617      7620      7622      7618      7617      7620      7623
      7619      7617      7620      7621      7619      7617      7620      7622
      7619      7617      7620      7623      7620      7623      7625      7626
      7620      7623      7625      7630      7621      7620      7623      7624
      7621      7620      7623      7625      7622      7620      7623      7624
      7622      7620      7623      7625      7623      7625      7626      7627
      7623      7625      7626      7628      7623      7625      7626      7629
      7623      7625      7630      7631      7623      7625      7630      7632
      7623      7625      7630      7633      7624      7623      7625      7626
      7624      7623      7625      7630      7625      7630      7633      7634
      7625      7630      7633      7635      7626      7625      7630      7631
      7626      7625      7630      7632      7626      7625      7630      7633
      7627      7626      7625      7630      7628      7626      7625      7630
      7629      7626      7625      7630      7631      7630      7633      7634
      7631      7630      7633      7635      7632      7630      7633      7634
      7632      7630      7633      7635      7636      7642      7645      7646
      7636      7642      7645      7647      7636      7642      7645      7648
      7637      7636      7638      7639      7637      7636      7638      7640
      7637      7636      7638      7641      7637      7636      7642      7643
      7637      7636      7642      7644      7637      7636      7642      7645
      7638      7636      7642      7643      7638      7636      7642      7644
      7638      7636      7642      7645      7639      7638      7636      7642
      7640      7638      7636      7642      7641      7638      7636      7642
      7642      7645      7648      7649      7642      7645      7648      7650
      7642      7645      7648      7651      7643      7642      7645      7646
      7643      7642      7645      7647      7643      7642      7645      7648
      7644      7642      7645      7646      7644      7642      7645      7647
      7644      7642      7645      7648      7645      7648      7651      7652
      7645      7648      7651      7653      7645      7648      7651      7657
      7646      7645      7648      7649      7646      7645      7648      7650
      7646      7645      7648      7651      7647      7645      7648      7649
      7647      7645      7648      7650      7647      7645      7648      7651
      7648      7651      7653      7654      7648      7651      7653      7655
      7648      7651      7653      7656      7648      7651      7657      7658
      7648      7651      7657      7659      7648      7651      7657      7660
      7649      7648      7651      7652      7649      7648      7651      7653
      7649      7648      7651      7657      7650      7648      7651      7652
      7650      7648      7651      7653      7650      7648      7651      7657
      7652      7651      7653      7654      7652      7651      7653      7655
      7652      7651      7653      7656      7652      7651      7657      7658
      7652      7651      7657      7659      7652      7651      7657      7660
      7653      7651      7657      7658      7653      7651      7657      7659
      7653      7651      7657      7660      7654      7653      7651      7657
      7655      7653      7651      7657      7656      7653      7651      7657
     21217     21230     21233     21234     21217     21230     21233     21235
     21217     21230     21233     21239     21218     21217     21222     21223
     21218     21217     21222     21224     21218     21217     21222     21225
     21218     21217     21226     21227     21218     21217     21226     21228
     21218     21217     21226     21229     21218     21217     21230     21231
     21218     21217     21230     21232     21218     21217     21230     21233
     21219     21218     21217     21222     21219     21218     21217     21226
     21219     21218     21217     21230     21220     21218     21217     21222
     21220     21218     21217     21226     21220     21218     21217     21230
     21221     21218     21217     21222     21221     21218     21217     21226
     21221     21218     21217     21230     21222     21217     21226     21227
     21222     21217     21226     21228     21222     21217     21226     21229
     21222     21217     21230     21231     21222     21217     21230     21232
     21222     21217     21230     21233     21223     21222     21217     21226
     21223     21222     21217     21230     21224     21222     21217     21226
     21224     21222     21217     21230     21225     21222     21217     21226
     21225     21222     21217     21230     21226     21217     21230     21231
     21226     21217     21230     21232     21226     21217     21230     21233
     21227     21226     21217     21230     21228     21226     21217     21230
     21229     21226     21217     21230     21230     21233     21239     21236
     21231     21230     21233     21234     21231     21230     21233     21235
     21231     21230     21233     21239     21232     21230     21233     21234
     21232     21230     21233     21235     21232     21230     21233     21239
     21233     21239     21236     21237     21233     21239     21236     21238
     21233     21239     21236     21240     21234     21233     21239     21236
     21235     21233     21239     21236     21236     21240     21241     21242
     21236     21240     21241     21243     21236     21240     21241     21244
     21237     21236     21240     21241     21238     21236     21240     21241
     21239     21236     21240     21241     21240     21241     21244     21245
     21240     21241     21244     21246     21240     21241     21244     21252
     21241     21244     21246     21247     21241     21244     21252     21253
     21241     21244     21252     21254     21241     21244     21252     21255
     21242     21241     21244     21245     21242     21241     21244     21246
     21242     21241     21244     21252     21243     21241     21244     21245
     21243     21241     21244     21246     21243     21241     21244     21252
     21244     21246     21247     21248     21244     21246     21247     21249
     21244     21252     21255     21256     21245     21244     21246     21247
     21245     21244     21252     21253     21245     21244     21252     21254
     21245     21244     21252     21255     21246     21244     21252     21253
     21246     21244     21252     21254     21246     21244     21252     21255
     21246     21247     21249     21250     21246     21247     21249     21251
     21246     21247     21249     21261     21247     21246     21244     21252
     21247     21249     21261     21262     21247     21249     21261     21263
     21247     21249     21261     21264     21248     21247     21249     21250
     21248     21247     21249     21251     21248     21247     21249     21261
     21249     21261     21264     21265     21249     21261     21264     21266
     21249     21261     21264     21267     21250     21249     21261     21262
     21250     21249     21261     21263     21250     21249     21261     21264
     21251     21249     21261     21262     21251     21249     21261     21263
     21251     21249     21261     21264     21252     21255     21256     21257
     21252     21255     21256     21258     21253     21252     21255     21256
     21254     21252     21255     21256     21255     21256     21258     21259
     21255     21256     21258     21260     21255     21256     21258     21306
     21256     21258     21306     21307     21256     21258     21306     21308
     21256     21258     21306     21309     21257     21256     21258     21259
     21257     21256     21258     21260     21257     21256     21258     21306
     21258     21306     21309     21310     21258     21306     21309     21311
     21258     21306     21309     21312     21259     21258     21306     21307
     21259     21258     21306     21308     21259     21258     21306     21309
     21260     21258     21306     21307     21260     21258     21306     21308
     21260     21258     21306     21309     21261     21264     21267     21268
     21261     21264     21267     21269     21261     21264     21267     21270
     21262     21261     21264     21265     21262     21261     21264     21266
     21262     21261     21264     21267     21263     21261     21264     21265
     21263     21261     21264     21266     21263     21261     21264     21267
     21264     21267     21270     21271     21264     21267     21270     21272
     21264     21267     21270     21273     21265     21264     21267     21268
     21265     21264     21267     21269     21265     21264     21267     21270
     21266     21264     21267     21268     21266     21264     21267     21269
     21266     21264     21267     21270     21267     21270     21273     21274
     21267     21270     21273     21275     21267     21270     21273     21276
     21268     21267     21270     21271     21268     21267     21270     21272
     21268     21267     21270     21273     21269     21267     21270     21271
     21269     21267     21270     21272     21269     21267     21270     21273
     21270     21273     21276     21277     21270     21273     21276     21278
     21270     21273     21276     21279     21271     21270     21273     21274
     21271     21270     21273     21275     21271     21270     21273     21276
     21272     21270     21273     21274     21272     21270     21273     21275
     21272     21270     21273     21276     21273     21276     21279     21280
     21273     21276     21279     21281     21274     21273     21276     21277
     21274     21273     21276     21278     21274     21273     21276     21279
     21275     21273     21276     21277     21275     21273     21276     21278
     21275     21273     21276     21279     21276     21279     21281     21282
     21276     21279     21281     21283     21277     21276     21279     21280
     21277     21276     21279     21281     21278     21276     21279     21280
     21278     21276     21279     21281     21279     21281     21283     21284
     21279     21281     21283     21285     21279     21281     21283     21286
     21280     21279     21281     21282     21280     21279     21281     21283
     21281     21283     21286     21287     21281     21283     21286     21288
     21282     21281     21283     21284     21282     21281     21283     21285
     21282     21281     21283     21286     21283     21286     21288     21289
     21283     21286     21288     21290     21284     21283     21286     21287
     21284     21283     21286     21288     21285     21283     21286     21287
     21285     21283     21286     21288     21286     21288     21290     21291
     21286     21288     21290     21292     21286     21288     21290     21293
     21287     21286     21288     21289     21287     21286     21288     21290
     21288     21290     21293     21294     21288     21290     21293     21295
     21288     21290     21293     21296     21289     21288     21290     21291
     21289     21288     21290     21292     21289     21288     21290     21293
     21290     21293     21296     21297     21290     21293     21296     21298
     21290     21293     21296     21299     21291     21290     21293     21294
     21291     21290     21293     21295     21291     21290     21293     21296
     21292     21290     21293     21294     21292     21290     21293     21295
     21292     21290     21293     21296     21293     21296     21299     21300
     21293     21296     21299     21301     21293     21296     21299     21302
     21294     21293     21296     21297     21294     21293     21296     21298
     21294     21293     21296     21299     21295     21293     21296     21297
     21295     21293     21296     21298     21295     21293     21296     21299
     21296     21299     21302     21303     21296     21299     21302     21304
     21296     21299     21302     21305     21297     21296     21299     21300
     21297     21296     21299     21301     21297     21296     21299     21302
     21298     21296     21299     21300     21298     21296     21299     21301
     21298     21296     21299     21302     21300     21299     21302     21303
     21300     21299     21302     21304     21300     21299     21302     21305
     21301     21299     21302     21303     21301     21299     21302     21304
     21301     21299     21302     21305     21306     21309     21312     21313
     21306     21309     21312     21314     21306     21309     21312     21315
     21307     21306     21309     21310     21307     21306     21309     21311
     21307     21306     21309     21312     21308     21306     21309     21310
     21308     21306     21309     21311     21308     21306     21309     21312
     21309     21312     21315     21316     21309     21312     21315     21317
     21309     21312     21315     21318     21310     21309     21312     21313
     21310     21309     21312     21314     21310     21309     21312     21315
     21311     21309     21312     21313     21311     21309     21312     21314
     21311     21309     21312     21315     21312     21315     21318     21319
     21312     21315     21318     21320     21312     21315     21318     21321
     21313     21312     21315     21316     21313     21312     21315     21317
     21313     21312     21315     21318     21314     21312     21315     21316
     21314     21312     21315     21317     21314     21312     21315     21318
     21315     21318     21321     21322     21315     21318     21321     21323
     21315     21318     21321     21324     21316     21315     21318     21319
     21316     21315     21318     21320     21316     21315     21318     21321
     21317     21315     21318     21319     21317     21315     21318     21320
     21317     21315     21318     21321     21318     21321     21324     21325
     21318     21321     21324     21326     21318     21321     21324     21327
     21319     21318     21321     21322     21319     21318     21321     21323
     21319     21318     21321     21324     21320     21318     21321     21322
     21320     21318     21321     21323     21320     21318     21321     21324
     21321     21324     21327     21328     21321     21324     21327     21329
     21321     21324     21327     21330     21322     21321     21324     21325
     21322     21321     21324     21326     21322     21321     21324     21327
     21323     21321     21324     21325     21323     21321     21324     21326
     21323     21321     21324     21327     21324     21327     21330     21331
     21324     21327     21330     21332     21324     21327     21330     21333
     21325     21324     21327     21328     21325     21324     21327     21329
     21325     21324     21327     21330     21326     21324     21327     21328
     21326     21324     21327     21329     21326     21324     21327     21330
     21327     21330     21333     21334     21327     21330     21333     21335
     21327     21330     21333     21336     21328     21327     21330     21331
     21328     21327     21330     21332     21328     21327     21330     21333
     21329     21327     21330     21331     21329     21327     21330     21332
     21329     21327     21330     21333     21330     21333     21336     21337
     21330     21333     21336     21338     21330     21333     21336     21339
     21331     21330     21333     21334     21331     21330     21333     21335
     21331     21330     21333     21336     21332     21330     21333     21334
     21332     21330     21333     21335     21332     21330     21333     21336
     21333     21336     21339     21340     21333     21336     21339     21341
     21333     21336     21339     21342     21334     21333     21336     21337
     21334     21333     21336     21338     21334     21333     21336     21339
     21335     21333     21336     21337     21335     21333     21336     21338
     21335     21333     21336     21339     21336     21339     21342     21343
     21336     21339     21342     21344     21336     21339     21342     21345
     21337     21336     21339     21340     21337     21336     21339     21341
     21337     21336     21339     21342     21338     21336     21339     21340
     21338     21336     21339     21341     21338     21336     21339     21342
     21339     21342     21345     21346     21339     21342     21345     21347
     21339     21342     21345     21348     21340     21339     21342     21343
     21340     21339     21342     21344     21340     21339     21342     21345
     21341     21339     21342     21343     21341     21339     21342     21344
     21341     21339     21342     21345     21342     21345     21348     21349
     21342     21345     21348     21350     21342     21345     21348     21351
     21343     21342     21345     21346     21343     21342     21345     21347
     21343     21342     21345     21348     21344     21342     21345     21346
     21344     21342     21345     21347     21344     21342     21345     21348
     21345     21348     21351     21352     21345     21348     21351     21353
     21345     21348     21351     21354     21346     21345     21348     21349
     21346     21345     21348     21350     21346     21345     21348     21351
     21347     21345     21348     21349     21347     21345     21348     21350
     21347     21345     21348     21351     21349     21348     21351     21352
     21349     21348     21351     21353     21349     21348     21351     21354
     21350     21348     21351     21352     21350     21348     21351     21353
     21350     21348     21351     21354      7661      7665      7668      7669
      7661      7665      7668      7699      7661      7707      7704      7699
      7661      7707      7704      7705      7661      7707      7704      7706
      7662      7661      7663      7664      7662      7661      7665      7666
      7662      7661      7665      7667      7662      7661      7665      7668
      7662      7661      7707      7704      7662      7661      7707      7708
      7662      7661      7707      7709      7663      7661      7665      7666
      7663      7661      7665      7667      7663      7661      7665      7668
      7663      7661      7707      7704      7663      7661      7707      7708
      7663      7661      7707      7709      7664      7663      7661      7665
      7664      7663      7661      7707      7665      7661      7707      7704
      7665      7661      7707      7708      7665      7661      7707      7709
      7665      7668      7669      7670      7665      7668      7669      7671
      7665      7668      7699      7697      7665      7668      7699      7700
      7665      7668      7699      7704      7666      7665      7661      7707
      7666      7665      7668      7669      7666      7665      7668      7699
      7667      7665      7661      7707      7667      7665      7668      7669
      7667      7665      7668      7699      7668      7665      7661      7707
      7668      7669      7671      7672      7668      7669      7671      7673
      7668      7669      7671      7674      7668      7699      7697      7674
      7668      7699      7697      7694      7668      7699      7697      7698
      7668      7699      7700      7701      7668      7699      7700      7702
      7668      7699      7700      7703      7668      7699      7704      7705
      7668      7699      7704      7706      7668      7699      7704      7707
      7669      7668      7699      7697      7669      7668      7699      7700
      7669      7668      7699      7704      7669      7671      7674      7675
      7669      7671      7674      7676      7669      7671      7674      7697
      7670      7669      7668      7699      7670      7669      7671      7672
      7670      7669      7671      7673      7670      7669      7671      7674
      7671      7669      7668      7699      7671      7674      7676      7677
      7671      7674      7676      7678      7671      7674      7676      7686
      7671      7674      7697      7694      7671      7674      7697      7698
      7671      7674      7697      7699      7672      7671      7674      7675
      7672      7671      7674      7676      7672      7671      7674      7697
      7673      7671      7674      7675      7673      7671      7674      7676
      7673      7671      7674      7697      7674      7676      7678      7679
      7674      7676      7678      7680      7674      7676      7678      7681
      7674      7676      7686      7684      7674      7676      7686      7687
      7674      7676      7686      7691      7674      7697      7694      7691
      7674      7697      7694      7695      7674      7697      7694      7696
      7674      7697      7699      7700      7674      7697      7699      7704
      7675      7674      7676      7677      7675      7674      7676      7678
      7675      7674      7676      7686      7675      7674      7697      7694
      7675      7674      7697      7698      7675      7674      7697      7699
      7676      7674      7697      7694      7676      7674      7697      7698
      7676      7674      7697      7699      7676      7678      7681      7682
      7676      7678      7681      7683      7676      7678      7681      7684
      7676      7686      7684      7681      7676      7686      7684      7685
      7676      7686      7684      7710      7676      7686      7687      7688
      7676      7686      7687      7689      7676      7686      7687      7690
      7676      7686      7691      7692      7676      7686      7691      7693
      7676      7686      7691      7694      7677      7676      7674      7697
      7677      7676      7678      7679      7677      7676      7678      7680
      7677      7676      7678      7681      7677      7676      7686      7684
      7677      7676      7686      7687      7677      7676      7686      7691
      7678      7676      7674      7697      7678      7676      7686      7684
      7678      7676      7686      7687      7678      7676      7686      7691
      7678      7681      7684      7685      7678      7681      7684      7686
      7678      7681      7684      7710      7679      7678      7676      7686
      7679      7678      7681      7682      7679      7678      7681      7683
      7679      7678      7681      7684      7680      7678      7676      7686
      7680      7678      7681      7682      7680      7678      7681      7683
      7680      7678      7681      7684      7681      7678      7676      7686
      7681      7684      7686      7687      7681      7684      7686      7691
      7681      7684      7710      7711      7681      7684      7710      7712
      7681      7684      7710      7716      7682      7681      7684      7685
      7682      7681      7684      7686      7682      7681      7684      7710
      7683      7681      7684      7685      7683      7681      7684      7686
      7683      7681      7684      7710      7684      7686      7687      7688
      7684      7686      7687      7689      7684      7686      7687      7690
      7684      7686      7691      7692      7684      7686      7691      7693
      7684      7686      7691      7694      7684      7710      7712      7713
      7684      7710      7712      7714      7684      7710      7712      7715
      7684      7710      7716      7717      7684      7710      7716      7718
      7684      7710      7716      7719      7685      7684      7686      7687
      7685      7684      7686      7691      7685      7684      7710      7711
      7685      7684      7710      7712      7685      7684      7710      7716
      7686      7676      7674      7697      7686      7684      7710      7711
      7686      7684      7710      7712      7686      7684      7710      7716
      7686      7691      7694      7695      7686      7691      7694      7696
      7686      7691      7694      7697      7687      7686      7684      7710
      7687      7686      7691      7692      7687      7686      7691      7693
      7687      7686      7691      7694      7688      7687      7686      7691
      7689      7687      7686      7691      7690      7687      7686      7691
      7691      7686      7684      7710      7691      7694      7697      7698
      7691      7694      7697      7699      7692      7691      7694      7695
      7692      7691      7694      7696      7692      7691      7694      7697
      7693      7691      7694      7695      7693      7691      7694      7696
      7693      7691      7694      7697      7694      7697      7699      7700
      7694      7697      7699      7704      7695      7694      7697      7698
      7695      7694      7697      7699      7696      7694      7697      7698
      7696      7694      7697      7699      7697      7699      7700      7701
      7697      7699      7700      7702      7697      7699      7700      7703
      7697      7699      7704      7705      7697      7699      7704      7706
      7697      7699      7704      7707      7698      7697      7699      7700
      7698      7697      7699      7704      7699      7704      7707      7708
      7699      7704      7707      7709      7700      7699      7704      7705
      7700      7699      7704      7706      7700      7699      7704      7707
      7701      7700      7699      7704      7702      7700      7699      7704
      7703      7700      7699      7704      7705      7704      7707      7708
      7705      7704      7707      7709      7706      7704      7707      7708
      7706      7704      7707      7709      7710      7716      7719      7720
      7710      7716      7719      7721      7710      7716      7719      7722
      7711      7710      7712      7713      7711      7710      7712      7714
      7711      7710      7712      7715      7711      7710      7716      7717
      7711      7710      7716      7718      7711      7710      7716      7719
      7712      7710      7716      7717      7712      7710      7716      7718
      7712      7710      7716      7719      7713      7712      7710      7716
      7714      7712      7710      7716      7715      7712      7710      7716
      7716      7719      7722      7723      7716      7719      7722      7724
      7716      7719      7722      7725      7717      7716      7719      7720
      7717      7716      7719      7721      7717      7716      7719      7722
      7718      7716      7719      7720      7718      7716      7719      7721
      7718      7716      7719      7722      7719      7722      7725      7726
      7719      7722      7725      7727      7719      7722      7725      7731
      7720      7719      7722      7723      7720      7719      7722      7724
      7720      7719      7722      7725      7721      7719      7722      7723
      7721      7719      7722      7724      7721      7719      7722      7725
      7722      7725      7727      7728      7722      7725      7727      7729
      7722      7725      7727      7730      7722      7725      7731      7732
      7722      7725      7731      7733      7722      7725      7731      7734
      7723      7722      7725      7726      7723      7722      7725      7727
      7723      7722      7725      7731      7724      7722      7725      7726
      7724      7722      7725      7727      7724      7722      7725      7731
      7726      7725      7727      7728      7726      7725      7727      7729
      7726      7725      7727      7730      7726      7725      7731      7732
      7726      7725      7731      7733      7726      7725      7731      7734
      7727      7725      7731      7732      7727      7725      7731      7733
      7727      7725      7731      7734      7728      7727      7725      7731
      7729      7727      7725      7731      7730      7727      7725      7731
     16528     16532     16535     16536     16528     16532     16535     16537
     16528     16532     16535     16541     16529     16528     16532     16533
     16529     16528     16532     16534     16529     16528     16532     16535
     16530     16528     16532     16533     16530     16528     16532     16534
     16530     16528     16532     16535     16531     16528     16532     16533
     16531     16528     16532     16534     16531     16528     16532     16535
     16532     16535     16541     16538     16533     16532     16535     16536
     16533     16532     16535     16537     16533     16532     16535     16541
     16534     16532     16535     16536     16534     16532     16535     16537
     16534     16532     16535     16541     16535     16541     16538     16539
     16535     16541     16538     16540     16535     16541     16538     16542
     16536     16535     16541     16538     16537     16535     16541     16538
     16538     16542     16543     16544     16538     16542     16543     16545
     16538     16542     16543     16546     16539     16538     16542     16543
     16540     16538     16542     16543     16541     16538     16542     16543
     16542     16543     16546     16547     16542     16543     16546     16548
     16542     16543     16546     16554     16543     16546     16548     16549
     16543     16546     16554     16555     16543     16546     16554     16556
     16543     16546     16554     16557     16544     16543     16546     16547
     16544     16543     16546     16548     16544     16543     16546     16554
     16545     16543     16546     16547     16545     16543     16546     16548
     16545     16543     16546     16554     16546     16548     16549     16550
     16546     16548     16549     16551     16546     16554     16557     16558
     16547     16546     16548     16549     16547     16546     16554     16555
     16547     16546     16554     16556     16547     16546     16554     16557
     16548     16546     16554     16555     16548     16546     16554     16556
     16548     16546     16554     16557     16548     16549     16551     16552
     16548     16549     16551     16553     16548     16549     16551     16563
     16549     16548     16546     16554     16549     16551     16563     16564
     16549     16551     16563     16565     16549     16551     16563     16566
     16550     16549     16551     16552     16550     16549     16551     16553
     16550     16549     16551     16563     16551     16563     16566     16567
     16551     16563     16566     16568     16551     16563     16566     16569
     16552     16551     16563     16564     16552     16551     16563     16565
     16552     16551     16563     16566     16553     16551     16563     16564
     16553     16551     16563     16565     16553     16551     16563     16566
     16554     16557     16558     16559     16554     16557     16558     16560
     16555     16554     16557     16558     16556     16554     16557     16558
     16557     16558     16560     16561     16557     16558     16560     16562
     16557     16558     16560     16610     16558     16560     16610     16611
     16558     16560     16610     16612     16558     16560     16610     16613
     16559     16558     16560     16561     16559     16558     16560     16562
     16559     16558     16560     16610     16560     16610     16613     16614
     16560     16610     16613     16615     16560     16610     16613     16616
     16561     16560     16610     16611     16561     16560     16610     16612
     16561     16560     16610     16613     16562     16560     16610     16611
     16562     16560     16610     16612     16562     16560     16610     16613
     16563     16566     16569     16570     16563     16566     16569     16571
     16564     16563     16566     16567     16564     16563     16566     16568
     16564     16563     16566     16569     16565     16563     16566     16567
     16565     16563     16566     16568     16565     16563     16566     16569
     16566     16569     16571     16572     16566     16569     16571     16573
     16567     16566     16569     16570     16567     16566     16569     16571
     16568     16566     16569     16570     16568     16566     16569     16571
     16569     16571     16573     16574     16569     16571     16573     16575
     16569     16571     16573     16576     16570     16569     16571     16572
     16570     16569     16571     16573     16571     16573     16576     16577
     16571     16573     16576     16578     16572     16571     16573     16574
     16572     16571     16573     16575     16572     16571     16573     16576
     16573     16576     16578     16579     16573     16576     16578     16580
     16574     16573     16576     16577     16574     16573     16576     16578
     16575     16573     16576     16577     16575     16573     16576     16578
     16576     16578     16580     16581     16576     16578     16580     16582
     16576     16578     16580     16583     16577     16576     16578     16579
     16577     16576     16578     16580     16578     16580     16583     16584
     16578     16580     16583     16585     16579     16578     16580     16581
     16579     16578     16580     16582     16579     16578     16580     16583
     16580     16583     16585     16586     16580     16583     16585     16587
     16581     16580     16583     16584     16581     16580     16583     16585
     16582     16580     16583     16584     16582     16580     16583     16585
     16583     16585     16587     16588     16583     16585     16587     16589
     16583     16585     16587     16590     16584     16583     16585     16586
     16584     16583     16585     16587     16585     16587     16590     16591
     16585     16587     16590     16592     16586     16585     16587     16588
     16586     16585     16587     16589     16586     16585     16587     16590
     16587     16590     16592     16593     16587     16590     16592     16594
     16588     16587     16590     16591     16588     16587     16590     16592
     16589     16587     16590     16591     16589     16587     16590     16592
     16590     16592     16594     16595     16590     16592     16594     16596
     16590     16592     16594     16597     16591     16590     16592     16593
     16591     16590     16592     16594     16592     16594     16597     16598
     16592     16594     16597     16599     16592     16594     16597     16600
     16593     16592     16594     16595     16593     16592     16594     16596
     16593     16592     16594     16597     16594     16597     16600     16601
     16594     16597     16600     16602     16594     16597     16600     16603
     16595     16594     16597     16598     16595     16594     16597     16599
     16595     16594     16597     16600     16596     16594     16597     16598
     16596     16594     16597     16599     16596     16594     16597     16600
     16597     16600     16603     16604     16597     16600     16603     16605
     16597     16600     16603     16606     16598     16597     16600     16601
     16598     16597     16600     16602     16598     16597     16600     16603
     16599     16597     16600     16601     16599     16597     16600     16602
     16599     16597     16600     16603     16600     16603     16606     16607
     16600     16603     16606     16608     16600     16603     16606     16609
     16601     16600     16603     16604     16601     16600     16603     16605
     16601     16600     16603     16606     16602     16600     16603     16604
     16602     16600     16603     16605     16602     16600     16603     16606
     16604     16603     16606     16607     16604     16603     16606     16608
     16604     16603     16606     16609     16605     16603     16606     16607
     16605     16603     16606     16608     16605     16603     16606     16609
     16610     16613     16616     16617     16610     16613     16616     16618
     16610     16613     16616     16619     16611     16610     16613     16614
     16611     16610     16613     16615     16611     16610     16613     16616
     16612     16610     16613     16614     16612     16610     16613     16615
     16612     16610     16613     16616     16613     16616     16619     16620
     16613     16616     16619     16621     16613     16616     16619     16622
     16614     16613     16616     16617     16614     16613     16616     16618
     16614     16613     16616     16619     16615     16613     16616     16617
     16615     16613     16616     16618     16615     16613     16616     16619
     16616     16619     16622     16623     16616     16619     16622     16624
     16616     16619     16622     16625     16617     16616     16619     16620
     16617     16616     16619     16621     16617     16616     16619     16622
     16618     16616     16619     16620     16618     16616     16619     16621
     16618     16616     16619     16622     16619     16622     16625     16626
     16619     16622     16625     16627     16619     16622     16625     16628
     16620     16619     16622     16623     16620     16619     16622     16624
     16620     16619     16622     16625     16621     16619     16622     16623
     16621     16619     16622     16624     16621     16619     16622     16625
     16622     16625     16628     16629     16622     16625     16628     16630
     16622     16625     16628     16631     16623     16622     16625     16626
     16623     16622     16625     16627     16623     16622     16625     16628
     16624     16622     16625     16626     16624     16622     16625     16627
     16624     16622     16625     16628     16625     16628     16631     16632
     16625     16628     16631     16633     16625     16628     16631     16634
     16626     16625     16628     16629     16626     16625     16628     16630
     16626     16625     16628     16631     16627     16625     16628     16629
     16627     16625     16628     16630     16627     16625     16628     16631
     16628     16631     16634     16635     16628     16631     16634     16636
     16628     16631     16634     16637     16629     16628     16631     16632
     16629     16628     16631     16633     16629     16628     16631     16634
     16630     16628     16631     16632     16630     16628     16631     16633
     16630     16628     16631     16634     16631     16634     16637     16638
     16631     16634     16637     16639     16631     16634     16637     16640
     16632     16631     16634     16635     16632     16631     16634     16636
     16632     16631     16634     16637     16633     16631     16634     16635
     16633     16631     16634     16636     16633     16631     16634     16637
     16634     16637     16640     16641     16634     16637     16640     16642
     16634     16637     16640     16643     16635     16634     16637     16638
     16635     16634     16637     16639     16635     16634     16637     16640
     16636     16634     16637     16638     16636     16634     16637     16639
     16636     16634     16637     16640     16637     16640     16643     16644
     16637     16640     16643     16645     16637     16640     16643     16646
     16638     16637     16640     16641     16638     16637     16640     16642
     16638     16637     16640     16643     16639     16637     16640     16641
     16639     16637     16640     16642     16639     16637     16640     16643
     16640     16643     16646     16647     16640     16643     16646     16648
     16640     16643     16646     16649     16641     16640     16643     16644
     16641     16640     16643     16645     16641     16640     16643     16646
     16642     16640     16643     16644     16642     16640     16643     16645
     16642     16640     16643     16646     16643     16646     16649     16650
     16643     16646     16649     16651     16643     16646     16649     16652
     16644     16643     16646     16647     16644     16643     16646     16648
     16644     16643     16646     16649     16645     16643     16646     16647
     16645     16643     16646     16648     16645     16643     16646     16649
     16646     16649     16652     16653     16646     16649     16652     16654
     16646     16649     16652     16655     16647     16646     16649     16650
     16647     16646     16649     16651     16647     16646     16649     16652
     16648     16646     16649     16650     16648     16646     16649     16651
     16648     16646     16649     16652     16649     16652     16655     16656
     16649     16652     16655     16657     16649     16652     16655     16658
     16650     16649     16652     16653     16650     16649     16652     16654
     16650     16649     16652     16655     16651     16649     16652     16653
     16651     16649     16652     16654     16651     16649     16652     16655
     16653     16652     16655     16656     16653     16652     16655     16657
     16653     16652     16655     16658     16654     16652     16655     16656
     16654     16652     16655     16657     16654     16652     16655     16658
     18755     18759     18762     18763     18755     18759     18762     18764
     18755     18759     18762     18768     18756     18755     18759     18760
     18756     18755     18759     18761     18756     18755     18759     18762
     18757     18755     18759     18760     18757     18755     18759     18761
     18757     18755     18759     18762     18758     18755     18759     18760
     18758     18755     18759     18761     18758     18755     18759     18762
     18759     18762     18768     18765     18760     18759     18762     18763
     18760     18759     18762     18764     18760     18759     18762     18768
     18761     18759     18762     18763     18761     18759     18762     18764
     18761     18759     18762     18768     18762     18768     18765     18766
     18762     18768     18765     18767     18762     18768     18765     18769
     18763     18762     18768     18765     18764     18762     18768     18765
     18765     18769     18770     18771     18765     18769     18770     18772
     18765     18769     18770     18773     18766     18765     18769     18770
     18767     18765     18769     18770     18768     18765     18769     18770
     18769     18770     18773     18774     18769     18770     18773     18775
     18769     18770     18773     18781     18770     18773     18775     18776
     18770     18773     18781     18782     18770     18773     18781     18783
     18770     18773     18781     18784     18771     18770     18773     18774
     18771     18770     18773     18775     18771     18770     18773     18781
     18772     18770     18773     18774     18772     18770     18773     18775
     18772     18770     18773     18781     18773     18775     18776     18777
     18773     18775     18776     18778     18773     18781     18784     18785
     18774     18773     18775     18776     18774     18773     18781     18782
     18774     18773     18781     18783     18774     18773     18781     18784
     18775     18773     18781     18782     18775     18773     18781     18783
     18775     18773     18781     18784     18775     18776     18778     18779
     18775     18776     18778     18780     18775     18776     18778     18790
     18776     18775     18773     18781     18776     18778     18790     18791
     18776     18778     18790     18792     18776     18778     18790     18793
     18777     18776     18778     18779     18777     18776     18778     18780
     18777     18776     18778     18790     18778     18790     18793     18794
     18778     18790     18793     18795     18778     18790     18793     18796
     18779     18778     18790     18791     18779     18778     18790     18792
     18779     18778     18790     18793     18780     18778     18790     18791
     18780     18778     18790     18792     18780     18778     18790     18793
     18781     18784     18785     18786     18781     18784     18785     18787
     18782     18781     18784     18785     18783     18781     18784     18785
     18784     18785     18787     18788     18784     18785     18787     18789
     18784     18785     18787     18837     18785     18787     18837     18838
     18785     18787     18837     18839     18785     18787     18837     18840
     18786     18785     18787     18788     18786     18785     18787     18789
     18786     18785     18787     18837     18787     18837     18840     18841
     18787     18837     18840     18842     18787     18837     18840     18843
     18788     18787     18837     18838     18788     18787     18837     18839
     18788     18787     18837     18840     18789     18787     18837     18838
     18789     18787     18837     18839     18789     18787     18837     18840
     18790     18793     18796     18797     18790     18793     18796     18798
     18790     18793     18796     18799     18791     18790     18793     18794
     18791     18790     18793     18795     18791     18790     18793     18796
     18792     18790     18793     18794     18792     18790     18793     18795
     18792     18790     18793     18796     18793     18796     18799     18800
     18793     18796     18799     18801     18793     18796     18799     18802
     18794     18793     18796     18797     18794     18793     18796     18798
     18794     18793     18796     18799     18795     18793     18796     18797
     18795     18793     18796     18798     18795     18793     18796     18799
     18796     18799     18802     18803     18796     18799     18802     18804
     18796     18799     18802     18805     18797     18796     18799     18800
     18797     18796     18799     18801     18797     18796     18799     18802
     18798     18796     18799     18800     18798     18796     18799     18801
     18798     18796     18799     18802     18799     18802     18805     18806
     18799     18802     18805     18807     18799     18802     18805     18808
     18800     18799     18802     18803     18800     18799     18802     18804
     18800     18799     18802     18805     18801     18799     18802     18803
     18801     18799     18802     18804     18801     18799     18802     18805
     18802     18805     18808     18809     18802     18805     18808     18810
     18803     18802     18805     18806     18803     18802     18805     18807
     18803     18802     18805     18808     18804     18802     18805     18806
     18804     18802     18805     18807     18804     18802     18805     18808
     18805     18808     18810     18811     18805     18808     18810     18812
     18806     18805     18808     18809     18806     18805     18808     18810
     18807     18805     18808     18809     18807     18805     18808     18810
     18808     18810     18812     18813     18808     18810     18812     18814
     18808     18810     18812     18815     18809     18808     18810     18811
     18809     18808     18810     18812     18810     18812     18815     18816
     18810     18812     18815     18817     18810     18812     18815     18818
     18811     18810     18812     18813     18811     18810     18812     18814
     18811     18810     18812     18815     18812     18815     18818     18819
     18812     18815     18818     18820     18812     18815     18818     18821
     18813     18812     18815     18816     18813     18812     18815     18817
     18813     18812     18815     18818     18814     18812     18815     18816
     18814     18812     18815     18817     18814     18812     18815     18818
     18815     18818     18821     18822     18815     18818     18821     18823
     18815     18818     18821     18824     18816     18815     18818     18819
     18816     18815     18818     18820     18816     18815     18818     18821
     18817     18815     18818     18819     18817     18815     18818     18820
     18817     18815     18818     18821     18818     18821     18824     18825
     18818     18821     18824     18826     18818     18821     18824     18827
     18819     18818     18821     18822     18819     18818     18821     18823
     18819     18818     18821     18824     18820     18818     18821     18822
     18820     18818     18821     18823     18820     18818     18821     18824
     18821     18824     18827     18828     18821     18824     18827     18829
     18821     18824     18827     18830     18822     18821     18824     18825
     18822     18821     18824     18826     18822     18821     18824     18827
     18823     18821     18824     18825     18823     18821     18824     18826
     18823     18821     18824     18827     18824     18827     18830     18831
     18824     18827     18830     18832     18824     18827     18830     18833
     18825     18824     18827     18828     18825     18824     18827     18829
     18825     18824     18827     18830     18826     18824     18827     18828
     18826     18824     18827     18829     18826     18824     18827     18830
     18827     18830     18833     18834     18827     18830     18833     18835
     18827     18830     18833     18836     18828     18827     18830     18831
     18828     18827     18830     18832     18828     18827     18830     18833
     18829     18827     18830     18831     18829     18827     18830     18832
     18829     18827     18830     18833     18831     18830     18833     18834
     18831     18830     18833     18835     18831     18830     18833     18836
     18832     18830     18833     18834     18832     18830     18833     18835
     18832     18830     18833     18836     18837     18840     18843     18844
     18837     18840     18843     18845     18837     18840     18843     18846
     18838     18837     18840     18841     18838     18837     18840     18842
     18838     18837     18840     18843     18839     18837     18840     18841
     18839     18837     18840     18842     18839     18837     18840     18843
     18840     18843     18846     18847     18840     18843     18846     18848
     18840     18843     18846     18849     18841     18840     18843     18844
     18841     18840     18843     18845     18841     18840     18843     18846
     18842     18840     18843     18844     18842     18840     18843     18845
     18842     18840     18843     18846     18843     18846     18849     18850
     18843     18846     18849     18851     18843     18846     18849     18852
     18844     18843     18846     18847     18844     18843     18846     18848
     18844     18843     18846     18849     18845     18843     18846     18847
     18845     18843     18846     18848     18845     18843     18846     18849
     18846     18849     18852     18853     18846     18849     18852     18854
     18846     18849     18852     18855     18847     18846     18849     18850
     18847     18846     18849     18851     18847     18846     18849     18852
     18848     18846     18849     18850     18848     18846     18849     18851
     18848     18846     18849     18852     18849     18852     18855     18856
     18849     18852     18855     18857     18849     18852     18855     18858
     18850     18849     18852     18853     18850     18849     18852     18854
     18850     18849     18852     18855     18851     18849     18852     18853
     18851     18849     18852     18854     18851     18849     18852     18855
     18852     18855     18858     18859     18852     18855     18858     18860
     18852     18855     18858     18861     18853     18852     18855     18856
     18853     18852     18855     18857     18853     18852     18855     18858
     18854     18852     18855     18856     18854     18852     18855     18857
     18854     18852     18855     18858     18855     18858     18861     18862
     18855     18858     18861     18863     18855     18858     18861     18864
     18856     18855     18858     18859     18856     18855     18858     18860
     18856     18855     18858     18861     18857     18855     18858     18859
     18857     18855     18858     18860     18857     18855     18858     18861
     18858     18861     18864     18865     18858     18861     18864     18866
     18858     18861     18864     18867     18859     18858     18861     18862
     18859     18858     18861     18863     18859     18858     18861     18864
     18860     18858     18861     18862     18860     18858     18861     18863
     18860     18858     18861     18864     18861     18864     18867     18868
     18861     18864     18867     18869     18861     18864     18867     18870
     18862     18861     18864     18865     18862     18861     18864     18866
     18862     18861     18864     18867     18863     18861     18864     18865
     18863     18861     18864     18866     18863     18861     18864     18867
     18864     18867     18870     18871     18864     18867     18870     18872
     18864     18867     18870     18873     18865     18864     18867     18868
     18865     18864     18867     18869     18865     18864     18867     18870
     18866     18864     18867     18868     18866     18864     18867     18869
     18866     18864     18867     18870     18867     18870     18873     18874
     18867     18870     18873     18875     18867     18870     18873     18876
     18868     18867     18870     18871     18868     18867     18870     18872
     18868     18867     18870     18873     18869     18867     18870     18871
     18869     18867     18870     18872     18869     18867     18870     18873
     18870     18873     18876     18877     18870     18873     18876     18878
     18870     18873     18876     18879     18871     18870     18873     18874
     18871     18870     18873     18875     18871     18870     18873     18876
     18872     18870     18873     18874     18872     18870     18873     18875
     18872     18870     18873     18876     18873     18876     18879     18880
     18873     18876     18879     18881     18873     18876     18879     18882
     18874     18873     18876     18877     18874     18873     18876     18878
     18874     18873     18876     18879     18875     18873     18876     18877
     18875     18873     18876     18878     18875     18873     18876     18879
     18876     18879     18882     18883     18876     18879     18882     18884
     18876     18879     18882     18885     18877     18876     18879     18880
     18877     18876     18879     18881     18877     18876     18879     18882
     18878     18876     18879     18880     18878     18876     18879     18881
     18878     18876     18879     18882     18880     18879     18882     18883
     18880     18879     18882     18884     18880     18879     18882     18885
     18881     18879     18882     18883     18881     18879     18882     18884
     18881     18879     18882     18885      7735      7739      7742      7743
      7735      7739      7742      7773      7735      7781      7778      7773
      7735      7781      7778      7779      7735      7781      7778      7780
      7736      7735      7737      7738      7736      7735      7739      7740
      7736      7735      7739      7741      7736      7735      7739      7742
      7736      7735      7781      7778      7736      7735      7781      7782
      7736      7735      7781      7783      7737      7735      7739      7740
      7737      7735      7739      7741      7737      7735      7739      7742
      7737      7735      7781      7778      7737      7735      7781      7782
      7737      7735      7781      7783      7738      7737      7735      7739
      7738      7737      7735      7781      7739      7735      7781      7778
      7739      7735      7781      7782      7739      7735      7781      7783
      7739      7742      7743      7744      7739      7742      7743      7745
      7739      7742      7773      7771      7739      7742      7773      7774
      7739      7742      7773      7778      7740      7739      7735      7781
      7740      7739      7742      7743      7740      7739      7742      7773
      7741      7739      7735      7781      7741      7739      7742      7743
      7741      7739      7742      7773      7742      7739      7735      7781
      7742      7743      7745      7746      7742      7743      7745      7747
      7742      7743      7745      7748      7742      7773      7771      7748
      7742      7773      7771      7768      7742      7773      7771      7772
      7742      7773      7774      7775      7742      7773      7774      7776
      7742      7773      7774      7777      7742      7773      7778      7779
      7742      7773      7778      7780      7742      7773      7778      7781
      7743      7742      7773      7771      7743      7742      7773      7774
      7743      7742      7773      7778      7743      7745      7748      7749
      7743      7745      7748      7750      7743      7745      7748      7771
      7744      7743      7742      7773      7744      7743      7745      7746
      7744      7743      7745      7747      7744      7743      7745      7748
      7745      7743      7742      7773      7745      7748      7750      7751
      7745      7748      7750      7752      7745      7748      7750      7760
      7745      7748      7771      7768      7745      7748      7771      7772
      7745      7748      7771      7773      7746      7745      7748      7749
      7746      7745      7748      7750      7746      7745      7748      7771
      7747      7745      7748      7749      7747      7745      7748      7750
      7747      7745      7748      7771      7748      7750      7752      7753
      7748      7750      7752      7754      7748      7750      7752      7755
      7748      7750      7760      7758      7748      7750      7760      7761
      7748      7750      7760      7765      7748      7771      7768      7765
      7748      7771      7768      7769      7748      7771      7768      7770
      7748      7771      7773      7774      7748      7771      7773      7778
      7749      7748      7750      7751      7749      7748      7750      7752
      7749      7748      7750      7760      7749      7748      7771      7768
      7749      7748      7771      7772      7749      7748      7771      7773
      7750      7748      7771      7768      7750      7748      7771      7772
      7750      7748      7771      7773      7750      7752      7755      7756
      7750      7752      7755      7757      7750      7752      7755      7758
      7750      7760      7758      7755      7750      7760      7758      7759
      7750      7760      7758      7784      7750      7760      7761      7762
      7750      7760      7761      7763      7750      7760      7761      7764
      7750      7760      7765      7766      7750      7760      7765      7767
      7750      7760      7765      7768      7751      7750      7748      7771
      7751      7750      7752      7753      7751      7750      7752      7754
      7751      7750      7752      7755      7751      7750      7760      7758
      7751      7750      7760      7761      7751      7750      7760      7765
      7752      7750      7748      7771      7752      7750      7760      7758
      7752      7750      7760      7761      7752      7750      7760      7765
      7752      7755      7758      7759      7752      7755      7758      7760
      7752      7755      7758      7784      7753      7752      7750      7760
      7753      7752      7755      7756      7753      7752      7755      7757
      7753      7752      7755      7758      7754      7752      7750      7760
      7754      7752      7755      7756      7754      7752      7755      7757
      7754      7752      7755      7758      7755      7752      7750      7760
      7755      7758      7760      7761      7755      7758      7760      7765
      7755      7758      7784      7785      7755      7758      7784      7786
      7755      7758      7784      7790      7756      7755      7758      7759
      7756      7755      7758      7760      7756      7755      7758      7784
      7757      7755      7758      7759      7757      7755      7758      7760
      7757      7755      7758      7784      7758      7760      7761      7762
      7758      7760      7761      7763      7758      7760      7761      7764
      7758      7760      7765      7766      7758      7760      7765      7767
      7758      7760      7765      7768      7758      7784      7786      7787
      7758      7784      7786      7788      7758      7784      7786      7789
      7758      7784      7790      7791      7758      7784      7790      7792
      7758      7784      7790      7793      7759      7758      7760      7761
      7759      7758      7760      7765      7759      7758      7784      7785
      7759      7758      7784      7786      7759      7758      7784      7790
      7760      7750      7748      7771      7760      7758      7784      7785
      7760      7758      7784      7786      7760      7758      7784      7790
      7760      7765      7768      7769      7760      7765      7768      7770
      7760      7765      7768      7771      7761      7760      7758      7784
      7761      7760      7765      7766      7761      7760      7765      7767
      7761      7760      7765      7768      7762      7761      7760      7765
      7763      7761      7760      7765      7764      7761      7760      7765
      7765      7760      7758      7784      7765      7768      7771      7772
      7765      7768      7771      7773      7766      7765      7768      7769
      7766      7765      7768      7770      7766      7765      7768      7771
      7767      7765      7768      7769      7767      7765      7768      7770
      7767      7765      7768      7771      7768      7771      7773      7774
      7768      7771      7773      7778      7769      7768      7771      7772
      7769      7768      7771      7773      7770      7768      7771      7772
      7770      7768      7771      7773      7771      7773      7774      7775
      7771      7773      7774      7776      7771      7773      7774      7777
      7771      7773      7778      7779      7771      7773      7778      7780
      7771      7773      7778      7781      7772      7771      7773      7774
      7772      7771      7773      7778      7773      7778      7781      7782
      7773      7778      7781      7783      7774      7773      7778      7779
      7774      7773      7778      7780      7774      7773      7778      7781
      7775      7774      7773      7778      7776      7774      7773      7778
      7777      7774      7773      7778      7779      7778      7781      7782
      7779      7778      7781      7783      7780      7778      7781      7782
      7780      7778      7781      7783      7784      7790      7793      7794
      7784      7790      7793      7795      7784      7790      7793      7796
      7785      7784      7786      7787      7785      7784      7786      7788
      7785      7784      7786      7789      7785      7784      7790      7791
      7785      7784      7790      7792      7785      7784      7790      7793
      7786      7784      7790      7791      7786      7784      7790      7792
      7786      7784      7790      7793      7787      7786      7784      7790
      7788      7786      7784      7790      7789      7786      7784      7790
      7790      7793      7796      7797      7790      7793      7796      7798
      7790      7793      7796      7799      7791      7790      7793      7794
      7791      7790      7793      7795      7791      7790      7793      7796
      7792      7790      7793      7794      7792      7790      7793      7795
      7792      7790      7793      7796      7793      7796      7799      7800
      7793      7796      7799      7801      7793      7796      7799      7805
      7794      7793      7796      7797      7794      7793      7796      7798
      7794      7793      7796      7799      7795      7793      7796      7797
      7795      7793      7796      7798      7795      7793      7796      7799
      7796      7799      7801      7802      7796      7799      7801      7803
      7796      7799      7801      7804      7796      7799      7805      7806
      7796      7799      7805      7807      7796      7799      7805      7808
      7797      7796      7799      7800      7797      7796      7799      7801
      7797      7796      7799      7805      7798      7796      7799      7800
      7798      7796      7799      7801      7798      7796      7799      7805
      7800      7799      7801      7802      7800      7799      7801      7803
      7800      7799      7801      7804      7800      7799      7805      7806
      7800      7799      7805      7807      7800      7799      7805      7808
      7801      7799      7805      7806      7801      7799      7805      7807
      7801      7799      7805      7808      7802      7801      7799      7805
      7803      7801      7799      7805      7804      7801      7799      7805
     21355     21368     21371     21372     21355     21368     21371     21373
     21355     21368     21371     21377     21356     21355     21360     21361
     21356     21355     21360     21362     21356     21355     21360     21363
     21356     21355     21364     21365     21356     21355     21364     21366
     21356     21355     21364     21367     21356     21355     21368     21369
     21356     21355     21368     21370     21356     21355     21368     21371
     21357     21356     21355     21360     21357     21356     21355     21364
     21357     21356     21355     21368     21358     21356     21355     21360
     21358     21356     21355     21364     21358     21356     21355     21368
     21359     21356     21355     21360     21359     21356     21355     21364
     21359     21356     21355     21368     21360     21355     21364     21365
     21360     21355     21364     21366     21360     21355     21364     21367
     21360     21355     21368     21369     21360     21355     21368     21370
     21360     21355     21368     21371     21361     21360     21355     21364
     21361     21360     21355     21368     21362     21360     21355     21364
     21362     21360     21355     21368     21363     21360     21355     21364
     21363     21360     21355     21368     21364     21355     21368     21369
     21364     21355     21368     21370     21364     21355     21368     21371
     21365     21364     21355     21368     21366     21364     21355     21368
     21367     21364     21355     21368     21368     21371     21377     21374
     21369     21368     21371     21372     21369     21368     21371     21373
     21369     21368     21371     21377     21370     21368     21371     21372
     21370     21368     21371     21373     21370     21368     21371     21377
     21371     21377     21374     21375     21371     21377     21374     21376
     21371     21377     21374     21378     21372     21371     21377     21374
     21373     21371     21377     21374     21374     21378     21379     21380
     21374     21378     21379     21381     21374     21378     21379     21382
     21375     21374     21378     21379     21376     21374     21378     21379
     21377     21374     21378     21379     21378     21379     21382     21383
     21378     21379     21382     21384     21378     21379     21382     21390
     21379     21382     21384     21385     21379     21382     21390     21391
     21379     21382     21390     21392     21379     21382     21390     21393
     21380     21379     21382     21383     21380     21379     21382     21384
     21380     21379     21382     21390     21381     21379     21382     21383
     21381     21379     21382     21384     21381     21379     21382     21390
     21382     21384     21385     21386     21382     21384     21385     21387
     21382     21390     21393     21394     21383     21382     21384     21385
     21383     21382     21390     21391     21383     21382     21390     21392
     21383     21382     21390     21393     21384     21382     21390     21391
     21384     21382     21390     21392     21384     21382     21390     21393
     21384     21385     21387     21388     21384     21385     21387     21389
     21384     21385     21387     21399     21385     21384     21382     21390
     21385     21387     21399     21400     21385     21387     21399     21401
     21385     21387     21399     21402     21386     21385     21387     21388
     21386     21385     21387     21389     21386     21385     21387     21399
     21387     21399     21402     21403     21387     21399     21402     21404
     21387     21399     21402     21405     21388     21387     21399     21400
     21388     21387     21399     21401     21388     21387     21399     21402
     21389     21387     21399     21400     21389     21387     21399     21401
     21389     21387     21399     21402     21390     21393     21394     21395
     21390     21393     21394     21396     21391     21390     21393     21394
     21392     21390     21393     21394     21393     21394     21396     21397
     21393     21394     21396     21398     21393     21394     21396     21444
     21394     21396     21444     21445     21394     21396     21444     21446
     21394     21396     21444     21447     21395     21394     21396     21397
     21395     21394     21396     21398     21395     21394     21396     21444
     21396     21444     21447     21448     21396     21444     21447     21449
     21396     21444     21447     21450     21397     21396     21444     21445
     21397     21396     21444     21446     21397     21396     21444     21447
     21398     21396     21444     21445     21398     21396     21444     21446
     21398     21396     21444     21447     21399     21402     21405     21406
     21399     21402     21405     21407     21399     21402     21405     21408
     21400     21399     21402     21403     21400     21399     21402     21404
     21400     21399     21402     21405     21401     21399     21402     21403
     21401     21399     21402     21404     21401     21399     21402     21405
     21402     21405     21408     21409     21402     21405     21408     21410
     21402     21405     21408     21411     21403     21402     21405     21406
     21403     21402     21405     21407     21403     21402     21405     21408
     21404     21402     21405     21406     21404     21402     21405     21407
     21404     21402     21405     21408     21405     21408     21411     21412
     21405     21408     21411     21413     21405     21408     21411     21414
     21406     21405     21408     21409     21406     21405     21408     21410
     21406     21405     21408     21411     21407     21405     21408     21409
     21407     21405     21408     21410     21407     21405     21408     21411
     21408     21411     21414     21415     21408     21411     21414     21416
     21408     21411     21414     21417     21409     21408     21411     21412
     21409     21408     21411     21413     21409     21408     21411     21414
     21410     21408     21411     21412     21410     21408     21411     21413
     21410     21408     21411     21414     21411     21414     21417     21418
     21411     21414     21417     21419     21412     21411     21414     21415
     21412     21411     21414     21416     21412     21411     21414     21417
     21413     21411     21414     21415     21413     21411     21414     21416
     21413     21411     21414     21417     21414     21417     21419     21420
     21414     21417     21419     21421     21415     21414     21417     21418
     21415     21414     21417     21419     21416     21414     21417     21418
     21416     21414     21417     21419     21417     21419     21421     21422
     21417     21419     21421     21423     21417     21419     21421     21424
     21418     21417     21419     21420     21418     21417     21419     21421
     21419     21421     21424     21425     21419     21421     21424     21426
     21420     21419     21421     21422     21420     21419     21421     21423
     21420     21419     21421     21424     21421     21424     21426     21427
     21421     21424     21426     21428     21422     21421     21424     21425
     21422     21421     21424     21426     21423     21421     21424     21425
     21423     21421     21424     21426     21424     21426     21428     21429
     21424     21426     21428     21430     21424     21426     21428     21431
     21425     21424     21426     21427     21425     21424     21426     21428
     21426     21428     21431     21432     21426     21428     21431     21433
     21426     21428     21431     21434     21427     21426     21428     21429
     21427     21426     21428     21430     21427     21426     21428     21431
     21428     21431     21434     21435     21428     21431     21434     21436
     21428     21431     21434     21437     21429     21428     21431     21432
     21429     21428     21431     21433     21429     21428     21431     21434
     21430     21428     21431     21432     21430     21428     21431     21433
     21430     21428     21431     21434     21431     21434     21437     21438
     21431     21434     21437     21439     21431     21434     21437     21440
     21432     21431     21434     21435     21432     21431     21434     21436
     21432     21431     21434     21437     21433     21431     21434     21435
     21433     21431     21434     21436     21433     21431     21434     21437
     21434     21437     21440     21441     21434     21437     21440     21442
     21434     21437     21440     21443     21435     21434     21437     21438
     21435     21434     21437     21439     21435     21434     21437     21440
     21436     21434     21437     21438     21436     21434     21437     21439
     21436     21434     21437     21440     21438     21437     21440     21441
     21438     21437     21440     21442     21438     21437     21440     21443
     21439     21437     21440     21441     21439     21437     21440     21442
     21439     21437     21440     21443     21444     21447     21450     21451
     21444     21447     21450     21452     21444     21447     21450     21453
     21445     21444     21447     21448     21445     21444     21447     21449
     21445     21444     21447     21450     21446     21444     21447     21448
     21446     21444     21447     21449     21446     21444     21447     21450
     21447     21450     21453     21454     21447     21450     21453     21455
     21447     21450     21453     21456     21448     21447     21450     21451
     21448     21447     21450     21452     21448     21447     21450     21453
     21449     21447     21450     21451     21449     21447     21450     21452
     21449     21447     21450     21453     21450     21453     21456     21457
     21450     21453     21456     21458     21450     21453     21456     21459
     21451     21450     21453     21454     21451     21450     21453     21455
     21451     21450     21453     21456     21452     21450     21453     21454
     21452     21450     21453     21455     21452     21450     21453     21456
     21453     21456     21459     21460     21453     21456     21459     21461
     21453     21456     21459     21462     21454     21453     21456     21457
     21454     21453     21456     21458     21454     21453     21456     21459
     21455     21453     21456     21457     21455     21453     21456     21458
     21455     21453     21456     21459     21456     21459     21462     21463
     21456     21459     21462     21464     21456     21459     21462     21465
     21457     21456     21459     21460     21457     21456     21459     21461
     21457     21456     21459     21462     21458     21456     21459     21460
     21458     21456     21459     21461     21458     21456     21459     21462
     21459     21462     21465     21466     21459     21462     21465     21467
     21459     21462     21465     21468     21460     21459     21462     21463
     21460     21459     21462     21464     21460     21459     21462     21465
     21461     21459     21462     21463     21461     21459     21462     21464
     21461     21459     21462     21465     21462     21465     21468     21469
     21462     21465     21468     21470     21462     21465     21468     21471
     21463     21462     21465     21466     21463     21462     21465     21467
     21463     21462     21465     21468     21464     21462     21465     21466
     21464     21462     21465     21467     21464     21462     21465     21468
     21465     21468     21471     21472     21465     21468     21471     21473
     21465     21468     21471     21474     21466     21465     21468     21469
     21466     21465     21468     21470     21466     21465     21468     21471
     21467     21465     21468     21469     21467     21465     21468     21470
     21467     21465     21468     21471     21468     21471     21474     21475
     21468     21471     21474     21476     21468     21471     21474     21477
     21469     21468     21471     21472     21469     21468     21471     21473
     21469     21468     21471     21474     21470     21468     21471     21472
     21470     21468     21471     21473     21470     21468     21471     21474
     21471     21474     21477     21478     21471     21474     21477     21479
     21471     21474     21477     21480     21472     21471     21474     21475
     21472     21471     21474     21476     21472     21471     21474     21477
     21473     21471     21474     21475     21473     21471     21474     21476
     21473     21471     21474     21477     21474     21477     21480     21481
     21474     21477     21480     21482     21474     21477     21480     21483
     21475     21474     21477     21478     21475     21474     21477     21479
     21475     21474     21477     21480     21476     21474     21477     21478
     21476     21474     21477     21479     21476     21474     21477     21480
     21477     21480     21483     21484     21477     21480     21483     21485
     21477     21480     21483     21486     21478     21477     21480     21481
     21478     21477     21480     21482     21478     21477     21480     21483
     21479     21477     21480     21481     21479     21477     21480     21482
     21479     21477     21480     21483     21480     21483     21486     21487
     21480     21483     21486     21488     21480     21483     21486     21489
     21481     21480     21483     21484     21481     21480     21483     21485
     21481     21480     21483     21486     21482     21480     21483     21484
     21482     21480     21483     21485     21482     21480     21483     21486
     21483     21486     21489     21490     21483     21486     21489     21491
     21483     21486     21489     21492     21484     21483     21486     21487
     21484     21483     21486     21488     21484     21483     21486     21489
     21485     21483     21486     21487     21485     21483     21486     21488
     21485     21483     21486     21489     21487     21486     21489     21490
     21487     21486     21489     21491     21487     21486     21489     21492
     21488     21486     21489     21490     21488     21486     21489     21491
     21488     21486     21489     21492      7809      7813      7816      7817
      7809      7813      7816      7847      7809      7855      7852      7847
      7809      7855      7852      7853      7809      7855      7852      7854
      7810      7809      7811      7812      7810      7809      7813      7814
      7810      7809      7813      7815      7810      7809      7813      7816
      7810      7809      7855      7852      7810      7809      7855      7856
      7810      7809      7855      7857      7811      7809      7813      7814
      7811      7809      7813      7815      7811      7809      7813      7816
      7811      7809      7855      7852      7811      7809      7855      7856
      7811      7809      7855      7857      7812      7811      7809      7813
      7812      7811      7809      7855      7813      7809      7855      7852
      7813      7809      7855      7856      7813      7809      7855      7857
      7813      7816      7817      7818      7813      7816      7817      7819
      7813      7816      7847      7845      7813      7816      7847      7848
      7813      7816      7847      7852      7814      7813      7809      7855
      7814      7813      7816      7817      7814      7813      7816      7847
      7815      7813      7809      7855      7815      7813      7816      7817
      7815      7813      7816      7847      7816      7813      7809      7855
      7816      7817      7819      7820      7816      7817      7819      7821
      7816      7817      7819      7822      7816      7847      7845      7822
      7816      7847      7845      7842      7816      7847      7845      7846
      7816      7847      7848      7849      7816      7847      7848      7850
      7816      7847      7848      7851      7816      7847      7852      7853
      7816      7847      7852      7854      7816      7847      7852      7855
      7817      7816      7847      7845      7817      7816      7847      7848
      7817      7816      7847      7852      7817      7819      7822      7823
      7817      7819      7822      7824      7817      7819      7822      7845
      7818      7817      7816      7847      7818      7817      7819      7820
      7818      7817      7819      7821      7818      7817      7819      7822
      7819      7817      7816      7847      7819      7822      7824      7825
      7819      7822      7824      7826      7819      7822      7824      7834
      7819      7822      7845      7842      7819      7822      7845      7846
      7819      7822      7845      7847      7820      7819      7822      7823
      7820      7819      7822      7824      7820      7819      7822      7845
      7821      7819      7822      7823      7821      7819      7822      7824
      7821      7819      7822      7845      7822      7824      7826      7827
      7822      7824      7826      7828      7822      7824      7826      7829
      7822      7824      7834      7832      7822      7824      7834      7835
      7822      7824      7834      7839      7822      7845      7842      7839
      7822      7845      7842      7843      7822      7845      7842      7844
      7822      7845      7847      7848      7822      7845      7847      7852
      7823      7822      7824      7825      7823      7822      7824      7826
      7823      7822      7824      7834      7823      7822      7845      7842
      7823      7822      7845      7846      7823      7822      7845      7847
      7824      7822      7845      7842      7824      7822      7845      7846
      7824      7822      7845      7847      7824      7826      7829      7830
      7824      7826      7829      7831      7824      7826      7829      7832
      7824      7834      7832      7829      7824      7834      7832      7833
      7824      7834      7832      7858      7824      7834      7835      7836
      7824      7834      7835      7837      7824      7834      7835      7838
      7824      7834      7839      7840      7824      7834      7839      7841
      7824      7834      7839      7842      7825      7824      7822      7845
      7825      7824      7826      7827      7825      7824      7826      7828
      7825      7824      7826      7829      7825      7824      7834      7832
      7825      7824      7834      7835      7825      7824      7834      7839
      7826      7824      7822      7845      7826      7824      7834      7832
      7826      7824      7834      7835      7826      7824      7834      7839
      7826      7829      7832      7833      7826      7829      7832      7834
      7826      7829      7832      7858      7827      7826      7824      7834
      7827      7826      7829      7830      7827      7826      7829      7831
      7827      7826      7829      7832      7828      7826      7824      7834
      7828      7826      7829      7830      7828      7826      7829      7831
      7828      7826      7829      7832      7829      7826      7824      7834
      7829      7832      7834      7835      7829      7832      7834      7839
      7829      7832      7858      7859      7829      7832      7858      7860
      7829      7832      7858      7864      7830      7829      7832      7833
      7830      7829      7832      7834      7830      7829      7832      7858
      7831      7829      7832      7833      7831      7829      7832      7834
      7831      7829      7832      7858      7832      7834      7835      7836
      7832      7834      7835      7837      7832      7834      7835      7838
      7832      7834      7839      7840      7832      7834      7839      7841
      7832      7834      7839      7842      7832      7858      7860      7861
      7832      7858      7860      7862      7832      7858      7860      7863
      7832      7858      7864      7865      7832      7858      7864      7866
      7832      7858      7864      7867      7833      7832      7834      7835
      7833      7832      7834      7839      7833      7832      7858      7859
      7833      7832      7858      7860      7833      7832      7858      7864
      7834      7824      7822      7845      7834      7832      7858      7859
      7834      7832      7858      7860      7834      7832      7858      7864
      7834      7839      7842      7843      7834      7839      7842      7844
      7834      7839      7842      7845      7835      7834      7832      7858
      7835      7834      7839      7840      7835      7834      7839      7841
      7835      7834      7839      7842      7836      7835      7834      7839
      7837      7835      7834      7839      7838      7835      7834      7839
      7839      7834      7832      7858      7839      7842      7845      7846
      7839      7842      7845      7847      7840      7839      7842      7843
      7840      7839      7842      7844      7840      7839      7842      7845
      7841      7839      7842      7843      7841      7839      7842      7844
      7841      7839      7842      7845      7842      7845      7847      7848
      7842      7845      7847      7852      7843      7842      7845      7846
      7843      7842      7845      7847      7844      7842      7845      7846
      7844      7842      7845      7847      7845      7847      7848      7849
      7845      7847      7848      7850      7845      7847      7848      7851
      7845      7847      7852      7853      7845      7847      7852      7854
      7845      7847      7852      7855      7846      7845      7847      7848
      7846      7845      7847      7852      7847      7852      7855      7856
      7847      7852      7855      7857      7848      7847      7852      7853
      7848      7847      7852      7854      7848      7847      7852      7855
      7849      7848      7847      7852      7850      7848      7847      7852
      7851      7848      7847      7852      7853      7852      7855      7856
      7853      7852      7855      7857      7854      7852      7855      7856
      7854      7852      7855      7857      7858      7864      7867      7868
      7858      7864      7867      7869      7858      7864      7867      7870
      7859      7858      7860      7861      7859      7858      7860      7862
      7859      7858      7860      7863      7859      7858      7864      7865
      7859      7858      7864      7866      7859      7858      7864      7867
      7860      7858      7864      7865      7860      7858      7864      7866
      7860      7858      7864      7867      7861      7860      7858      7864
      7862      7860      7858      7864      7863      7860      7858      7864
      7864      7867      7870      7871      7864      7867      7870      7872
      7864      7867      7870      7873      7865      7864      7867      7868
      7865      7864      7867      7869      7865      7864      7867      7870
      7866      7864      7867      7868      7866      7864      7867      7869
      7866      7864      7867      7870      7867      7870      7873      7874
      7867      7870      7873      7875      7867      7870      7873      7879
      7868      7867      7870      7871      7868      7867      7870      7872
      7868      7867      7870      7873      7869      7867      7870      7871
      7869      7867      7870      7872      7869      7867      7870      7873
      7870      7873      7875      7876      7870      7873      7875      7877
      7870      7873      7875      7878      7870      7873      7879      7880
      7870      7873      7879      7881      7870      7873      7879      7882
      7871      7870      7873      7874      7871      7870      7873      7875
      7871      7870      7873      7879      7872      7870      7873      7874
      7872      7870      7873      7875      7872      7870      7873      7879
      7874      7873      7875      7876      7874      7873      7875      7877
      7874      7873      7875      7878      7874      7873      7879      7880
      7874      7873      7879      7881      7874      7873      7879      7882
      7875      7873      7879      7880      7875      7873      7879      7881
      7875      7873      7879      7882      7876      7875      7873      7879
      7877      7875      7873      7879      7878      7875      7873      7879
     12074     12087     12090     12091     12074     12087     12090     12092
     12074     12087     12090     12097     12075     12074     12079     12080
     12075     12074     12079     12081     12075     12074     12079     12082
     12075     12074     12083     12084     12075     12074     12083     12085
     12075     12074     12083     12086     12075     12074     12087     12088
     12075     12074     12087     12089     12075     12074     12087     12090
     12076     12075     12074     12079     12076     12075     12074     12083
     12076     12075     12074     12087     12077     12075     12074     12079
     12077     12075     12074     12083     12077     12075     12074     12087
     12078     12075     12074     12079     12078     12075     12074     12083
     12078     12075     12074     12087     12079     12074     12083     12084
     12079     12074     12083     12085     12079     12074     12083     12086
     12079     12074     12087     12088     12079     12074     12087     12089
     12079     12074     12087     12090     12080     12079     12074     12083
     12080     12079     12074     12087     12081     12079     12074     12083
     12081     12079     12074     12087     12082     12079     12074     12083
     12082     12079     12074     12087     12083     12074     12087     12088
     12083     12074     12087     12089     12083     12074     12087     12090
     12084     12083     12074     12087     12085     12083     12074     12087
     12086     12083     12074     12087     12087     12090     12097     12093
     12088     12087     12090     12091     12088     12087     12090     12092
     12088     12087     12090     12097     12089     12087     12090     12091
     12089     12087     12090     12092     12089     12087     12090     12097
     12090     12097     12093     12094     12090     12097     12093     12095
     12090     12097     12093     12096     12091     12090     12097     12093
     12092     12090     12097     12093     12093     12096     12098     12099
     12093     12096     12098     12100     12093     12096     12098     12103
     12094     12093     12096     12098     12095     12093     12096     12098
     12096     12098     12103     12101     12096     12098     12103     12104
     12096     12098     12103     12105     12097     12093     12096     12098
     12098     12103     12101     12102     12098     12103     12101     12153
     12098     12103     12105     12106     12098     12103     12105     12107
     12098     12103     12105     12109     12099     12098     12103     12101
     12099     12098     12103     12104     12099     12098     12103     12105
     12100     12098     12103     12101     12100     12098     12103     12104
     12100     12098     12103     12105     12101     12103     12105     12106
     12101     12103     12105     12107     12101     12103     12105     12109
     12101     12153     12155     12156     12101     12153     12155     12157
     12101     12153     12155     12158     12102     12101     12103     12104
     12102     12101     12103     12105     12102     12101     12153     12154
     12102     12101     12153     12155     12103     12101     12153     12154
     12103     12101     12153     12155     12103     12105     12107     12108
     12103     12105     12109     12110     12103     12105     12109     12111
     12104     12103     12101     12153     12104     12103     12105     12106
     12104     12103     12105     12107     12104     12103     12105     12109
     12105     12103     12101     12153     12105     12109     12111     12112
     12105     12109     12111     12113     12106     12105     12107     12108
     12106     12105     12109     12110     12106     12105     12109     12111
     12107     12105     12109     12110     12107     12105     12109     12111
     12108     12107     12105     12109     12109     12111     12113     12114
     12109     12111     12113     12115     12109     12111     12113     12116
     12110     12109     12111     12112     12110     12109     12111     12113
     12111     12113     12116     12117     12111     12113     12116     12118
     12111     12113     12116     12119     12112     12111     12113     12114
     12112     12111     12113     12115     12112     12111     12113     12116
     12113     12116     12119     12120     12113     12116     12119     12121
     12113     12116     12119     12122     12114     12113     12116     12117
     12114     12113     12116     12118     12114     12113     12116     12119
     12115     12113     12116     12117     12115     12113     12116     12118
     12115     12113     12116     12119     12116     12119     12122     12123
     12116     12119     12122     12124     12116     12119     12122     12125
     12117     12116     12119     12120     12117     12116     12119     12121
     12117     12116     12119     12122     12118     12116     12119     12120
     12118     12116     12119     12121     12118     12116     12119     12122
     12119     12122     12125     12126     12119     12122     12125     12127
     12119     12122     12125     12128     12120     12119     12122     12123
     12120     12119     12122     12124     12120     12119     12122     12125
     12121     12119     12122     12123     12121     12119     12122     12124
     12121     12119     12122     12125     12122     12125     12128     12129
     12122     12125     12128     12130     12122     12125     12128     12131
     12123     12122     12125     12126     12123     12122     12125     12127
     12123     12122     12125     12128     12124     12122     12125     12126
     12124     12122     12125     12127     12124     12122     12125     12128
     12125     12128     12131     12132     12125     12128     12131     12133
     12125     12128     12131     12134     12126     12125     12128     12129
     12126     12125     12128     12130     12126     12125     12128     12131
     12127     12125     12128     12129     12127     12125     12128     12130
     12127     12125     12128     12131     12128     12131     12134     12135
     12128     12131     12134     12136     12128     12131     12134     12137
     12129     12128     12131     12132     12129     12128     12131     12133
     12129     12128     12131     12134     12130     12128     12131     12132
     12130     12128     12131     12133     12130     12128     12131     12134
     12131     12134     12137     12138     12131     12134     12137     12139
     12131     12134     12137     12140     12132     12131     12134     12135
     12132     12131     12134     12136     12132     12131     12134     12137
     12133     12131     12134     12135     12133     12131     12134     12136
     12133     12131     12134     12137     12134     12137     12140     12141
     12134     12137     12140     12142     12134     12137     12140     12143
     12135     12134     12137     12138     12135     12134     12137     12139
     12135     12134     12137     12140     12136     12134     12137     12138
     12136     12134     12137     12139     12136     12134     12137     12140
     12137     12140     12143     12144     12137     12140     12143     12145
     12137     12140     12143     12146     12138     12137     12140     12141
     12138     12137     12140     12142     12138     12137     12140     12143
     12139     12137     12140     12141     12139     12137     12140     12142
     12139     12137     12140     12143     12140     12143     12146     12147
     12140     12143     12146     12148     12140     12143     12146     12149
     12141     12140     12143     12144     12141     12140     12143     12145
     12141     12140     12143     12146     12142     12140     12143     12144
     12142     12140     12143     12145     12142     12140     12143     12146
     12143     12146     12149     12150     12143     12146     12149     12151
     12143     12146     12149     12152     12144     12143     12146     12147
     12144     12143     12146     12148     12144     12143     12146     12149
     12145     12143     12146     12147     12145     12143     12146     12148
     12145     12143     12146     12149     12147     12146     12149     12150
     12147     12146     12149     12151     12147     12146     12149     12152
     12148     12146     12149     12150     12148     12146     12149     12151
     12148     12146     12149     12152     12153     12155     12158     12159
     12153     12155     12158     12160     12153     12155     12158     12161
     12154     12153     12155     12156     12154     12153     12155     12157
     12154     12153     12155     12158     12155     12158     12161     12162
     12155     12158     12161     12163     12155     12158     12161     12164
     12156     12155     12158     12159     12156     12155     12158     12160
     12156     12155     12158     12161     12157     12155     12158     12159
     12157     12155     12158     12160     12157     12155     12158     12161
     12158     12161     12164     12165     12158     12161     12164     12166
     12158     12161     12164     12167     12159     12158     12161     12162
     12159     12158     12161     12163     12159     12158     12161     12164
     12160     12158     12161     12162     12160     12158     12161     12163
     12160     12158     12161     12164     12161     12164     12167     12168
     12161     12164     12167     12169     12161     12164     12167     12170
     12162     12161     12164     12165     12162     12161     12164     12166
     12162     12161     12164     12167     12163     12161     12164     12165
     12163     12161     12164     12166     12163     12161     12164     12167
     12164     12167     12170     12171     12164     12167     12170     12172
     12164     12167     12170     12173     12165     12164     12167     12168
     12165     12164     12167     12169     12165     12164     12167     12170
     12166     12164     12167     12168     12166     12164     12167     12169
     12166     12164     12167     12170     12167     12170     12173     12174
     12167     12170     12173     12175     12167     12170     12173     12176
     12168     12167     12170     12171     12168     12167     12170     12172
     12168     12167     12170     12173     12169     12167     12170     12171
     12169     12167     12170     12172     12169     12167     12170     12173
     12170     12173     12176     12177     12170     12173     12176     12178
     12171     12170     12173     12174     12171     12170     12173     12175
     12171     12170     12173     12176     12172     12170     12173     12174
     12172     12170     12173     12175     12172     12170     12173     12176
     12173     12176     12178     12179     12173     12176     12178     12180
     12174     12173     12176     12177     12174     12173     12176     12178
     12175     12173     12176     12177     12175     12173     12176     12178
     12176     12178     12180     12181     12176     12178     12180     12182
     12176     12178     12180     12183     12177     12176     12178     12179
     12177     12176     12178     12180     12178     12180     12183     12184
     12178     12180     12183     12185     12178     12180     12183     12186
     12179     12178     12180     12181     12179     12178     12180     12182
     12179     12178     12180     12183     12180     12183     12186     12187
     12180     12183     12186     12188     12180     12183     12186     12189
     12181     12180     12183     12184     12181     12180     12183     12185
     12181     12180     12183     12186     12182     12180     12183     12184
     12182     12180     12183     12185     12182     12180     12183     12186
     12183     12186     12189     12190     12183     12186     12189     12191
     12183     12186     12189     12192     12184     12183     12186     12187
     12184     12183     12186     12188     12184     12183     12186     12189
     12185     12183     12186     12187     12185     12183     12186     12188
     12185     12183     12186     12189     12186     12189     12192     12193
     12186     12189     12192     12194     12186     12189     12192     12195
     12187     12186     12189     12190     12187     12186     12189     12191
     12187     12186     12189     12192     12188     12186     12189     12190
     12188     12186     12189     12191     12188     12186     12189     12192
     12189     12192     12195     12196     12189     12192     12195     12197
     12189     12192     12195     12198     12190     12189     12192     12193
     12190     12189     12192     12194     12190     12189     12192     12195
     12191     12189     12192     12193     12191     12189     12192     12194
     12191     12189     12192     12195     12192     12195     12198     12199
     12192     12195     12198     12200     12192     12195     12198     12201
     12193     12192     12195     12196     12193     12192     12195     12197
     12193     12192     12195     12198     12194     12192     12195     12196
     12194     12192     12195     12197     12194     12192     12195     12198
     12195     12198     12201     12202     12195     12198     12201     12203
     12195     12198     12201     12204     12196     12195     12198     12199
     12196     12195     12198     12200     12196     12195     12198     12201
     12197     12195     12198     12199     12197     12195     12198     12200
     12197     12195     12198     12201     12199     12198     12201     12202
     12199     12198     12201     12203     12199     12198     12201     12204
     12200     12198     12201     12202     12200     12198     12201     12203
     12200     12198     12201     12204     12205     12218     12221     12222
     12205     12218     12221     12223     12205     12218     12221     12228
     12206     12205     12210     12211     12206     12205     12210     12212
     12206     12205     12210     12213     12206     12205     12214     12215
     12206     12205     12214     12216     12206     12205     12214     12217
     12206     12205     12218     12219     12206     12205     12218     12220
     12206     12205     12218     12221     12207     12206     12205     12210
     12207     12206     12205     12214     12207     12206     12205     12218
     12208     12206     12205     12210     12208     12206     12205     12214
     12208     12206     12205     12218     12209     12206     12205     12210
     12209     12206     12205     12214     12209     12206     12205     12218
     12210     12205     12214     12215     12210     12205     12214     12216
     12210     12205     12214     12217     12210     12205     12218     12219
     12210     12205     12218     12220     12210     12205     12218     12221
     12211     12210     12205     12214     12211     12210     12205     12218
     12212     12210     12205     12214     12212     12210     12205     12218
     12213     12210     12205     12214     12213     12210     12205     12218
     12214     12205     12218     12219     12214     12205     12218     12220
     12214     12205     12218     12221     12215     12214     12205     12218
     12216     12214     12205     12218     12217     12214     12205     12218
     12218     12221     12228     12224     12219     12218     12221     12222
     12219     12218     12221     12223     12219     12218     12221     12228
     12220     12218     12221     12222     12220     12218     12221     12223
     12220     12218     12221     12228     12221     12228     12224     12225
     12221     12228     12224     12226     12221     12228     12224     12227
     12222     12221     12228     12224     12223     12221     12228     12224
     12224     12227     12229     12230     12224     12227     12229     12231
     12224     12227     12229     12234     12225     12224     12227     12229
     12226     12224     12227     12229     12227     12229     12234     12232
     12227     12229     12234     12235     12227     12229     12234     12236
     12228     12224     12227     12229     12229     12234     12232     12233
     12229     12234     12232     12284     12229     12234     12236     12237
     12229     12234     12236     12238     12229     12234     12236     12240
     12230     12229     12234     12232     12230     12229     12234     12235
     12230     12229     12234     12236     12231     12229     12234     12232
     12231     12229     12234     12235     12231     12229     12234     12236
     12232     12234     12236     12237     12232     12234     12236     12238
     12232     12234     12236     12240     12232     12284     12286     12287
     12232     12284     12286     12288     12232     12284     12286     12289
     12233     12232     12234     12235     12233     12232     12234     12236
     12233     12232     12284     12285     12233     12232     12284     12286
     12234     12232     12284     12285     12234     12232     12284     12286
     12234     12236     12238     12239     12234     12236     12240     12241
     12234     12236     12240     12242     12235     12234     12232     12284
     12235     12234     12236     12237     12235     12234     12236     12238
     12235     12234     12236     12240     12236     12234     12232     12284
     12236     12240     12242     12243     12236     12240     12242     12244
     12237     12236     12238     12239     12237     12236     12240     12241
     12237     12236     12240     12242     12238     12236     12240     12241
     12238     12236     12240     12242     12239     12238     12236     12240
     12240     12242     12244     12245     12240     12242     12244     12246
     12240     12242     12244     12247     12241     12240     12242     12243
     12241     12240     12242     12244     12242     12244     12247     12248
     12242     12244     12247     12249     12242     12244     12247     12250
     12243     12242     12244     12245     12243     12242     12244     12246
     12243     12242     12244     12247     12244     12247     12250     12251
     12244     12247     12250     12252     12244     12247     12250     12253
     12245     12244     12247     12248     12245     12244     12247     12249
     12245     12244     12247     12250     12246     12244     12247     12248
     12246     12244     12247     12249     12246     12244     12247     12250
     12247     12250     12253     12254     12247     12250     12253     12255
     12247     12250     12253     12256     12248     12247     12250     12251
     12248     12247     12250     12252     12248     12247     12250     12253
     12249     12247     12250     12251     12249     12247     12250     12252
     12249     12247     12250     12253     12250     12253     12256     12257
     12250     12253     12256     12258     12250     12253     12256     12259
     12251     12250     12253     12254     12251     12250     12253     12255
     12251     12250     12253     12256     12252     12250     12253     12254
     12252     12250     12253     12255     12252     12250     12253     12256
     12253     12256     12259     12260     12253     12256     12259     12261
     12253     12256     12259     12262     12254     12253     12256     12257
     12254     12253     12256     12258     12254     12253     12256     12259
     12255     12253     12256     12257     12255     12253     12256     12258
     12255     12253     12256     12259     12256     12259     12262     12263
     12256     12259     12262     12264     12256     12259     12262     12265
     12257     12256     12259     12260     12257     12256     12259     12261
     12257     12256     12259     12262     12258     12256     12259     12260
     12258     12256     12259     12261     12258     12256     12259     12262
     12259     12262     12265     12266     12259     12262     12265     12267
     12259     12262     12265     12268     12260     12259     12262     12263
     12260     12259     12262     12264     12260     12259     12262     12265
     12261     12259     12262     12263     12261     12259     12262     12264
     12261     12259     12262     12265     12262     12265     12268     12269
     12262     12265     12268     12270     12262     12265     12268     12271
     12263     12262     12265     12266     12263     12262     12265     12267
     12263     12262     12265     12268     12264     12262     12265     12266
     12264     12262     12265     12267     12264     12262     12265     12268
     12265     12268     12271     12272     12265     12268     12271     12273
     12265     12268     12271     12274     12266     12265     12268     12269
     12266     12265     12268     12270     12266     12265     12268     12271
     12267     12265     12268     12269     12267     12265     12268     12270
     12267     12265     12268     12271     12268     12271     12274     12275
     12268     12271     12274     12276     12268     12271     12274     12277
     12269     12268     12271     12272     12269     12268     12271     12273
     12269     12268     12271     12274     12270     12268     12271     12272
     12270     12268     12271     12273     12270     12268     12271     12274
     12271     12274     12277     12278     12271     12274     12277     12279
     12271     12274     12277     12280     12272     12271     12274     12275
     12272     12271     12274     12276     12272     12271     12274     12277
     12273     12271     12274     12275     12273     12271     12274     12276
     12273     12271     12274     12277     12274     12277     12280     12281
     12274     12277     12280     12282     12274     12277     12280     12283
     12275     12274     12277     12278     12275     12274     12277     12279
     12275     12274     12277     12280     12276     12274     12277     12278
     12276     12274     12277     12279     12276     12274     12277     12280
     12278     12277     12280     12281     12278     12277     12280     12282
     12278     12277     12280     12283     12279     12277     12280     12281
     12279     12277     12280     12282     12279     12277     12280     12283
     12284     12286     12289     12290     12284     12286     12289     12291
     12284     12286     12289     12292     12285     12284     12286     12287
     12285     12284     12286     12288     12285     12284     12286     12289
     12286     12289     12292     12293     12286     12289     12292     12294
     12286     12289     12292     12295     12287     12286     12289     12290
     12287     12286     12289     12291     12287     12286     12289     12292
     12288     12286     12289     12290     12288     12286     12289     12291
     12288     12286     12289     12292     12289     12292     12295     12296
     12289     12292     12295     12297     12289     12292     12295     12298
     12290     12289     12292     12293     12290     12289     12292     12294
     12290     12289     12292     12295     12291     12289     12292     12293
     12291     12289     12292     12294     12291     12289     12292     12295
     12292     12295     12298     12299     12292     12295     12298     12300
     12292     12295     12298     12301     12293     12292     12295     12296
     12293     12292     12295     12297     12293     12292     12295     12298
     12294     12292     12295     12296     12294     12292     12295     12297
     12294     12292     12295     12298     12295     12298     12301     12302
     12295     12298     12301     12303     12295     12298     12301     12304
     12296     12295     12298     12299     12296     12295     12298     12300
     12296     12295     12298     12301     12297     12295     12298     12299
     12297     12295     12298     12300     12297     12295     12298     12301
     12298     12301     12304     12305     12298     12301     12304     12306
     12298     12301     12304     12307     12299     12298     12301     12302
     12299     12298     12301     12303     12299     12298     12301     12304
     12300     12298     12301     12302     12300     12298     12301     12303
     12300     12298     12301     12304     12301     12304     12307     12308
     12301     12304     12307     12309     12302     12301     12304     12305
     12302     12301     12304     12306     12302     12301     12304     12307
     12303     12301     12304     12305     12303     12301     12304     12306
     12303     12301     12304     12307     12304     12307     12309     12310
     12304     12307     12309     12311     12305     12304     12307     12308
     12305     12304     12307     12309     12306     12304     12307     12308
     12306     12304     12307     12309     12307     12309     12311     12312
     12307     12309     12311     12313     12307     12309     12311     12314
     12308     12307     12309     12310     12308     12307     12309     12311
     12309     12311     12314     12315     12309     12311     12314     12316
     12309     12311     12314     12317     12310     12309     12311     12312
     12310     12309     12311     12313     12310     12309     12311     12314
     12311     12314     12317     12318     12311     12314     12317     12319
     12311     12314     12317     12320     12312     12311     12314     12315
     12312     12311     12314     12316     12312     12311     12314     12317
     12313     12311     12314     12315     12313     12311     12314     12316
     12313     12311     12314     12317     12314     12317     12320     12321
     12314     12317     12320     12322     12314     12317     12320     12323
     12315     12314     12317     12318     12315     12314     12317     12319
     12315     12314     12317     12320     12316     12314     12317     12318
     12316     12314     12317     12319     12316     12314     12317     12320
     12317     12320     12323     12324     12317     12320     12323     12325
     12317     12320     12323     12326     12318     12317     12320     12321
     12318     12317     12320     12322     12318     12317     12320     12323
     12319     12317     12320     12321     12319     12317     12320     12322
     12319     12317     12320     12323     12320     12323     12326     12327
     12320     12323     12326     12328     12320     12323     12326     12329
     12321     12320     12323     12324     12321     12320     12323     12325
     12321     12320     12323     12326     12322     12320     12323     12324
     12322     12320     12323     12325     12322     12320     12323     12326
     12323     12326     12329     12330     12323     12326     12329     12331
     12323     12326     12329     12332     12324     12323     12326     12327
     12324     12323     12326     12328     12324     12323     12326     12329
     12325     12323     12326     12327     12325     12323     12326     12328
     12325     12323     12326     12329     12326     12329     12332     12333
     12326     12329     12332     12334     12326     12329     12332     12335
     12327     12326     12329     12330     12327     12326     12329     12331
     12327     12326     12329     12332     12328     12326     12329     12330
     12328     12326     12329     12331     12328     12326     12329     12332
     12330     12329     12332     12333     12330     12329     12332     12334
     12330     12329     12332     12335     12331     12329     12332     12333
     12331     12329     12332     12334     12331     12329     12332     12335
     12336     12349     12352     12353     12336     12349     12352     12354
     12336     12349     12352     12359     12337     12336     12341     12342
     12337     12336     12341     12343     12337     12336     12341     12344
     12337     12336     12345     12346     12337     12336     12345     12347
     12337     12336     12345     12348     12337     12336     12349     12350
     12337     12336     12349     12351     12337     12336     12349     12352
     12338     12337     12336     12341     12338     12337     12336     12345
     12338     12337     12336     12349     12339     12337     12336     12341
     12339     12337     12336     12345     12339     12337     12336     12349
     12340     12337     12336     12341     12340     12337     12336     12345
     12340     12337     12336     12349     12341     12336     12345     12346
     12341     12336     12345     12347     12341     12336     12345     12348
     12341     12336     12349     12350     12341     12336     12349     12351
     12341     12336     12349     12352     12342     12341     12336     12345
     12342     12341     12336     12349     12343     12341     12336     12345
     12343     12341     12336     12349     12344     12341     12336     12345
     12344     12341     12336     12349     12345     12336     12349     12350
     12345     12336     12349     12351     12345     12336     12349     12352
     12346     12345     12336     12349     12347     12345     12336     12349
     12348     12345     12336     12349     12349     12352     12359     12355
     12350     12349     12352     12353     12350     12349     12352     12354
     12350     12349     12352     12359     12351     12349     12352     12353
     12351     12349     12352     12354     12351     12349     12352     12359
     12352     12359     12355     12356     12352     12359     12355     12357
     12352     12359     12355     12358     12353     12352     12359     12355
     12354     12352     12359     12355     12355     12358     12360     12361
     12355     12358     12360     12362     12355     12358     12360     12365
     12356     12355     12358     12360     12357     12355     12358     12360
     12358     12360     12365     12363     12358     12360     12365     12366
     12358     12360     12365     12367     12359     12355     12358     12360
     12360     12365     12363     12364     12360     12365     12363     12415
     12360     12365     12367     12368     12360     12365     12367     12369
     12360     12365     12367     12371     12361     12360     12365     12363
     12361     12360     12365     12366     12361     12360     12365     12367
     12362     12360     12365     12363     12362     12360     12365     12366
     12362     12360     12365     12367     12363     12365     12367     12368
     12363     12365     12367     12369     12363     12365     12367     12371
     12363     12415     12417     12418     12363     12415     12417     12419
     12363     12415     12417     12420     12364     12363     12365     12366
     12364     12363     12365     12367     12364     12363     12415     12416
     12364     12363     12415     12417     12365     12363     12415     12416
     12365     12363     12415     12417     12365     12367     12369     12370
     12365     12367     12371     12372     12365     12367     12371     12373
     12366     12365     12363     12415     12366     12365     12367     12368
     12366     12365     12367     12369     12366     12365     12367     12371
     12367     12365     12363     12415     12367     12371     12373     12374
     12367     12371     12373     12375     12368     12367     12369     12370
     12368     12367     12371     12372     12368     12367     12371     12373
     12369     12367     12371     12372     12369     12367     12371     12373
     12370     12369     12367     12371     12371     12373     12375     12376
     12371     12373     12375     12377     12371     12373     12375     12378
     12372     12371     12373     12374     12372     12371     12373     12375
     12373     12375     12378     12379     12373     12375     12378     12380
     12373     12375     12378     12381     12374     12373     12375     12376
     12374     12373     12375     12377     12374     12373     12375     12378
     12375     12378     12381     12382     12375     12378     12381     12383
     12375     12378     12381     12384     12376     12375     12378     12379
     12376     12375     12378     12380     12376     12375     12378     12381
     12377     12375     12378     12379     12377     12375     12378     12380
     12377     12375     12378     12381     12378     12381     12384     12385
     12378     12381     12384     12386     12378     12381     12384     12387
     12379     12378     12381     12382     12379     12378     12381     12383
     12379     12378     12381     12384     12380     12378     12381     12382
     12380     12378     12381     12383     12380     12378     12381     12384
     12381     12384     12387     12388     12381     12384     12387     12389
     12381     12384     12387     12390     12382     12381     12384     12385
     12382     12381     12384     12386     12382     12381     12384     12387
     12383     12381     12384     12385     12383     12381     12384     12386
     12383     12381     12384     12387     12384     12387     12390     12391
     12384     12387     12390     12392     12384     12387     12390     12393
     12385     12384     12387     12388     12385     12384     12387     12389
     12385     12384     12387     12390     12386     12384     12387     12388
     12386     12384     12387     12389     12386     12384     12387     12390
     12387     12390     12393     12394     12387     12390     12393     12395
     12387     12390     12393     12396     12388     12387     12390     12391
     12388     12387     12390     12392     12388     12387     12390     12393
     12389     12387     12390     12391     12389     12387     12390     12392
     12389     12387     12390     12393     12390     12393     12396     12397
     12390     12393     12396     12398     12390     12393     12396     12399
     12391     12390     12393     12394     12391     12390     12393     12395
     12391     12390     12393     12396     12392     12390     12393     12394
     12392     12390     12393     12395     12392     12390     12393     12396
     12393     12396     12399     12400     12393     12396     12399     12401
     12393     12396     12399     12402     12394     12393     12396     12397
     12394     12393     12396     12398     12394     12393     12396     12399
     12395     12393     12396     12397     12395     12393     12396     12398
     12395     12393     12396     12399     12396     12399     12402     12403
     12396     12399     12402     12404     12396     12399     12402     12405
     12397     12396     12399     12400     12397     12396     12399     12401
     12397     12396     12399     12402     12398     12396     12399     12400
     12398     12396     12399     12401     12398     12396     12399     12402
     12399     12402     12405     12406     12399     12402     12405     12407
     12399     12402     12405     12408     12400     12399     12402     12403
     12400     12399     12402     12404     12400     12399     12402     12405
     12401     12399     12402     12403     12401     12399     12402     12404
     12401     12399     12402     12405     12402     12405     12408     12409
     12402     12405     12408     12410     12402     12405     12408     12411
     12403     12402     12405     12406     12403     12402     12405     12407
     12403     12402     12405     12408     12404     12402     12405     12406
     12404     12402     12405     12407     12404     12402     12405     12408
     12405     12408     12411     12412     12405     12408     12411     12413
     12405     12408     12411     12414     12406     12405     12408     12409
     12406     12405     12408     12410     12406     12405     12408     12411
     12407     12405     12408     12409     12407     12405     12408     12410
     12407     12405     12408     12411     12409     12408     12411     12412
     12409     12408     12411     12413     12409     12408     12411     12414
     12410     12408     12411     12412     12410     12408     12411     12413
     12410     12408     12411     12414     12415     12417     12420     12421
     12415     12417     12420     12422     12415     12417     12420     12423
     12416     12415     12417     12418     12416     12415     12417     12419
     12416     12415     12417     12420     12417     12420     12423     12424
     12417     12420     12423     12425     12417     12420     12423     12426
     12418     12417     12420     12421     12418     12417     12420     12422
     12418     12417     12420     12423     12419     12417     12420     12421
     12419     12417     12420     12422     12419     12417     12420     12423
     12420     12423     12426     12427     12420     12423     12426     12428
     12420     12423     12426     12429     12421     12420     12423     12424
     12421     12420     12423     12425     12421     12420     12423     12426
     12422     12420     12423     12424     12422     12420     12423     12425
     12422     12420     12423     12426     12423     12426     12429     12430
     12423     12426     12429     12431     12423     12426     12429     12432
     12424     12423     12426     12427     12424     12423     12426     12428
     12424     12423     12426     12429     12425     12423     12426     12427
     12425     12423     12426     12428     12425     12423     12426     12429
     12426     12429     12432     12433     12426     12429     12432     12434
     12426     12429     12432     12435     12427     12426     12429     12430
     12427     12426     12429     12431     12427     12426     12429     12432
     12428     12426     12429     12430     12428     12426     12429     12431
     12428     12426     12429     12432     12429     12432     12435     12436
     12429     12432     12435     12437     12429     12432     12435     12438
     12430     12429     12432     12433     12430     12429     12432     12434
     12430     12429     12432     12435     12431     12429     12432     12433
     12431     12429     12432     12434     12431     12429     12432     12435
     12432     12435     12438     12439     12432     12435     12438     12440
     12433     12432     12435     12436     12433     12432     12435     12437
     12433     12432     12435     12438     12434     12432     12435     12436
     12434     12432     12435     12437     12434     12432     12435     12438
     12435     12438     12440     12441     12435     12438     12440     12442
     12436     12435     12438     12439     12436     12435     12438     12440
     12437     12435     12438     12439     12437     12435     12438     12440
     12438     12440     12442     12443     12438     12440     12442     12444
     12438     12440     12442     12445     12439     12438     12440     12441
     12439     12438     12440     12442     12440     12442     12445     12446
     12440     12442     12445     12447     12440     12442     12445     12448
     12441     12440     12442     12443     12441     12440     12442     12444
     12441     12440     12442     12445     12442     12445     12448     12449
     12442     12445     12448     12450     12442     12445     12448     12451
     12443     12442     12445     12446     12443     12442     12445     12447
     12443     12442     12445     12448     12444     12442     12445     12446
     12444     12442     12445     12447     12444     12442     12445     12448
     12445     12448     12451     12452     12445     12448     12451     12453
     12445     12448     12451     12454     12446     12445     12448     12449
     12446     12445     12448     12450     12446     12445     12448     12451
     12447     12445     12448     12449     12447     12445     12448     12450
     12447     12445     12448     12451     12448     12451     12454     12455
     12448     12451     12454     12456     12448     12451     12454     12457
     12449     12448     12451     12452     12449     12448     12451     12453
     12449     12448     12451     12454     12450     12448     12451     12452
     12450     12448     12451     12453     12450     12448     12451     12454
     12451     12454     12457     12458     12451     12454     12457     12459
     12451     12454     12457     12460     12452     12451     12454     12455
     12452     12451     12454     12456     12452     12451     12454     12457
     12453     12451     12454     12455     12453     12451     12454     12456
     12453     12451     12454     12457     12454     12457     12460     12461
     12454     12457     12460     12462     12454     12457     12460     12463
     12455     12454     12457     12458     12455     12454     12457     12459
     12455     12454     12457     12460     12456     12454     12457     12458
     12456     12454     12457     12459     12456     12454     12457     12460
     12457     12460     12463     12464     12457     12460     12463     12465
     12457     12460     12463     12466     12458     12457     12460     12461
     12458     12457     12460     12462     12458     12457     12460     12463
     12459     12457     12460     12461     12459     12457     12460     12462
     12459     12457     12460     12463     12461     12460     12463     12464
     12461     12460     12463     12465     12461     12460     12463     12466
     12462     12460     12463     12464     12462     12460     12463     12465
     12462     12460     12463     12466     12467     12480     12483     12484
     12467     12480     12483     12485     12467     12480     12483     12490
     12468     12467     12472     12473     12468     12467     12472     12474
     12468     12467     12472     12475     12468     12467     12476     12477
     12468     12467     12476     12478     12468     12467     12476     12479
     12468     12467     12480     12481     12468     12467     12480     12482
     12468     12467     12480     12483     12469     12468     12467     12472
     12469     12468     12467     12476     12469     12468     12467     12480
     12470     12468     12467     12472     12470     12468     12467     12476
     12470     12468     12467     12480     12471     12468     12467     12472
     12471     12468     12467     12476     12471     12468     12467     12480
     12472     12467     12476     12477     12472     12467     12476     12478
     12472     12467     12476     12479     12472     12467     12480     12481
     12472     12467     12480     12482     12472     12467     12480     12483
     12473     12472     12467     12476     12473     12472     12467     12480
     12474     12472     12467     12476     12474     12472     12467     12480
     12475     12472     12467     12476     12475     12472     12467     12480
     12476     12467     12480     12481     12476     12467     12480     12482
     12476     12467     12480     12483     12477     12476     12467     12480
     12478     12476     12467     12480     12479     12476     12467     12480
     12480     12483     12490     12486     12481     12480     12483     12484
     12481     12480     12483     12485     12481     12480     12483     12490
     12482     12480     12483     12484     12482     12480     12483     12485
     12482     12480     12483     12490     12483     12490     12486     12487
     12483     12490     12486     12488     12483     12490     12486     12489
     12484     12483     12490     12486     12485     12483     12490     12486
     12486     12489     12491     12492     12486     12489     12491     12493
     12486     12489     12491     12496     12487     12486     12489     12491
     12488     12486     12489     12491     12489     12491     12496     12494
     12489     12491     12496     12497     12489     12491     12496     12498
     12490     12486     12489     12491     12491     12496     12494     12495
     12491     12496     12494     12546     12491     12496     12498     12499
     12491     12496     12498     12500     12491     12496     12498     12502
     12492     12491     12496     12494     12492     12491     12496     12497
     12492     12491     12496     12498     12493     12491     12496     12494
     12493     12491     12496     12497     12493     12491     12496     12498
     12494     12496     12498     12499     12494     12496     12498     12500
     12494     12496     12498     12502     12494     12546     12548     12549
     12494     12546     12548     12550     12494     12546     12548     12551
     12495     12494     12496     12497     12495     12494     12496     12498
     12495     12494     12546     12547     12495     12494     12546     12548
     12496     12494     12546     12547     12496     12494     12546     12548
     12496     12498     12500     12501     12496     12498     12502     12503
     12496     12498     12502     12504     12497     12496     12494     12546
     12497     12496     12498     12499     12497     12496     12498     12500
     12497     12496     12498     12502     12498     12496     12494     12546
     12498     12502     12504     12505     12498     12502     12504     12506
     12499     12498     12500     12501     12499     12498     12502     12503
     12499     12498     12502     12504     12500     12498     12502     12503
     12500     12498     12502     12504     12501     12500     12498     12502
     12502     12504     12506     12507     12502     12504     12506     12508
     12502     12504     12506     12509     12503     12502     12504     12505
     12503     12502     12504     12506     12504     12506     12509     12510
     12504     12506     12509     12511     12504     12506     12509     12512
     12505     12504     12506     12507     12505     12504     12506     12508
     12505     12504     12506     12509     12506     12509     12512     12513
     12506     12509     12512     12514     12506     12509     12512     12515
     12507     12506     12509     12510     12507     12506     12509     12511
     12507     12506     12509     12512     12508     12506     12509     12510
     12508     12506     12509     12511     12508     12506     12509     12512
     12509     12512     12515     12516     12509     12512     12515     12517
     12509     12512     12515     12518     12510     12509     12512     12513
     12510     12509     12512     12514     12510     12509     12512     12515
     12511     12509     12512     12513     12511     12509     12512     12514
     12511     12509     12512     12515     12512     12515     12518     12519
     12512     12515     12518     12520     12512     12515     12518     12521
     12513     12512     12515     12516     12513     12512     12515     12517
     12513     12512     12515     12518     12514     12512     12515     12516
     12514     12512     12515     12517     12514     12512     12515     12518
     12515     12518     12521     12522     12515     12518     12521     12523
     12515     12518     12521     12524     12516     12515     12518     12519
     12516     12515     12518     12520     12516     12515     12518     12521
     12517     12515     12518     12519     12517     12515     12518     12520
     12517     12515     12518     12521     12518     12521     12524     12525
     12518     12521     12524     12526     12518     12521     12524     12527
     12519     12518     12521     12522     12519     12518     12521     12523
     12519     12518     12521     12524     12520     12518     12521     12522
     12520     12518     12521     12523     12520     12518     12521     12524
     12521     12524     12527     12528     12521     12524     12527     12529
     12521     12524     12527     12530     12522     12521     12524     12525
     12522     12521     12524     12526     12522     12521     12524     12527
     12523     12521     12524     12525     12523     12521     12524     12526
     12523     12521     12524     12527     12524     12527     12530     12531
     12524     12527     12530     12532     12524     12527     12530     12533
     12525     12524     12527     12528     12525     12524     12527     12529
     12525     12524     12527     12530     12526     12524     12527     12528
     12526     12524     12527     12529     12526     12524     12527     12530
     12527     12530     12533     12534     12527     12530     12533     12535
     12527     12530     12533     12536     12528     12527     12530     12531
     12528     12527     12530     12532     12528     12527     12530     12533
     12529     12527     12530     12531     12529     12527     12530     12532
     12529     12527     12530     12533     12530     12533     12536     12537
     12530     12533     12536     12538     12530     12533     12536     12539
     12531     12530     12533     12534     12531     12530     12533     12535
     12531     12530     12533     12536     12532     12530     12533     12534
     12532     12530     12533     12535     12532     12530     12533     12536
     12533     12536     12539     12540     12533     12536     12539     12541
     12533     12536     12539     12542     12534     12533     12536     12537
     12534     12533     12536     12538     12534     12533     12536     12539
     12535     12533     12536     12537     12535     12533     12536     12538
     12535     12533     12536     12539     12536     12539     12542     12543
     12536     12539     12542     12544     12536     12539     12542     12545
     12537     12536     12539     12540     12537     12536     12539     12541
     12537     12536     12539     12542     12538     12536     12539     12540
     12538     12536     12539     12541     12538     12536     12539     12542
     12540     12539     12542     12543     12540     12539     12542     12544
     12540     12539     12542     12545     12541     12539     12542     12543
     12541     12539     12542     12544     12541     12539     12542     12545
     12546     12548     12551     12552     12546     12548     12551     12553
     12546     12548     12551     12554     12547     12546     12548     12549
     12547     12546     12548     12550     12547     12546     12548     12551
     12548     12551     12554     12555     12548     12551     12554     12556
     12548     12551     12554     12557     12549     12548     12551     12552
     12549     12548     12551     12553     12549     12548     12551     12554
     12550     12548     12551     12552     12550     12548     12551     12553
     12550     12548     12551     12554     12551     12554     12557     12558
     12551     12554     12557     12559     12551     12554     12557     12560
     12552     12551     12554     12555     12552     12551     12554     12556
     12552     12551     12554     12557     12553     12551     12554     12555
     12553     12551     12554     12556     12553     12551     12554     12557
     12554     12557     12560     12561     12554     12557     12560     12562
     12554     12557     12560     12563     12555     12554     12557     12558
     12555     12554     12557     12559     12555     12554     12557     12560
     12556     12554     12557     12558     12556     12554     12557     12559
     12556     12554     12557     12560     12557     12560     12563     12564
     12557     12560     12563     12565     12557     12560     12563     12566
     12558     12557     12560     12561     12558     12557     12560     12562
     12558     12557     12560     12563     12559     12557     12560     12561
     12559     12557     12560     12562     12559     12557     12560     12563
     12560     12563     12566     12567     12560     12563     12566     12568
     12560     12563     12566     12569     12561     12560     12563     12564
     12561     12560     12563     12565     12561     12560     12563     12566
     12562     12560     12563     12564     12562     12560     12563     12565
     12562     12560     12563     12566     12563     12566     12569     12570
     12563     12566     12569     12571     12564     12563     12566     12567
     12564     12563     12566     12568     12564     12563     12566     12569
     12565     12563     12566     12567     12565     12563     12566     12568
     12565     12563     12566     12569     12566     12569     12571     12572
     12566     12569     12571     12573     12567     12566     12569     12570
     12567     12566     12569     12571     12568     12566     12569     12570
     12568     12566     12569     12571     12569     12571     12573     12574
     12569     12571     12573     12575     12569     12571     12573     12576
     12570     12569     12571     12572     12570     12569     12571     12573
     12571     12573     12576     12577     12571     12573     12576     12578
     12571     12573     12576     12579     12572     12571     12573     12574
     12572     12571     12573     12575     12572     12571     12573     12576
     12573     12576     12579     12580     12573     12576     12579     12581
     12573     12576     12579     12582     12574     12573     12576     12577
     12574     12573     12576     12578     12574     12573     12576     12579
     12575     12573     12576     12577     12575     12573     12576     12578
     12575     12573     12576     12579     12576     12579     12582     12583
     12576     12579     12582     12584     12576     12579     12582     12585
     12577     12576     12579     12580     12577     12576     12579     12581
     12577     12576     12579     12582     12578     12576     12579     12580
     12578     12576     12579     12581     12578     12576     12579     12582
     12579     12582     12585     12586     12579     12582     12585     12587
     12579     12582     12585     12588     12580     12579     12582     12583
     12580     12579     12582     12584     12580     12579     12582     12585
     12581     12579     12582     12583     12581     12579     12582     12584
     12581     12579     12582     12585     12582     12585     12588     12589
     12582     12585     12588     12590     12582     12585     12588     12591
     12583     12582     12585     12586     12583     12582     12585     12587
     12583     12582     12585     12588     12584     12582     12585     12586
     12584     12582     12585     12587     12584     12582     12585     12588
     12585     12588     12591     12592     12585     12588     12591     12593
     12585     12588     12591     12594     12586     12585     12588     12589
     12586     12585     12588     12590     12586     12585     12588     12591
     12587     12585     12588     12589     12587     12585     12588     12590
     12587     12585     12588     12591     12588     12591     12594     12595
     12588     12591     12594     12596     12588     12591     12594     12597
     12589     12588     12591     12592     12589     12588     12591     12593
     12589     12588     12591     12594     12590     12588     12591     12592
     12590     12588     12591     12593     12590     12588     12591     12594
     12592     12591     12594     12595     12592     12591     12594     12596
     12592     12591     12594     12597     12593     12591     12594     12595
     12593     12591     12594     12596     12593     12591     12594     12597
     12598     12611     12614     12615     12598     12611     12614     12616
     12598     12611     12614     12621     12599     12598     12603     12604
     12599     12598     12603     12605     12599     12598     12603     12606
     12599     12598     12607     12608     12599     12598     12607     12609
     12599     12598     12607     12610     12599     12598     12611     12612
     12599     12598     12611     12613     12599     12598     12611     12614
     12600     12599     12598     12603     12600     12599     12598     12607
     12600     12599     12598     12611     12601     12599     12598     12603
     12601     12599     12598     12607     12601     12599     12598     12611
     12602     12599     12598     12603     12602     12599     12598     12607
     12602     12599     12598     12611     12603     12598     12607     12608
     12603     12598     12607     12609     12603     12598     12607     12610
     12603     12598     12611     12612     12603     12598     12611     12613
     12603     12598     12611     12614     12604     12603     12598     12607
     12604     12603     12598     12611     12605     12603     12598     12607
     12605     12603     12598     12611     12606     12603     12598     12607
     12606     12603     12598     12611     12607     12598     12611     12612
     12607     12598     12611     12613     12607     12598     12611     12614
     12608     12607     12598     12611     12609     12607     12598     12611
     12610     12607     12598     12611     12611     12614     12621     12617
     12612     12611     12614     12615     12612     12611     12614     12616
     12612     12611     12614     12621     12613     12611     12614     12615
     12613     12611     12614     12616     12613     12611     12614     12621
     12614     12621     12617     12618     12614     12621     12617     12619
     12614     12621     12617     12620     12615     12614     12621     12617
     12616     12614     12621     12617     12617     12620     12622     12623
     12617     12620     12622     12624     12617     12620     12622     12627
     12618     12617     12620     12622     12619     12617     12620     12622
     12620     12622     12627     12625     12620     12622     12627     12628
     12620     12622     12627     12629     12621     12617     12620     12622
     12622     12627     12625     12626     12622     12627     12625     12677
     12622     12627     12629     12630     12622     12627     12629     12631
     12622     12627     12629     12633     12623     12622     12627     12625
     12623     12622     12627     12628     12623     12622     12627     12629
     12624     12622     12627     12625     12624     12622     12627     12628
     12624     12622     12627     12629     12625     12627     12629     12630
     12625     12627     12629     12631     12625     12627     12629     12633
     12625     12677     12679     12680     12625     12677     12679     12681
     12625     12677     12679     12682     12626     12625     12627     12628
     12626     12625     12627     12629     12626     12625     12677     12678
     12626     12625     12677     12679     12627     12625     12677     12678
     12627     12625     12677     12679     12627     12629     12631     12632
     12627     12629     12633     12634     12627     12629     12633     12635
     12628     12627     12625     12677     12628     12627     12629     12630
     12628     12627     12629     12631     12628     12627     12629     12633
     12629     12627     12625     12677     12629     12633     12635     12636
     12629     12633     12635     12637     12630     12629     12631     12632
     12630     12629     12633     12634     12630     12629     12633     12635
     12631     12629     12633     12634     12631     12629     12633     12635
     12632     12631     12629     12633     12633     12635     12637     12638
     12633     12635     12637     12639     12633     12635     12637     12640
     12634     12633     12635     12636     12634     12633     12635     12637
     12635     12637     12640     12641     12635     12637     12640     12642
     12635     12637     12640     12643     12636     12635     12637     12638
     12636     12635     12637     12639     12636     12635     12637     12640
     12637     12640     12643     12644     12637     12640     12643     12645
     12637     12640     12643     12646     12638     12637     12640     12641
     12638     12637     12640     12642     12638     12637     12640     12643
     12639     12637     12640     12641     12639     12637     12640     12642
     12639     12637     12640     12643     12640     12643     12646     12647
     12640     12643     12646     12648     12640     12643     12646     12649
     12641     12640     12643     12644     12641     12640     12643     12645
     12641     12640     12643     12646     12642     12640     12643     12644
     12642     12640     12643     12645     12642     12640     12643     12646
     12643     12646     12649     12650     12643     12646     12649     12651
     12643     12646     12649     12652     12644     12643     12646     12647
     12644     12643     12646     12648     12644     12643     12646     12649
     12645     12643     12646     12647     12645     12643     12646     12648
     12645     12643     12646     12649     12646     12649     12652     12653
     12646     12649     12652     12654     12646     12649     12652     12655
     12647     12646     12649     12650     12647     12646     12649     12651
     12647     12646     12649     12652     12648     12646     12649     12650
     12648     12646     12649     12651     12648     12646     12649     12652
     12649     12652     12655     12656     12649     12652     12655     12657
     12649     12652     12655     12658     12650     12649     12652     12653
     12650     12649     12652     12654     12650     12649     12652     12655
     12651     12649     12652     12653     12651     12649     12652     12654
     12651     12649     12652     12655     12652     12655     12658     12659
     12652     12655     12658     12660     12652     12655     12658     12661
     12653     12652     12655     12656     12653     12652     12655     12657
     12653     12652     12655     12658     12654     12652     12655     12656
     12654     12652     12655     12657     12654     12652     12655     12658
     12655     12658     12661     12662     12655     12658     12661     12663
     12655     12658     12661     12664     12656     12655     12658     12659
     12656     12655     12658     12660     12656     12655     12658     12661
     12657     12655     12658     12659     12657     12655     12658     12660
     12657     12655     12658     12661     12658     12661     12664     12665
     12658     12661     12664     12666     12658     12661     12664     12667
     12659     12658     12661     12662     12659     12658     12661     12663
     12659     12658     12661     12664     12660     12658     12661     12662
     12660     12658     12661     12663     12660     12658     12661     12664
     12661     12664     12667     12668     12661     12664     12667     12669
     12661     12664     12667     12670     12662     12661     12664     12665
     12662     12661     12664     12666     12662     12661     12664     12667
     12663     12661     12664     12665     12663     12661     12664     12666
     12663     12661     12664     12667     12664     12667     12670     12671
     12664     12667     12670     12672     12664     12667     12670     12673
     12665     12664     12667     12668     12665     12664     12667     12669
     12665     12664     12667     12670     12666     12664     12667     12668
     12666     12664     12667     12669     12666     12664     12667     12670
     12667     12670     12673     12674     12667     12670     12673     12675
     12667     12670     12673     12676     12668     12667     12670     12671
     12668     12667     12670     12672     12668     12667     12670     12673
     12669     12667     12670     12671     12669     12667     12670     12672
     12669     12667     12670     12673     12671     12670     12673     12674
     12671     12670     12673     12675     12671     12670     12673     12676
     12672     12670     12673     12674     12672     12670     12673     12675
     12672     12670     12673     12676     12677     12679     12682     12683
     12677     12679     12682     12684     12677     12679     12682     12685
     12678     12677     12679     12680     12678     12677     12679     12681
     12678     12677     12679     12682     12679     12682     12685     12686
     12679     12682     12685     12687     12679     12682     12685     12688
     12680     12679     12682     12683     12680     12679     12682     12684
     12680     12679     12682     12685     12681     12679     12682     12683
     12681     12679     12682     12684     12681     12679     12682     12685
     12682     12685     12688     12689     12682     12685     12688     12690
     12682     12685     12688     12691     12683     12682     12685     12686
     12683     12682     12685     12687     12683     12682     12685     12688
     12684     12682     12685     12686     12684     12682     12685     12687
     12684     12682     12685     12688     12685     12688     12691     12692
     12685     12688     12691     12693     12685     12688     12691     12694
     12686     12685     12688     12689     12686     12685     12688     12690
     12686     12685     12688     12691     12687     12685     12688     12689
     12687     12685     12688     12690     12687     12685     12688     12691
     12688     12691     12694     12695     12688     12691     12694     12696
     12688     12691     12694     12697     12689     12688     12691     12692
     12689     12688     12691     12693     12689     12688     12691     12694
     12690     12688     12691     12692     12690     12688     12691     12693
     12690     12688     12691     12694     12691     12694     12697     12698
     12691     12694     12697     12699     12691     12694     12697     12700
     12692     12691     12694     12695     12692     12691     12694     12696
     12692     12691     12694     12697     12693     12691     12694     12695
     12693     12691     12694     12696     12693     12691     12694     12697
     12694     12697     12700     12701     12694     12697     12700     12702
     12695     12694     12697     12698     12695     12694     12697     12699
     12695     12694     12697     12700     12696     12694     12697     12698
     12696     12694     12697     12699     12696     12694     12697     12700
     12697     12700     12702     12703     12697     12700     12702     12704
     12698     12697     12700     12701     12698     12697     12700     12702
     12699     12697     12700     12701     12699     12697     12700     12702
     12700     12702     12704     12705     12700     12702     12704     12706
     12700     12702     12704     12707     12701     12700     12702     12703
     12701     12700     12702     12704     12702     12704     12707     12708
     12702     12704     12707     12709     12702     12704     12707     12710
     12703     12702     12704     12705     12703     12702     12704     12706
     12703     12702     12704     12707     12704     12707     12710     12711
     12704     12707     12710     12712     12704     12707     12710     12713
     12705     12704     12707     12708     12705     12704     12707     12709
     12705     12704     12707     12710     12706     12704     12707     12708
     12706     12704     12707     12709     12706     12704     12707     12710
     12707     12710     12713     12714     12707     12710     12713     12715
     12707     12710     12713     12716     12708     12707     12710     12711
     12708     12707     12710     12712     12708     12707     12710     12713
     12709     12707     12710     12711     12709     12707     12710     12712
     12709     12707     12710     12713     12710     12713     12716     12717
     12710     12713     12716     12718     12710     12713     12716     12719
     12711     12710     12713     12714     12711     12710     12713     12715
     12711     12710     12713     12716     12712     12710     12713     12714
     12712     12710     12713     12715     12712     12710     12713     12716
     12713     12716     12719     12720     12713     12716     12719     12721
     12713     12716     12719     12722     12714     12713     12716     12717
     12714     12713     12716     12718     12714     12713     12716     12719
     12715     12713     12716     12717     12715     12713     12716     12718
     12715     12713     12716     12719     12716     12719     12722     12723
     12716     12719     12722     12724     12716     12719     12722     12725
     12717     12716     12719     12720     12717     12716     12719     12721
     12717     12716     12719     12722     12718     12716     12719     12720
     12718     12716     12719     12721     12718     12716     12719     12722
     12719     12722     12725     12726     12719     12722     12725     12727
     12719     12722     12725     12728     12720     12719     12722     12723
     12720     12719     12722     12724     12720     12719     12722     12725
     12721     12719     12722     12723     12721     12719     12722     12724
     12721     12719     12722     12725     12723     12722     12725     12726
     12723     12722     12725     12727     12723     12722     12725     12728
     12724     12722     12725     12726     12724     12722     12725     12727
     12724     12722     12725     12728      3389      3390      3405      3406
      3389      3390      3405      3407      3389      3390      3405      3411
      3390      3389      3393      3394      3390      3389      3393      3395
      3390      3389      3393      3396      3390      3389      3397      3398
      3390      3389      3397      3399      3390      3389      3397      3400
      3390      3389      3401      3402      3390      3389      3401      3403
      3390      3389      3401      3404      3390      3405      3411      3408
      3391      3390      3389      3393      3391      3390      3389      3397
      3391      3390      3389      3401      3391      3390      3405      3406
      3391      3390      3405      3407      3391      3390      3405      3411
      3392      3390      3389      3393      3392      3390      3389      3397
      3392      3390      3389      3401      3392      3390      3405      3406
      3392      3390      3405      3407      3392      3390      3405      3411
      3393      3389      3390      3405      3393      3389      3397      3398
      3393      3389      3397      3399      3393      3389      3397      3400
      3393      3389      3401      3402      3393      3389      3401      3403
      3393      3389      3401      3404      3394      3393      3389      3397
      3394      3393      3389      3401      3395      3393      3389      3397
      3395      3393      3389      3401      3396      3393      3389      3397
      3396      3393      3389      3401      3397      3389      3390      3405
      3397      3389      3401      3402      3397      3389      3401      3403
      3397      3389      3401      3404      3398      3397      3389      3401
      3399      3397      3389      3401      3400      3397      3389      3401
      3401      3389      3390      3405      3405      3411      3408      3409
      3405      3411      3408      3410      3405      3411      3408      3412
      3406      3405      3411      3408      3407      3405      3411      3408
      3408      3412      3413      3414      3408      3412      3413      3415
      3408      3412      3413      3416      3409      3408      3412      3413
      3410      3408      3412      3413      3411      3408      3412      3413
      3412      3413      3416      3417      3412      3413      3416      3418
      3412      3413      3416      3424      3413      3416      3418      3419
      3413      3416      3424      3425      3413      3416      3424      3426
      3413      3416      3424      3427      3414      3413      3416      3417
      3414      3413      3416      3418      3414      3413      3416      3424
      3415      3413      3416      3417      3415      3413      3416      3418
      3415      3413      3416      3424      3416      3418      3419      3420
      3416      3418      3419      3421      3416      3424      3427      3428
      3417      3416      3418      3419      3417      3416      3424      3425
      3417      3416      3424      3426      3417      3416      3424      3427
      3418      3416      3424      3425      3418      3416      3424      3426
      3418      3416      3424      3427      3418      3419      3421      3422
      3418      3419      3421      3423      3418      3419      3421      3433
      3419      3418      3416      3424      3419      3421      3433      3434
      3419      3421      3433      3435      3419      3421      3433      3436
      3420      3419      3421      3422      3420      3419      3421      3423
      3420      3419      3421      3433      3421      3433      3436      3437
      3421      3433      3436      3438      3421      3433      3436      3439
      3422      3421      3433      3434      3422      3421      3433      3435
      3422      3421      3433      3436      3423      3421      3433      3434
      3423      3421      3433      3435      3423      3421      3433      3436
      3424      3427      3428      3429      3424      3427      3428      3430
      3425      3424      3427      3428      3426      3424      3427      3428
      3427      3428      3430      3431      3427      3428      3430      3432
      3427      3428      3430      3480      3428      3430      3480      3481
      3428      3430      3480      3482      3428      3430      3480      3483
      3429      3428      3430      3431      3429      3428      3430      3432
      3429      3428      3430      3480      3430      3480      3483      3484
      3430      3480      3483      3485      3430      3480      3483      3486
      3431      3430      3480      3481      3431      3430      3480      3482
      3431      3430      3480      3483      3432      3430      3480      3481
      3432      3430      3480      3482      3432      3430      3480      3483
      3433      3436      3439      3440      3433      3436      3439      3441
      3434      3433      3436      3437      3434      3433      3436      3438
      3434      3433      3436      3439      3435      3433      3436      3437
      3435      3433      3436      3438      3435      3433      3436      3439
      3436      3439      3441      3442      3436      3439      3441      3443
      3437      3436      3439      3440      3437      3436      3439      3441
      3438      3436      3439      3440      3438      3436      3439      3441
      3439      3441      3443      3444      3439      3441      3443      3445
      3439      3441      3443      3446      3440      3439      3441      3442
      3440      3439      3441      3443      3441      3443      3446      3447
      3441      3443      3446      3448      3442      3441      3443      3444
      3442      3441      3443      3445      3442      3441      3443      3446
      3443      3446      3448      3449      3443      3446      3448      3450
      3444      3443      3446      3447      3444      3443      3446      3448
      3445      3443      3446      3447      3445      3443      3446      3448
      3446      3448      3450      3451      3446      3448      3450      3452
      3446      3448      3450      3453      3447      3446      3448      3449
      3447      3446      3448      3450      3448      3450      3453      3454
      3448      3450      3453      3455      3449      3448      3450      3451
      3449      3448      3450      3452      3449      3448      3450      3453
      3450      3453      3455      3456      3450      3453      3455      3457
      3451      3450      3453      3454      3451      3450      3453      3455
      3452      3450      3453      3454      3452      3450      3453      3455
      3453      3455      3457      3458      3453      3455      3457      3459
      3453      3455      3457      3460      3454      3453      3455      3456
      3454      3453      3455      3457      3455      3457      3460      3461
      3455      3457      3460      3462      3456      3455      3457      3458
      3456      3455      3457      3459      3456      3455      3457      3460
      3457      3460      3462      3463      3457      3460      3462      3464
      3458      3457      3460      3461      3458      3457      3460      3462
      3459      3457      3460      3461      3459      3457      3460      3462
      3460      3462      3464      3465      3460      3462      3464      3466
      3460      3462      3464      3467      3461      3460      3462      3463
      3461      3460      3462      3464      3462      3464      3467      3468
      3462      3464      3467      3469      3462      3464      3467      3470
      3463      3462      3464      3465      3463      3462      3464      3466
      3463      3462      3464      3467      3464      3467      3470      3471
      3464      3467      3470      3472      3464      3467      3470      3473
      3465      3464      3467      3468      3465      3464      3467      3469
      3465      3464      3467      3470      3466      3464      3467      3468
      3466      3464      3467      3469      3466      3464      3467      3470
      3467      3470      3473      3474      3467      3470      3473      3475
      3467      3470      3473      3476      3468      3467      3470      3471
      3468      3467      3470      3472      3468      3467      3470      3473
      3469      3467      3470      3471      3469      3467      3470      3472
      3469      3467      3470      3473      3470      3473      3476      3477
      3470      3473      3476      3478      3470      3473      3476      3479
      3471      3470      3473      3474      3471      3470      3473      3475
      3471      3470      3473      3476      3472      3470      3473      3474
      3472      3470      3473      3475      3472      3470      3473      3476
      3474      3473      3476      3477      3474      3473      3476      3478
      3474      3473      3476      3479      3475      3473      3476      3477
      3475      3473      3476      3478      3475      3473      3476      3479
      3480      3483      3486      3487      3480      3483      3486      3488
      3480      3483      3486      3489      3481      3480      3483      3484
      3481      3480      3483      3485      3481      3480      3483      3486
      3482      3480      3483      3484      3482      3480      3483      3485
      3482      3480      3483      3486      3483      3486      3489      3490
      3483      3486      3489      3491      3483      3486      3489      3492
      3484      3483      3486      3487      3484      3483      3486      3488
      3484      3483      3486      3489      3485      3483      3486      3487
      3485      3483      3486      3488      3485      3483      3486      3489
      3486      3489      3492      3493      3486      3489      3492      3494
      3486      3489      3492      3495      3487      3486      3489      3490
      3487      3486      3489      3491      3487      3486      3489      3492
      3488      3486      3489      3490      3488      3486      3489      3491
      3488      3486      3489      3492      3489      3492      3495      3496
      3489      3492      3495      3497      3489      3492      3495      3498
      3490      3489      3492      3493      3490      3489      3492      3494
      3490      3489      3492      3495      3491      3489      3492      3493
      3491      3489      3492      3494      3491      3489      3492      3495
      3492      3495      3498      3499      3492      3495      3498      3500
      3492      3495      3498      3501      3493      3492      3495      3496
      3493      3492      3495      3497      3493      3492      3495      3498
      3494      3492      3495      3496      3494      3492      3495      3497
      3494      3492      3495      3498      3495      3498      3501      3502
      3495      3498      3501      3503      3495      3498      3501      3504
      3496      3495      3498      3499      3496      3495      3498      3500
      3496      3495      3498      3501      3497      3495      3498      3499
      3497      3495      3498      3500      3497      3495      3498      3501
      3498      3501      3504      3505      3498      3501      3504      3506
      3498      3501      3504      3507      3499      3498      3501      3502
      3499      3498      3501      3503      3499      3498      3501      3504
      3500      3498      3501      3502      3500      3498      3501      3503
      3500      3498      3501      3504      3501      3504      3507      3508
      3501      3504      3507      3509      3501      3504      3507      3510
      3502      3501      3504      3505      3502      3501      3504      3506
      3502      3501      3504      3507      3503      3501      3504      3505
      3503      3501      3504      3506      3503      3501      3504      3507
      3504      3507      3510      3511      3504      3507      3510      3512
      3504      3507      3510      3513      3505      3504      3507      3508
      3505      3504      3507      3509      3505      3504      3507      3510
      3506      3504      3507      3508      3506      3504      3507      3509
      3506      3504      3507      3510      3507      3510      3513      3514
      3507      3510      3513      3515      3507      3510      3513      3516
      3508      3507      3510      3511      3508      3507      3510      3512
      3508      3507      3510      3513      3509      3507      3510      3511
      3509      3507      3510      3512      3509      3507      3510      3513
      3510      3513      3516      3517      3510      3513      3516      3518
      3510      3513      3516      3519      3511      3510      3513      3514
      3511      3510      3513      3515      3511      3510      3513      3516
      3512      3510      3513      3514      3512      3510      3513      3515
      3512      3510      3513      3516      3513      3516      3519      3520
      3513      3516      3519      3521      3513      3516      3519      3522
      3514      3513      3516      3517      3514      3513      3516      3518
      3514      3513      3516      3519      3515      3513      3516      3517
      3515      3513      3516      3518      3515      3513      3516      3519
      3516      3519      3522      3523      3516      3519      3522      3524
      3516      3519      3522      3525      3517      3516      3519      3520
      3517      3516      3519      3521      3517      3516      3519      3522
      3518      3516      3519      3520      3518      3516      3519      3521
      3518      3516      3519      3522      3519      3522      3525      3526
      3519      3522      3525      3527      3519      3522      3525      3528
      3520      3519      3522      3523      3520      3519      3522      3524
      3520      3519      3522      3525      3521      3519      3522      3523
      3521      3519      3522      3524      3521      3519      3522      3525
      3523      3522      3525      3526      3523      3522      3525      3527
      3523      3522      3525      3528      3524      3522      3525      3526
      3524      3522      3525      3527      3524      3522      3525      3528
      7883      7887      7890      7891      7883      7887      7890      7921
      7883      7929      7926      7921      7883      7929      7926      7927
      7883      7929      7926      7928      7884      7883      7885      7886
      7884      7883      7887      7888      7884      7883      7887      7889
      7884      7883      7887      7890      7884      7883      7929      7926
      7884      7883      7929      7930      7884      7883      7929      7931
      7885      7883      7887      7888      7885      7883      7887      7889
      7885      7883      7887      7890      7885      7883      7929      7926
      7885      7883      7929      7930      7885      7883      7929      7931
      7886      7885      7883      7887      7886      7885      7883      7929
      7887      7883      7929      7926      7887      7883      7929      7930
      7887      7883      7929      7931      7887      7890      7891      7892
      7887      7890      7891      7893      7887      7890      7921      7919
      7887      7890      7921      7922      7887      7890      7921      7926
      7888      7887      7883      7929      7888      7887      7890      7891
      7888      7887      7890      7921      7889      7887      7883      7929
      7889      7887      7890      7891      7889      7887      7890      7921
      7890      7887      7883      7929      7890      7891      7893      7894
      7890      7891      7893      7895      7890      7891      7893      7896
      7890      7921      7919      7896      7890      7921      7919      7916
      7890      7921      7919      7920      7890      7921      7922      7923
      7890      7921      7922      7924      7890      7921      7922      7925
      7890      7921      7926      7927      7890      7921      7926      7928
      7890      7921      7926      7929      7891      7890      7921      7919
      7891      7890      7921      7922      7891      7890      7921      7926
      7891      7893      7896      7897      7891      7893      7896      7898
      7891      7893      7896      7919      7892      7891      7890      7921
      7892      7891      7893      7894      7892      7891      7893      7895
      7892      7891      7893      7896      7893      7891      7890      7921
      7893      7896      7898      7899      7893      7896      7898      7900
      7893      7896      7898      7908      7893      7896      7919      7916
      7893      7896      7919      7920      7893      7896      7919      7921
      7894      7893      7896      7897      7894      7893      7896      7898
      7894      7893      7896      7919      7895      7893      7896      7897
      7895      7893      7896      7898      7895      7893      7896      7919
      7896      7898      7900      7901      7896      7898      7900      7902
      7896      7898      7900      7903      7896      7898      7908      7906
      7896      7898      7908      7909      7896      7898      7908      7913
      7896      7919      7916      7913      7896      7919      7916      7917
      7896      7919      7916      7918      7896      7919      7921      7922
      7896      7919      7921      7926      7897      7896      7898      7899
      7897      7896      7898      7900      7897      7896      7898      7908
      7897      7896      7919      7916      7897      7896      7919      7920
      7897      7896      7919      7921      7898      7896      7919      7916
      7898      7896      7919      7920      7898      7896      7919      7921
      7898      7900      7903      7904      7898      7900      7903      7905
      7898      7900      7903      7906      7898      7908      7906      7903
      7898      7908      7906      7907      7898      7908      7906      7932
      7898      7908      7909      7910      7898      7908      7909      7911
      7898      7908      7909      7912      7898      7908      7913      7914
      7898      7908      7913      7915      7898      7908      7913      7916
      7899      7898      7896      7919      7899      7898      7900      7901
      7899      7898      7900      7902      7899      7898      7900      7903
      7899      7898      7908      7906      7899      7898      7908      7909
      7899      7898      7908      7913      7900      7898      7896      7919
      7900      7898      7908      7906      7900      7898      7908      7909
      7900      7898      7908      7913      7900      7903      7906      7907
      7900      7903      7906      7908      7900      7903      7906      7932
      7901      7900      7898      7908      7901      7900      7903      7904
      7901      7900      7903      7905      7901      7900      7903      7906
      7902      7900      7898      7908      7902      7900      7903      7904
      7902      7900      7903      7905      7902      7900      7903      7906
      7903      7900      7898      7908      7903      7906      7908      7909
      7903      7906      7908      7913      7903      7906      7932      7933
      7903      7906      7932      7934      7903      7906      7932      7938
      7904      7903      7906      7907      7904      7903      7906      7908
      7904      7903      7906      7932      7905      7903      7906      7907
      7905      7903      7906      7908      7905      7903      7906      7932
      7906      7908      7909      7910      7906      7908      7909      7911
      7906      7908      7909      7912      7906      7908      7913      7914
      7906      7908      7913      7915      7906      7908      7913      7916
      7906      7932      7934      7935      7906      7932      7934      7936
      7906      7932      7934      7937      7906      7932      7938      7939
      7906      7932      7938      7940      7906      7932      7938      7941
      7907      7906      7908      7909      7907      7906      7908      7913
      7907      7906      7932      7933      7907      7906      7932      7934
      7907      7906      7932      7938      7908      7898      7896      7919
      7908      7906      7932      7933      7908      7906      7932      7934
      7908      7906      7932      7938      7908      7913      7916      7917
      7908      7913      7916      7918      7908      7913      7916      7919
      7909      7908      7906      7932      7909      7908      7913      7914
      7909      7908      7913      7915      7909      7908      7913      7916
      7910      7909      7908      7913      7911      7909      7908      7913
      7912      7909      7908      7913      7913      7908      7906      7932
      7913      7916      7919      7920      7913      7916      7919      7921
      7914      7913      7916      7917      7914      7913      7916      7918
      7914      7913      7916      7919      7915      7913      7916      7917
      7915      7913      7916      7918      7915      7913      7916      7919
      7916      7919      7921      7922      7916      7919      7921      7926
      7917      7916      7919      7920      7917      7916      7919      7921
      7918      7916      7919      7920      7918      7916      7919      7921
      7919      7921      7922      7923      7919      7921      7922      7924
      7919      7921      7922      7925      7919      7921      7926      7927
      7919      7921      7926      7928      7919      7921      7926      7929
      7920      7919      7921      7922      7920      7919      7921      7926
      7921      7926      7929      7930      7921      7926      7929      7931
      7922      7921      7926      7927      7922      7921      7926      7928
      7922      7921      7926      7929      7923      7922      7921      7926
      7924      7922      7921      7926      7925      7922      7921      7926
      7927      7926      7929      7930      7927      7926      7929      7931
      7928      7926      7929      7930      7928      7926      7929      7931
      7932      7938      7941      7942      7932      7938      7941      7943
      7932      7938      7941      7944      7933      7932      7934      7935
      7933      7932      7934      7936      7933      7932      7934      7937
      7933      7932      7938      7939      7933      7932      7938      7940
      7933      7932      7938      7941      7934      7932      7938      7939
      7934      7932      7938      7940      7934      7932      7938      7941
      7935      7934      7932      7938      7936      7934      7932      7938
      7937      7934      7932      7938      7938      7941      7944      7945
      7938      7941      7944      7946      7938      7941      7944      7947
      7939      7938      7941      7942      7939      7938      7941      7943
      7939      7938      7941      7944      7940      7938      7941      7942
      7940      7938      7941      7943      7940      7938      7941      7944
      7941      7944      7947      7948      7941      7944      7947      7949
      7941      7944      7947      7953      7942      7941      7944      7945
      7942      7941      7944      7946      7942      7941      7944      7947
      7943      7941      7944      7945      7943      7941      7944      7946
      7943      7941      7944      7947      7944      7947      7949      7950
      7944      7947      7949      7951      7944      7947      7949      7952
      7944      7947      7953      7954      7944      7947      7953      7955
      7944      7947      7953      7956      7945      7944      7947      7948
      7945      7944      7947      7949      7945      7944      7947      7953
      7946      7944      7947      7948      7946      7944      7947      7949
      7946      7944      7947      7953      7948      7947      7949      7950
      7948      7947      7949      7951      7948      7947      7949      7952
      7948      7947      7953      7954      7948      7947      7953      7955
      7948      7947      7953      7956      7949      7947      7953      7954
      7949      7947      7953      7955      7949      7947      7953      7956
      7950      7949      7947      7953      7951      7949      7947      7953
      7952      7949      7947      7953     16659     16663     16666     16667
     16659     16663     16666     16668     16659     16663     16666     16672
     16660     16659     16663     16664     16660     16659     16663     16665
     16660     16659     16663     16666     16661     16659     16663     16664
     16661     16659     16663     16665     16661     16659     16663     16666
     16662     16659     16663     16664     16662     16659     16663     16665
     16662     16659     16663     16666     16663     16666     16672     16669
     16664     16663     16666     16667     16664     16663     16666     16668
     16664     16663     16666     16672     16665     16663     16666     16667
     16665     16663     16666     16668     16665     16663     16666     16672
     16666     16672     16669     16670     16666     16672     16669     16671
     16666     16672     16669     16673     16667     16666     16672     16669
     16668     16666     16672     16669     16669     16673     16674     16675
     16669     16673     16674     16676     16669     16673     16674     16677
     16670     16669     16673     16674     16671     16669     16673     16674
     16672     16669     16673     16674     16673     16674     16677     16678
     16673     16674     16677     16679     16673     16674     16677     16685
     16674     16677     16679     16680     16674     16677     16685     16686
     16674     16677     16685     16687     16674     16677     16685     16688
     16675     16674     16677     16678     16675     16674     16677     16679
     16675     16674     16677     16685     16676     16674     16677     16678
     16676     16674     16677     16679     16676     16674     16677     16685
     16677     16679     16680     16681     16677     16679     16680     16682
     16677     16685     16688     16689     16678     16677     16679     16680
     16678     16677     16685     16686     16678     16677     16685     16687
     16678     16677     16685     16688     16679     16677     16685     16686
     16679     16677     16685     16687     16679     16677     16685     16688
     16679     16680     16682     16683     16679     16680     16682     16684
     16679     16680     16682     16694     16680     16679     16677     16685
     16680     16682     16694     16695     16680     16682     16694     16696
     16680     16682     16694     16697     16681     16680     16682     16683
     16681     16680     16682     16684     16681     16680     16682     16694
     16682     16694     16697     16698     16682     16694     16697     16699
     16682     16694     16697     16700     16683     16682     16694     16695
     16683     16682     16694     16696     16683     16682     16694     16697
     16684     16682     16694     16695     16684     16682     16694     16696
     16684     16682     16694     16697     16685     16688     16689     16690
     16685     16688     16689     16691     16686     16685     16688     16689
     16687     16685     16688     16689     16688     16689     16691     16692
     16688     16689     16691     16693     16688     16689     16691     16741
     16689     16691     16741     16742     16689     16691     16741     16743
     16689     16691     16741     16744     16690     16689     16691     16692
     16690     16689     16691     16693     16690     16689     16691     16741
     16691     16741     16744     16745     16691     16741     16744     16746
     16691     16741     16744     16747     16692     16691     16741     16742
     16692     16691     16741     16743     16692     16691     16741     16744
     16693     16691     16741     16742     16693     16691     16741     16743
     16693     16691     16741     16744     16694     16697     16700     16701
     16694     16697     16700     16702     16695     16694     16697     16698
     16695     16694     16697     16699     16695     16694     16697     16700
     16696     16694     16697     16698     16696     16694     16697     16699
     16696     16694     16697     16700     16697     16700     16702     16703
     16697     16700     16702     16704     16698     16697     16700     16701
     16698     16697     16700     16702     16699     16697     16700     16701
     16699     16697     16700     16702     16700     16702     16704     16705
     16700     16702     16704     16706     16700     16702     16704     16707
     16701     16700     16702     16703     16701     16700     16702     16704
     16702     16704     16707     16708     16702     16704     16707     16709
     16703     16702     16704     16705     16703     16702     16704     16706
     16703     16702     16704     16707     16704     16707     16709     16710
     16704     16707     16709     16711     16705     16704     16707     16708
     16705     16704     16707     16709     16706     16704     16707     16708
     16706     16704     16707     16709     16707     16709     16711     16712
     16707     16709     16711     16713     16707     16709     16711     16714
     16708     16707     16709     16710     16708     16707     16709     16711
     16709     16711     16714     16715     16709     16711     16714     16716
     16710     16709     16711     16712     16710     16709     16711     16713
     16710     16709     16711     16714     16711     16714     16716     16717
     16711     16714     16716     16718     16712     16711     16714     16715
     16712     16711     16714     16716     16713     16711     16714     16715
     16713     16711     16714     16716     16714     16716     16718     16719
     16714     16716     16718     16720     16714     16716     16718     16721
     16715     16714     16716     16717     16715     16714     16716     16718
     16716     16718     16721     16722     16716     16718     16721     16723
     16717     16716     16718     16719     16717     16716     16718     16720
     16717     16716     16718     16721     16718     16721     16723     16724
     16718     16721     16723     16725     16719     16718     16721     16722
     16719     16718     16721     16723     16720     16718     16721     16722
     16720     16718     16721     16723     16721     16723     16725     16726
     16721     16723     16725     16727     16721     16723     16725     16728
     16722     16721     16723     16724     16722     16721     16723     16725
     16723     16725     16728     16729     16723     16725     16728     16730
     16723     16725     16728     16731     16724     16723     16725     16726
     16724     16723     16725     16727     16724     16723     16725     16728
     16725     16728     16731     16732     16725     16728     16731     16733
     16725     16728     16731     16734     16726     16725     16728     16729
     16726     16725     16728     16730     16726     16725     16728     16731
     16727     16725     16728     16729     16727     16725     16728     16730
     16727     16725     16728     16731     16728     16731     16734     16735
     16728     16731     16734     16736     16728     16731     16734     16737
     16729     16728     16731     16732     16729     16728     16731     16733
     16729     16728     16731     16734     16730     16728     16731     16732
     16730     16728     16731     16733     16730     16728     16731     16734
     16731     16734     16737     16738     16731     16734     16737     16739
     16731     16734     16737     16740     16732     16731     16734     16735
     16732     16731     16734     16736     16732     16731     16734     16737
     16733     16731     16734     16735     16733     16731     16734     16736
     16733     16731     16734     16737     16735     16734     16737     16738
     16735     16734     16737     16739     16735     16734     16737     16740
     16736     16734     16737     16738     16736     16734     16737     16739
     16736     16734     16737     16740     16741     16744     16747     16748
     16741     16744     16747     16749     16741     16744     16747     16750
     16742     16741     16744     16745     16742     16741     16744     16746
     16742     16741     16744     16747     16743     16741     16744     16745
     16743     16741     16744     16746     16743     16741     16744     16747
     16744     16747     16750     16751     16744     16747     16750     16752
     16744     16747     16750     16753     16745     16744     16747     16748
     16745     16744     16747     16749     16745     16744     16747     16750
     16746     16744     16747     16748     16746     16744     16747     16749
     16746     16744     16747     16750     16747     16750     16753     16754
     16747     16750     16753     16755     16747     16750     16753     16756
     16748     16747     16750     16751     16748     16747     16750     16752
     16748     16747     16750     16753     16749     16747     16750     16751
     16749     16747     16750     16752     16749     16747     16750     16753
     16750     16753     16756     16757     16750     16753     16756     16758
     16750     16753     16756     16759     16751     16750     16753     16754
     16751     16750     16753     16755     16751     16750     16753     16756
     16752     16750     16753     16754     16752     16750     16753     16755
     16752     16750     16753     16756     16753     16756     16759     16760
     16753     16756     16759     16761     16753     16756     16759     16762
     16754     16753     16756     16757     16754     16753     16756     16758
     16754     16753     16756     16759     16755     16753     16756     16757
     16755     16753     16756     16758     16755     16753     16756     16759
     16756     16759     16762     16763     16756     16759     16762     16764
     16756     16759     16762     16765     16757     16756     16759     16760
     16757     16756     16759     16761     16757     16756     16759     16762
     16758     16756     16759     16760     16758     16756     16759     16761
     16758     16756     16759     16762     16759     16762     16765     16766
     16759     16762     16765     16767     16759     16762     16765     16768
     16760     16759     16762     16763     16760     16759     16762     16764
     16760     16759     16762     16765     16761     16759     16762     16763
     16761     16759     16762     16764     16761     16759     16762     16765
     16762     16765     16768     16769     16762     16765     16768     16770
     16762     16765     16768     16771     16763     16762     16765     16766
     16763     16762     16765     16767     16763     16762     16765     16768
     16764     16762     16765     16766     16764     16762     16765     16767
     16764     16762     16765     16768     16765     16768     16771     16772
     16765     16768     16771     16773     16765     16768     16771     16774
     16766     16765     16768     16769     16766     16765     16768     16770
     16766     16765     16768     16771     16767     16765     16768     16769
     16767     16765     16768     16770     16767     16765     16768     16771
     16768     16771     16774     16775     16768     16771     16774     16776
     16768     16771     16774     16777     16769     16768     16771     16772
     16769     16768     16771     16773     16769     16768     16771     16774
     16770     16768     16771     16772     16770     16768     16771     16773
     16770     16768     16771     16774     16771     16774     16777     16778
     16771     16774     16777     16779     16771     16774     16777     16780
     16772     16771     16774     16775     16772     16771     16774     16776
     16772     16771     16774     16777     16773     16771     16774     16775
     16773     16771     16774     16776     16773     16771     16774     16777
     16774     16777     16780     16781     16774     16777     16780     16782
     16774     16777     16780     16783     16775     16774     16777     16778
     16775     16774     16777     16779     16775     16774     16777     16780
     16776     16774     16777     16778     16776     16774     16777     16779
     16776     16774     16777     16780     16777     16780     16783     16784
     16777     16780     16783     16785     16777     16780     16783     16786
     16778     16777     16780     16781     16778     16777     16780     16782
     16778     16777     16780     16783     16779     16777     16780     16781
     16779     16777     16780     16782     16779     16777     16780     16783
     16780     16783     16786     16787     16780     16783     16786     16788
     16780     16783     16786     16789     16781     16780     16783     16784
     16781     16780     16783     16785     16781     16780     16783     16786
     16782     16780     16783     16784     16782     16780     16783     16785
     16782     16780     16783     16786     16784     16783     16786     16787
     16784     16783     16786     16788     16784     16783     16786     16789
     16785     16783     16786     16787     16785     16783     16786     16788
     16785     16783     16786     16789     21493     21506     21509     21510
     21493     21506     21509     21511     21493     21506     21509     21515
     21494     21493     21498     21499     21494     21493     21498     21500
     21494     21493     21498     21501     21494     21493     21502     21503
     21494     21493     21502     21504     21494     21493     21502     21505
     21494     21493     21506     21507     21494     21493     21506     21508
     21494     21493     21506     21509     21495     21494     21493     21498
     21495     21494     21493     21502     21495     21494     21493     21506
     21496     21494     21493     21498     21496     21494     21493     21502
     21496     21494     21493     21506     21497     21494     21493     21498
     21497     21494     21493     21502     21497     21494     21493     21506
     21498     21493     21502     21503     21498     21493     21502     21504
     21498     21493     21502     21505     21498     21493     21506     21507
     21498     21493     21506     21508     21498     21493     21506     21509
     21499     21498     21493     21502     21499     21498     21493     21506
     21500     21498     21493     21502     21500     21498     21493     21506
     21501     21498     21493     21502     21501     21498     21493     21506
     21502     21493     21506     21507     21502     21493     21506     21508
     21502     21493     21506     21509     21503     21502     21493     21506
     21504     21502     21493     21506     21505     21502     21493     21506
     21506     21509     21515     21512     21507     21506     21509     21510
     21507     21506     21509     21511     21507     21506     21509     21515
     21508     21506     21509     21510     21508     21506     21509     21511
     21508     21506     21509     21515     21509     21515     21512     21513
     21509     21515     21512     21514     21509     21515     21512     21516
     21510     21509     21515     21512     21511     21509     21515     21512
     21512     21516     21517     21518     21512     21516     21517     21519
     21512     21516     21517     21520     21513     21512     21516     21517
     21514     21512     21516     21517     21515     21512     21516     21517
     21516     21517     21520     21521     21516     21517     21520     21522
     21516     21517     21520     21528     21517     21520     21522     21523
     21517     21520     21528     21529     21517     21520     21528     21530
     21517     21520     21528     21531     21518     21517     21520     21521
     21518     21517     21520     21522     21518     21517     21520     21528
     21519     21517     21520     21521     21519     21517     21520     21522
     21519     21517     21520     21528     21520     21522     21523     21524
     21520     21522     21523     21525     21520     21528     21531     21532
     21521     21520     21522     21523     21521     21520     21528     21529
     21521     21520     21528     21530     21521     21520     21528     21531
     21522     21520     21528     21529     21522     21520     21528     21530
     21522     21520     21528     21531     21522     21523     21525     21526
     21522     21523     21525     21527     21522     21523     21525     21537
     21523     21522     21520     21528     21523     21525     21537     21538
     21523     21525     21537     21539     21523     21525     21537     21540
     21524     21523     21525     21526     21524     21523     21525     21527
     21524     21523     21525     21537     21525     21537     21540     21541
     21525     21537     21540     21542     21525     21537     21540     21543
     21526     21525     21537     21538     21526     21525     21537     21539
     21526     21525     21537     21540     21527     21525     21537     21538
     21527     21525     21537     21539     21527     21525     21537     21540
     21528     21531     21532     21533     21528     21531     21532     21534
     21529     21528     21531     21532     21530     21528     21531     21532
     21531     21532     21534     21535     21531     21532     21534     21536
     21531     21532     21534     21582     21532     21534     21582     21583
     21532     21534     21582     21584     21532     21534     21582     21585
     21533     21532     21534     21535     21533     21532     21534     21536
     21533     21532     21534     21582     21534     21582     21585     21586
     21534     21582     21585     21587     21534     21582     21585     21588
     21535     21534     21582     21583     21535     21534     21582     21584
     21535     21534     21582     21585     21536     21534     21582     21583
     21536     21534     21582     21584     21536     21534     21582     21585
     21537     21540     21543     21544     21537     21540     21543     21545
     21537     21540     21543     21546     21538     21537     21540     21541
     21538     21537     21540     21542     21538     21537     21540     21543
     21539     21537     21540     21541     21539     21537     21540     21542
     21539     21537     21540     21543     21540     21543     21546     21547
     21540     21543     21546     21548     21540     21543     21546     21549
     21541     21540     21543     21544     21541     21540     21543     21545
     21541     21540     21543     21546     21542     21540     21543     21544
     21542     21540     21543     21545     21542     21540     21543     21546
     21543     21546     21549     21550     21543     21546     21549     21551
     21543     21546     21549     21552     21544     21543     21546     21547
     21544     21543     21546     21548     21544     21543     21546     21549
     21545     21543     21546     21547     21545     21543     21546     21548
     21545     21543     21546     21549     21546     21549     21552     21553
     21546     21549     21552     21554     21546     21549     21552     21555
     21547     21546     21549     21550     21547     21546     21549     21551
     21547     21546     21549     21552     21548     21546     21549     21550
     21548     21546     21549     21551     21548     21546     21549     21552
     21549     21552     21555     21556     21549     21552     21555     21557
     21550     21549     21552     21553     21550     21549     21552     21554
     21550     21549     21552     21555     21551     21549     21552     21553
     21551     21549     21552     21554     21551     21549     21552     21555
     21552     21555     21557     21558     21552     21555     21557     21559
     21553     21552     21555     21556     21553     21552     21555     21557
     21554     21552     21555     21556     21554     21552     21555     21557
     21555     21557     21559     21560     21555     21557     21559     21561
     21555     21557     21559     21562     21556     21555     21557     21558
     21556     21555     21557     21559     21557     21559     21562     21563
     21557     21559     21562     21564     21558     21557     21559     21560
     21558     21557     21559     21561     21558     21557     21559     21562
     21559     21562     21564     21565     21559     21562     21564     21566
     21560     21559     21562     21563     21560     21559     21562     21564
     21561     21559     21562     21563     21561     21559     21562     21564
     21562     21564     21566     21567     21562     21564     21566     21568
     21562     21564     21566     21569     21563     21562     21564     21565
     21563     21562     21564     21566     21564     21566     21569     21570
     21564     21566     21569     21571     21564     21566     21569     21572
     21565     21564     21566     21567     21565     21564     21566     21568
     21565     21564     21566     21569     21566     21569     21572     21573
     21566     21569     21572     21574     21566     21569     21572     21575
     21567     21566     21569     21570     21567     21566     21569     21571
     21567     21566     21569     21572     21568     21566     21569     21570
     21568     21566     21569     21571     21568     21566     21569     21572
     21569     21572     21575     21576     21569     21572     21575     21577
     21569     21572     21575     21578     21570     21569     21572     21573
     21570     21569     21572     21574     21570     21569     21572     21575
     21571     21569     21572     21573     21571     21569     21572     21574
     21571     21569     21572     21575     21572     21575     21578     21579
     21572     21575     21578     21580     21572     21575     21578     21581
     21573     21572     21575     21576     21573     21572     21575     21577
     21573     21572     21575     21578     21574     21572     21575     21576
     21574     21572     21575     21577     21574     21572     21575     21578
     21576     21575     21578     21579     21576     21575     21578     21580
     21576     21575     21578     21581     21577     21575     21578     21579
     21577     21575     21578     21580     21577     21575     21578     21581
     21582     21585     21588     21589     21582     21585     21588     21590
     21582     21585     21588     21591     21583     21582     21585     21586
     21583     21582     21585     21587     21583     21582     21585     21588
     21584     21582     21585     21586     21584     21582     21585     21587
     21584     21582     21585     21588     21585     21588     21591     21592
     21585     21588     21591     21593     21585     21588     21591     21594
     21586     21585     21588     21589     21586     21585     21588     21590
     21586     21585     21588     21591     21587     21585     21588     21589
     21587     21585     21588     21590     21587     21585     21588     21591
     21588     21591     21594     21595     21588     21591     21594     21596
     21588     21591     21594     21597     21589     21588     21591     21592
     21589     21588     21591     21593     21589     21588     21591     21594
     21590     21588     21591     21592     21590     21588     21591     21593
     21590     21588     21591     21594     21591     21594     21597     21598
     21591     21594     21597     21599     21591     21594     21597     21600
     21592     21591     21594     21595     21592     21591     21594     21596
     21592     21591     21594     21597     21593     21591     21594     21595
     21593     21591     21594     21596     21593     21591     21594     21597
     21594     21597     21600     21601     21594     21597     21600     21602
     21594     21597     21600     21603     21595     21594     21597     21598
     21595     21594     21597     21599     21595     21594     21597     21600
     21596     21594     21597     21598     21596     21594     21597     21599
     21596     21594     21597     21600     21597     21600     21603     21604
     21597     21600     21603     21605     21597     21600     21603     21606
     21598     21597     21600     21601     21598     21597     21600     21602
     21598     21597     21600     21603     21599     21597     21600     21601
     21599     21597     21600     21602     21599     21597     21600     21603
     21600     21603     21606     21607     21600     21603     21606     21608
     21600     21603     21606     21609     21601     21600     21603     21604
     21601     21600     21603     21605     21601     21600     21603     21606
     21602     21600     21603     21604     21602     21600     21603     21605
     21602     21600     21603     21606     21603     21606     21609     21610
     21603     21606     21609     21611     21603     21606     21609     21612
     21604     21603     21606     21607     21604     21603     21606     21608
     21604     21603     21606     21609     21605     21603     21606     21607
     21605     21603     21606     21608     21605     21603     21606     21609
     21606     21609     21612     21613     21606     21609     21612     21614
     21606     21609     21612     21615     21607     21606     21609     21610
     21607     21606     21609     21611     21607     21606     21609     21612
     21608     21606     21609     21610     21608     21606     21609     21611
     21608     21606     21609     21612     21609     21612     21615     21616
     21609     21612     21615     21617     21609     21612     21615     21618
     21610     21609     21612     21613     21610     21609     21612     21614
     21610     21609     21612     21615     21611     21609     21612     21613
     21611     21609     21612     21614     21611     21609     21612     21615
     21612     21615     21618     21619     21612     21615     21618     21620
     21612     21615     21618     21621     21613     21612     21615     21616
     21613     21612     21615     21617     21613     21612     21615     21618
     21614     21612     21615     21616     21614     21612     21615     21617
     21614     21612     21615     21618     21615     21618     21621     21622
     21615     21618     21621     21623     21615     21618     21621     21624
     21616     21615     21618     21619     21616     21615     21618     21620
     21616     21615     21618     21621     21617     21615     21618     21619
     21617     21615     21618     21620     21617     21615     21618     21621
     21618     21621     21624     21625     21618     21621     21624     21626
     21618     21621     21624     21627     21619     21618     21621     21622
     21619     21618     21621     21623     21619     21618     21621     21624
     21620     21618     21621     21622     21620     21618     21621     21623
     21620     21618     21621     21624     21621     21624     21627     21628
     21621     21624     21627     21629     21621     21624     21627     21630
     21622     21621     21624     21625     21622     21621     21624     21626
     21622     21621     21624     21627     21623     21621     21624     21625
     21623     21621     21624     21626     21623     21621     21624     21627
     21625     21624     21627     21628     21625     21624     21627     21629
     21625     21624     21627     21630     21626     21624     21627     21628
     21626     21624     21627     21629     21626     21624     21627     21630
     19827     19831     19833     19834     19827     19831     19835     19836
     19827     19831     19835     19837     19827     19831     19835     19839
     19827     19847     19843     19839     19827     19847     19843     19844
     19827     19847     19843     19845     19827     19847     19852     19849
     19828     19827     19829     19830     19828     19827     19831     19832
     19828     19827     19831     19833     19828     19827     19831     19835
     19828     19827     19847     19843     19828     19827     19847     19848
     19828     19827     19847     19852     19829     19827     19831     19832
     19829     19827     19831     19833     19829     19827     19831     19835
     19829     19827     19847     19843     19829     19827     19847     19848
     19829     19827     19847     19852     19830     19829     19827     19831
     19830     19829     19827     19847     19831     19827     19847     19843
     19831     19827     19847     19848     19831     19827     19847     19852
     19831     19835     19837     19838     19831     19835     19839     19840
     19831     19835     19839     19841     19831     19835     19839     19843
     19832     19831     19827     19847     19832     19831     19833     19834
     19832     19831     19835     19836     19832     19831     19835     19837
     19832     19831     19835     19839     19833     19831     19827     19847
     19833     19831     19835     19836     19833     19831     19835     19837
     19833     19831     19835     19839     19834     19833     19831     19835
     19835     19831     19827     19847     19835     19839     19841     19842
     19835     19839     19843     19844     19835     19839     19843     19845
     19835     19839     19843     19847     19836     19835     19837     19838
     19836     19835     19839     19840     19836     19835     19839     19841
     19836     19835     19839     19843     19837     19835     19839     19840
     19837     19835     19839     19841     19837     19835     19839     19843
     19838     19837     19835     19839     19839     19843     19845     19846
     19839     19843     19847     19848     19839     19843     19847     19852
     19840     19839     19841     19842     19840     19839     19843     19844
     19840     19839     19843     19845     19840     19839     19843     19847
     19841     19839     19843     19844     19841     19839     19843     19845
     19841     19839     19843     19847     19842     19841     19839     19843
     19843     19847     19852     19849     19844     19843     19845     19846
     19844     19843     19847     19848     19844     19843     19847     19852
     19845     19843     19847     19848     19845     19843     19847     19852
     19846     19845     19843     19847     19847     19852     19849     19850
     19847     19852     19849     19851     19847     19852     19849     19853
     19848     19847     19852     19849     19849     19853     19854     19855
     19849     19853     19854     19856     19849     19853     19854     19857
     19850     19849     19853     19854     19851     19849     19853     19854
     19852     19849     19853     19854     19853     19854     19857     19858
     19853     19854     19857     19859     19853     19854     19857     19865
     19854     19857     19859     19860     19854     19857     19865     19866
     19854     19857     19865     19867     19854     19857     19865     19868
     19855     19854     19857     19858     19855     19854     19857     19859
     19855     19854     19857     19865     19856     19854     19857     19858
     19856     19854     19857     19859     19856     19854     19857     19865
     19857     19859     19860     19861     19857     19859     19860     19862
     19857     19865     19868     19869     19858     19857     19859     19860
     19858     19857     19865     19866     19858     19857     19865     19867
     19858     19857     19865     19868     19859     19857     19865     19866
     19859     19857     19865     19867     19859     19857     19865     19868
     19859     19860     19862     19863     19859     19860     19862     19864
     19859     19860     19862     19874     19860     19859     19857     19865
     19860     19862     19874     19875     19860     19862     19874     19876
     19860     19862     19874     19877     19861     19860     19862     19863
     19861     19860     19862     19864     19861     19860     19862     19874
     19862     19874     19877     19878     19862     19874     19877     19879
     19862     19874     19877     19880     19863     19862     19874     19875
     19863     19862     19874     19876     19863     19862     19874     19877
     19864     19862     19874     19875     19864     19862     19874     19876
     19864     19862     19874     19877     19865     19868     19869     19870
     19865     19868     19869     19871     19866     19865     19868     19869
     19867     19865     19868     19869     19868     19869     19871     19872
     19868     19869     19871     19873     19868     19869     19871     19921
     19869     19871     19921     19922     19869     19871     19921     19923
     19869     19871     19921     19924     19870     19869     19871     19872
     19870     19869     19871     19873     19870     19869     19871     19921
     19871     19921     19924     19925     19871     19921     19924     19926
     19871     19921     19924     19927     19872     19871     19921     19922
     19872     19871     19921     19923     19872     19871     19921     19924
     19873     19871     19921     19922     19873     19871     19921     19923
     19873     19871     19921     19924     19874     19877     19880     19881
     19874     19877     19880     19882     19875     19874     19877     19878
     19875     19874     19877     19879     19875     19874     19877     19880
     19876     19874     19877     19878     19876     19874     19877     19879
     19876     19874     19877     19880     19877     19880     19882     19883
     19877     19880     19882     19884     19878     19877     19880     19881
     19878     19877     19880     19882     19879     19877     19880     19881
     19879     19877     19880     19882     19880     19882     19884     19885
     19880     19882     19884     19886     19880     19882     19884     19887
     19881     19880     19882     19883     19881     19880     19882     19884
     19882     19884     19887     19888     19882     19884     19887     19889
     19883     19882     19884     19885     19883     19882     19884     19886
     19883     19882     19884     19887     19884     19887     19889     19890
     19884     19887     19889     19891     19885     19884     19887     19888
     19885     19884     19887     19889     19886     19884     19887     19888
     19886     19884     19887     19889     19887     19889     19891     19892
     19887     19889     19891     19893     19887     19889     19891     19894
     19888     19887     19889     19890     19888     19887     19889     19891
     19889     19891     19894     19895     19889     19891     19894     19896
     19890     19889     19891     19892     19890     19889     19891     19893
     19890     19889     19891     19894     19891     19894     19896     19897
     19891     19894     19896     19898     19892     19891     19894     19895
     19892     19891     19894     19896     19893     19891     19894     19895
     19893     19891     19894     19896     19894     19896     19898     19899
     19894     19896     19898     19900     19894     19896     19898     19901
     19895     19894     19896     19897     19895     19894     19896     19898
     19896     19898     19901     19902     19896     19898     19901     19903
     19897     19896     19898     19899     19897     19896     19898     19900
     19897     19896     19898     19901     19898     19901     19903     19904
     19898     19901     19903     19905     19899     19898     19901     19902
     19899     19898     19901     19903     19900     19898     19901     19902
     19900     19898     19901     19903     19901     19903     19905     19906
     19901     19903     19905     19907     19901     19903     19905     19908
     19902     19901     19903     19904     19902     19901     19903     19905
     19903     19905     19908     19909     19903     19905     19908     19910
     19903     19905     19908     19911     19904     19903     19905     19906
     19904     19903     19905     19907     19904     19903     19905     19908
     19905     19908     19911     19912     19905     19908     19911     19913
     19905     19908     19911     19914     19906     19905     19908     19909
     19906     19905     19908     19910     19906     19905     19908     19911
     19907     19905     19908     19909     19907     19905     19908     19910
     19907     19905     19908     19911     19908     19911     19914     19915
     19908     19911     19914     19916     19908     19911     19914     19917
     19909     19908     19911     19912     19909     19908     19911     19913
     19909     19908     19911     19914     19910     19908     19911     19912
     19910     19908     19911     19913     19910     19908     19911     19914
     19911     19914     19917     19918     19911     19914     19917     19919
     19911     19914     19917     19920     19912     19911     19914     19915
     19912     19911     19914     19916     19912     19911     19914     19917
     19913     19911     19914     19915     19913     19911     19914     19916
     19913     19911     19914     19917     19915     19914     19917     19918
     19915     19914     19917     19919     19915     19914     19917     19920
     19916     19914     19917     19918     19916     19914     19917     19919
     19916     19914     19917     19920     19921     19924     19927     19928
     19921     19924     19927     19929     19921     19924     19927     19930
     19922     19921     19924     19925     19922     19921     19924     19926
     19922     19921     19924     19927     19923     19921     19924     19925
     19923     19921     19924     19926     19923     19921     19924     19927
     19924     19927     19930     19931     19924     19927     19930     19932
     19924     19927     19930     19933     19925     19924     19927     19928
     19925     19924     19927     19929     19925     19924     19927     19930
     19926     19924     19927     19928     19926     19924     19927     19929
     19926     19924     19927     19930     19927     19930     19933     19934
     19927     19930     19933     19935     19927     19930     19933     19936
     19928     19927     19930     19931     19928     19927     19930     19932
     19928     19927     19930     19933     19929     19927     19930     19931
     19929     19927     19930     19932     19929     19927     19930     19933
     19930     19933     19936     19937     19930     19933     19936     19938
     19930     19933     19936     19939     19931     19930     19933     19934
     19931     19930     19933     19935     19931     19930     19933     19936
     19932     19930     19933     19934     19932     19930     19933     19935
     19932     19930     19933     19936     19933     19936     19939     19940
     19933     19936     19939     19941     19933     19936     19939     19942
     19934     19933     19936     19937     19934     19933     19936     19938
     19934     19933     19936     19939     19935     19933     19936     19937
     19935     19933     19936     19938     19935     19933     19936     19939
     19936     19939     19942     19943     19936     19939     19942     19944
     19936     19939     19942     19945     19937     19936     19939     19940
     19937     19936     19939     19941     19937     19936     19939     19942
     19938     19936     19939     19940     19938     19936     19939     19941
     19938     19936     19939     19942     19939     19942     19945     19946
     19939     19942     19945     19947     19939     19942     19945     19948
     19940     19939     19942     19943     19940     19939     19942     19944
     19940     19939     19942     19945     19941     19939     19942     19943
     19941     19939     19942     19944     19941     19939     19942     19945
     19942     19945     19948     19949     19942     19945     19948     19950
     19942     19945     19948     19951     19943     19942     19945     19946
     19943     19942     19945     19947     19943     19942     19945     19948
     19944     19942     19945     19946     19944     19942     19945     19947
     19944     19942     19945     19948     19945     19948     19951     19952
     19945     19948     19951     19953     19945     19948     19951     19954
     19946     19945     19948     19949     19946     19945     19948     19950
     19946     19945     19948     19951     19947     19945     19948     19949
     19947     19945     19948     19950     19947     19945     19948     19951
     19948     19951     19954     19955     19948     19951     19954     19956
     19948     19951     19954     19957     19949     19948     19951     19952
     19949     19948     19951     19953     19949     19948     19951     19954
     19950     19948     19951     19952     19950     19948     19951     19953
     19950     19948     19951     19954     19951     19954     19957     19958
     19951     19954     19957     19959     19951     19954     19957     19960
     19952     19951     19954     19955     19952     19951     19954     19956
     19952     19951     19954     19957     19953     19951     19954     19955
     19953     19951     19954     19956     19953     19951     19954     19957
     19954     19957     19960     19961     19954     19957     19960     19962
     19954     19957     19960     19963     19955     19954     19957     19958
     19955     19954     19957     19959     19955     19954     19957     19960
     19956     19954     19957     19958     19956     19954     19957     19959
     19956     19954     19957     19960     19957     19960     19963     19964
     19957     19960     19963     19965     19957     19960     19963     19966
     19958     19957     19960     19961     19958     19957     19960     19962
     19958     19957     19960     19963     19959     19957     19960     19961
     19959     19957     19960     19962     19959     19957     19960     19963
     19960     19963     19966     19967     19960     19963     19966     19968
     19960     19963     19966     19969     19961     19960     19963     19964
     19961     19960     19963     19965     19961     19960     19963     19966
     19962     19960     19963     19964     19962     19960     19963     19965
     19962     19960     19963     19966     19964     19963     19966     19967
     19964     19963     19966     19968     19964     19963     19966     19969
     19965     19963     19966     19967     19965     19963     19966     19968
     19965     19963     19966     19969     16790     16794     16797     16798
     16790     16794     16797     16799     16790     16794     16797     16803
     16791     16790     16794     16795     16791     16790     16794     16796
     16791     16790     16794     16797     16792     16790     16794     16795
     16792     16790     16794     16796     16792     16790     16794     16797
     16793     16790     16794     16795     16793     16790     16794     16796
     16793     16790     16794     16797     16794     16797     16803     16800
     16795     16794     16797     16798     16795     16794     16797     16799
     16795     16794     16797     16803     16796     16794     16797     16798
     16796     16794     16797     16799     16796     16794     16797     16803
     16797     16803     16800     16801     16797     16803     16800     16802
     16797     16803     16800     16804     16798     16797     16803     16800
     16799     16797     16803     16800     16800     16804     16805     16806
     16800     16804     16805     16807     16800     16804     16805     16808
     16801     16800     16804     16805     16802     16800     16804     16805
     16803     16800     16804     16805     16804     16805     16808     16809
     16804     16805     16808     16810     16804     16805     16808     16816
     16805     16808     16810     16811     16805     16808     16816     16817
     16805     16808     16816     16818     16805     16808     16816     16819
     16806     16805     16808     16809     16806     16805     16808     16810
     16806     16805     16808     16816     16807     16805     16808     16809
     16807     16805     16808     16810     16807     16805     16808     16816
     16808     16810     16811     16812     16808     16810     16811     16813
     16808     16816     16819     16820     16809     16808     16810     16811
     16809     16808     16816     16817     16809     16808     16816     16818
     16809     16808     16816     16819     16810     16808     16816     16817
     16810     16808     16816     16818     16810     16808     16816     16819
     16810     16811     16813     16814     16810     16811     16813     16815
     16810     16811     16813     16825     16811     16810     16808     16816
     16811     16813     16825     16826     16811     16813     16825     16827
     16811     16813     16825     16828     16812     16811     16813     16814
     16812     16811     16813     16815     16812     16811     16813     16825
     16813     16825     16828     16829     16813     16825     16828     16830
     16813     16825     16828     16831     16814     16813     16825     16826
     16814     16813     16825     16827     16814     16813     16825     16828
     16815     16813     16825     16826     16815     16813     16825     16827
     16815     16813     16825     16828     16816     16819     16820     16821
     16816     16819     16820     16822     16817     16816     16819     16820
     16818     16816     16819     16820     16819     16820     16822     16823
     16819     16820     16822     16824     16819     16820     16822     16872
     16820     16822     16872     16873     16820     16822     16872     16874
     16820     16822     16872     16875     16821     16820     16822     16823
     16821     16820     16822     16824     16821     16820     16822     16872
     16822     16872     16875     16876     16822     16872     16875     16877
     16822     16872     16875     16878     16823     16822     16872     16873
     16823     16822     16872     16874     16823     16822     16872     16875
     16824     16822     16872     16873     16824     16822     16872     16874
     16824     16822     16872     16875     16825     16828     16831     16832
     16825     16828     16831     16833     16826     16825     16828     16829
     16826     16825     16828     16830     16826     16825     16828     16831
     16827     16825     16828     16829     16827     16825     16828     16830
     16827     16825     16828     16831     16828     16831     16833     16834
     16828     16831     16833     16835     16829     16828     16831     16832
     16829     16828     16831     16833     16830     16828     16831     16832
     16830     16828     16831     16833     16831     16833     16835     16836
     16831     16833     16835     16837     16831     16833     16835     16838
     16832     16831     16833     16834     16832     16831     16833     16835
     16833     16835     16838     16839     16833     16835     16838     16840
     16834     16833     16835     16836     16834     16833     16835     16837
     16834     16833     16835     16838     16835     16838     16840     16841
     16835     16838     16840     16842     16836     16835     16838     16839
     16836     16835     16838     16840     16837     16835     16838     16839
     16837     16835     16838     16840     16838     16840     16842     16843
     16838     16840     16842     16844     16838     16840     16842     16845
     16839     16838     16840     16841     16839     16838     16840     16842
     16840     16842     16845     16846     16840     16842     16845     16847
     16841     16840     16842     16843     16841     16840     16842     16844
     16841     16840     16842     16845     16842     16845     16847     16848
     16842     16845     16847     16849     16843     16842     16845     16846
     16843     16842     16845     16847     16844     16842     16845     16846
     16844     16842     16845     16847     16845     16847     16849     16850
     16845     16847     16849     16851     16845     16847     16849     16852
     16846     16845     16847     16848     16846     16845     16847     16849
     16847     16849     16852     16853     16847     16849     16852     16854
     16848     16847     16849     16850     16848     16847     16849     16851
     16848     16847     16849     16852     16849     16852     16854     16855
     16849     16852     16854     16856     16850     16849     16852     16853
     16850     16849     16852     16854     16851     16849     16852     16853
     16851     16849     16852     16854     16852     16854     16856     16857
     16852     16854     16856     16858     16852     16854     16856     16859
     16853     16852     16854     16855     16853     16852     16854     16856
     16854     16856     16859     16860     16854     16856     16859     16861
     16854     16856     16859     16862     16855     16854     16856     16857
     16855     16854     16856     16858     16855     16854     16856     16859
     16856     16859     16862     16863     16856     16859     16862     16864
     16856     16859     16862     16865     16857     16856     16859     16860
     16857     16856     16859     16861     16857     16856     16859     16862
     16858     16856     16859     16860     16858     16856     16859     16861
     16858     16856     16859     16862     16859     16862     16865     16866
     16859     16862     16865     16867     16859     16862     16865     16868
     16860     16859     16862     16863     16860     16859     16862     16864
     16860     16859     16862     16865     16861     16859     16862     16863
     16861     16859     16862     16864     16861     16859     16862     16865
     16862     16865     16868     16869     16862     16865     16868     16870
     16862     16865     16868     16871     16863     16862     16865     16866
     16863     16862     16865     16867     16863     16862     16865     16868
     16864     16862     16865     16866     16864     16862     16865     16867
     16864     16862     16865     16868     16866     16865     16868     16869
     16866     16865     16868     16870     16866     16865     16868     16871
     16867     16865     16868     16869     16867     16865     16868     16870
     16867     16865     16868     16871     16872     16875     16878     16879
     16872     16875     16878     16880     16872     16875     16878     16881
     16873     16872     16875     16876     16873     16872     16875     16877
     16873     16872     16875     16878     16874     16872     16875     16876
     16874     16872     16875     16877     16874     16872     16875     16878
     16875     16878     16881     16882     16875     16878     16881     16883
     16875     16878     16881     16884     16876     16875     16878     16879
     16876     16875     16878     16880     16876     16875     16878     16881
     16877     16875     16878     16879     16877     16875     16878     16880
     16877     16875     16878     16881     16878     16881     16884     16885
     16878     16881     16884     16886     16878     16881     16884     16887
     16879     16878     16881     16882     16879     16878     16881     16883
     16879     16878     16881     16884     16880     16878     16881     16882
     16880     16878     16881     16883     16880     16878     16881     16884
     16881     16884     16887     16888     16881     16884     16887     16889
     16881     16884     16887     16890     16882     16881     16884     16885
     16882     16881     16884     16886     16882     16881     16884     16887
     16883     16881     16884     16885     16883     16881     16884     16886
     16883     16881     16884     16887     16884     16887     16890     16891
     16884     16887     16890     16892     16884     16887     16890     16893
     16885     16884     16887     16888     16885     16884     16887     16889
     16885     16884     16887     16890     16886     16884     16887     16888
     16886     16884     16887     16889     16886     16884     16887     16890
     16887     16890     16893     16894     16887     16890     16893     16895
     16887     16890     16893     16896     16888     16887     16890     16891
     16888     16887     16890     16892     16888     16887     16890     16893
     16889     16887     16890     16891     16889     16887     16890     16892
     16889     16887     16890     16893     16890     16893     16896     16897
     16890     16893     16896     16898     16890     16893     16896     16899
     16891     16890     16893     16894     16891     16890     16893     16895
     16891     16890     16893     16896     16892     16890     16893     16894
     16892     16890     16893     16895     16892     16890     16893     16896
     16893     16896     16899     16900     16893     16896     16899     16901
     16893     16896     16899     16902     16894     16893     16896     16897
     16894     16893     16896     16898     16894     16893     16896     16899
     16895     16893     16896     16897     16895     16893     16896     16898
     16895     16893     16896     16899     16896     16899     16902     16903
     16896     16899     16902     16904     16896     16899     16902     16905
     16897     16896     16899     16900     16897     16896     16899     16901
     16897     16896     16899     16902     16898     16896     16899     16900
     16898     16896     16899     16901     16898     16896     16899     16902
     16899     16902     16905     16906     16899     16902     16905     16907
     16899     16902     16905     16908     16900     16899     16902     16903
     16900     16899     16902     16904     16900     16899     16902     16905
     16901     16899     16902     16903     16901     16899     16902     16904
     16901     16899     16902     16905     16902     16905     16908     16909
     16902     16905     16908     16910     16902     16905     16908     16911
     16903     16902     16905     16906     16903     16902     16905     16907
     16903     16902     16905     16908     16904     16902     16905     16906
     16904     16902     16905     16907     16904     16902     16905     16908
     16905     16908     16911     16912     16905     16908     16911     16913
     16905     16908     16911     16914     16906     16905     16908     16909
     16906     16905     16908     16910     16906     16905     16908     16911
     16907     16905     16908     16909     16907     16905     16908     16910
     16907     16905     16908     16911     16908     16911     16914     16915
     16908     16911     16914     16916     16908     16911     16914     16917
     16909     16908     16911     16912     16909     16908     16911     16913
     16909     16908     16911     16914     16910     16908     16911     16912
     16910     16908     16911     16913     16910     16908     16911     16914
     16911     16914     16917     16918     16911     16914     16917     16919
     16911     16914     16917     16920     16912     16911     16914     16915
     16912     16911     16914     16916     16912     16911     16914     16917
     16913     16911     16914     16915     16913     16911     16914     16916
     16913     16911     16914     16917     16915     16914     16917     16918
     16915     16914     16917     16919     16915     16914     16917     16920
     16916     16914     16917     16918     16916     16914     16917     16919
     16916     16914     16917     16920     21631     21644     21647     21648
     21631     21644     21647     21649     21631     21644     21647     21653
     21632     21631     21636     21637     21632     21631     21636     21638
     21632     21631     21636     21639     21632     21631     21640     21641
     21632     21631     21640     21642     21632     21631     21640     21643
     21632     21631     21644     21645     21632     21631     21644     21646
     21632     21631     21644     21647     21633     21632     21631     21636
     21633     21632     21631     21640     21633     21632     21631     21644
     21634     21632     21631     21636     21634     21632     21631     21640
     21634     21632     21631     21644     21635     21632     21631     21636
     21635     21632     21631     21640     21635     21632     21631     21644
     21636     21631     21640     21641     21636     21631     21640     21642
     21636     21631     21640     21643     21636     21631     21644     21645
     21636     21631     21644     21646     21636     21631     21644     21647
     21637     21636     21631     21640     21637     21636     21631     21644
     21638     21636     21631     21640     21638     21636     21631     21644
     21639     21636     21631     21640     21639     21636     21631     21644
     21640     21631     21644     21645     21640     21631     21644     21646
     21640     21631     21644     21647     21641     21640     21631     21644
     21642     21640     21631     21644     21643     21640     21631     21644
     21644     21647     21653     21650     21645     21644     21647     21648
     21645     21644     21647     21649     21645     21644     21647     21653
     21646     21644     21647     21648     21646     21644     21647     21649
     21646     21644     21647     21653     21647     21653     21650     21651
     21647     21653     21650     21652     21647     21653     21650     21654
     21648     21647     21653     21650     21649     21647     21653     21650
     21650     21654     21655     21656     21650     21654     21655     21657
     21650     21654     21655     21658     21651     21650     21654     21655
     21652     21650     21654     21655     21653     21650     21654     21655
     21654     21655     21658     21659     21654     21655     21658     21660
     21654     21655     21658     21666     21655     21658     21660     21661
     21655     21658     21666     21667     21655     21658     21666     21668
     21655     21658     21666     21669     21656     21655     21658     21659
     21656     21655     21658     21660     21656     21655     21658     21666
     21657     21655     21658     21659     21657     21655     21658     21660
     21657     21655     21658     21666     21658     21660     21661     21662
     21658     21660     21661     21663     21658     21666     21669     21670
     21659     21658     21660     21661     21659     21658     21666     21667
     21659     21658     21666     21668     21659     21658     21666     21669
     21660     21658     21666     21667     21660     21658     21666     21668
     21660     21658     21666     21669     21660     21661     21663     21664
     21660     21661     21663     21665     21660     21661     21663     21675
     21661     21660     21658     21666     21661     21663     21675     21676
     21661     21663     21675     21677     21661     21663     21675     21678
     21662     21661     21663     21664     21662     21661     21663     21665
     21662     21661     21663     21675     21663     21675     21678     21679
     21663     21675     21678     21680     21663     21675     21678     21681
     21664     21663     21675     21676     21664     21663     21675     21677
     21664     21663     21675     21678     21665     21663     21675     21676
     21665     21663     21675     21677     21665     21663     21675     21678
     21666     21669     21670     21671     21666     21669     21670     21672
     21667     21666     21669     21670     21668     21666     21669     21670
     21669     21670     21672     21673     21669     21670     21672     21674
     21669     21670     21672     21720     21670     21672     21720     21721
     21670     21672     21720     21722     21670     21672     21720     21723
     21671     21670     21672     21673     21671     21670     21672     21674
     21671     21670     21672     21720     21672     21720     21723     21724
     21672     21720     21723     21725     21672     21720     21723     21726
     21673     21672     21720     21721     21673     21672     21720     21722
     21673     21672     21720     21723     21674     21672     21720     21721
     21674     21672     21720     21722     21674     21672     21720     21723
     21675     21678     21681     21682     21675     21678     21681     21683
     21675     21678     21681     21684     21676     21675     21678     21679
     21676     21675     21678     21680     21676     21675     21678     21681
     21677     21675     21678     21679     21677     21675     21678     21680
     21677     21675     21678     21681     21678     21681     21684     21685
     21678     21681     21684     21686     21678     21681     21684     21687
     21679     21678     21681     21682     21679     21678     21681     21683
     21679     21678     21681     21684     21680     21678     21681     21682
     21680     21678     21681     21683     21680     21678     21681     21684
     21681     21684     21687     21688     21681     21684     21687     21689
     21681     21684     21687     21690     21682     21681     21684     21685
     21682     21681     21684     21686     21682     21681     21684     21687
     21683     21681     21684     21685     21683     21681     21684     21686
     21683     21681     21684     21687     21684     21687     21690     21691
     21684     21687     21690     21692     21684     21687     21690     21693
     21685     21684     21687     21688     21685     21684     21687     21689
     21685     21684     21687     21690     21686     21684     21687     21688
     21686     21684     21687     21689     21686     21684     21687     21690
     21687     21690     21693     21694     21687     21690     21693     21695
     21688     21687     21690     21691     21688     21687     21690     21692
     21688     21687     21690     21693     21689     21687     21690     21691
     21689     21687     21690     21692     21689     21687     21690     21693
     21690     21693     21695     21696     21690     21693     21695     21697
     21691     21690     21693     21694     21691     21690     21693     21695
     21692     21690     21693     21694     21692     21690     21693     21695
     21693     21695     21697     21698     21693     21695     21697     21699
     21693     21695     21697     21700     21694     21693     21695     21696
     21694     21693     21695     21697     21695     21697     21700     21701
     21695     21697     21700     21702     21696     21695     21697     21698
     21696     21695     21697     21699     21696     21695     21697     21700
     21697     21700     21702     21703     21697     21700     21702     21704
     21698     21697     21700     21701     21698     21697     21700     21702
     21699     21697     21700     21701     21699     21697     21700     21702
     21700     21702     21704     21705     21700     21702     21704     21706
     21700     21702     21704     21707     21701     21700     21702     21703
     21701     21700     21702     21704     21702     21704     21707     21708
     21702     21704     21707     21709     21702     21704     21707     21710
     21703     21702     21704     21705     21703     21702     21704     21706
     21703     21702     21704     21707     21704     21707     21710     21711
     21704     21707     21710     21712     21704     21707     21710     21713
     21705     21704     21707     21708     21705     21704     21707     21709
     21705     21704     21707     21710     21706     21704     21707     21708
     21706     21704     21707     21709     21706     21704     21707     21710
     21707     21710     21713     21714     21707     21710     21713     21715
     21707     21710     21713     21716     21708     21707     21710     21711
     21708     21707     21710     21712     21708     21707     21710     21713
     21709     21707     21710     21711     21709     21707     21710     21712
     21709     21707     21710     21713     21710     21713     21716     21717
     21710     21713     21716     21718     21710     21713     21716     21719
     21711     21710     21713     21714     21711     21710     21713     21715
     21711     21710     21713     21716     21712     21710     21713     21714
     21712     21710     21713     21715     21712     21710     21713     21716
     21714     21713     21716     21717     21714     21713     21716     21718
     21714     21713     21716     21719     21715     21713     21716     21717
     21715     21713     21716     21718     21715     21713     21716     21719
     21720     21723     21726     21727     21720     21723     21726     21728
     21720     21723     21726     21729     21721     21720     21723     21724
     21721     21720     21723     21725     21721     21720     21723     21726
     21722     21720     21723     21724     21722     21720     21723     21725
     21722     21720     21723     21726     21723     21726     21729     21730
     21723     21726     21729     21731     21723     21726     21729     21732
     21724     21723     21726     21727     21724     21723     21726     21728
     21724     21723     21726     21729     21725     21723     21726     21727
     21725     21723     21726     21728     21725     21723     21726     21729
     21726     21729     21732     21733     21726     21729     21732     21734
     21726     21729     21732     21735     21727     21726     21729     21730
     21727     21726     21729     21731     21727     21726     21729     21732
     21728     21726     21729     21730     21728     21726     21729     21731
     21728     21726     21729     21732     21729     21732     21735     21736
     21729     21732     21735     21737     21729     21732     21735     21738
     21730     21729     21732     21733     21730     21729     21732     21734
     21730     21729     21732     21735     21731     21729     21732     21733
     21731     21729     21732     21734     21731     21729     21732     21735
     21732     21735     21738     21739     21732     21735     21738     21740
     21732     21735     21738     21741     21733     21732     21735     21736
     21733     21732     21735     21737     21733     21732     21735     21738
     21734     21732     21735     21736     21734     21732     21735     21737
     21734     21732     21735     21738     21735     21738     21741     21742
     21735     21738     21741     21743     21735     21738     21741     21744
     21736     21735     21738     21739     21736     21735     21738     21740
     21736     21735     21738     21741     21737     21735     21738     21739
     21737     21735     21738     21740     21737     21735     21738     21741
     21738     21741     21744     21745     21738     21741     21744     21746
     21738     21741     21744     21747     21739     21738     21741     21742
     21739     21738     21741     21743     21739     21738     21741     21744
     21740     21738     21741     21742     21740     21738     21741     21743
     21740     21738     21741     21744     21741     21744     21747     21748
     21741     21744     21747     21749     21741     21744     21747     21750
     21742     21741     21744     21745     21742     21741     21744     21746
     21742     21741     21744     21747     21743     21741     21744     21745
     21743     21741     21744     21746     21743     21741     21744     21747
     21744     21747     21750     21751     21744     21747     21750     21752
     21744     21747     21750     21753     21745     21744     21747     21748
     21745     21744     21747     21749     21745     21744     21747     21750
     21746     21744     21747     21748     21746     21744     21747     21749
     21746     21744     21747     21750     21747     21750     21753     21754
     21747     21750     21753     21755     21747     21750     21753     21756
     21748     21747     21750     21751     21748     21747     21750     21752
     21748     21747     21750     21753     21749     21747     21750     21751
     21749     21747     21750     21752     21749     21747     21750     21753
     21750     21753     21756     21757     21750     21753     21756     21758
     21750     21753     21756     21759     21751     21750     21753     21754
     21751     21750     21753     21755     21751     21750     21753     21756
     21752     21750     21753     21754     21752     21750     21753     21755
     21752     21750     21753     21756     21753     21756     21759     21760
     21753     21756     21759     21761     21753     21756     21759     21762
     21754     21753     21756     21757     21754     21753     21756     21758
     21754     21753     21756     21759     21755     21753     21756     21757
     21755     21753     21756     21758     21755     21753     21756     21759
     21756     21759     21762     21763     21756     21759     21762     21764
     21756     21759     21762     21765     21757     21756     21759     21760
     21757     21756     21759     21761     21757     21756     21759     21762
     21758     21756     21759     21760     21758     21756     21759     21761
     21758     21756     21759     21762     21759     21762     21765     21766
     21759     21762     21765     21767     21759     21762     21765     21768
     21760     21759     21762     21763     21760     21759     21762     21764
     21760     21759     21762     21765     21761     21759     21762     21763
     21761     21759     21762     21764     21761     21759     21762     21765
     21763     21762     21765     21766     21763     21762     21765     21767
     21763     21762     21765     21768     21764     21762     21765     21766
     21764     21762     21765     21767     21764     21762     21765     21768
     12729     12742     12745     12746     12729     12742     12745     12747
     12729     12742     12745     12752     12730     12729     12734     12735
     12730     12729     12734     12736     12730     12729     12734     12737
     12730     12729     12738     12739     12730     12729     12738     12740
     12730     12729     12738     12741     12730     12729     12742     12743
     12730     12729     12742     12744     12730     12729     12742     12745
     12731     12730     12729     12734     12731     12730     12729     12738
     12731     12730     12729     12742     12732     12730     12729     12734
     12732     12730     12729     12738     12732     12730     12729     12742
     12733     12730     12729     12734     12733     12730     12729     12738
     12733     12730     12729     12742     12734     12729     12738     12739
     12734     12729     12738     12740     12734     12729     12738     12741
     12734     12729     12742     12743     12734     12729     12742     12744
     12734     12729     12742     12745     12735     12734     12729     12738
     12735     12734     12729     12742     12736     12734     12729     12738
     12736     12734     12729     12742     12737     12734     12729     12738
     12737     12734     12729     12742     12738     12729     12742     12743
     12738     12729     12742     12744     12738     12729     12742     12745
     12739     12738     12729     12742     12740     12738     12729     12742
     12741     12738     12729     12742     12742     12745     12752     12748
     12743     12742     12745     12746     12743     12742     12745     12747
     12743     12742     12745     12752     12744     12742     12745     12746
     12744     12742     12745     12747     12744     12742     12745     12752
     12745     12752     12748     12749     12745     12752     12748     12750
     12745     12752     12748     12751     12746     12745     12752     12748
     12747     12745     12752     12748     12748     12751     12753     12754
     12748     12751     12753     12755     12748     12751     12753     12758
     12749     12748     12751     12753     12750     12748     12751     12753
     12751     12753     12758     12756     12751     12753     12758     12759
     12751     12753     12758     12760     12752     12748     12751     12753
     12753     12758     12756     12757     12753     12758     12756     12808
     12753     12758     12760     12761     12753     12758     12760     12762
     12753     12758     12760     12764     12754     12753     12758     12756
     12754     12753     12758     12759     12754     12753     12758     12760
     12755     12753     12758     12756     12755     12753     12758     12759
     12755     12753     12758     12760     12756     12758     12760     12761
     12756     12758     12760     12762     12756     12758     12760     12764
     12756     12808     12810     12811     12756     12808     12810     12812
     12756     12808     12810     12813     12757     12756     12758     12759
     12757     12756     12758     12760     12757     12756     12808     12809
     12757     12756     12808     12810     12758     12756     12808     12809
     12758     12756     12808     12810     12758     12760     12762     12763
     12758     12760     12764     12765     12758     12760     12764     12766
     12759     12758     12756     12808     12759     12758     12760     12761
     12759     12758     12760     12762     12759     12758     12760     12764
     12760     12758     12756     12808     12760     12764     12766     12767
     12760     12764     12766     12768     12761     12760     12762     12763
     12761     12760     12764     12765     12761     12760     12764     12766
     12762     12760     12764     12765     12762     12760     12764     12766
     12763     12762     12760     12764     12764     12766     12768     12769
     12764     12766     12768     12770     12764     12766     12768     12771
     12765     12764     12766     12767     12765     12764     12766     12768
     12766     12768     12771     12772     12766     12768     12771     12773
     12766     12768     12771     12774     12767     12766     12768     12769
     12767     12766     12768     12770     12767     12766     12768     12771
     12768     12771     12774     12775     12768     12771     12774     12776
     12768     12771     12774     12777     12769     12768     12771     12772
     12769     12768     12771     12773     12769     12768     12771     12774
     12770     12768     12771     12772     12770     12768     12771     12773
     12770     12768     12771     12774     12771     12774     12777     12778
     12771     12774     12777     12779     12771     12774     12777     12780
     12772     12771     12774     12775     12772     12771     12774     12776
     12772     12771     12774     12777     12773     12771     12774     12775
     12773     12771     12774     12776     12773     12771     12774     12777
     12774     12777     12780     12781     12774     12777     12780     12782
     12774     12777     12780     12783     12775     12774     12777     12778
     12775     12774     12777     12779     12775     12774     12777     12780
     12776     12774     12777     12778     12776     12774     12777     12779
     12776     12774     12777     12780     12777     12780     12783     12784
     12777     12780     12783     12785     12777     12780     12783     12786
     12778     12777     12780     12781     12778     12777     12780     12782
     12778     12777     12780     12783     12779     12777     12780     12781
     12779     12777     12780     12782     12779     12777     12780     12783
     12780     12783     12786     12787     12780     12783     12786     12788
     12780     12783     12786     12789     12781     12780     12783     12784
     12781     12780     12783     12785     12781     12780     12783     12786
     12782     12780     12783     12784     12782     12780     12783     12785
     12782     12780     12783     12786     12783     12786     12789     12790
     12783     12786     12789     12791     12783     12786     12789     12792
     12784     12783     12786     12787     12784     12783     12786     12788
     12784     12783     12786     12789     12785     12783     12786     12787
     12785     12783     12786     12788     12785     12783     12786     12789
     12786     12789     12792     12793     12786     12789     12792     12794
     12786     12789     12792     12795     12787     12786     12789     12790
     12787     12786     12789     12791     12787     12786     12789     12792
     12788     12786     12789     12790     12788     12786     12789     12791
     12788     12786     12789     12792     12789     12792     12795     12796
     12789     12792     12795     12797     12789     12792     12795     12798
     12790     12789     12792     12793     12790     12789     12792     12794
     12790     12789     12792     12795     12791     12789     12792     12793
     12791     12789     12792     12794     12791     12789     12792     12795
     12792     12795     12798     12799     12792     12795     12798     12800
     12792     12795     12798     12801     12793     12792     12795     12796
     12793     12792     12795     12797     12793     12792     12795     12798
     12794     12792     12795     12796     12794     12792     12795     12797
     12794     12792     12795     12798     12795     12798     12801     12802
     12795     12798     12801     12803     12795     12798     12801     12804
     12796     12795     12798     12799     12796     12795     12798     12800
     12796     12795     12798     12801     12797     12795     12798     12799
     12797     12795     12798     12800     12797     12795     12798     12801
     12798     12801     12804     12805     12798     12801     12804     12806
     12798     12801     12804     12807     12799     12798     12801     12802
     12799     12798     12801     12803     12799     12798     12801     12804
     12800     12798     12801     12802     12800     12798     12801     12803
     12800     12798     12801     12804     12802     12801     12804     12805
     12802     12801     12804     12806     12802     12801     12804     12807
     12803     12801     12804     12805     12803     12801     12804     12806
     12803     12801     12804     12807     12808     12810     12813     12814
     12808     12810     12813     12815     12808     12810     12813     12816
     12809     12808     12810     12811     12809     12808     12810     12812
     12809     12808     12810     12813     12810     12813     12816     12817
     12810     12813     12816     12818     12810     12813     12816     12819
     12811     12810     12813     12814     12811     12810     12813     12815
     12811     12810     12813     12816     12812     12810     12813     12814
     12812     12810     12813     12815     12812     12810     12813     12816
     12813     12816     12819     12820     12813     12816     12819     12821
     12813     12816     12819     12822     12814     12813     12816     12817
     12814     12813     12816     12818     12814     12813     12816     12819
     12815     12813     12816     12817     12815     12813     12816     12818
     12815     12813     12816     12819     12816     12819     12822     12823
     12816     12819     12822     12824     12816     12819     12822     12825
     12817     12816     12819     12820     12817     12816     12819     12821
     12817     12816     12819     12822     12818     12816     12819     12820
     12818     12816     12819     12821     12818     12816     12819     12822
     12819     12822     12825     12826     12819     12822     12825     12827
     12819     12822     12825     12828     12820     12819     12822     12823
     12820     12819     12822     12824     12820     12819     12822     12825
     12821     12819     12822     12823     12821     12819     12822     12824
     12821     12819     12822     12825     12822     12825     12828     12829
     12822     12825     12828     12830     12822     12825     12828     12831
     12823     12822     12825     12826     12823     12822     12825     12827
     12823     12822     12825     12828     12824     12822     12825     12826
     12824     12822     12825     12827     12824     12822     12825     12828
     12825     12828     12831     12832     12825     12828     12831     12833
     12826     12825     12828     12829     12826     12825     12828     12830
     12826     12825     12828     12831     12827     12825     12828     12829
     12827     12825     12828     12830     12827     12825     12828     12831
     12828     12831     12833     12834     12828     12831     12833     12835
     12829     12828     12831     12832     12829     12828     12831     12833
     12830     12828     12831     12832     12830     12828     12831     12833
     12831     12833     12835     12836     12831     12833     12835     12837
     12831     12833     12835     12838     12832     12831     12833     12834
     12832     12831     12833     12835     12833     12835     12838     12839
     12833     12835     12838     12840     12833     12835     12838     12841
     12834     12833     12835     12836     12834     12833     12835     12837
     12834     12833     12835     12838     12835     12838     12841     12842
     12835     12838     12841     12843     12835     12838     12841     12844
     12836     12835     12838     12839     12836     12835     12838     12840
     12836     12835     12838     12841     12837     12835     12838     12839
     12837     12835     12838     12840     12837     12835     12838     12841
     12838     12841     12844     12845     12838     12841     12844     12846
     12838     12841     12844     12847     12839     12838     12841     12842
     12839     12838     12841     12843     12839     12838     12841     12844
     12840     12838     12841     12842     12840     12838     12841     12843
     12840     12838     12841     12844     12841     12844     12847     12848
     12841     12844     12847     12849     12841     12844     12847     12850
     12842     12841     12844     12845     12842     12841     12844     12846
     12842     12841     12844     12847     12843     12841     12844     12845
     12843     12841     12844     12846     12843     12841     12844     12847
     12844     12847     12850     12851     12844     12847     12850     12852
     12844     12847     12850     12853     12845     12844     12847     12848
     12845     12844     12847     12849     12845     12844     12847     12850
     12846     12844     12847     12848     12846     12844     12847     12849
     12846     12844     12847     12850     12847     12850     12853     12854
     12847     12850     12853     12855     12847     12850     12853     12856
     12848     12847     12850     12851     12848     12847     12850     12852
     12848     12847     12850     12853     12849     12847     12850     12851
     12849     12847     12850     12852     12849     12847     12850     12853
     12850     12853     12856     12857     12850     12853     12856     12858
     12850     12853     12856     12859     12851     12850     12853     12854
     12851     12850     12853     12855     12851     12850     12853     12856
     12852     12850     12853     12854     12852     12850     12853     12855
     12852     12850     12853     12856     12854     12853     12856     12857
     12854     12853     12856     12858     12854     12853     12856     12859
     12855     12853     12856     12857     12855     12853     12856     12858
     12855     12853     12856     12859     12860     12873     12876     12877
     12860     12873     12876     12878     12860     12873     12876     12883
     12861     12860     12865     12866     12861     12860     12865     12867
     12861     12860     12865     12868     12861     12860     12869     12870
     12861     12860     12869     12871     12861     12860     12869     12872
     12861     12860     12873     12874     12861     12860     12873     12875
     12861     12860     12873     12876     12862     12861     12860     12865
     12862     12861     12860     12869     12862     12861     12860     12873
     12863     12861     12860     12865     12863     12861     12860     12869
     12863     12861     12860     12873     12864     12861     12860     12865
     12864     12861     12860     12869     12864     12861     12860     12873
     12865     12860     12869     12870     12865     12860     12869     12871
     12865     12860     12869     12872     12865     12860     12873     12874
     12865     12860     12873     12875     12865     12860     12873     12876
     12866     12865     12860     12869     12866     12865     12860     12873
     12867     12865     12860     12869     12867     12865     12860     12873
     12868     12865     12860     12869     12868     12865     12860     12873
     12869     12860     12873     12874     12869     12860     12873     12875
     12869     12860     12873     12876     12870     12869     12860     12873
     12871     12869     12860     12873     12872     12869     12860     12873
     12873     12876     12883     12879     12874     12873     12876     12877
     12874     12873     12876     12878     12874     12873     12876     12883
     12875     12873     12876     12877     12875     12873     12876     12878
     12875     12873     12876     12883     12876     12883     12879     12880
     12876     12883     12879     12881     12876     12883     12879     12882
     12877     12876     12883     12879     12878     12876     12883     12879
     12879     12882     12884     12885     12879     12882     12884     12886
     12879     12882     12884     12889     12880     12879     12882     12884
     12881     12879     12882     12884     12882     12884     12889     12887
     12882     12884     12889     12890     12882     12884     12889     12891
     12883     12879     12882     12884     12884     12889     12887     12888
     12884     12889     12887     12939     12884     12889     12891     12892
     12884     12889     12891     12893     12884     12889     12891     12895
     12885     12884     12889     12887     12885     12884     12889     12890
     12885     12884     12889     12891     12886     12884     12889     12887
     12886     12884     12889     12890     12886     12884     12889     12891
     12887     12889     12891     12892     12887     12889     12891     12893
     12887     12889     12891     12895     12887     12939     12941     12942
     12887     12939     12941     12943     12887     12939     12941     12944
     12888     12887     12889     12890     12888     12887     12889     12891
     12888     12887     12939     12940     12888     12887     12939     12941
     12889     12887     12939     12940     12889     12887     12939     12941
     12889     12891     12893     12894     12889     12891     12895     12896
     12889     12891     12895     12897     12890     12889     12887     12939
     12890     12889     12891     12892     12890     12889     12891     12893
     12890     12889     12891     12895     12891     12889     12887     12939
     12891     12895     12897     12898     12891     12895     12897     12899
     12892     12891     12893     12894     12892     12891     12895     12896
     12892     12891     12895     12897     12893     12891     12895     12896
     12893     12891     12895     12897     12894     12893     12891     12895
     12895     12897     12899     12900     12895     12897     12899     12901
     12895     12897     12899     12902     12896     12895     12897     12898
     12896     12895     12897     12899     12897     12899     12902     12903
     12897     12899     12902     12904     12897     12899     12902     12905
     12898     12897     12899     12900     12898     12897     12899     12901
     12898     12897     12899     12902     12899     12902     12905     12906
     12899     12902     12905     12907     12899     12902     12905     12908
     12900     12899     12902     12903     12900     12899     12902     12904
     12900     12899     12902     12905     12901     12899     12902     12903
     12901     12899     12902     12904     12901     12899     12902     12905
     12902     12905     12908     12909     12902     12905     12908     12910
     12902     12905     12908     12911     12903     12902     12905     12906
     12903     12902     12905     12907     12903     12902     12905     12908
     12904     12902     12905     12906     12904     12902     12905     12907
     12904     12902     12905     12908     12905     12908     12911     12912
     12905     12908     12911     12913     12905     12908     12911     12914
     12906     12905     12908     12909     12906     12905     12908     12910
     12906     12905     12908     12911     12907     12905     12908     12909
     12907     12905     12908     12910     12907     12905     12908     12911
     12908     12911     12914     12915     12908     12911     12914     12916
     12908     12911     12914     12917     12909     12908     12911     12912
     12909     12908     12911     12913     12909     12908     12911     12914
     12910     12908     12911     12912     12910     12908     12911     12913
     12910     12908     12911     12914     12911     12914     12917     12918
     12911     12914     12917     12919     12911     12914     12917     12920
     12912     12911     12914     12915     12912     12911     12914     12916
     12912     12911     12914     12917     12913     12911     12914     12915
     12913     12911     12914     12916     12913     12911     12914     12917
     12914     12917     12920     12921     12914     12917     12920     12922
     12914     12917     12920     12923     12915     12914     12917     12918
     12915     12914     12917     12919     12915     12914     12917     12920
     12916     12914     12917     12918     12916     12914     12917     12919
     12916     12914     12917     12920     12917     12920     12923     12924
     12917     12920     12923     12925     12917     12920     12923     12926
     12918     12917     12920     12921     12918     12917     12920     12922
     12918     12917     12920     12923     12919     12917     12920     12921
     12919     12917     12920     12922     12919     12917     12920     12923
     12920     12923     12926     12927     12920     12923     12926     12928
     12920     12923     12926     12929     12921     12920     12923     12924
     12921     12920     12923     12925     12921     12920     12923     12926
     12922     12920     12923     12924     12922     12920     12923     12925
     12922     12920     12923     12926     12923     12926     12929     12930
     12923     12926     12929     12931     12923     12926     12929     12932
     12924     12923     12926     12927     12924     12923     12926     12928
     12924     12923     12926     12929     12925     12923     12926     12927
     12925     12923     12926     12928     12925     12923     12926     12929
     12926     12929     12932     12933     12926     12929     12932     12934
     12926     12929     12932     12935     12927     12926     12929     12930
     12927     12926     12929     12931     12927     12926     12929     12932
     12928     12926     12929     12930     12928     12926     12929     12931
     12928     12926     12929     12932     12929     12932     12935     12936
     12929     12932     12935     12937     12929     12932     12935     12938
     12930     12929     12932     12933     12930     12929     12932     12934
     12930     12929     12932     12935     12931     12929     12932     12933
     12931     12929     12932     12934     12931     12929     12932     12935
     12933     12932     12935     12936     12933     12932     12935     12937
     12933     12932     12935     12938     12934     12932     12935     12936
     12934     12932     12935     12937     12934     12932     12935     12938
     12939     12941     12944     12945     12939     12941     12944     12946
     12939     12941     12944     12947     12940     12939     12941     12942
     12940     12939     12941     12943     12940     12939     12941     12944
     12941     12944     12947     12948     12941     12944     12947     12949
     12941     12944     12947     12950     12942     12941     12944     12945
     12942     12941     12944     12946     12942     12941     12944     12947
     12943     12941     12944     12945     12943     12941     12944     12946
     12943     12941     12944     12947     12944     12947     12950     12951
     12944     12947     12950     12952     12944     12947     12950     12953
     12945     12944     12947     12948     12945     12944     12947     12949
     12945     12944     12947     12950     12946     12944     12947     12948
     12946     12944     12947     12949     12946     12944     12947     12950
     12947     12950     12953     12954     12947     12950     12953     12955
     12947     12950     12953     12956     12948     12947     12950     12951
     12948     12947     12950     12952     12948     12947     12950     12953
     12949     12947     12950     12951     12949     12947     12950     12952
     12949     12947     12950     12953     12950     12953     12956     12957
     12950     12953     12956     12958     12950     12953     12956     12959
     12951     12950     12953     12954     12951     12950     12953     12955
     12951     12950     12953     12956     12952     12950     12953     12954
     12952     12950     12953     12955     12952     12950     12953     12956
     12953     12956     12959     12960     12953     12956     12959     12961
     12953     12956     12959     12962     12954     12953     12956     12957
     12954     12953     12956     12958     12954     12953     12956     12959
     12955     12953     12956     12957     12955     12953     12956     12958
     12955     12953     12956     12959     12956     12959     12962     12963
     12956     12959     12962     12964     12957     12956     12959     12960
     12957     12956     12959     12961     12957     12956     12959     12962
     12958     12956     12959     12960     12958     12956     12959     12961
     12958     12956     12959     12962     12959     12962     12964     12965
     12959     12962     12964     12966     12960     12959     12962     12963
     12960     12959     12962     12964     12961     12959     12962     12963
     12961     12959     12962     12964     12962     12964     12966     12967
     12962     12964     12966     12968     12962     12964     12966     12969
     12963     12962     12964     12965     12963     12962     12964     12966
     12964     12966     12969     12970     12964     12966     12969     12971
     12964     12966     12969     12972     12965     12964     12966     12967
     12965     12964     12966     12968     12965     12964     12966     12969
     12966     12969     12972     12973     12966     12969     12972     12974
     12966     12969     12972     12975     12967     12966     12969     12970
     12967     12966     12969     12971     12967     12966     12969     12972
     12968     12966     12969     12970     12968     12966     12969     12971
     12968     12966     12969     12972     12969     12972     12975     12976
     12969     12972     12975     12977     12969     12972     12975     12978
     12970     12969     12972     12973     12970     12969     12972     12974
     12970     12969     12972     12975     12971     12969     12972     12973
     12971     12969     12972     12974     12971     12969     12972     12975
     12972     12975     12978     12979     12972     12975     12978     12980
     12972     12975     12978     12981     12973     12972     12975     12976
     12973     12972     12975     12977     12973     12972     12975     12978
     12974     12972     12975     12976     12974     12972     12975     12977
     12974     12972     12975     12978     12975     12978     12981     12982
     12975     12978     12981     12983     12975     12978     12981     12984
     12976     12975     12978     12979     12976     12975     12978     12980
     12976     12975     12978     12981     12977     12975     12978     12979
     12977     12975     12978     12980     12977     12975     12978     12981
     12978     12981     12984     12985     12978     12981     12984     12986
     12978     12981     12984     12987     12979     12978     12981     12982
     12979     12978     12981     12983     12979     12978     12981     12984
     12980     12978     12981     12982     12980     12978     12981     12983
     12980     12978     12981     12984     12981     12984     12987     12988
     12981     12984     12987     12989     12981     12984     12987     12990
     12982     12981     12984     12985     12982     12981     12984     12986
     12982     12981     12984     12987     12983     12981     12984     12985
     12983     12981     12984     12986     12983     12981     12984     12987
     12985     12984     12987     12988     12985     12984     12987     12989
     12985     12984     12987     12990     12986     12984     12987     12988
     12986     12984     12987     12989     12986     12984     12987     12990
     12991     13004     13007     13008     12991     13004     13007     13009
     12991     13004     13007     13014     12992     12991     12996     12997
     12992     12991     12996     12998     12992     12991     12996     12999
     12992     12991     13000     13001     12992     12991     13000     13002
     12992     12991     13000     13003     12992     12991     13004     13005
     12992     12991     13004     13006     12992     12991     13004     13007
     12993     12992     12991     12996     12993     12992     12991     13000
     12993     12992     12991     13004     12994     12992     12991     12996
     12994     12992     12991     13000     12994     12992     12991     13004
     12995     12992     12991     12996     12995     12992     12991     13000
     12995     12992     12991     13004     12996     12991     13000     13001
     12996     12991     13000     13002     12996     12991     13000     13003
     12996     12991     13004     13005     12996     12991     13004     13006
     12996     12991     13004     13007     12997     12996     12991     13000
     12997     12996     12991     13004     12998     12996     12991     13000
     12998     12996     12991     13004     12999     12996     12991     13000
     12999     12996     12991     13004     13000     12991     13004     13005
     13000     12991     13004     13006     13000     12991     13004     13007
     13001     13000     12991     13004     13002     13000     12991     13004
     13003     13000     12991     13004     13004     13007     13014     13010
     13005     13004     13007     13008     13005     13004     13007     13009
     13005     13004     13007     13014     13006     13004     13007     13008
     13006     13004     13007     13009     13006     13004     13007     13014
     13007     13014     13010     13011     13007     13014     13010     13012
     13007     13014     13010     13013     13008     13007     13014     13010
     13009     13007     13014     13010     13010     13013     13015     13016
     13010     13013     13015     13017     13010     13013     13015     13020
     13011     13010     13013     13015     13012     13010     13013     13015
     13013     13015     13020     13018     13013     13015     13020     13021
     13013     13015     13020     13022     13014     13010     13013     13015
     13015     13020     13018     13019     13015     13020     13018     13070
     13015     13020     13022     13023     13015     13020     13022     13024
     13015     13020     13022     13026     13016     13015     13020     13018
     13016     13015     13020     13021     13016     13015     13020     13022
     13017     13015     13020     13018     13017     13015     13020     13021
     13017     13015     13020     13022     13018     13020     13022     13023
     13018     13020     13022     13024     13018     13020     13022     13026
     13018     13070     13072     13073     13018     13070     13072     13074
     13018     13070     13072     13075     13019     13018     13020     13021
     13019     13018     13020     13022     13019     13018     13070     13071
     13019     13018     13070     13072     13020     13018     13070     13071
     13020     13018     13070     13072     13020     13022     13024     13025
     13020     13022     13026     13027     13020     13022     13026     13028
     13021     13020     13018     13070     13021     13020     13022     13023
     13021     13020     13022     13024     13021     13020     13022     13026
     13022     13020     13018     13070     13022     13026     13028     13029
     13022     13026     13028     13030     13023     13022     13024     13025
     13023     13022     13026     13027     13023     13022     13026     13028
     13024     13022     13026     13027     13024     13022     13026     13028
     13025     13024     13022     13026     13026     13028     13030     13031
     13026     13028     13030     13032     13026     13028     13030     13033
     13027     13026     13028     13029     13027     13026     13028     13030
     13028     13030     13033     13034     13028     13030     13033     13035
     13028     13030     13033     13036     13029     13028     13030     13031
     13029     13028     13030     13032     13029     13028     13030     13033
     13030     13033     13036     13037     13030     13033     13036     13038
     13030     13033     13036     13039     13031     13030     13033     13034
     13031     13030     13033     13035     13031     13030     13033     13036
     13032     13030     13033     13034     13032     13030     13033     13035
     13032     13030     13033     13036     13033     13036     13039     13040
     13033     13036     13039     13041     13033     13036     13039     13042
     13034     13033     13036     13037     13034     13033     13036     13038
     13034     13033     13036     13039     13035     13033     13036     13037
     13035     13033     13036     13038     13035     13033     13036     13039
     13036     13039     13042     13043     13036     13039     13042     13044
     13036     13039     13042     13045     13037     13036     13039     13040
     13037     13036     13039     13041     13037     13036     13039     13042
     13038     13036     13039     13040     13038     13036     13039     13041
     13038     13036     13039     13042     13039     13042     13045     13046
     13039     13042     13045     13047     13039     13042     13045     13048
     13040     13039     13042     13043     13040     13039     13042     13044
     13040     13039     13042     13045     13041     13039     13042     13043
     13041     13039     13042     13044     13041     13039     13042     13045
     13042     13045     13048     13049     13042     13045     13048     13050
     13042     13045     13048     13051     13043     13042     13045     13046
     13043     13042     13045     13047     13043     13042     13045     13048
     13044     13042     13045     13046     13044     13042     13045     13047
     13044     13042     13045     13048     13045     13048     13051     13052
     13045     13048     13051     13053     13045     13048     13051     13054
     13046     13045     13048     13049     13046     13045     13048     13050
     13046     13045     13048     13051     13047     13045     13048     13049
     13047     13045     13048     13050     13047     13045     13048     13051
     13048     13051     13054     13055     13048     13051     13054     13056
     13048     13051     13054     13057     13049     13048     13051     13052
     13049     13048     13051     13053     13049     13048     13051     13054
     13050     13048     13051     13052     13050     13048     13051     13053
     13050     13048     13051     13054     13051     13054     13057     13058
     13051     13054     13057     13059     13051     13054     13057     13060
     13052     13051     13054     13055     13052     13051     13054     13056
     13052     13051     13054     13057     13053     13051     13054     13055
     13053     13051     13054     13056     13053     13051     13054     13057
     13054     13057     13060     13061     13054     13057     13060     13062
     13054     13057     13060     13063     13055     13054     13057     13058
     13055     13054     13057     13059     13055     13054     13057     13060
     13056     13054     13057     13058     13056     13054     13057     13059
     13056     13054     13057     13060     13057     13060     13063     13064
     13057     13060     13063     13065     13057     13060     13063     13066
     13058     13057     13060     13061     13058     13057     13060     13062
     13058     13057     13060     13063     13059     13057     13060     13061
     13059     13057     13060     13062     13059     13057     13060     13063
     13060     13063     13066     13067     13060     13063     13066     13068
     13060     13063     13066     13069     13061     13060     13063     13064
     13061     13060     13063     13065     13061     13060     13063     13066
     13062     13060     13063     13064     13062     13060     13063     13065
     13062     13060     13063     13066     13064     13063     13066     13067
     13064     13063     13066     13068     13064     13063     13066     13069
     13065     13063     13066     13067     13065     13063     13066     13068
     13065     13063     13066     13069     13070     13072     13075     13076
     13070     13072     13075     13077     13070     13072     13075     13078
     13071     13070     13072     13073     13071     13070     13072     13074
     13071     13070     13072     13075     13072     13075     13078     13079
     13072     13075     13078     13080     13072     13075     13078     13081
     13073     13072     13075     13076     13073     13072     13075     13077
     13073     13072     13075     13078     13074     13072     13075     13076
     13074     13072     13075     13077     13074     13072     13075     13078
     13075     13078     13081     13082     13075     13078     13081     13083
     13075     13078     13081     13084     13076     13075     13078     13079
     13076     13075     13078     13080     13076     13075     13078     13081
     13077     13075     13078     13079     13077     13075     13078     13080
     13077     13075     13078     13081     13078     13081     13084     13085
     13078     13081     13084     13086     13078     13081     13084     13087
     13079     13078     13081     13082     13079     13078     13081     13083
     13079     13078     13081     13084     13080     13078     13081     13082
     13080     13078     13081     13083     13080     13078     13081     13084
     13081     13084     13087     13088     13081     13084     13087     13089
     13081     13084     13087     13090     13082     13081     13084     13085
     13082     13081     13084     13086     13082     13081     13084     13087
     13083     13081     13084     13085     13083     13081     13084     13086
     13083     13081     13084     13087     13084     13087     13090     13091
     13084     13087     13090     13092     13084     13087     13090     13093
     13085     13084     13087     13088     13085     13084     13087     13089
     13085     13084     13087     13090     13086     13084     13087     13088
     13086     13084     13087     13089     13086     13084     13087     13090
     13087     13090     13093     13094     13087     13090     13093     13095
     13088     13087     13090     13091     13088     13087     13090     13092
     13088     13087     13090     13093     13089     13087     13090     13091
     13089     13087     13090     13092     13089     13087     13090     13093
     13090     13093     13095     13096     13090     13093     13095     13097
     13091     13090     13093     13094     13091     13090     13093     13095
     13092     13090     13093     13094     13092     13090     13093     13095
     13093     13095     13097     13098     13093     13095     13097     13099
     13093     13095     13097     13100     13094     13093     13095     13096
     13094     13093     13095     13097     13095     13097     13100     13101
     13095     13097     13100     13102     13095     13097     13100     13103
     13096     13095     13097     13098     13096     13095     13097     13099
     13096     13095     13097     13100     13097     13100     13103     13104
     13097     13100     13103     13105     13097     13100     13103     13106
     13098     13097     13100     13101     13098     13097     13100     13102
     13098     13097     13100     13103     13099     13097     13100     13101
     13099     13097     13100     13102     13099     13097     13100     13103
     13100     13103     13106     13107     13100     13103     13106     13108
     13100     13103     13106     13109     13101     13100     13103     13104
     13101     13100     13103     13105     13101     13100     13103     13106
     13102     13100     13103     13104     13102     13100     13103     13105
     13102     13100     13103     13106     13103     13106     13109     13110
     13103     13106     13109     13111     13103     13106     13109     13112
     13104     13103     13106     13107     13104     13103     13106     13108
     13104     13103     13106     13109     13105     13103     13106     13107
     13105     13103     13106     13108     13105     13103     13106     13109
     13106     13109     13112     13113     13106     13109     13112     13114
     13106     13109     13112     13115     13107     13106     13109     13110
     13107     13106     13109     13111     13107     13106     13109     13112
     13108     13106     13109     13110     13108     13106     13109     13111
     13108     13106     13109     13112     13109     13112     13115     13116
     13109     13112     13115     13117     13109     13112     13115     13118
     13110     13109     13112     13113     13110     13109     13112     13114
     13110     13109     13112     13115     13111     13109     13112     13113
     13111     13109     13112     13114     13111     13109     13112     13115
     13112     13115     13118     13119     13112     13115     13118     13120
     13112     13115     13118     13121     13113     13112     13115     13116
     13113     13112     13115     13117     13113     13112     13115     13118
     13114     13112     13115     13116     13114     13112     13115     13117
     13114     13112     13115     13118     13116     13115     13118     13119
     13116     13115     13118     13120     13116     13115     13118     13121
     13117     13115     13118     13119     13117     13115     13118     13120
     13117     13115     13118     13121      5039      5040      5055      5056
      5039      5040      5055      5057      5039      5040      5055      5061
      5040      5039      5043      5044      5040      5039      5043      5045
      5040      5039      5043      5046      5040      5039      5047      5048
      5040      5039      5047      5049      5040      5039      5047      5050
      5040      5039      5051      5052      5040      5039      5051      5053
      5040      5039      5051      5054      5040      5055      5061      5058
      5041      5040      5039      5043      5041      5040      5039      5047
      5041      5040      5039      5051      5041      5040      5055      5056
      5041      5040      5055      5057      5041      5040      5055      5061
      5042      5040      5039      5043      5042      5040      5039      5047
      5042      5040      5039      5051      5042      5040      5055      5056
      5042      5040      5055      5057      5042      5040      5055      5061
      5043      5039      5040      5055      5043      5039      5047      5048
      5043      5039      5047      5049      5043      5039      5047      5050
      5043      5039      5051      5052      5043      5039      5051      5053
      5043      5039      5051      5054      5044      5043      5039      5047
      5044      5043      5039      5051      5045      5043      5039      5047
      5045      5043      5039      5051      5046      5043      5039      5047
      5046      5043      5039      5051      5047      5039      5040      5055
      5047      5039      5051      5052      5047      5039      5051      5053
      5047      5039      5051      5054      5048      5047      5039      5051
      5049      5047      5039      5051      5050      5047      5039      5051
      5051      5039      5040      5055      5055      5061      5058      5059
      5055      5061      5058      5060      5055      5061      5058      5062
      5056      5055      5061      5058      5057      5055      5061      5058
      5058      5062      5063      5064      5058      5062      5063      5065
      5058      5062      5063      5066      5059      5058      5062      5063
      5060      5058      5062      5063      5061      5058      5062      5063
      5062      5063      5066      5067      5062      5063      5066      5068
      5062      5063      5066      5074      5063      5066      5068      5069
      5063      5066      5074      5075      5063      5066      5074      5076
      5063      5066      5074      5077      5064      5063      5066      5067
      5064      5063      5066      5068      5064      5063      5066      5074
      5065      5063      5066      5067      5065      5063      5066      5068
      5065      5063      5066      5074      5066      5068      5069      5070
      5066      5068      5069      5071      5066      5074      5077      5078
      5067      5066      5068      5069      5067      5066      5074      5075
      5067      5066      5074      5076      5067      5066      5074      5077
      5068      5066      5074      5075      5068      5066      5074      5076
      5068      5066      5074      5077      5068      5069      5071      5072
      5068      5069      5071      5073      5068      5069      5071      5083
      5069      5068      5066      5074      5069      5071      5083      5084
      5069      5071      5083      5085      5069      5071      5083      5086
      5070      5069      5071      5072      5070      5069      5071      5073
      5070      5069      5071      5083      5071      5083      5086      5087
      5071      5083      5086      5088      5071      5083      5086      5089
      5072      5071      5083      5084      5072      5071      5083      5085
      5072      5071      5083      5086      5073      5071      5083      5084
      5073      5071      5083      5085      5073      5071      5083      5086
      5074      5077      5078      5079      5074      5077      5078      5080
      5075      5074      5077      5078      5076      5074      5077      5078
      5077      5078      5080      5081      5077      5078      5080      5082
      5077      5078      5080      5130      5078      5080      5130      5131
      5078      5080      5130      5132      5078      5080      5130      5133
      5079      5078      5080      5081      5079      5078      5080      5082
      5079      5078      5080      5130      5080      5130      5133      5134
      5080      5130      5133      5135      5080      5130      5133      5136
      5081      5080      5130      5131      5081      5080      5130      5132
      5081      5080      5130      5133      5082      5080      5130      5131
      5082      5080      5130      5132      5082      5080      5130      5133
      5083      5086      5089      5090      5083      5086      5089      5091
      5083      5086      5089      5092      5084      5083      5086      5087
      5084      5083      5086      5088      5084      5083      5086      5089
      5085      5083      5086      5087      5085      5083      5086      5088
      5085      5083      5086      5089      5086      5089      5092      5093
      5086      5089      5092      5094      5086      5089      5092      5095
      5087      5086      5089      5090      5087      5086      5089      5091
      5087      5086      5089      5092      5088      5086      5089      5090
      5088      5086      5089      5091      5088      5086      5089      5092
      5089      5092      5095      5096      5089      5092      5095      5097
      5089      5092      5095      5098      5090      5089      5092      5093
      5090      5089      5092      5094      5090      5089      5092      5095
      5091      5089      5092      5093      5091      5089      5092      5094
      5091      5089      5092      5095      5092      5095      5098      5099
      5092      5095      5098      5100      5092      5095      5098      5101
      5093      5092      5095      5096      5093      5092      5095      5097
      5093      5092      5095      5098      5094      5092      5095      5096
      5094      5092      5095      5097      5094      5092      5095      5098
      5095      5098      5101      5102      5095      5098      5101      5103
      5096      5095      5098      5099      5096      5095      5098      5100
      5096      5095      5098      5101      5097      5095      5098      5099
      5097      5095      5098      5100      5097      5095      5098      5101
      5098      5101      5103      5104      5098      5101      5103      5105
      5099      5098      5101      5102      5099      5098      5101      5103
      5100      5098      5101      5102      5100      5098      5101      5103
      5101      5103      5105      5106      5101      5103      5105      5107
      5101      5103      5105      5108      5102      5101      5103      5104
      5102      5101      5103      5105      5103      5105      5108      5109
      5103      5105      5108      5110      5103      5105      5108      5111
      5104      5103      5105      5106      5104      5103      5105      5107
      5104      5103      5105      5108      5105      5108      5111      5112
      5105      5108      5111      5113      5105      5108      5111      5114
      5106      5105      5108      5109      5106      5105      5108      5110
      5106      5105      5108      5111      5107      5105      5108      5109
      5107      5105      5108      5110      5107      5105      5108      5111
      5108      5111      5114      5115      5108      5111      5114      5116
      5108      5111      5114      5117      5109      5108      5111      5112
      5109      5108      5111      5113      5109      5108      5111      5114
      5110      5108      5111      5112      5110      5108      5111      5113
      5110      5108      5111      5114      5111      5114      5117      5118
      5111      5114      5117      5119      5111      5114      5117      5120
      5112      5111      5114      5115      5112      5111      5114      5116
      5112      5111      5114      5117      5113      5111      5114      5115
      5113      5111      5114      5116      5113      5111      5114      5117
      5114      5117      5120      5121      5114      5117      5120      5122
      5114      5117      5120      5123      5115      5114      5117      5118
      5115      5114      5117      5119      5115      5114      5117      5120
      5116      5114      5117      5118      5116      5114      5117      5119
      5116      5114      5117      5120      5117      5120      5123      5124
      5117      5120      5123      5125      5117      5120      5123      5126
      5118      5117      5120      5121      5118      5117      5120      5122
      5118      5117      5120      5123      5119      5117      5120      5121
      5119      5117      5120      5122      5119      5117      5120      5123
      5120      5123      5126      5127      5120      5123      5126      5128
      5120      5123      5126      5129      5121      5120      5123      5124
      5121      5120      5123      5125      5121      5120      5123      5126
      5122      5120      5123      5124      5122      5120      5123      5125
      5122      5120      5123      5126      5124      5123      5126      5127
      5124      5123      5126      5128      5124      5123      5126      5129
      5125      5123      5126      5127      5125      5123      5126      5128
      5125      5123      5126      5129      5130      5133      5136      5137
      5130      5133      5136      5138      5130      5133      5136      5139
      5131      5130      5133      5134      5131      5130      5133      5135
      5131      5130      5133      5136      5132      5130      5133      5134
      5132      5130      5133      5135      5132      5130      5133      5136
      5133      5136      5139      5140      5133      5136      5139      5141
      5133      5136      5139      5142      5134      5133      5136      5137
      5134      5133      5136      5138      5134      5133      5136      5139
      5135      5133      5136      5137      5135      5133      5136      5138
      5135      5133      5136      5139      5136      5139      5142      5143
      5136      5139      5142      5144      5136      5139      5142      5145
      5137      5136      5139      5140      5137      5136      5139      5141
      5137      5136      5139      5142      5138      5136      5139      5140
      5138      5136      5139      5141      5138      5136      5139      5142
      5139      5142      5145      5146      5139      5142      5145      5147
      5139      5142      5145      5148      5140      5139      5142      5143
      5140      5139      5142      5144      5140      5139      5142      5145
      5141      5139      5142      5143      5141      5139      5142      5144
      5141      5139      5142      5145      5142      5145      5148      5149
      5142      5145      5148      5150      5142      5145      5148      5151
      5143      5142      5145      5146      5143      5142      5145      5147
      5143      5142      5145      5148      5144      5142      5145      5146
      5144      5142      5145      5147      5144      5142      5145      5148
      5145      5148      5151      5152      5145      5148      5151      5153
      5145      5148      5151      5154      5146      5145      5148      5149
      5146      5145      5148      5150      5146      5145      5148      5151
      5147      5145      5148      5149      5147      5145      5148      5150
      5147      5145      5148      5151      5148      5151      5154      5155
      5148      5151      5154      5156      5148      5151      5154      5157
      5149      5148      5151      5152      5149      5148      5151      5153
      5149      5148      5151      5154      5150      5148      5151      5152
      5150      5148      5151      5153      5150      5148      5151      5154
      5151      5154      5157      5158      5151      5154      5157      5159
      5151      5154      5157      5160      5152      5151      5154      5155
      5152      5151      5154      5156      5152      5151      5154      5157
      5153      5151      5154      5155      5153      5151      5154      5156
      5153      5151      5154      5157      5154      5157      5160      5161
      5154      5157      5160      5162      5154      5157      5160      5163
      5155      5154      5157      5158      5155      5154      5157      5159
      5155      5154      5157      5160      5156      5154      5157      5158
      5156      5154      5157      5159      5156      5154      5157      5160
      5157      5160      5163      5164      5157      5160      5163      5165
      5157      5160      5163      5166      5158      5157      5160      5161
      5158      5157      5160      5162      5158      5157      5160      5163
      5159      5157      5160      5161      5159      5157      5160      5162
      5159      5157      5160      5163      5160      5163      5166      5167
      5160      5163      5166      5168      5160      5163      5166      5169
      5161      5160      5163      5164      5161      5160      5163      5165
      5161      5160      5163      5166      5162      5160      5163      5164
      5162      5160      5163      5165      5162      5160      5163      5166
      5163      5166      5169      5170      5163      5166      5169      5171
      5163      5166      5169      5172      5164      5163      5166      5167
      5164      5163      5166      5168      5164      5163      5166      5169
      5165      5163      5166      5167      5165      5163      5166      5168
      5165      5163      5166      5169      5167      5166      5169      5170
      5167      5166      5169      5171      5167      5166      5169      5172
      5168      5166      5169      5170      5168      5166      5169      5171
      5168      5166      5169      5172      1198      1202      1204      1205
      1198      1202      1204      1206      1198      1202      1207      1208
      1198      1202      1207      1209      1198      1202      1207      1213
      1199      1198      1202      1203      1199      1198      1202      1204
      1199      1198      1202      1207      1200      1198      1202      1203
      1200      1198      1202      1204      1200      1198      1202      1207
      1201      1198      1202      1203      1201      1198      1202      1204
      1201      1198      1202      1207      1202      1207      1213      1210
      1203      1202      1204      1205      1203      1202      1204      1206
      1203      1202      1207      1208      1203      1202      1207      1209
      1203      1202      1207      1213      1204      1202      1207      1208
      1204      1202      1207      1209      1204      1202      1207      1213
      1205      1204      1202      1207      1206      1204      1202      1207
      1207      1213      1210      1211      1207      1213      1210      1212
      1207      1213      1210      1214      1208      1207      1213      1210
      1209      1207      1213      1210      1210      1214      1215      1216
      1210      1214      1215      1217      1210      1214      1215      1218
      1211      1210      1214      1215      1212      1210      1214      1215
      1213      1210      1214      1215      1214      1215      1218      1219
      1214      1215      1218      1220      1214      1215      1218      1226
      1215      1218      1220      1221      1215      1218      1226      1227
      1215      1218      1226      1228      1215      1218      1226      1229
      1216      1215      1218      1219      1216      1215      1218      1220
      1216      1215      1218      1226      1217      1215      1218      1219
      1217      1215      1218      1220      1217      1215      1218      1226
      1218      1220      1221      1222      1218      1220      1221      1223
      1218      1226      1229      1230      1219      1218      1220      1221
      1219      1218      1226      1227      1219      1218      1226      1228
      1219      1218      1226      1229      1220      1218      1226      1227
      1220      1218      1226      1228      1220      1218      1226      1229
      1220      1221      1223      1224      1220      1221      1223      1225
      1220      1221      1223      1235      1221      1220      1218      1226
      1221      1223      1235      1236      1221      1223      1235      1237
      1221      1223      1235      1238      1222      1221      1223      1224
      1222      1221      1223      1225      1222      1221      1223      1235
      1223      1235      1238      1239      1223      1235      1238      1240
      1223      1235      1238      1241      1224      1223      1235      1236
      1224      1223      1235      1237      1224      1223      1235      1238
      1225      1223      1235      1236      1225      1223      1235      1237
      1225      1223      1235      1238      1226      1229      1230      1231
      1226      1229      1230      1232      1227      1226      1229      1230
      1228      1226      1229      1230      1229      1230      1232      1233
      1229      1230      1232      1234      1229      1230      1232      1282
      1230      1232      1282      1283      1230      1232      1282      1284
      1230      1232      1282      1285      1231      1230      1232      1233
      1231      1230      1232      1234      1231      1230      1232      1282
      1232      1282      1285      1286      1232      1282      1285      1287
      1232      1282      1285      1288      1233      1232      1282      1283
      1233      1232      1282      1284      1233      1232      1282      1285
      1234      1232      1282      1283      1234      1232      1282      1284
      1234      1232      1282      1285      1235      1238      1241      1242
      1235      1238      1241      1243      1236      1235      1238      1239
      1236      1235      1238      1240      1236      1235      1238      1241
      1237      1235      1238      1239      1237      1235      1238      1240
      1237      1235      1238      1241      1238      1241      1243      1244
      1238      1241      1243      1245      1239      1238      1241      1242
      1239      1238      1241      1243      1240      1238      1241      1242
      1240      1238      1241      1243      1241      1243      1245      1246
      1241      1243      1245      1247      1241      1243      1245      1248
      1242      1241      1243      1244      1242      1241      1243      1245
      1243      1245      1248      1249      1243      1245      1248      1250
      1244      1243      1245      1246      1244      1243      1245      1247
      1244      1243      1245      1248      1245      1248      1250      1251
      1245      1248      1250      1252      1246      1245      1248      1249
      1246      1245      1248      1250      1247      1245      1248      1249
      1247      1245      1248      1250      1248      1250      1252      1253
      1248      1250      1252      1254      1248      1250      1252      1255
      1249      1248      1250      1251      1249      1248      1250      1252
      1250      1252      1255      1256      1250      1252      1255      1257
      1251      1250      1252      1253      1251      1250      1252      1254
      1251      1250      1252      1255      1252      1255      1257      1258
      1252      1255      1257      1259      1253      1252      1255      1256
      1253      1252      1255      1257      1254      1252      1255      1256
      1254      1252      1255      1257      1255      1257      1259      1260
      1255      1257      1259      1261      1255      1257      1259      1262
      1256      1255      1257      1258      1256      1255      1257      1259
      1257      1259      1262      1263      1257      1259      1262      1264
      1258      1257      1259      1260      1258      1257      1259      1261
      1258      1257      1259      1262      1259      1262      1264      1265
      1259      1262      1264      1266      1260      1259      1262      1263
      1260      1259      1262      1264      1261      1259      1262      1263
      1261      1259      1262      1264      1262      1264      1266      1267
      1262      1264      1266      1268      1262      1264      1266      1269
      1263      1262      1264      1265      1263      1262      1264      1266
      1264      1266      1269      1270      1264      1266      1269      1271
      1264      1266      1269      1272      1265      1264      1266      1267
      1265      1264      1266      1268      1265      1264      1266      1269
      1266      1269      1272      1273      1266      1269      1272      1274
      1266      1269      1272      1275      1267      1266      1269      1270
      1267      1266      1269      1271      1267      1266      1269      1272
      1268      1266      1269      1270      1268      1266      1269      1271
      1268      1266      1269      1272      1269      1272      1275      1276
      1269      1272      1275      1277      1269      1272      1275      1278
      1270      1269      1272      1273      1270      1269      1272      1274
      1270      1269      1272      1275      1271      1269      1272      1273
      1271      1269      1272      1274      1271      1269      1272      1275
      1272      1275      1278      1279      1272      1275      1278      1280
      1272      1275      1278      1281      1273      1272      1275      1276
      1273      1272      1275      1277      1273      1272      1275      1278
      1274      1272      1275      1276      1274      1272      1275      1277
      1274      1272      1275      1278      1276      1275      1278      1279
      1276      1275      1278      1280      1276      1275      1278      1281
      1277      1275      1278      1279      1277      1275      1278      1280
      1277      1275      1278      1281      1282      1285      1288      1289
      1282      1285      1288      1290      1282      1285      1288      1291
      1283      1282      1285      1286      1283      1282      1285      1287
      1283      1282      1285      1288      1284      1282      1285      1286
      1284      1282      1285      1287      1284      1282      1285      1288
      1285      1288      1291      1292      1285      1288      1291      1293
      1285      1288      1291      1294      1286      1285      1288      1289
      1286      1285      1288      1290      1286      1285      1288      1291
      1287      1285      1288      1289      1287      1285      1288      1290
      1287      1285      1288      1291      1288      1291      1294      1295
      1288      1291      1294      1296      1288      1291      1294      1297
      1289      1288      1291      1292      1289      1288      1291      1293
      1289      1288      1291      1294      1290      1288      1291      1292
      1290      1288      1291      1293      1290      1288      1291      1294
      1291      1294      1297      1298      1291      1294      1297      1299
      1291      1294      1297      1300      1292      1291      1294      1295
      1292      1291      1294      1296      1292      1291      1294      1297
      1293      1291      1294      1295      1293      1291      1294      1296
      1293      1291      1294      1297      1294      1297      1300      1301
      1294      1297      1300      1302      1294      1297      1300      1303
      1295      1294      1297      1298      1295      1294      1297      1299
      1295      1294      1297      1300      1296      1294      1297      1298
      1296      1294      1297      1299      1296      1294      1297      1300
      1297      1300      1303      1304      1297      1300      1303      1305
      1297      1300      1303      1306      1298      1297      1300      1301
      1298      1297      1300      1302      1298      1297      1300      1303
      1299      1297      1300      1301      1299      1297      1300      1302
      1299      1297      1300      1303      1300      1303      1306      1307
      1300      1303      1306      1308      1300      1303      1306      1309
      1301      1300      1303      1304      1301      1300      1303      1305
      1301      1300      1303      1306      1302      1300      1303      1304
      1302      1300      1303      1305      1302      1300      1303      1306
      1303      1306      1309      1310      1303      1306      1309      1311
      1303      1306      1309      1312      1304      1303      1306      1307
      1304      1303      1306      1308      1304      1303      1306      1309
      1305      1303      1306      1307      1305      1303      1306      1308
      1305      1303      1306      1309      1306      1309      1312      1313
      1306      1309      1312      1314      1306      1309      1312      1315
      1307      1306      1309      1310      1307      1306      1309      1311
      1307      1306      1309      1312      1308      1306      1309      1310
      1308      1306      1309      1311      1308      1306      1309      1312
      1309      1312      1315      1316      1309      1312      1315      1317
      1309      1312      1315      1318      1310      1309      1312      1313
      1310      1309      1312      1314      1310      1309      1312      1315
      1311      1309      1312      1313      1311      1309      1312      1314
      1311      1309      1312      1315      1312      1315      1318      1319
      1312      1315      1318      1320      1312      1315      1318      1321
      1313      1312      1315      1316      1313      1312      1315      1317
      1313      1312      1315      1318      1314      1312      1315      1316
      1314      1312      1315      1317      1314      1312      1315      1318
      1315      1318      1321      1322      1315      1318      1321      1323
      1315      1318      1321      1324      1316      1315      1318      1319
      1316      1315      1318      1320      1316      1315      1318      1321
      1317      1315      1318      1319      1317      1315      1318      1320
      1317      1315      1318      1321      1318      1321      1324      1325
      1318      1321      1324      1326      1318      1321      1324      1327
      1319      1318      1321      1322      1319      1318      1321      1323
      1319      1318      1321      1324      1320      1318      1321      1322
      1320      1318      1321      1323      1320      1318      1321      1324
      1321      1324      1327      1328      1321      1324      1327      1329
      1321      1324      1327      1330      1322      1321      1324      1325
      1322      1321      1324      1326      1322      1321      1324      1327
      1323      1321      1324      1325      1323      1321      1324      1326
      1323      1321      1324      1327      1325      1324      1327      1328
      1325      1324      1327      1329      1325      1324      1327      1330
      1326      1324      1327      1328      1326      1324      1327      1329
      1326      1324      1327      1330      7957      7961      7964      7965
      7957      7961      7964      7995      7957      8003      8000      7995
      7957      8003      8000      8001      7957      8003      8000      8002
      7958      7957      7959      7960      7958      7957      7961      7962
      7958      7957      7961      7963      7958      7957      7961      7964
      7958      7957      8003      8000      7958      7957      8003      8004
      7958      7957      8003      8005      7959      7957      7961      7962
      7959      7957      7961      7963      7959      7957      7961      7964
      7959      7957      8003      8000      7959      7957      8003      8004
      7959      7957      8003      8005      7960      7959      7957      7961
      7960      7959      7957      8003      7961      7957      8003      8000
      7961      7957      8003      8004      7961      7957      8003      8005
      7961      7964      7965      7966      7961      7964      7965      7967
      7961      7964      7995      7993      7961      7964      7995      7996
      7961      7964      7995      8000      7962      7961      7957      8003
      7962      7961      7964      7965      7962      7961      7964      7995
      7963      7961      7957      8003      7963      7961      7964      7965
      7963      7961      7964      7995      7964      7961      7957      8003
      7964      7965      7967      7968      7964      7965      7967      7969
      7964      7965      7967      7970      7964      7995      7993      7970
      7964      7995      7993      7990      7964      7995      7993      7994
      7964      7995      7996      7997      7964      7995      7996      7998
      7964      7995      7996      7999      7964      7995      8000      8001
      7964      7995      8000      8002      7964      7995      8000      8003
      7965      7964      7995      7993      7965      7964      7995      7996
      7965      7964      7995      8000      7965      7967      7970      7971
      7965      7967      7970      7972      7965      7967      7970      7993
      7966      7965      7964      7995      7966      7965      7967      7968
      7966      7965      7967      7969      7966      7965      7967      7970
      7967      7965      7964      7995      7967      7970      7972      7973
      7967      7970      7972      7974      7967      7970      7972      7982
      7967      7970      7993      7990      7967      7970      7993      7994
      7967      7970      7993      7995      7968      7967      7970      7971
      7968      7967      7970      7972      7968      7967      7970      7993
      7969      7967      7970      7971      7969      7967      7970      7972
      7969      7967      7970      7993      7970      7972      7974      7975
      7970      7972      7974      7976      7970      7972      7974      7977
      7970      7972      7982      7980      7970      7972      7982      7983
      7970      7972      7982      7987      7970      7993      7990      7987
      7970      7993      7990      7991      7970      7993      7990      7992
      7970      7993      7995      7996      7970      7993      7995      8000
      7971      7970      7972      7973      7971      7970      7972      7974
      7971      7970      7972      7982      7971      7970      7993      7990
      7971      7970      7993      7994      7971      7970      7993      7995
      7972      7970      7993      7990      7972      7970      7993      7994
      7972      7970      7993      7995      7972      7974      7977      7978
      7972      7974      7977      7979      7972      7974      7977      7980
      7972      7982      7980      7977      7972      7982      7980      7981
      7972      7982      7980      8006      7972      7982      7983      7984
      7972      7982      7983      7985      7972      7982      7983      7986
      7972      7982      7987      7988      7972      7982      7987      7989
      7972      7982      7987      7990      7973      7972      7970      7993
      7973      7972      7974      7975      7973      7972      7974      7976
      7973      7972      7974      7977      7973      7972      7982      7980
      7973      7972      7982      7983      7973      7972      7982      7987
      7974      7972      7970      7993      7974      7972      7982      7980
      7974      7972      7982      7983      7974      7972      7982      7987
      7974      7977      7980      7981      7974      7977      7980      7982
      7974      7977      7980      8006      7975      7974      7972      7982
      7975      7974      7977      7978      7975      7974      7977      7979
      7975      7974      7977      7980      7976      7974      7972      7982
      7976      7974      7977      7978      7976      7974      7977      7979
      7976      7974      7977      7980      7977      7974      7972      7982
      7977      7980      7982      7983      7977      7980      7982      7987
      7977      7980      8006      8007      7977      7980      8006      8008
      7977      7980      8006      8012      7978      7977      7980      7981
      7978      7977      7980      7982      7978      7977      7980      8006
      7979      7977      7980      7981      7979      7977      7980      7982
      7979      7977      7980      8006      7980      7982      7983      7984
      7980      7982      7983      7985      7980      7982      7983      7986
      7980      7982      7987      7988      7980      7982      7987      7989
      7980      7982      7987      7990      7980      8006      8008      8009
      7980      8006      8008      8010      7980      8006      8008      8011
      7980      8006      8012      8013      7980      8006      8012      8014
      7980      8006      8012      8015      7981      7980      7982      7983
      7981      7980      7982      7987      7981      7980      8006      8007
      7981      7980      8006      8008      7981      7980      8006      8012
      7982      7972      7970      7993      7982      7980      8006      8007
      7982      7980      8006      8008      7982      7980      8006      8012
      7982      7987      7990      7991      7982      7987      7990      7992
      7982      7987      7990      7993      7983      7982      7980      8006
      7983      7982      7987      7988      7983      7982      7987      7989
      7983      7982      7987      7990      7984      7983      7982      7987
      7985      7983      7982      7987      7986      7983      7982      7987
      7987      7982      7980      8006      7987      7990      7993      7994
      7987      7990      7993      7995      7988      7987      7990      7991
      7988      7987      7990      7992      7988      7987      7990      7993
      7989      7987      7990      7991      7989      7987      7990      7992
      7989      7987      7990      7993      7990      7993      7995      7996
      7990      7993      7995      8000      7991      7990      7993      7994
      7991      7990      7993      7995      7992      7990      7993      7994
      7992      7990      7993      7995      7993      7995      7996      7997
      7993      7995      7996      7998      7993      7995      7996      7999
      7993      7995      8000      8001      7993      7995      8000      8002
      7993      7995      8000      8003      7994      7993      7995      7996
      7994      7993      7995      8000      7995      8000      8003      8004
      7995      8000      8003      8005      7996      7995      8000      8001
      7996      7995      8000      8002      7996      7995      8000      8003
      7997      7996      7995      8000      7998      7996      7995      8000
      7999      7996      7995      8000      8001      8000      8003      8004
      8001      8000      8003      8005      8002      8000      8003      8004
      8002      8000      8003      8005      8006      8012      8015      8016
      8006      8012      8015      8017      8006      8012      8015      8018
      8007      8006      8008      8009      8007      8006      8008      8010
      8007      8006      8008      8011      8007      8006      8012      8013
      8007      8006      8012      8014      8007      8006      8012      8015
      8008      8006      8012      8013      8008      8006      8012      8014
      8008      8006      8012      8015      8009      8008      8006      8012
      8010      8008      8006      8012      8011      8008      8006      8012
      8012      8015      8018      8019      8012      8015      8018      8020
      8012      8015      8018      8021      8013      8012      8015      8016
      8013      8012      8015      8017      8013      8012      8015      8018
      8014      8012      8015      8016      8014      8012      8015      8017
      8014      8012      8015      8018      8015      8018      8021      8022
      8015      8018      8021      8023      8015      8018      8021      8027
      8016      8015      8018      8019      8016      8015      8018      8020
      8016      8015      8018      8021      8017      8015      8018      8019
      8017      8015      8018      8020      8017      8015      8018      8021
      8018      8021      8023      8024      8018      8021      8023      8025
      8018      8021      8023      8026      8018      8021      8027      8028
      8018      8021      8027      8029      8018      8021      8027      8030
      8019      8018      8021      8022      8019      8018      8021      8023
      8019      8018      8021      8027      8020      8018      8021      8022
      8020      8018      8021      8023      8020      8018      8021      8027
      8022      8021      8023      8024      8022      8021      8023      8025
      8022      8021      8023      8026      8022      8021      8027      8028
      8022      8021      8027      8029      8022      8021      8027      8030
      8023      8021      8027      8028      8023      8021      8027      8029
      8023      8021      8027      8030      8024      8023      8021      8027
      8025      8023      8021      8027      8026      8023      8021      8027
     16921     16925     16928     16929     16921     16925     16928     16930
     16921     16925     16928     16934     16922     16921     16925     16926
     16922     16921     16925     16927     16922     16921     16925     16928
     16923     16921     16925     16926     16923     16921     16925     16927
     16923     16921     16925     16928     16924     16921     16925     16926
     16924     16921     16925     16927     16924     16921     16925     16928
     16925     16928     16934     16931     16926     16925     16928     16929
     16926     16925     16928     16930     16926     16925     16928     16934
     16927     16925     16928     16929     16927     16925     16928     16930
     16927     16925     16928     16934     16928     16934     16931     16932
     16928     16934     16931     16933     16928     16934     16931     16935
     16929     16928     16934     16931     16930     16928     16934     16931
     16931     16935     16936     16937     16931     16935     16936     16938
     16931     16935     16936     16939     16932     16931     16935     16936
     16933     16931     16935     16936     16934     16931     16935     16936
     16935     16936     16939     16940     16935     16936     16939     16941
     16935     16936     16939     16947     16936     16939     16941     16942
     16936     16939     16947     16948     16936     16939     16947     16949
     16936     16939     16947     16950     16937     16936     16939     16940
     16937     16936     16939     16941     16937     16936     16939     16947
     16938     16936     16939     16940     16938     16936     16939     16941
     16938     16936     16939     16947     16939     16941     16942     16943
     16939     16941     16942     16944     16939     16947     16950     16951
     16940     16939     16941     16942     16940     16939     16947     16948
     16940     16939     16947     16949     16940     16939     16947     16950
     16941     16939     16947     16948     16941     16939     16947     16949
     16941     16939     16947     16950     16941     16942     16944     16945
     16941     16942     16944     16946     16941     16942     16944     16956
     16942     16941     16939     16947     16942     16944     16956     16957
     16942     16944     16956     16958     16942     16944     16956     16959
     16943     16942     16944     16945     16943     16942     16944     16946
     16943     16942     16944     16956     16944     16956     16959     16960
     16944     16956     16959     16961     16944     16956     16959     16962
     16945     16944     16956     16957     16945     16944     16956     16958
     16945     16944     16956     16959     16946     16944     16956     16957
     16946     16944     16956     16958     16946     16944     16956     16959
     16947     16950     16951     16952     16947     16950     16951     16953
     16948     16947     16950     16951     16949     16947     16950     16951
     16950     16951     16953     16954     16950     16951     16953     16955
     16950     16951     16953     17003     16951     16953     17003     17004
     16951     16953     17003     17005     16951     16953     17003     17006
     16952     16951     16953     16954     16952     16951     16953     16955
     16952     16951     16953     17003     16953     17003     17006     17007
     16953     17003     17006     17008     16953     17003     17006     17009
     16954     16953     17003     17004     16954     16953     17003     17005
     16954     16953     17003     17006     16955     16953     17003     17004
     16955     16953     17003     17005     16955     16953     17003     17006
     16956     16959     16962     16963     16956     16959     16962     16964
     16957     16956     16959     16960     16957     16956     16959     16961
     16957     16956     16959     16962     16958     16956     16959     16960
     16958     16956     16959     16961     16958     16956     16959     16962
     16959     16962     16964     16965     16959     16962     16964     16966
     16960     16959     16962     16963     16960     16959     16962     16964
     16961     16959     16962     16963     16961     16959     16962     16964
     16962     16964     16966     16967     16962     16964     16966     16968
     16962     16964     16966     16969     16963     16962     16964     16965
     16963     16962     16964     16966     16964     16966     16969     16970
     16964     16966     16969     16971     16965     16964     16966     16967
     16965     16964     16966     16968     16965     16964     16966     16969
     16966     16969     16971     16972     16966     16969     16971     16973
     16967     16966     16969     16970     16967     16966     16969     16971
     16968     16966     16969     16970     16968     16966     16969     16971
     16969     16971     16973     16974     16969     16971     16973     16975
     16969     16971     16973     16976     16970     16969     16971     16972
     16970     16969     16971     16973     16971     16973     16976     16977
     16971     16973     16976     16978     16972     16971     16973     16974
     16972     16971     16973     16975     16972     16971     16973     16976
     16973     16976     16978     16979     16973     16976     16978     16980
     16974     16973     16976     16977     16974     16973     16976     16978
     16975     16973     16976     16977     16975     16973     16976     16978
     16976     16978     16980     16981     16976     16978     16980     16982
     16976     16978     16980     16983     16977     16976     16978     16979
     16977     16976     16978     16980     16978     16980     16983     16984
     16978     16980     16983     16985     16979     16978     16980     16981
     16979     16978     16980     16982     16979     16978     16980     16983
     16980     16983     16985     16986     16980     16983     16985     16987
     16981     16980     16983     16984     16981     16980     16983     16985
     16982     16980     16983     16984     16982     16980     16983     16985
     16983     16985     16987     16988     16983     16985     16987     16989
     16983     16985     16987     16990     16984     16983     16985     16986
     16984     16983     16985     16987     16985     16987     16990     16991
     16985     16987     16990     16992     16985     16987     16990     16993
     16986     16985     16987     16988     16986     16985     16987     16989
     16986     16985     16987     16990     16987     16990     16993     16994
     16987     16990     16993     16995     16987     16990     16993     16996
     16988     16987     16990     16991     16988     16987     16990     16992
     16988     16987     16990     16993     16989     16987     16990     16991
     16989     16987     16990     16992     16989     16987     16990     16993
     16990     16993     16996     16997     16990     16993     16996     16998
     16990     16993     16996     16999     16991     16990     16993     16994
     16991     16990     16993     16995     16991     16990     16993     16996
     16992     16990     16993     16994     16992     16990     16993     16995
     16992     16990     16993     16996     16993     16996     16999     17000
     16993     16996     16999     17001     16993     16996     16999     17002
     16994     16993     16996     16997     16994     16993     16996     16998
     16994     16993     16996     16999     16995     16993     16996     16997
     16995     16993     16996     16998     16995     16993     16996     16999
     16997     16996     16999     17000     16997     16996     16999     17001
     16997     16996     16999     17002     16998     16996     16999     17000
     16998     16996     16999     17001     16998     16996     16999     17002
     17003     17006     17009     17010     17003     17006     17009     17011
     17003     17006     17009     17012     17004     17003     17006     17007
     17004     17003     17006     17008     17004     17003     17006     17009
     17005     17003     17006     17007     17005     17003     17006     17008
     17005     17003     17006     17009     17006     17009     17012     17013
     17006     17009     17012     17014     17006     17009     17012     17015
     17007     17006     17009     17010     17007     17006     17009     17011
     17007     17006     17009     17012     17008     17006     17009     17010
     17008     17006     17009     17011     17008     17006     17009     17012
     17009     17012     17015     17016     17009     17012     17015     17017
     17009     17012     17015     17018     17010     17009     17012     17013
     17010     17009     17012     17014     17010     17009     17012     17015
     17011     17009     17012     17013     17011     17009     17012     17014
     17011     17009     17012     17015     17012     17015     17018     17019
     17012     17015     17018     17020     17012     17015     17018     17021
     17013     17012     17015     17016     17013     17012     17015     17017
     17013     17012     17015     17018     17014     17012     17015     17016
     17014     17012     17015     17017     17014     17012     17015     17018
     17015     17018     17021     17022     17015     17018     17021     17023
     17015     17018     17021     17024     17016     17015     17018     17019
     17016     17015     17018     17020     17016     17015     17018     17021
     17017     17015     17018     17019     17017     17015     17018     17020
     17017     17015     17018     17021     17018     17021     17024     17025
     17018     17021     17024     17026     17018     17021     17024     17027
     17019     17018     17021     17022     17019     17018     17021     17023
     17019     17018     17021     17024     17020     17018     17021     17022
     17020     17018     17021     17023     17020     17018     17021     17024
     17021     17024     17027     17028     17021     17024     17027     17029
     17021     17024     17027     17030     17022     17021     17024     17025
     17022     17021     17024     17026     17022     17021     17024     17027
     17023     17021     17024     17025     17023     17021     17024     17026
     17023     17021     17024     17027     17024     17027     17030     17031
     17024     17027     17030     17032     17024     17027     17030     17033
     17025     17024     17027     17028     17025     17024     17027     17029
     17025     17024     17027     17030     17026     17024     17027     17028
     17026     17024     17027     17029     17026     17024     17027     17030
     17027     17030     17033     17034     17027     17030     17033     17035
     17027     17030     17033     17036     17028     17027     17030     17031
     17028     17027     17030     17032     17028     17027     17030     17033
     17029     17027     17030     17031     17029     17027     17030     17032
     17029     17027     17030     17033     17030     17033     17036     17037
     17030     17033     17036     17038     17030     17033     17036     17039
     17031     17030     17033     17034     17031     17030     17033     17035
     17031     17030     17033     17036     17032     17030     17033     17034
     17032     17030     17033     17035     17032     17030     17033     17036
     17033     17036     17039     17040     17033     17036     17039     17041
     17033     17036     17039     17042     17034     17033     17036     17037
     17034     17033     17036     17038     17034     17033     17036     17039
     17035     17033     17036     17037     17035     17033     17036     17038
     17035     17033     17036     17039     17036     17039     17042     17043
     17036     17039     17042     17044     17036     17039     17042     17045
     17037     17036     17039     17040     17037     17036     17039     17041
     17037     17036     17039     17042     17038     17036     17039     17040
     17038     17036     17039     17041     17038     17036     17039     17042
     17039     17042     17045     17046     17039     17042     17045     17047
     17039     17042     17045     17048     17040     17039     17042     17043
     17040     17039     17042     17044     17040     17039     17042     17045
     17041     17039     17042     17043     17041     17039     17042     17044
     17041     17039     17042     17045     17042     17045     17048     17049
     17042     17045     17048     17050     17042     17045     17048     17051
     17043     17042     17045     17046     17043     17042     17045     17047
     17043     17042     17045     17048     17044     17042     17045     17046
     17044     17042     17045     17047     17044     17042     17045     17048
     17046     17045     17048     17049     17046     17045     17048     17050
     17046     17045     17048     17051     17047     17045     17048     17049
     17047     17045     17048     17050     17047     17045     17048     17051
      5173      5174      5189      5190      5173      5174      5189      5191
      5173      5174      5189      5195      5174      5173      5177      5178
      5174      5173      5177      5179      5174      5173      5177      5180
      5174      5173      5181      5182      5174      5173      5181      5183
      5174      5173      5181      5184      5174      5173      5185      5186
      5174      5173      5185      5187      5174      5173      5185      5188
      5174      5189      5195      5192      5175      5174      5173      5177
      5175      5174      5173      5181      5175      5174      5173      5185
      5175      5174      5189      5190      5175      5174      5189      5191
      5175      5174      5189      5195      5176      5174      5173      5177
      5176      5174      5173      5181      5176      5174      5173      5185
      5176      5174      5189      5190      5176      5174      5189      5191
      5176      5174      5189      5195      5177      5173      5174      5189
      5177      5173      5181      5182      5177      5173      5181      5183
      5177      5173      5181      5184      5177      5173      5185      5186
      5177      5173      5185      5187      5177      5173      5185      5188
      5178      5177      5173      5181      5178      5177      5173      5185
      5179      5177      5173      5181      5179      5177      5173      5185
      5180      5177      5173      5181      5180      5177      5173      5185
      5181      5173      5174      5189      5181      5173      5185      5186
      5181      5173      5185      5187      5181      5173      5185      5188
      5182      5181      5173      5185      5183      5181      5173      5185
      5184      5181      5173      5185      5185      5173      5174      5189
      5189      5195      5192      5193      5189      5195      5192      5194
      5189      5195      5192      5196      5190      5189      5195      5192
      5191      5189      5195      5192      5192      5196      5197      5198
      5192      5196      5197      5199      5192      5196      5197      5200
      5193      5192      5196      5197      5194      5192      5196      5197
      5195      5192      5196      5197      5196      5197      5200      5201
      5196      5197      5200      5202      5196      5197      5200      5208
      5197      5200      5202      5203      5197      5200      5208      5209
      5197      5200      5208      5210      5197      5200      5208      5211
      5198      5197      5200      5201      5198      5197      5200      5202
      5198      5197      5200      5208      5199      5197      5200      5201
      5199      5197      5200      5202      5199      5197      5200      5208
      5200      5202      5203      5204      5200      5202      5203      5205
      5200      5208      5211      5212      5201      5200      5202      5203
      5201      5200      5208      5209      5201      5200      5208      5210
      5201      5200      5208      5211      5202      5200      5208      5209
      5202      5200      5208      5210      5202      5200      5208      5211
      5202      5203      5205      5206      5202      5203      5205      5207
      5202      5203      5205      5217      5203      5202      5200      5208
      5203      5205      5217      5218      5203      5205      5217      5219
      5203      5205      5217      5220      5204      5203      5205      5206
      5204      5203      5205      5207      5204      5203      5205      5217
      5205      5217      5220      5221      5205      5217      5220      5222
      5205      5217      5220      5223      5206      5205      5217      5218
      5206      5205      5217      5219      5206      5205      5217      5220
      5207      5205      5217      5218      5207      5205      5217      5219
      5207      5205      5217      5220      5208      5211      5212      5213
      5208      5211      5212      5214      5209      5208      5211      5212
      5210      5208      5211      5212      5211      5212      5214      5215
      5211      5212      5214      5216      5211      5212      5214      5264
      5212      5214      5264      5265      5212      5214      5264      5266
      5212      5214      5264      5267      5213      5212      5214      5215
      5213      5212      5214      5216      5213      5212      5214      5264
      5214      5264      5267      5268      5214      5264      5267      5269
      5214      5264      5267      5270      5215      5214      5264      5265
      5215      5214      5264      5266      5215      5214      5264      5267
      5216      5214      5264      5265      5216      5214      5264      5266
      5216      5214      5264      5267      5217      5220      5223      5224
      5217      5220      5223      5225      5217      5220      5223      5226
      5218      5217      5220      5221      5218      5217      5220      5222
      5218      5217      5220      5223      5219      5217      5220      5221
      5219      5217      5220      5222      5219      5217      5220      5223
      5220      5223      5226      5227      5220      5223      5226      5228
      5220      5223      5226      5229      5221      5220      5223      5224
      5221      5220      5223      5225      5221      5220      5223      5226
      5222      5220      5223      5224      5222      5220      5223      5225
      5222      5220      5223      5226      5223      5226      5229      5230
      5223      5226      5229      5231      5223      5226      5229      5232
      5224      5223      5226      5227      5224      5223      5226      5228
      5224      5223      5226      5229      5225      5223      5226      5227
      5225      5223      5226      5228      5225      5223      5226      5229
      5226      5229      5232      5233      5226      5229      5232      5234
      5226      5229      5232      5235      5227      5226      5229      5230
      5227      5226      5229      5231      5227      5226      5229      5232
      5228      5226      5229      5230      5228      5226      5229      5231
      5228      5226      5229      5232      5229      5232      5235      5236
      5229      5232      5235      5237      5230      5229      5232      5233
      5230      5229      5232      5234      5230      5229      5232      5235
      5231      5229      5232      5233      5231      5229      5232      5234
      5231      5229      5232      5235      5232      5235      5237      5238
      5232      5235      5237      5239      5233      5232      5235      5236
      5233      5232      5235      5237      5234      5232      5235      5236
      5234      5232      5235      5237      5235      5237      5239      5240
      5235      5237      5239      5241      5235      5237      5239      5242
      5236      5235      5237      5238      5236      5235      5237      5239
      5237      5239      5242      5243      5237      5239      5242      5244
      5237      5239      5242      5245      5238      5237      5239      5240
      5238      5237      5239      5241      5238      5237      5239      5242
      5239      5242      5245      5246      5239      5242      5245      5247
      5239      5242      5245      5248      5240      5239      5242      5243
      5240      5239      5242      5244      5240      5239      5242      5245
      5241      5239      5242      5243      5241      5239      5242      5244
      5241      5239      5242      5245      5242      5245      5248      5249
      5242      5245      5248      5250      5242      5245      5248      5251
      5243      5242      5245      5246      5243      5242      5245      5247
      5243      5242      5245      5248      5244      5242      5245      5246
      5244      5242      5245      5247      5244      5242      5245      5248
      5245      5248      5251      5252      5245      5248      5251      5253
      5245      5248      5251      5254      5246      5245      5248      5249
      5246      5245      5248      5250      5246      5245      5248      5251
      5247      5245      5248      5249      5247      5245      5248      5250
      5247      5245      5248      5251      5248      5251      5254      5255
      5248      5251      5254      5256      5248      5251      5254      5257
      5249      5248      5251      5252      5249      5248      5251      5253
      5249      5248      5251      5254      5250      5248      5251      5252
      5250      5248      5251      5253      5250      5248      5251      5254
      5251      5254      5257      5258      5251      5254      5257      5259
      5251      5254      5257      5260      5252      5251      5254      5255
      5252      5251      5254      5256      5252      5251      5254      5257
      5253      5251      5254      5255      5253      5251      5254      5256
      5253      5251      5254      5257      5254      5257      5260      5261
      5254      5257      5260      5262      5254      5257      5260      5263
      5255      5254      5257      5258      5255      5254      5257      5259
      5255      5254      5257      5260      5256      5254      5257      5258
      5256      5254      5257      5259      5256      5254      5257      5260
      5258      5257      5260      5261      5258      5257      5260      5262
      5258      5257      5260      5263      5259      5257      5260      5261
      5259      5257      5260      5262      5259      5257      5260      5263
      5264      5267      5270      5271      5264      5267      5270      5272
      5264      5267      5270      5273      5265      5264      5267      5268
      5265      5264      5267      5269      5265      5264      5267      5270
      5266      5264      5267      5268      5266      5264      5267      5269
      5266      5264      5267      5270      5267      5270      5273      5274
      5267      5270      5273      5275      5267      5270      5273      5276
      5268      5267      5270      5271      5268      5267      5270      5272
      5268      5267      5270      5273      5269      5267      5270      5271
      5269      5267      5270      5272      5269      5267      5270      5273
      5270      5273      5276      5277      5270      5273      5276      5278
      5270      5273      5276      5279      5271      5270      5273      5274
      5271      5270      5273      5275      5271      5270      5273      5276
      5272      5270      5273      5274      5272      5270      5273      5275
      5272      5270      5273      5276      5273      5276      5279      5280
      5273      5276      5279      5281      5273      5276      5279      5282
      5274      5273      5276      5277      5274      5273      5276      5278
      5274      5273      5276      5279      5275      5273      5276      5277
      5275      5273      5276      5278      5275      5273      5276      5279
      5276      5279      5282      5283      5276      5279      5282      5284
      5276      5279      5282      5285      5277      5276      5279      5280
      5277      5276      5279      5281      5277      5276      5279      5282
      5278      5276      5279      5280      5278      5276      5279      5281
      5278      5276      5279      5282      5279      5282      5285      5286
      5279      5282      5285      5287      5279      5282      5285      5288
      5280      5279      5282      5283      5280      5279      5282      5284
      5280      5279      5282      5285      5281      5279      5282      5283
      5281      5279      5282      5284      5281      5279      5282      5285
      5282      5285      5288      5289      5282      5285      5288      5290
      5282      5285      5288      5291      5283      5282      5285      5286
      5283      5282      5285      5287      5283      5282      5285      5288
      5284      5282      5285      5286      5284      5282      5285      5287
      5284      5282      5285      5288      5285      5288      5291      5292
      5285      5288      5291      5293      5285      5288      5291      5294
      5286      5285      5288      5289      5286      5285      5288      5290
      5286      5285      5288      5291      5287      5285      5288      5289
      5287      5285      5288      5290      5287      5285      5288      5291
      5288      5291      5294      5295      5288      5291      5294      5296
      5288      5291      5294      5297      5289      5288      5291      5292
      5289      5288      5291      5293      5289      5288      5291      5294
      5290      5288      5291      5292      5290      5288      5291      5293
      5290      5288      5291      5294      5291      5294      5297      5298
      5291      5294      5297      5299      5291      5294      5297      5300
      5292      5291      5294      5295      5292      5291      5294      5296
      5292      5291      5294      5297      5293      5291      5294      5295
      5293      5291      5294      5296      5293      5291      5294      5297
      5294      5297      5300      5301      5294      5297      5300      5302
      5294      5297      5300      5303      5295      5294      5297      5298
      5295      5294      5297      5299      5295      5294      5297      5300
      5296      5294      5297      5298      5296      5294      5297      5299
      5296      5294      5297      5300      5297      5300      5303      5304
      5297      5300      5303      5305      5297      5300      5303      5306
      5298      5297      5300      5301      5298      5297      5300      5302
      5298      5297      5300      5303      5299      5297      5300      5301
      5299      5297      5300      5302      5299      5297      5300      5303
      5301      5300      5303      5304      5301      5300      5303      5305
      5301      5300      5303      5306      5302      5300      5303      5304
      5302      5300      5303      5305      5302      5300      5303      5306
      8031      8035      8038      8039      8031      8035      8038      8069
      8031      8077      8074      8069      8031      8077      8074      8075
      8031      8077      8074      8076      8032      8031      8033      8034
      8032      8031      8035      8036      8032      8031      8035      8037
      8032      8031      8035      8038      8032      8031      8077      8074
      8032      8031      8077      8078      8032      8031      8077      8079
      8033      8031      8035      8036      8033      8031      8035      8037
      8033      8031      8035      8038      8033      8031      8077      8074
      8033      8031      8077      8078      8033      8031      8077      8079
      8034      8033      8031      8035      8034      8033      8031      8077
      8035      8031      8077      8074      8035      8031      8077      8078
      8035      8031      8077      8079      8035      8038      8039      8040
      8035      8038      8039      8041      8035      8038      8069      8067
      8035      8038      8069      8070      8035      8038      8069      8074
      8036      8035      8031      8077      8036      8035      8038      8039
      8036      8035      8038      8069      8037      8035      8031      8077
      8037      8035      8038      8039      8037      8035      8038      8069
      8038      8035      8031      8077      8038      8039      8041      8042
      8038      8039      8041      8043      8038      8039      8041      8044
      8038      8069      8067      8044      8038      8069      8067      8064
      8038      8069      8067      8068      8038      8069      8070      8071
      8038      8069      8070      8072      8038      8069      8070      8073
      8038      8069      8074      8075      8038      8069      8074      8076
      8038      8069      8074      8077      8039      8038      8069      8067
      8039      8038      8069      8070      8039      8038      8069      8074
      8039      8041      8044      8045      8039      8041      8044      8046
      8039      8041      8044      8067      8040      8039      8038      8069
      8040      8039      8041      8042      8040      8039      8041      8043
      8040      8039      8041      8044      8041      8039      8038      8069
      8041      8044      8046      8047      8041      8044      8046      8048
      8041      8044      8046      8056      8041      8044      8067      8064
      8041      8044      8067      8068      8041      8044      8067      8069
      8042      8041      8044      8045      8042      8041      8044      8046
      8042      8041      8044      8067      8043      8041      8044      8045
      8043      8041      8044      8046      8043      8041      8044      8067
      8044      8046      8048      8049      8044      8046      8048      8050
      8044      8046      8048      8051      8044      8046      8056      8054
      8044      8046      8056      8057      8044      8046      8056      8061
      8044      8067      8064      8061      8044      8067      8064      8065
      8044      8067      8064      8066      8044      8067      8069      8070
      8044      8067      8069      8074      8045      8044      8046      8047
      8045      8044      8046      8048      8045      8044      8046      8056
      8045      8044      8067      8064      8045      8044      8067      8068
      8045      8044      8067      8069      8046      8044      8067      8064
      8046      8044      8067      8068      8046      8044      8067      8069
      8046      8048      8051      8052      8046      8048      8051      8053
      8046      8048      8051      8054      8046      8056      8054      8051
      8046      8056      8054      8055      8046      8056      8054      8080
      8046      8056      8057      8058      8046      8056      8057      8059
      8046      8056      8057      8060      8046      8056      8061      8062
      8046      8056      8061      8063      8046      8056      8061      8064
      8047      8046      8044      8067      8047      8046      8048      8049
      8047      8046      8048      8050      8047      8046      8048      8051
      8047      8046      8056      8054      8047      8046      8056      8057
      8047      8046      8056      8061      8048      8046      8044      8067
      8048      8046      8056      8054      8048      8046      8056      8057
      8048      8046      8056      8061      8048      8051      8054      8055
      8048      8051      8054      8056      8048      8051      8054      8080
      8049      8048      8046      8056      8049      8048      8051      8052
      8049      8048      8051      8053      8049      8048      8051      8054
      8050      8048      8046      8056      8050      8048      8051      8052
      8050      8048      8051      8053      8050      8048      8051      8054
      8051      8048      8046      8056      8051      8054      8056      8057
      8051      8054      8056      8061      8051      8054      8080      8081
      8051      8054      8080      8082      8051      8054      8080      8086
      8052      8051      8054      8055      8052      8051      8054      8056
      8052      8051      8054      8080      8053      8051      8054      8055
      8053      8051      8054      8056      8053      8051      8054      8080
      8054      8056      8057      8058      8054      8056      8057      8059
      8054      8056      8057      8060      8054      8056      8061      8062
      8054      8056      8061      8063      8054      8056      8061      8064
      8054      8080      8082      8083      8054      8080      8082      8084
      8054      8080      8082      8085      8054      8080      8086      8087
      8054      8080      8086      8088      8054      8080      8086      8089
      8055      8054      8056      8057      8055      8054      8056      8061
      8055      8054      8080      8081      8055      8054      8080      8082
      8055      8054      8080      8086      8056      8046      8044      8067
      8056      8054      8080      8081      8056      8054      8080      8082
      8056      8054      8080      8086      8056      8061      8064      8065
      8056      8061      8064      8066      8056      8061      8064      8067
      8057      8056      8054      8080      8057      8056      8061      8062
      8057      8056      8061      8063      8057      8056      8061      8064
      8058      8057      8056      8061      8059      8057      8056      8061
      8060      8057      8056      8061      8061      8056      8054      8080
      8061      8064      8067      8068      8061      8064      8067      8069
      8062      8061      8064      8065      8062      8061      8064      8066
      8062      8061      8064      8067      8063      8061      8064      8065
      8063      8061      8064      8066      8063      8061      8064      8067
      8064      8067      8069      8070      8064      8067      8069      8074
      8065      8064      8067      8068      8065      8064      8067      8069
      8066      8064      8067      8068      8066      8064      8067      8069
      8067      8069      8070      8071      8067      8069      8070      8072
      8067      8069      8070      8073      8067      8069      8074      8075
      8067      8069      8074      8076      8067      8069      8074      8077
      8068      8067      8069      8070      8068      8067      8069      8074
      8069      8074      8077      8078      8069      8074      8077      8079
      8070      8069      8074      8075      8070      8069      8074      8076
      8070      8069      8074      8077      8071      8070      8069      8074
      8072      8070      8069      8074      8073      8070      8069      8074
      8075      8074      8077      8078      8075      8074      8077      8079
      8076      8074      8077      8078      8076      8074      8077      8079
      8080      8086      8089      8090      8080      8086      8089      8091
      8080      8086      8089      8092      8081      8080      8082      8083
      8081      8080      8082      8084      8081      8080      8082      8085
      8081      8080      8086      8087      8081      8080      8086      8088
      8081      8080      8086      8089      8082      8080      8086      8087
      8082      8080      8086      8088      8082      8080      8086      8089
      8083      8082      8080      8086      8084      8082      8080      8086
      8085      8082      8080      8086      8086      8089      8092      8093
      8086      8089      8092      8094      8086      8089      8092      8095
      8087      8086      8089      8090      8087      8086      8089      8091
      8087      8086      8089      8092      8088      8086      8089      8090
      8088      8086      8089      8091      8088      8086      8089      8092
      8089      8092      8095      8096      8089      8092      8095      8097
      8089      8092      8095      8101      8090      8089      8092      8093
      8090      8089      8092      8094      8090      8089      8092      8095
      8091      8089      8092      8093      8091      8089      8092      8094
      8091      8089      8092      8095      8092      8095      8097      8098
      8092      8095      8097      8099      8092      8095      8097      8100
      8092      8095      8101      8102      8092      8095      8101      8103
      8092      8095      8101      8104      8093      8092      8095      8096
      8093      8092      8095      8097      8093      8092      8095      8101
      8094      8092      8095      8096      8094      8092      8095      8097
      8094      8092      8095      8101      8096      8095      8097      8098
      8096      8095      8097      8099      8096      8095      8097      8100
      8096      8095      8101      8102      8096      8095      8101      8103
      8096      8095      8101      8104      8097      8095      8101      8102
      8097      8095      8101      8103      8097      8095      8101      8104
      8098      8097      8095      8101      8099      8097      8095      8101
      8100      8097      8095      8101      8105      8109      8112      8113
      8105      8109      8112      8143      8105      8151      8148      8143
      8105      8151      8148      8149      8105      8151      8148      8150
      8106      8105      8107      8108      8106      8105      8109      8110
      8106      8105      8109      8111      8106      8105      8109      8112
      8106      8105      8151      8148      8106      8105      8151      8152
      8106      8105      8151      8153      8107      8105      8109      8110
      8107      8105      8109      8111      8107      8105      8109      8112
      8107      8105      8151      8148      8107      8105      8151      8152
      8107      8105      8151      8153      8108      8107      8105      8109
      8108      8107      8105      8151      8109      8105      8151      8148
      8109      8105      8151      8152      8109      8105      8151      8153
      8109      8112      8113      8114      8109      8112      8113      8115
      8109      8112      8143      8141      8109      8112      8143      8144
      8109      8112      8143      8148      8110      8109      8105      8151
      8110      8109      8112      8113      8110      8109      8112      8143
      8111      8109      8105      8151      8111      8109      8112      8113
      8111      8109      8112      8143      8112      8109      8105      8151
      8112      8113      8115      8116      8112      8113      8115      8117
      8112      8113      8115      8118      8112      8143      8141      8118
      8112      8143      8141      8138      8112      8143      8141      8142
      8112      8143      8144      8145      8112      8143      8144      8146
      8112      8143      8144      8147      8112      8143      8148      8149
      8112      8143      8148      8150      8112      8143      8148      8151
      8113      8112      8143      8141      8113      8112      8143      8144
      8113      8112      8143      8148      8113      8115      8118      8119
      8113      8115      8118      8120      8113      8115      8118      8141
      8114      8113      8112      8143      8114      8113      8115      8116
      8114      8113      8115      8117      8114      8113      8115      8118
      8115      8113      8112      8143      8115      8118      8120      8121
      8115      8118      8120      8122      8115      8118      8120      8130
      8115      8118      8141      8138      8115      8118      8141      8142
      8115      8118      8141      8143      8116      8115      8118      8119
      8116      8115      8118      8120      8116      8115      8118      8141
      8117      8115      8118      8119      8117      8115      8118      8120
      8117      8115      8118      8141      8118      8120      8122      8123
      8118      8120      8122      8124      8118      8120      8122      8125
      8118      8120      8130      8128      8118      8120      8130      8131
      8118      8120      8130      8135      8118      8141      8138      8135
      8118      8141      8138      8139      8118      8141      8138      8140
      8118      8141      8143      8144      8118      8141      8143      8148
      8119      8118      8120      8121      8119      8118      8120      8122
      8119      8118      8120      8130      8119      8118      8141      8138
      8119      8118      8141      8142      8119      8118      8141      8143
      8120      8118      8141      8138      8120      8118      8141      8142
      8120      8118      8141      8143      8120      8122      8125      8126
      8120      8122      8125      8127      8120      8122      8125      8128
      8120      8130      8128      8125      8120      8130      8128      8129
      8120      8130      8128      8154      8120      8130      8131      8132
      8120      8130      8131      8133      8120      8130      8131      8134
      8120      8130      8135      8136      8120      8130      8135      8137
      8120      8130      8135      8138      8121      8120      8118      8141
      8121      8120      8122      8123      8121      8120      8122      8124
      8121      8120      8122      8125      8121      8120      8130      8128
      8121      8120      8130      8131      8121      8120      8130      8135
      8122      8120      8118      8141      8122      8120      8130      8128
      8122      8120      8130      8131      8122      8120      8130      8135
      8122      8125      8128      8129      8122      8125      8128      8130
      8122      8125      8128      8154      8123      8122      8120      8130
      8123      8122      8125      8126      8123      8122      8125      8127
      8123      8122      8125      8128      8124      8122      8120      8130
      8124      8122      8125      8126      8124      8122      8125      8127
      8124      8122      8125      8128      8125      8122      8120      8130
      8125      8128      8130      8131      8125      8128      8130      8135
      8125      8128      8154      8155      8125      8128      8154      8156
      8125      8128      8154      8160      8126      8125      8128      8129
      8126      8125      8128      8130      8126      8125      8128      8154
      8127      8125      8128      8129      8127      8125      8128      8130
      8127      8125      8128      8154      8128      8130      8131      8132
      8128      8130      8131      8133      8128      8130      8131      8134
      8128      8130      8135      8136      8128      8130      8135      8137
      8128      8130      8135      8138      8128      8154      8156      8157
      8128      8154      8156      8158      8128      8154      8156      8159
      8128      8154      8160      8161      8128      8154      8160      8162
      8128      8154      8160      8163      8129      8128      8130      8131
      8129      8128      8130      8135      8129      8128      8154      8155
      8129      8128      8154      8156      8129      8128      8154      8160
      8130      8120      8118      8141      8130      8128      8154      8155
      8130      8128      8154      8156      8130      8128      8154      8160
      8130      8135      8138      8139      8130      8135      8138      8140
      8130      8135      8138      8141      8131      8130      8128      8154
      8131      8130      8135      8136      8131      8130      8135      8137
      8131      8130      8135      8138      8132      8131      8130      8135
      8133      8131      8130      8135      8134      8131      8130      8135
      8135      8130      8128      8154      8135      8138      8141      8142
      8135      8138      8141      8143      8136      8135      8138      8139
      8136      8135      8138      8140      8136      8135      8138      8141
      8137      8135      8138      8139      8137      8135      8138      8140
      8137      8135      8138      8141      8138      8141      8143      8144
      8138      8141      8143      8148      8139      8138      8141      8142
      8139      8138      8141      8143      8140      8138      8141      8142
      8140      8138      8141      8143      8141      8143      8144      8145
      8141      8143      8144      8146      8141      8143      8144      8147
      8141      8143      8148      8149      8141      8143      8148      8150
      8141      8143      8148      8151      8142      8141      8143      8144
      8142      8141      8143      8148      8143      8148      8151      8152
      8143      8148      8151      8153      8144      8143      8148      8149
      8144      8143      8148      8150      8144      8143      8148      8151
      8145      8144      8143      8148      8146      8144      8143      8148
      8147      8144      8143      8148      8149      8148      8151      8152
      8149      8148      8151      8153      8150      8148      8151      8152
      8150      8148      8151      8153      8154      8160      8163      8164
      8154      8160      8163      8165      8154      8160      8163      8166
      8155      8154      8156      8157      8155      8154      8156      8158
      8155      8154      8156      8159      8155      8154      8160      8161
      8155      8154      8160      8162      8155      8154      8160      8163
      8156      8154      8160      8161      8156      8154      8160      8162
      8156      8154      8160      8163      8157      8156      8154      8160
      8158      8156      8154      8160      8159      8156      8154      8160
      8160      8163      8166      8167      8160      8163      8166      8168
      8160      8163      8166      8169      8161      8160      8163      8164
      8161      8160      8163      8165      8161      8160      8163      8166
      8162      8160      8163      8164      8162      8160      8163      8165
      8162      8160      8163      8166      8163      8166      8169      8170
      8163      8166      8169      8171      8163      8166      8169      8175
      8164      8163      8166      8167      8164      8163      8166      8168
      8164      8163      8166      8169      8165      8163      8166      8167
      8165      8163      8166      8168      8165      8163      8166      8169
      8166      8169      8171      8172      8166      8169      8171      8173
      8166      8169      8171      8174      8166      8169      8175      8176
      8166      8169      8175      8177      8166      8169      8175      8178
      8167      8166      8169      8170      8167      8166      8169      8171
      8167      8166      8169      8175      8168      8166      8169      8170
      8168      8166      8169      8171      8168      8166      8169      8175
      8170      8169      8171      8172      8170      8169      8171      8173
      8170      8169      8171      8174      8170      8169      8175      8176
      8170      8169      8175      8177      8170      8169      8175      8178
      8171      8169      8175      8176      8171      8169      8175      8177
      8171      8169      8175      8178      8172      8171      8169      8175
      8173      8171      8169      8175      8174      8171      8169      8175
      8179      8183      8186      8187      8179      8183      8186      8217
      8179      8225      8222      8217      8179      8225      8222      8223
      8179      8225      8222      8224      8180      8179      8181      8182
      8180      8179      8183      8184      8180      8179      8183      8185
      8180      8179      8183      8186      8180      8179      8225      8222
      8180      8179      8225      8226      8180      8179      8225      8227
      8181      8179      8183      8184      8181      8179      8183      8185
      8181      8179      8183      8186      8181      8179      8225      8222
      8181      8179      8225      8226      8181      8179      8225      8227
      8182      8181      8179      8183      8182      8181      8179      8225
      8183      8179      8225      8222      8183      8179      8225      8226
      8183      8179      8225      8227      8183      8186      8187      8188
      8183      8186      8187      8189      8183      8186      8217      8215
      8183      8186      8217      8218      8183      8186      8217      8222
      8184      8183      8179      8225      8184      8183      8186      8187
      8184      8183      8186      8217      8185      8183      8179      8225
      8185      8183      8186      8187      8185      8183      8186      8217
      8186      8183      8179      8225      8186      8187      8189      8190
      8186      8187      8189      8191      8186      8187      8189      8192
      8186      8217      8215      8192      8186      8217      8215      8212
      8186      8217      8215      8216      8186      8217      8218      8219
      8186      8217      8218      8220      8186      8217      8218      8221
      8186      8217      8222      8223      8186      8217      8222      8224
      8186      8217      8222      8225      8187      8186      8217      8215
      8187      8186      8217      8218      8187      8186      8217      8222
      8187      8189      8192      8193      8187      8189      8192      8194
      8187      8189      8192      8215      8188      8187      8186      8217
      8188      8187      8189      8190      8188      8187      8189      8191
      8188      8187      8189      8192      8189      8187      8186      8217
      8189      8192      8194      8195      8189      8192      8194      8196
      8189      8192      8194      8204      8189      8192      8215      8212
      8189      8192      8215      8216      8189      8192      8215      8217
      8190      8189      8192      8193      8190      8189      8192      8194
      8190      8189      8192      8215      8191      8189      8192      8193
      8191      8189      8192      8194      8191      8189      8192      8215
      8192      8194      8196      8197      8192      8194      8196      8198
      8192      8194      8196      8199      8192      8194      8204      8202
      8192      8194      8204      8205      8192      8194      8204      8209
      8192      8215      8212      8209      8192      8215      8212      8213
      8192      8215      8212      8214      8192      8215      8217      8218
      8192      8215      8217      8222      8193      8192      8194      8195
      8193      8192      8194      8196      8193      8192      8194      8204
      8193      8192      8215      8212      8193      8192      8215      8216
      8193      8192      8215      8217      8194      8192      8215      8212
      8194      8192      8215      8216      8194      8192      8215      8217
      8194      8196      8199      8200      8194      8196      8199      8201
      8194      8196      8199      8202      8194      8204      8202      8199
      8194      8204      8202      8203      8194      8204      8202      8228
      8194      8204      8205      8206      8194      8204      8205      8207
      8194      8204      8205      8208      8194      8204      8209      8210
      8194      8204      8209      8211      8194      8204      8209      8212
      8195      8194      8192      8215      8195      8194      8196      8197
      8195      8194      8196      8198      8195      8194      8196      8199
      8195      8194      8204      8202      8195      8194      8204      8205
      8195      8194      8204      8209      8196      8194      8192      8215
      8196      8194      8204      8202      8196      8194      8204      8205
      8196      8194      8204      8209      8196      8199      8202      8203
      8196      8199      8202      8204      8196      8199      8202      8228
      8197      8196      8194      8204      8197      8196      8199      8200
      8197      8196      8199      8201      8197      8196      8199      8202
      8198      8196      8194      8204      8198      8196      8199      8200
      8198      8196      8199      8201      8198      8196      8199      8202
      8199      8196      8194      8204      8199      8202      8204      8205
      8199      8202      8204      8209      8199      8202      8228      8229
      8199      8202      8228      8230      8199      8202      8228      8234
      8200      8199      8202      8203      8200      8199      8202      8204
      8200      8199      8202      8228      8201      8199      8202      8203
      8201      8199      8202      8204      8201      8199      8202      8228
      8202      8204      8205      8206      8202      8204      8205      8207
      8202      8204      8205      8208      8202      8204      8209      8210
      8202      8204      8209      8211      8202      8204      8209      8212
      8202      8228      8230      8231      8202      8228      8230      8232
      8202      8228      8230      8233      8202      8228      8234      8235
      8202      8228      8234      8236      8202      8228      8234      8237
      8203      8202      8204      8205      8203      8202      8204      8209
      8203      8202      8228      8229      8203      8202      8228      8230
      8203      8202      8228      8234      8204      8194      8192      8215
      8204      8202      8228      8229      8204      8202      8228      8230
      8204      8202      8228      8234      8204      8209      8212      8213
      8204      8209      8212      8214      8204      8209      8212      8215
      8205      8204      8202      8228      8205      8204      8209      8210
      8205      8204      8209      8211      8205      8204      8209      8212
      8206      8205      8204      8209      8207      8205      8204      8209
      8208      8205      8204      8209      8209      8204      8202      8228
      8209      8212      8215      8216      8209      8212      8215      8217
      8210      8209      8212      8213      8210      8209      8212      8214
      8210      8209      8212      8215      8211      8209      8212      8213
      8211      8209      8212      8214      8211      8209      8212      8215
      8212      8215      8217      8218      8212      8215      8217      8222
      8213      8212      8215      8216      8213      8212      8215      8217
      8214      8212      8215      8216      8214      8212      8215      8217
      8215      8217      8218      8219      8215      8217      8218      8220
      8215      8217      8218      8221      8215      8217      8222      8223
      8215      8217      8222      8224      8215      8217      8222      8225
      8216      8215      8217      8218      8216      8215      8217      8222
      8217      8222      8225      8226      8217      8222      8225      8227
      8218      8217      8222      8223      8218      8217      8222      8224
      8218      8217      8222      8225      8219      8218      8217      8222
      8220      8218      8217      8222      8221      8218      8217      8222
      8223      8222      8225      8226      8223      8222      8225      8227
      8224      8222      8225      8226      8224      8222      8225      8227
      8228      8234      8237      8238      8228      8234      8237      8239
      8228      8234      8237      8240      8229      8228      8230      8231
      8229      8228      8230      8232      8229      8228      8230      8233
      8229      8228      8234      8235      8229      8228      8234      8236
      8229      8228      8234      8237      8230      8228      8234      8235
      8230      8228      8234      8236      8230      8228      8234      8237
      8231      8230      8228      8234      8232      8230      8228      8234
      8233      8230      8228      8234      8234      8237      8240      8241
      8234      8237      8240      8242      8234      8237      8240      8243
      8235      8234      8237      8238      8235      8234      8237      8239
      8235      8234      8237      8240      8236      8234      8237      8238
      8236      8234      8237      8239      8236      8234      8237      8240
      8237      8240      8243      8244      8237      8240      8243      8245
      8237      8240      8243      8249      8238      8237      8240      8241
      8238      8237      8240      8242      8238      8237      8240      8243
      8239      8237      8240      8241      8239      8237      8240      8242
      8239      8237      8240      8243      8240      8243      8245      8246
      8240      8243      8245      8247      8240      8243      8245      8248
      8240      8243      8249      8250      8240      8243      8249      8251
      8240      8243      8249      8252      8241      8240      8243      8244
      8241      8240      8243      8245      8241      8240      8243      8249
      8242      8240      8243      8244      8242      8240      8243      8245
      8242      8240      8243      8249      8244      8243      8245      8246
      8244      8243      8245      8247      8244      8243      8245      8248
      8244      8243      8249      8250      8244      8243      8249      8251
      8244      8243      8249      8252      8245      8243      8249      8250
      8245      8243      8249      8251      8245      8243      8249      8252
      8246      8245      8243      8249      8247      8245      8243      8249
      8248      8245      8243      8249     18886     18890     18893     18894
     18886     18890     18893     18895     18886     18890     18893     18899
     18887     18886     18890     18891     18887     18886     18890     18892
     18887     18886     18890     18893     18888     18886     18890     18891
     18888     18886     18890     18892     18888     18886     18890     18893
     18889     18886     18890     18891     18889     18886     18890     18892
     18889     18886     18890     18893     18890     18893     18899     18896
     18891     18890     18893     18894     18891     18890     18893     18895
     18891     18890     18893     18899     18892     18890     18893     18894
     18892     18890     18893     18895     18892     18890     18893     18899
     18893     18899     18896     18897     18893     18899     18896     18898
     18893     18899     18896     18900     18894     18893     18899     18896
     18895     18893     18899     18896     18896     18900     18901     18902
     18896     18900     18901     18903     18896     18900     18901     18904
     18897     18896     18900     18901     18898     18896     18900     18901
     18899     18896     18900     18901     18900     18901     18904     18905
     18900     18901     18904     18906     18900     18901     18904     18912
     18901     18904     18906     18907     18901     18904     18912     18913
     18901     18904     18912     18914     18901     18904     18912     18915
     18902     18901     18904     18905     18902     18901     18904     18906
     18902     18901     18904     18912     18903     18901     18904     18905
     18903     18901     18904     18906     18903     18901     18904     18912
     18904     18906     18907     18908     18904     18906     18907     18909
     18904     18912     18915     18916     18905     18904     18906     18907
     18905     18904     18912     18913     18905     18904     18912     18914
     18905     18904     18912     18915     18906     18904     18912     18913
     18906     18904     18912     18914     18906     18904     18912     18915
     18906     18907     18909     18910     18906     18907     18909     18911
     18906     18907     18909     18921     18907     18906     18904     18912
     18907     18909     18921     18922     18907     18909     18921     18923
     18907     18909     18921     18924     18908     18907     18909     18910
     18908     18907     18909     18911     18908     18907     18909     18921
     18909     18921     18924     18925     18909     18921     18924     18926
     18909     18921     18924     18927     18910     18909     18921     18922
     18910     18909     18921     18923     18910     18909     18921     18924
     18911     18909     18921     18922     18911     18909     18921     18923
     18911     18909     18921     18924     18912     18915     18916     18917
     18912     18915     18916     18918     18913     18912     18915     18916
     18914     18912     18915     18916     18915     18916     18918     18919
     18915     18916     18918     18920     18915     18916     18918     18968
     18916     18918     18968     18969     18916     18918     18968     18970
     18916     18918     18968     18971     18917     18916     18918     18919
     18917     18916     18918     18920     18917     18916     18918     18968
     18918     18968     18971     18972     18918     18968     18971     18973
     18918     18968     18971     18974     18919     18918     18968     18969
     18919     18918     18968     18970     18919     18918     18968     18971
     18920     18918     18968     18969     18920     18918     18968     18970
     18920     18918     18968     18971     18921     18924     18927     18928
     18921     18924     18927     18929     18921     18924     18927     18930
     18922     18921     18924     18925     18922     18921     18924     18926
     18922     18921     18924     18927     18923     18921     18924     18925
     18923     18921     18924     18926     18923     18921     18924     18927
     18924     18927     18930     18931     18924     18927     18930     18932
     18924     18927     18930     18933     18925     18924     18927     18928
     18925     18924     18927     18929     18925     18924     18927     18930
     18926     18924     18927     18928     18926     18924     18927     18929
     18926     18924     18927     18930     18927     18930     18933     18934
     18927     18930     18933     18935     18927     18930     18933     18936
     18928     18927     18930     18931     18928     18927     18930     18932
     18928     18927     18930     18933     18929     18927     18930     18931
     18929     18927     18930     18932     18929     18927     18930     18933
     18930     18933     18936     18937     18930     18933     18936     18938
     18930     18933     18936     18939     18931     18930     18933     18934
     18931     18930     18933     18935     18931     18930     18933     18936
     18932     18930     18933     18934     18932     18930     18933     18935
     18932     18930     18933     18936     18933     18936     18939     18940
     18933     18936     18939     18941     18934     18933     18936     18937
     18934     18933     18936     18938     18934     18933     18936     18939
     18935     18933     18936     18937     18935     18933     18936     18938
     18935     18933     18936     18939     18936     18939     18941     18942
     18936     18939     18941     18943     18937     18936     18939     18940
     18937     18936     18939     18941     18938     18936     18939     18940
     18938     18936     18939     18941     18939     18941     18943     18944
     18939     18941     18943     18945     18939     18941     18943     18946
     18940     18939     18941     18942     18940     18939     18941     18943
     18941     18943     18946     18947     18941     18943     18946     18948
     18941     18943     18946     18949     18942     18941     18943     18944
     18942     18941     18943     18945     18942     18941     18943     18946
     18943     18946     18949     18950     18943     18946     18949     18951
     18943     18946     18949     18952     18944     18943     18946     18947
     18944     18943     18946     18948     18944     18943     18946     18949
     18945     18943     18946     18947     18945     18943     18946     18948
     18945     18943     18946     18949     18946     18949     18952     18953
     18946     18949     18952     18954     18946     18949     18952     18955
     18947     18946     18949     18950     18947     18946     18949     18951
     18947     18946     18949     18952     18948     18946     18949     18950
     18948     18946     18949     18951     18948     18946     18949     18952
     18949     18952     18955     18956     18949     18952     18955     18957
     18949     18952     18955     18958     18950     18949     18952     18953
     18950     18949     18952     18954     18950     18949     18952     18955
     18951     18949     18952     18953     18951     18949     18952     18954
     18951     18949     18952     18955     18952     18955     18958     18959
     18952     18955     18958     18960     18952     18955     18958     18961
     18953     18952     18955     18956     18953     18952     18955     18957
     18953     18952     18955     18958     18954     18952     18955     18956
     18954     18952     18955     18957     18954     18952     18955     18958
     18955     18958     18961     18962     18955     18958     18961     18963
     18955     18958     18961     18964     18956     18955     18958     18959
     18956     18955     18958     18960     18956     18955     18958     18961
     18957     18955     18958     18959     18957     18955     18958     18960
     18957     18955     18958     18961     18958     18961     18964     18965
     18958     18961     18964     18966     18958     18961     18964     18967
     18959     18958     18961     18962     18959     18958     18961     18963
     18959     18958     18961     18964     18960     18958     18961     18962
     18960     18958     18961     18963     18960     18958     18961     18964
     18962     18961     18964     18965     18962     18961     18964     18966
     18962     18961     18964     18967     18963     18961     18964     18965
     18963     18961     18964     18966     18963     18961     18964     18967
     18968     18971     18974     18975     18968     18971     18974     18976
     18968     18971     18974     18977     18969     18968     18971     18972
     18969     18968     18971     18973     18969     18968     18971     18974
     18970     18968     18971     18972     18970     18968     18971     18973
     18970     18968     18971     18974     18971     18974     18977     18978
     18971     18974     18977     18979     18971     18974     18977     18980
     18972     18971     18974     18975     18972     18971     18974     18976
     18972     18971     18974     18977     18973     18971     18974     18975
     18973     18971     18974     18976     18973     18971     18974     18977
     18974     18977     18980     18981     18974     18977     18980     18982
     18974     18977     18980     18983     18975     18974     18977     18978
     18975     18974     18977     18979     18975     18974     18977     18980
     18976     18974     18977     18978     18976     18974     18977     18979
     18976     18974     18977     18980     18977     18980     18983     18984
     18977     18980     18983     18985     18977     18980     18983     18986
     18978     18977     18980     18981     18978     18977     18980     18982
     18978     18977     18980     18983     18979     18977     18980     18981
     18979     18977     18980     18982     18979     18977     18980     18983
     18980     18983     18986     18987     18980     18983     18986     18988
     18980     18983     18986     18989     18981     18980     18983     18984
     18981     18980     18983     18985     18981     18980     18983     18986
     18982     18980     18983     18984     18982     18980     18983     18985
     18982     18980     18983     18986     18983     18986     18989     18990
     18983     18986     18989     18991     18983     18986     18989     18992
     18984     18983     18986     18987     18984     18983     18986     18988
     18984     18983     18986     18989     18985     18983     18986     18987
     18985     18983     18986     18988     18985     18983     18986     18989
     18986     18989     18992     18993     18986     18989     18992     18994
     18986     18989     18992     18995     18987     18986     18989     18990
     18987     18986     18989     18991     18987     18986     18989     18992
     18988     18986     18989     18990     18988     18986     18989     18991
     18988     18986     18989     18992     18989     18992     18995     18996
     18989     18992     18995     18997     18989     18992     18995     18998
     18990     18989     18992     18993     18990     18989     18992     18994
     18990     18989     18992     18995     18991     18989     18992     18993
     18991     18989     18992     18994     18991     18989     18992     18995
     18992     18995     18998     18999     18992     18995     18998     19000
     18992     18995     18998     19001     18993     18992     18995     18996
     18993     18992     18995     18997     18993     18992     18995     18998
     18994     18992     18995     18996     18994     18992     18995     18997
     18994     18992     18995     18998     18995     18998     19001     19002
     18995     18998     19001     19003     18995     18998     19001     19004
     18996     18995     18998     18999     18996     18995     18998     19000
     18996     18995     18998     19001     18997     18995     18998     18999
     18997     18995     18998     19000     18997     18995     18998     19001
     18998     19001     19004     19005     18998     19001     19004     19006
     18998     19001     19004     19007     18999     18998     19001     19002
     18999     18998     19001     19003     18999     18998     19001     19004
     19000     18998     19001     19002     19000     18998     19001     19003
     19000     18998     19001     19004     19001     19004     19007     19008
     19001     19004     19007     19009     19001     19004     19007     19010
     19002     19001     19004     19005     19002     19001     19004     19006
     19002     19001     19004     19007     19003     19001     19004     19005
     19003     19001     19004     19006     19003     19001     19004     19007
     19004     19007     19010     19011     19004     19007     19010     19012
     19004     19007     19010     19013     19005     19004     19007     19008
     19005     19004     19007     19009     19005     19004     19007     19010
     19006     19004     19007     19008     19006     19004     19007     19009
     19006     19004     19007     19010     19007     19010     19013     19014
     19007     19010     19013     19015     19007     19010     19013     19016
     19008     19007     19010     19011     19008     19007     19010     19012
     19008     19007     19010     19013     19009     19007     19010     19011
     19009     19007     19010     19012     19009     19007     19010     19013
     19011     19010     19013     19014     19011     19010     19013     19015
     19011     19010     19013     19016     19012     19010     19013     19014
     19012     19010     19013     19015     19012     19010     19013     19016
     13122     13135     13138     13139     13122     13135     13138     13140
     13122     13135     13138     13145     13123     13122     13127     13128
     13123     13122     13127     13129     13123     13122     13127     13130
     13123     13122     13131     13132     13123     13122     13131     13133
     13123     13122     13131     13134     13123     13122     13135     13136
     13123     13122     13135     13137     13123     13122     13135     13138
     13124     13123     13122     13127     13124     13123     13122     13131
     13124     13123     13122     13135     13125     13123     13122     13127
     13125     13123     13122     13131     13125     13123     13122     13135
     13126     13123     13122     13127     13126     13123     13122     13131
     13126     13123     13122     13135     13127     13122     13131     13132
     13127     13122     13131     13133     13127     13122     13131     13134
     13127     13122     13135     13136     13127     13122     13135     13137
     13127     13122     13135     13138     13128     13127     13122     13131
     13128     13127     13122     13135     13129     13127     13122     13131
     13129     13127     13122     13135     13130     13127     13122     13131
     13130     13127     13122     13135     13131     13122     13135     13136
     13131     13122     13135     13137     13131     13122     13135     13138
     13132     13131     13122     13135     13133     13131     13122     13135
     13134     13131     13122     13135     13135     13138     13145     13141
     13136     13135     13138     13139     13136     13135     13138     13140
     13136     13135     13138     13145     13137     13135     13138     13139
     13137     13135     13138     13140     13137     13135     13138     13145
     13138     13145     13141     13142     13138     13145     13141     13143
     13138     13145     13141     13144     13139     13138     13145     13141
     13140     13138     13145     13141     13141     13144     13146     13147
     13141     13144     13146     13148     13141     13144     13146     13151
     13142     13141     13144     13146     13143     13141     13144     13146
     13144     13146     13151     13149     13144     13146     13151     13152
     13144     13146     13151     13153     13145     13141     13144     13146
     13146     13151     13149     13150     13146     13151     13149     13201
     13146     13151     13153     13154     13146     13151     13153     13155
     13146     13151     13153     13157     13147     13146     13151     13149
     13147     13146     13151     13152     13147     13146     13151     13153
     13148     13146     13151     13149     13148     13146     13151     13152
     13148     13146     13151     13153     13149     13151     13153     13154
     13149     13151     13153     13155     13149     13151     13153     13157
     13149     13201     13203     13204     13149     13201     13203     13205
     13149     13201     13203     13206     13150     13149     13151     13152
     13150     13149     13151     13153     13150     13149     13201     13202
     13150     13149     13201     13203     13151     13149     13201     13202
     13151     13149     13201     13203     13151     13153     13155     13156
     13151     13153     13157     13158     13151     13153     13157     13159
     13152     13151     13149     13201     13152     13151     13153     13154
     13152     13151     13153     13155     13152     13151     13153     13157
     13153     13151     13149     13201     13153     13157     13159     13160
     13153     13157     13159     13161     13154     13153     13155     13156
     13154     13153     13157     13158     13154     13153     13157     13159
     13155     13153     13157     13158     13155     13153     13157     13159
     13156     13155     13153     13157     13157     13159     13161     13162
     13157     13159     13161     13163     13157     13159     13161     13164
     13158     13157     13159     13160     13158     13157     13159     13161
     13159     13161     13164     13165     13159     13161     13164     13166
     13159     13161     13164     13167     13160     13159     13161     13162
     13160     13159     13161     13163     13160     13159     13161     13164
     13161     13164     13167     13168     13161     13164     13167     13169
     13161     13164     13167     13170     13162     13161     13164     13165
     13162     13161     13164     13166     13162     13161     13164     13167
     13163     13161     13164     13165     13163     13161     13164     13166
     13163     13161     13164     13167     13164     13167     13170     13171
     13164     13167     13170     13172     13164     13167     13170     13173
     13165     13164     13167     13168     13165     13164     13167     13169
     13165     13164     13167     13170     13166     13164     13167     13168
     13166     13164     13167     13169     13166     13164     13167     13170
     13167     13170     13173     13174     13167     13170     13173     13175
     13167     13170     13173     13176     13168     13167     13170     13171
     13168     13167     13170     13172     13168     13167     13170     13173
     13169     13167     13170     13171     13169     13167     13170     13172
     13169     13167     13170     13173     13170     13173     13176     13177
     13170     13173     13176     13178     13170     13173     13176     13179
     13171     13170     13173     13174     13171     13170     13173     13175
     13171     13170     13173     13176     13172     13170     13173     13174
     13172     13170     13173     13175     13172     13170     13173     13176
     13173     13176     13179     13180     13173     13176     13179     13181
     13173     13176     13179     13182     13174     13173     13176     13177
     13174     13173     13176     13178     13174     13173     13176     13179
     13175     13173     13176     13177     13175     13173     13176     13178
     13175     13173     13176     13179     13176     13179     13182     13183
     13176     13179     13182     13184     13176     13179     13182     13185
     13177     13176     13179     13180     13177     13176     13179     13181
     13177     13176     13179     13182     13178     13176     13179     13180
     13178     13176     13179     13181     13178     13176     13179     13182
     13179     13182     13185     13186     13179     13182     13185     13187
     13179     13182     13185     13188     13180     13179     13182     13183
     13180     13179     13182     13184     13180     13179     13182     13185
     13181     13179     13182     13183     13181     13179     13182     13184
     13181     13179     13182     13185     13182     13185     13188     13189
     13182     13185     13188     13190     13182     13185     13188     13191
     13183     13182     13185     13186     13183     13182     13185     13187
     13183     13182     13185     13188     13184     13182     13185     13186
     13184     13182     13185     13187     13184     13182     13185     13188
     13185     13188     13191     13192     13185     13188     13191     13193
     13185     13188     13191     13194     13186     13185     13188     13189
     13186     13185     13188     13190     13186     13185     13188     13191
     13187     13185     13188     13189     13187     13185     13188     13190
     13187     13185     13188     13191     13188     13191     13194     13195
     13188     13191     13194     13196     13188     13191     13194     13197
     13189     13188     13191     13192     13189     13188     13191     13193
     13189     13188     13191     13194     13190     13188     13191     13192
     13190     13188     13191     13193     13190     13188     13191     13194
     13191     13194     13197     13198     13191     13194     13197     13199
     13191     13194     13197     13200     13192     13191     13194     13195
     13192     13191     13194     13196     13192     13191     13194     13197
     13193     13191     13194     13195     13193     13191     13194     13196
     13193     13191     13194     13197     13195     13194     13197     13198
     13195     13194     13197     13199     13195     13194     13197     13200
     13196     13194     13197     13198     13196     13194     13197     13199
     13196     13194     13197     13200     13201     13203     13206     13207
     13201     13203     13206     13208     13201     13203     13206     13209
     13202     13201     13203     13204     13202     13201     13203     13205
     13202     13201     13203     13206     13203     13206     13209     13210
     13203     13206     13209     13211     13203     13206     13209     13212
     13204     13203     13206     13207     13204     13203     13206     13208
     13204     13203     13206     13209     13205     13203     13206     13207
     13205     13203     13206     13208     13205     13203     13206     13209
     13206     13209     13212     13213     13206     13209     13212     13214
     13206     13209     13212     13215     13207     13206     13209     13210
     13207     13206     13209     13211     13207     13206     13209     13212
     13208     13206     13209     13210     13208     13206     13209     13211
     13208     13206     13209     13212     13209     13212     13215     13216
     13209     13212     13215     13217     13209     13212     13215     13218
     13210     13209     13212     13213     13210     13209     13212     13214
     13210     13209     13212     13215     13211     13209     13212     13213
     13211     13209     13212     13214     13211     13209     13212     13215
     13212     13215     13218     13219     13212     13215     13218     13220
     13212     13215     13218     13221     13213     13212     13215     13216
     13213     13212     13215     13217     13213     13212     13215     13218
     13214     13212     13215     13216     13214     13212     13215     13217
     13214     13212     13215     13218     13215     13218     13221     13222
     13215     13218     13221     13223     13215     13218     13221     13224
     13216     13215     13218     13219     13216     13215     13218     13220
     13216     13215     13218     13221     13217     13215     13218     13219
     13217     13215     13218     13220     13217     13215     13218     13221
     13218     13221     13224     13225     13218     13221     13224     13226
     13219     13218     13221     13222     13219     13218     13221     13223
     13219     13218     13221     13224     13220     13218     13221     13222
     13220     13218     13221     13223     13220     13218     13221     13224
     13221     13224     13226     13227     13221     13224     13226     13228
     13222     13221     13224     13225     13222     13221     13224     13226
     13223     13221     13224     13225     13223     13221     13224     13226
     13224     13226     13228     13229     13224     13226     13228     13230
     13224     13226     13228     13231     13225     13224     13226     13227
     13225     13224     13226     13228     13226     13228     13231     13232
     13226     13228     13231     13233     13226     13228     13231     13234
     13227     13226     13228     13229     13227     13226     13228     13230
     13227     13226     13228     13231     13228     13231     13234     13235
     13228     13231     13234     13236     13228     13231     13234     13237
     13229     13228     13231     13232     13229     13228     13231     13233
     13229     13228     13231     13234     13230     13228     13231     13232
     13230     13228     13231     13233     13230     13228     13231     13234
     13231     13234     13237     13238     13231     13234     13237     13239
     13231     13234     13237     13240     13232     13231     13234     13235
     13232     13231     13234     13236     13232     13231     13234     13237
     13233     13231     13234     13235     13233     13231     13234     13236
     13233     13231     13234     13237     13234     13237     13240     13241
     13234     13237     13240     13242     13234     13237     13240     13243
     13235     13234     13237     13238     13235     13234     13237     13239
     13235     13234     13237     13240     13236     13234     13237     13238
     13236     13234     13237     13239     13236     13234     13237     13240
     13237     13240     13243     13244     13237     13240     13243     13245
     13237     13240     13243     13246     13238     13237     13240     13241
     13238     13237     13240     13242     13238     13237     13240     13243
     13239     13237     13240     13241     13239     13237     13240     13242
     13239     13237     13240     13243     13240     13243     13246     13247
     13240     13243     13246     13248     13240     13243     13246     13249
     13241     13240     13243     13244     13241     13240     13243     13245
     13241     13240     13243     13246     13242     13240     13243     13244
     13242     13240     13243     13245     13242     13240     13243     13246
     13243     13246     13249     13250     13243     13246     13249     13251
     13243     13246     13249     13252     13244     13243     13246     13247
     13244     13243     13246     13248     13244     13243     13246     13249
     13245     13243     13246     13247     13245     13243     13246     13248
     13245     13243     13246     13249     13247     13246     13249     13250
     13247     13246     13249     13251     13247     13246     13249     13252
     13248     13246     13249     13250     13248     13246     13249     13251
     13248     13246     13249     13252      8253      8257      8260      8261
      8253      8257      8260      8291      8253      8299      8296      8291
      8253      8299      8296      8297      8253      8299      8296      8298
      8254      8253      8255      8256      8254      8253      8257      8258
      8254      8253      8257      8259      8254      8253      8257      8260
      8254      8253      8299      8296      8254      8253      8299      8300
      8254      8253      8299      8301      8255      8253      8257      8258
      8255      8253      8257      8259      8255      8253      8257      8260
      8255      8253      8299      8296      8255      8253      8299      8300
      8255      8253      8299      8301      8256      8255      8253      8257
      8256      8255      8253      8299      8257      8253      8299      8296
      8257      8253      8299      8300      8257      8253      8299      8301
      8257      8260      8261      8262      8257      8260      8261      8263
      8257      8260      8291      8289      8257      8260      8291      8292
      8257      8260      8291      8296      8258      8257      8253      8299
      8258      8257      8260      8261      8258      8257      8260      8291
      8259      8257      8253      8299      8259      8257      8260      8261
      8259      8257      8260      8291      8260      8257      8253      8299
      8260      8261      8263      8264      8260      8261      8263      8265
      8260      8261      8263      8266      8260      8291      8289      8266
      8260      8291      8289      8286      8260      8291      8289      8290
      8260      8291      8292      8293      8260      8291      8292      8294
      8260      8291      8292      8295      8260      8291      8296      8297
      8260      8291      8296      8298      8260      8291      8296      8299
      8261      8260      8291      8289      8261      8260      8291      8292
      8261      8260      8291      8296      8261      8263      8266      8267
      8261      8263      8266      8268      8261      8263      8266      8289
      8262      8261      8260      8291      8262      8261      8263      8264
      8262      8261      8263      8265      8262      8261      8263      8266
      8263      8261      8260      8291      8263      8266      8268      8269
      8263      8266      8268      8270      8263      8266      8268      8278
      8263      8266      8289      8286      8263      8266      8289      8290
      8263      8266      8289      8291      8264      8263      8266      8267
      8264      8263      8266      8268      8264      8263      8266      8289
      8265      8263      8266      8267      8265      8263      8266      8268
      8265      8263      8266      8289      8266      8268      8270      8271
      8266      8268      8270      8272      8266      8268      8270      8273
      8266      8268      8278      8276      8266      8268      8278      8279
      8266      8268      8278      8283      8266      8289      8286      8283
      8266      8289      8286      8287      8266      8289      8286      8288
      8266      8289      8291      8292      8266      8289      8291      8296
      8267      8266      8268      8269      8267      8266      8268      8270
      8267      8266      8268      8278      8267      8266      8289      8286
      8267      8266      8289      8290      8267      8266      8289      8291
      8268      8266      8289      8286      8268      8266      8289      8290
      8268      8266      8289      8291      8268      8270      8273      8274
      8268      8270      8273      8275      8268      8270      8273      8276
      8268      8278      8276      8273      8268      8278      8276      8277
      8268      8278      8276      8302      8268      8278      8279      8280
      8268      8278      8279      8281      8268      8278      8279      8282
      8268      8278      8283      8284      8268      8278      8283      8285
      8268      8278      8283      8286      8269      8268      8266      8289
      8269      8268      8270      8271      8269      8268      8270      8272
      8269      8268      8270      8273      8269      8268      8278      8276
      8269      8268      8278      8279      8269      8268      8278      8283
      8270      8268      8266      8289      8270      8268      8278      8276
      8270      8268      8278      8279      8270      8268      8278      8283
      8270      8273      8276      8277      8270      8273      8276      8278
      8270      8273      8276      8302      8271      8270      8268      8278
      8271      8270      8273      8274      8271      8270      8273      8275
      8271      8270      8273      8276      8272      8270      8268      8278
      8272      8270      8273      8274      8272      8270      8273      8275
      8272      8270      8273      8276      8273      8270      8268      8278
      8273      8276      8278      8279      8273      8276      8278      8283
      8273      8276      8302      8303      8273      8276      8302      8304
      8273      8276      8302      8308      8274      8273      8276      8277
      8274      8273      8276      8278      8274      8273      8276      8302
      8275      8273      8276      8277      8275      8273      8276      8278
      8275      8273      8276      8302      8276      8278      8279      8280
      8276      8278      8279      8281      8276      8278      8279      8282
      8276      8278      8283      8284      8276      8278      8283      8285
      8276      8278      8283      8286      8276      8302      8304      8305
      8276      8302      8304      8306      8276      8302      8304      8307
      8276      8302      8308      8309      8276      8302      8308      8310
      8276      8302      8308      8311      8277      8276      8278      8279
      8277      8276      8278      8283      8277      8276      8302      8303
      8277      8276      8302      8304      8277      8276      8302      8308
      8278      8268      8266      8289      8278      8276      8302      8303
      8278      8276      8302      8304      8278      8276      8302      8308
      8278      8283      8286      8287      8278      8283      8286      8288
      8278      8283      8286      8289      8279      8278      8276      8302
      8279      8278      8283      8284      8279      8278      8283      8285
      8279      8278      8283      8286      8280      8279      8278      8283
      8281      8279      8278      8283      8282      8279      8278      8283
      8283      8278      8276      8302      8283      8286      8289      8290
      8283      8286      8289      8291      8284      8283      8286      8287
      8284      8283      8286      8288      8284      8283      8286      8289
      8285      8283      8286      8287      8285      8283      8286      8288
      8285      8283      8286      8289      8286      8289      8291      8292
      8286      8289      8291      8296      8287      8286      8289      8290
      8287      8286      8289      8291      8288      8286      8289      8290
      8288      8286      8289      8291      8289      8291      8292      8293
      8289      8291      8292      8294      8289      8291      8292      8295
      8289      8291      8296      8297      8289      8291      8296      8298
      8289      8291      8296      8299      8290      8289      8291      8292
      8290      8289      8291      8296      8291      8296      8299      8300
      8291      8296      8299      8301      8292      8291      8296      8297
      8292      8291      8296      8298      8292      8291      8296      8299
      8293      8292      8291      8296      8294      8292      8291      8296
      8295      8292      8291      8296      8297      8296      8299      8300
      8297      8296      8299      8301      8298      8296      8299      8300
      8298      8296      8299      8301      8302      8308      8311      8312
      8302      8308      8311      8313      8302      8308      8311      8314
      8303      8302      8304      8305      8303      8302      8304      8306
      8303      8302      8304      8307      8303      8302      8308      8309
      8303      8302      8308      8310      8303      8302      8308      8311
      8304      8302      8308      8309      8304      8302      8308      8310
      8304      8302      8308      8311      8305      8304      8302      8308
      8306      8304      8302      8308      8307      8304      8302      8308
      8308      8311      8314      8315      8308      8311      8314      8316
      8308      8311      8314      8317      8309      8308      8311      8312
      8309      8308      8311      8313      8309      8308      8311      8314
      8310      8308      8311      8312      8310      8308      8311      8313
      8310      8308      8311      8314      8311      8314      8317      8318
      8311      8314      8317      8319      8311      8314      8317      8323
      8312      8311      8314      8315      8312      8311      8314      8316
      8312      8311      8314      8317      8313      8311      8314      8315
      8313      8311      8314      8316      8313      8311      8314      8317
      8314      8317      8319      8320      8314      8317      8319      8321
      8314      8317      8319      8322      8314      8317      8323      8324
      8314      8317      8323      8325      8314      8317      8323      8326
      8315      8314      8317      8318      8315      8314      8317      8319
      8315      8314      8317      8323      8316      8314      8317      8318
      8316      8314      8317      8319      8316      8314      8317      8323
      8318      8317      8319      8320      8318      8317      8319      8321
      8318      8317      8319      8322      8318      8317      8323      8324
      8318      8317      8323      8325      8318      8317      8323      8326
      8319      8317      8323      8324      8319      8317      8323      8325
      8319      8317      8323      8326      8320      8319      8317      8323
      8321      8319      8317      8323      8322      8319      8317      8323
      8327      8331      8334      8335      8327      8331      8334      8365
      8327      8373      8370      8365      8327      8373      8370      8371
      8327      8373      8370      8372      8328      8327      8329      8330
      8328      8327      8331      8332      8328      8327      8331      8333
      8328      8327      8331      8334      8328      8327      8373      8370
      8328      8327      8373      8374      8328      8327      8373      8375
      8329      8327      8331      8332      8329      8327      8331      8333
      8329      8327      8331      8334      8329      8327      8373      8370
      8329      8327      8373      8374      8329      8327      8373      8375
      8330      8329      8327      8331      8330      8329      8327      8373
      8331      8327      8373      8370      8331      8327      8373      8374
      8331      8327      8373      8375      8331      8334      8335      8336
      8331      8334      8335      8337      8331      8334      8365      8363
      8331      8334      8365      8366      8331      8334      8365      8370
      8332      8331      8327      8373      8332      8331      8334      8335
      8332      8331      8334      8365      8333      8331      8327      8373
      8333      8331      8334      8335      8333      8331      8334      8365
      8334      8331      8327      8373      8334      8335      8337      8338
      8334      8335      8337      8339      8334      8335      8337      8340
      8334      8365      8363      8340      8334      8365      8363      8360
      8334      8365      8363      8364      8334      8365      8366      8367
      8334      8365      8366      8368      8334      8365      8366      8369
      8334      8365      8370      8371      8334      8365      8370      8372
      8334      8365      8370      8373      8335      8334      8365      8363
      8335      8334      8365      8366      8335      8334      8365      8370
      8335      8337      8340      8341      8335      8337      8340      8342
      8335      8337      8340      8363      8336      8335      8334      8365
      8336      8335      8337      8338      8336      8335      8337      8339
      8336      8335      8337      8340      8337      8335      8334      8365
      8337      8340      8342      8343      8337      8340      8342      8344
      8337      8340      8342      8352      8337      8340      8363      8360
      8337      8340      8363      8364      8337      8340      8363      8365
      8338      8337      8340      8341      8338      8337      8340      8342
      8338      8337      8340      8363      8339      8337      8340      8341
      8339      8337      8340      8342      8339      8337      8340      8363
      8340      8342      8344      8345      8340      8342      8344      8346
      8340      8342      8344      8347      8340      8342      8352      8350
      8340      8342      8352      8353      8340      8342      8352      8357
      8340      8363      8360      8357      8340      8363      8360      8361
      8340      8363      8360      8362      8340      8363      8365      8366
      8340      8363      8365      8370      8341      8340      8342      8343
      8341      8340      8342      8344      8341      8340      8342      8352
      8341      8340      8363      8360      8341      8340      8363      8364
      8341      8340      8363      8365      8342      8340      8363      8360
      8342      8340      8363      8364      8342      8340      8363      8365
      8342      8344      8347      8348      8342      8344      8347      8349
      8342      8344      8347      8350      8342      8352      8350      8347
      8342      8352      8350      8351      8342      8352      8350      8376
      8342      8352      8353      8354      8342      8352      8353      8355
      8342      8352      8353      8356      8342      8352      8357      8358
      8342      8352      8357      8359      8342      8352      8357      8360
      8343      8342      8340      8363      8343      8342      8344      8345
      8343      8342      8344      8346      8343      8342      8344      8347
      8343      8342      8352      8350      8343      8342      8352      8353
      8343      8342      8352      8357      8344      8342      8340      8363
      8344      8342      8352      8350      8344      8342      8352      8353
      8344      8342      8352      8357      8344      8347      8350      8351
      8344      8347      8350      8352      8344      8347      8350      8376
      8345      8344      8342      8352      8345      8344      8347      8348
      8345      8344      8347      8349      8345      8344      8347      8350
      8346      8344      8342      8352      8346      8344      8347      8348
      8346      8344      8347      8349      8346      8344      8347      8350
      8347      8344      8342      8352      8347      8350      8352      8353
      8347      8350      8352      8357      8347      8350      8376      8377
      8347      8350      8376      8378      8347      8350      8376      8382
      8348      8347      8350      8351      8348      8347      8350      8352
      8348      8347      8350      8376      8349      8347      8350      8351
      8349      8347      8350      8352      8349      8347      8350      8376
      8350      8352      8353      8354      8350      8352      8353      8355
      8350      8352      8353      8356      8350      8352      8357      8358
      8350      8352      8357      8359      8350      8352      8357      8360
      8350      8376      8378      8379      8350      8376      8378      8380
      8350      8376      8378      8381      8350      8376      8382      8383
      8350      8376      8382      8384      8350      8376      8382      8385
      8351      8350      8352      8353      8351      8350      8352      8357
      8351      8350      8376      8377      8351      8350      8376      8378
      8351      8350      8376      8382      8352      8342      8340      8363
      8352      8350      8376      8377      8352      8350      8376      8378
      8352      8350      8376      8382      8352      8357      8360      8361
      8352      8357      8360      8362      8352      8357      8360      8363
      8353      8352      8350      8376      8353      8352      8357      8358
      8353      8352      8357      8359      8353      8352      8357      8360
      8354      8353      8352      8357      8355      8353      8352      8357
      8356      8353      8352      8357      8357      8352      8350      8376
      8357      8360      8363      8364      8357      8360      8363      8365
      8358      8357      8360      8361      8358      8357      8360      8362
      8358      8357      8360      8363      8359      8357      8360      8361
      8359      8357      8360      8362      8359      8357      8360      8363
      8360      8363      8365      8366      8360      8363      8365      8370
      8361      8360      8363      8364      8361      8360      8363      8365
      8362      8360      8363      8364      8362      8360      8363      8365
      8363      8365      8366      8367      8363      8365      8366      8368
      8363      8365      8366      8369      8363      8365      8370      8371
      8363      8365      8370      8372      8363      8365      8370      8373
      8364      8363      8365      8366      8364      8363      8365      8370
      8365      8370      8373      8374      8365      8370      8373      8375
      8366      8365      8370      8371      8366      8365      8370      8372
      8366      8365      8370      8373      8367      8366      8365      8370
      8368      8366      8365      8370      8369      8366      8365      8370
      8371      8370      8373      8374      8371      8370      8373      8375
      8372      8370      8373      8374      8372      8370      8373      8375
      8376      8382      8385      8386      8376      8382      8385      8387
      8376      8382      8385      8388      8377      8376      8378      8379
      8377      8376      8378      8380      8377      8376      8378      8381
      8377      8376      8382      8383      8377      8376      8382      8384
      8377      8376      8382      8385      8378      8376      8382      8383
      8378      8376      8382      8384      8378      8376      8382      8385
      8379      8378      8376      8382      8380      8378      8376      8382
      8381      8378      8376      8382      8382      8385      8388      8389
      8382      8385      8388      8390      8382      8385      8388      8391
      8383      8382      8385      8386      8383      8382      8385      8387
      8383      8382      8385      8388      8384      8382      8385      8386
      8384      8382      8385      8387      8384      8382      8385      8388
      8385      8388      8391      8392      8385      8388      8391      8393
      8385      8388      8391      8397      8386      8385      8388      8389
      8386      8385      8388      8390      8386      8385      8388      8391
      8387      8385      8388      8389      8387      8385      8388      8390
      8387      8385      8388      8391      8388      8391      8393      8394
      8388      8391      8393      8395      8388      8391      8393      8396
      8388      8391      8397      8398      8388      8391      8397      8399
      8388      8391      8397      8400      8389      8388      8391      8392
      8389      8388      8391      8393      8389      8388      8391      8397
      8390      8388      8391      8392      8390      8388      8391      8393
      8390      8388      8391      8397      8392      8391      8393      8394
      8392      8391      8393      8395      8392      8391      8393      8396
      8392      8391      8397      8398      8392      8391      8397      8399
      8392      8391      8397      8400      8393      8391      8397      8398
      8393      8391      8397      8399      8393      8391      8397      8400
      8394      8393      8391      8397      8395      8393      8391      8397
      8396      8393      8391      8397      1331      1335      1337      1338
      1331      1335      1337      1339      1331      1335      1340      1341
      1331      1335      1340      1342      1331      1335      1340      1346
      1332      1331      1335      1336      1332      1331      1335      1337
      1332      1331      1335      1340      1333      1331      1335      1336
      1333      1331      1335      1337      1333      1331      1335      1340
      1334      1331      1335      1336      1334      1331      1335      1337
      1334      1331      1335      1340      1335      1340      1346      1343
      1336      1335      1337      1338      1336      1335      1337      1339
      1336      1335      1340      1341      1336      1335      1340      1342
      1336      1335      1340      1346      1337      1335      1340      1341
      1337      1335      1340      1342      1337      1335      1340      1346
      1338      1337      1335      1340      1339      1337      1335      1340
      1340      1346      1343      1344      1340      1346      1343      1345
      1340      1346      1343      1347      1341      1340      1346      1343
      1342      1340      1346      1343      1343      1347      1348      1349
      1343      1347      1348      1350      1343      1347      1348      1351
      1344      1343      1347      1348      1345      1343      1347      1348
      1346      1343      1347      1348      1347      1348      1351      1352
      1347      1348      1351      1353      1347      1348      1351      1359
      1348      1351      1353      1354      1348      1351      1359      1360
      1348      1351      1359      1361      1348      1351      1359      1362
      1349      1348      1351      1352      1349      1348      1351      1353
      1349      1348      1351      1359      1350      1348      1351      1352
      1350      1348      1351      1353      1350      1348      1351      1359
      1351      1353      1354      1355      1351      1353      1354      1356
      1351      1359      1362      1363      1352      1351      1353      1354
      1352      1351      1359      1360      1352      1351      1359      1361
      1352      1351      1359      1362      1353      1351      1359      1360
      1353      1351      1359      1361      1353      1351      1359      1362
      1353      1354      1356      1357      1353      1354      1356      1358
      1353      1354      1356      1368      1354      1353      1351      1359
      1354      1356      1368      1369      1354      1356      1368      1370
      1354      1356      1368      1371      1355      1354      1356      1357
      1355      1354      1356      1358      1355      1354      1356      1368
      1356      1368      1371      1372      1356      1368      1371      1373
      1356      1368      1371      1374      1357      1356      1368      1369
      1357      1356      1368      1370      1357      1356      1368      1371
      1358      1356      1368      1369      1358      1356      1368      1370
      1358      1356      1368      1371      1359      1362      1363      1364
      1359      1362      1363      1365      1360      1359      1362      1363
      1361      1359      1362      1363      1362      1363      1365      1366
      1362      1363      1365      1367      1362      1363      1365      1415
      1363      1365      1415      1416      1363      1365      1415      1417
      1363      1365      1415      1418      1364      1363      1365      1366
      1364      1363      1365      1367      1364      1363      1365      1415
      1365      1415      1418      1419      1365      1415      1418      1420
      1365      1415      1418      1421      1366      1365      1415      1416
      1366      1365      1415      1417      1366      1365      1415      1418
      1367      1365      1415      1416      1367      1365      1415      1417
      1367      1365      1415      1418      1368      1371      1374      1375
      1368      1371      1374      1376      1369      1368      1371      1372
      1369      1368      1371      1373      1369      1368      1371      1374
      1370      1368      1371      1372      1370      1368      1371      1373
      1370      1368      1371      1374      1371      1374      1376      1377
      1371      1374      1376      1378      1372      1371      1374      1375
      1372      1371      1374      1376      1373      1371      1374      1375
      1373      1371      1374      1376      1374      1376      1378      1379
      1374      1376      1378      1380      1374      1376      1378      1381
      1375      1374      1376      1377      1375      1374      1376      1378
      1376      1378      1381      1382      1376      1378      1381      1383
      1377      1376      1378      1379      1377      1376      1378      1380
      1377      1376      1378      1381      1378      1381      1383      1384
      1378      1381      1383      1385      1379      1378      1381      1382
      1379      1378      1381      1383      1380      1378      1381      1382
      1380      1378      1381      1383      1381      1383      1385      1386
      1381      1383      1385      1387      1381      1383      1385      1388
      1382      1381      1383      1384      1382      1381      1383      1385
      1383      1385      1388      1389      1383      1385      1388      1390
      1384      1383      1385      1386      1384      1383      1385      1387
      1384      1383      1385      1388      1385      1388      1390      1391
      1385      1388      1390      1392      1386      1385      1388      1389
      1386      1385      1388      1390      1387      1385      1388      1389
      1387      1385      1388      1390      1388      1390      1392      1393
      1388      1390      1392      1394      1388      1390      1392      1395
      1389      1388      1390      1391      1389      1388      1390      1392
      1390      1392      1395      1396      1390      1392      1395      1397
      1391      1390      1392      1393      1391      1390      1392      1394
      1391      1390      1392      1395      1392      1395      1397      1398
      1392      1395      1397      1399      1393      1392      1395      1396
      1393      1392      1395      1397      1394      1392      1395      1396
      1394      1392      1395      1397      1395      1397      1399      1400
      1395      1397      1399      1401      1395      1397      1399      1402
      1396      1395      1397      1398      1396      1395      1397      1399
      1397      1399      1402      1403      1397      1399      1402      1404
      1397      1399      1402      1405      1398      1397      1399      1400
      1398      1397      1399      1401      1398      1397      1399      1402
      1399      1402      1405      1406      1399      1402      1405      1407
      1399      1402      1405      1408      1400      1399      1402      1403
      1400      1399      1402      1404      1400      1399      1402      1405
      1401      1399      1402      1403      1401      1399      1402      1404
      1401      1399      1402      1405      1402      1405      1408      1409
      1402      1405      1408      1410      1402      1405      1408      1411
      1403      1402      1405      1406      1403      1402      1405      1407
      1403      1402      1405      1408      1404      1402      1405      1406
      1404      1402      1405      1407      1404      1402      1405      1408
      1405      1408      1411      1412      1405      1408      1411      1413
      1405      1408      1411      1414      1406      1405      1408      1409
      1406      1405      1408      1410      1406      1405      1408      1411
      1407      1405      1408      1409      1407      1405      1408      1410
      1407      1405      1408      1411      1409      1408      1411      1412
      1409      1408      1411      1413      1409      1408      1411      1414
      1410      1408      1411      1412      1410      1408      1411      1413
      1410      1408      1411      1414      1415      1418      1421      1422
      1415      1418      1421      1423      1415      1418      1421      1424
      1416      1415      1418      1419      1416      1415      1418      1420
      1416      1415      1418      1421      1417      1415      1418      1419
      1417      1415      1418      1420      1417      1415      1418      1421
      1418      1421      1424      1425      1418      1421      1424      1426
      1418      1421      1424      1427      1419      1418      1421      1422
      1419      1418      1421      1423      1419      1418      1421      1424
      1420      1418      1421      1422      1420      1418      1421      1423
      1420      1418      1421      1424      1421      1424      1427      1428
      1421      1424      1427      1429      1421      1424      1427      1430
      1422      1421      1424      1425      1422      1421      1424      1426
      1422      1421      1424      1427      1423      1421      1424      1425
      1423      1421      1424      1426      1423      1421      1424      1427
      1424      1427      1430      1431      1424      1427      1430      1432
      1424      1427      1430      1433      1425      1424      1427      1428
      1425      1424      1427      1429      1425      1424      1427      1430
      1426      1424      1427      1428      1426      1424      1427      1429
      1426      1424      1427      1430      1427      1430      1433      1434
      1427      1430      1433      1435      1427      1430      1433      1436
      1428      1427      1430      1431      1428      1427      1430      1432
      1428      1427      1430      1433      1429      1427      1430      1431
      1429      1427      1430      1432      1429      1427      1430      1433
      1430      1433      1436      1437      1430      1433      1436      1438
      1430      1433      1436      1439      1431      1430      1433      1434
      1431      1430      1433      1435      1431      1430      1433      1436
      1432      1430      1433      1434      1432      1430      1433      1435
      1432      1430      1433      1436      1433      1436      1439      1440
      1433      1436      1439      1441      1433      1436      1439      1442
      1434      1433      1436      1437      1434      1433      1436      1438
      1434      1433      1436      1439      1435      1433      1436      1437
      1435      1433      1436      1438      1435      1433      1436      1439
      1436      1439      1442      1443      1436      1439      1442      1444
      1436      1439      1442      1445      1437      1436      1439      1440
      1437      1436      1439      1441      1437      1436      1439      1442
      1438      1436      1439      1440      1438      1436      1439      1441
      1438      1436      1439      1442      1439      1442      1445      1446
      1439      1442      1445      1447      1439      1442      1445      1448
      1440      1439      1442      1443      1440      1439      1442      1444
      1440      1439      1442      1445      1441      1439      1442      1443
      1441      1439      1442      1444      1441      1439      1442      1445
      1442      1445      1448      1449      1442      1445      1448      1450
      1442      1445      1448      1451      1443      1442      1445      1446
      1443      1442      1445      1447      1443      1442      1445      1448
      1444      1442      1445      1446      1444      1442      1445      1447
      1444      1442      1445      1448      1445      1448      1451      1452
      1445      1448      1451      1453      1445      1448      1451      1454
      1446      1445      1448      1449      1446      1445      1448      1450
      1446      1445      1448      1451      1447      1445      1448      1449
      1447      1445      1448      1450      1447      1445      1448      1451
      1448      1451      1454      1455      1448      1451      1454      1456
      1448      1451      1454      1457      1449      1448      1451      1452
      1449      1448      1451      1453      1449      1448      1451      1454
      1450      1448      1451      1452      1450      1448      1451      1453
      1450      1448      1451      1454      1451      1454      1457      1458
      1451      1454      1457      1459      1451      1454      1457      1460
      1452      1451      1454      1455      1452      1451      1454      1456
      1452      1451      1454      1457      1453      1451      1454      1455
      1453      1451      1454      1456      1453      1451      1454      1457
      1454      1457      1460      1461      1454      1457      1460      1462
      1454      1457      1460      1463      1455      1454      1457      1458
      1455      1454      1457      1459      1455      1454      1457      1460
      1456      1454      1457      1458      1456      1454      1457      1459
      1456      1454      1457      1460      1458      1457      1460      1461
      1458      1457      1460      1462      1458      1457      1460      1463
      1459      1457      1460      1461      1459      1457      1460      1462
      1459      1457      1460      1463     13253     13266     13269     13270
     13253     13266     13269     13271     13253     13266     13269     13276
     13254     13253     13258     13259     13254     13253     13258     13260
     13254     13253     13258     13261     13254     13253     13262     13263
     13254     13253     13262     13264     13254     13253     13262     13265
     13254     13253     13266     13267     13254     13253     13266     13268
     13254     13253     13266     13269     13255     13254     13253     13258
     13255     13254     13253     13262     13255     13254     13253     13266
     13256     13254     13253     13258     13256     13254     13253     13262
     13256     13254     13253     13266     13257     13254     13253     13258
     13257     13254     13253     13262     13257     13254     13253     13266
     13258     13253     13262     13263     13258     13253     13262     13264
     13258     13253     13262     13265     13258     13253     13266     13267
     13258     13253     13266     13268     13258     13253     13266     13269
     13259     13258     13253     13262     13259     13258     13253     13266
     13260     13258     13253     13262     13260     13258     13253     13266
     13261     13258     13253     13262     13261     13258     13253     13266
     13262     13253     13266     13267     13262     13253     13266     13268
     13262     13253     13266     13269     13263     13262     13253     13266
     13264     13262     13253     13266     13265     13262     13253     13266
     13266     13269     13276     13272     13267     13266     13269     13270
     13267     13266     13269     13271     13267     13266     13269     13276
     13268     13266     13269     13270     13268     13266     13269     13271
     13268     13266     13269     13276     13269     13276     13272     13273
     13269     13276     13272     13274     13269     13276     13272     13275
     13270     13269     13276     13272     13271     13269     13276     13272
     13272     13275     13277     13278     13272     13275     13277     13279
     13272     13275     13277     13282     13273     13272     13275     13277
     13274     13272     13275     13277     13275     13277     13282     13280
     13275     13277     13282     13283     13275     13277     13282     13284
     13276     13272     13275     13277     13277     13282     13280     13281
     13277     13282     13280     13332     13277     13282     13284     13285
     13277     13282     13284     13286     13277     13282     13284     13288
     13278     13277     13282     13280     13278     13277     13282     13283
     13278     13277     13282     13284     13279     13277     13282     13280
     13279     13277     13282     13283     13279     13277     13282     13284
     13280     13282     13284     13285     13280     13282     13284     13286
     13280     13282     13284     13288     13280     13332     13334     13335
     13280     13332     13334     13336     13280     13332     13334     13337
     13281     13280     13282     13283     13281     13280     13282     13284
     13281     13280     13332     13333     13281     13280     13332     13334
     13282     13280     13332     13333     13282     13280     13332     13334
     13282     13284     13286     13287     13282     13284     13288     13289
     13282     13284     13288     13290     13283     13282     13280     13332
     13283     13282     13284     13285     13283     13282     13284     13286
     13283     13282     13284     13288     13284     13282     13280     13332
     13284     13288     13290     13291     13284     13288     13290     13292
     13285     13284     13286     13287     13285     13284     13288     13289
     13285     13284     13288     13290     13286     13284     13288     13289
     13286     13284     13288     13290     13287     13286     13284     13288
     13288     13290     13292     13293     13288     13290     13292     13294
     13288     13290     13292     13295     13289     13288     13290     13291
     13289     13288     13290     13292     13290     13292     13295     13296
     13290     13292     13295     13297     13290     13292     13295     13298
     13291     13290     13292     13293     13291     13290     13292     13294
     13291     13290     13292     13295     13292     13295     13298     13299
     13292     13295     13298     13300     13292     13295     13298     13301
     13293     13292     13295     13296     13293     13292     13295     13297
     13293     13292     13295     13298     13294     13292     13295     13296
     13294     13292     13295     13297     13294     13292     13295     13298
     13295     13298     13301     13302     13295     13298     13301     13303
     13295     13298     13301     13304     13296     13295     13298     13299
     13296     13295     13298     13300     13296     13295     13298     13301
     13297     13295     13298     13299     13297     13295     13298     13300
     13297     13295     13298     13301     13298     13301     13304     13305
     13298     13301     13304     13306     13298     13301     13304     13307
     13299     13298     13301     13302     13299     13298     13301     13303
     13299     13298     13301     13304     13300     13298     13301     13302
     13300     13298     13301     13303     13300     13298     13301     13304
     13301     13304     13307     13308     13301     13304     13307     13309
     13301     13304     13307     13310     13302     13301     13304     13305
     13302     13301     13304     13306     13302     13301     13304     13307
     13303     13301     13304     13305     13303     13301     13304     13306
     13303     13301     13304     13307     13304     13307     13310     13311
     13304     13307     13310     13312     13304     13307     13310     13313
     13305     13304     13307     13308     13305     13304     13307     13309
     13305     13304     13307     13310     13306     13304     13307     13308
     13306     13304     13307     13309     13306     13304     13307     13310
     13307     13310     13313     13314     13307     13310     13313     13315
     13307     13310     13313     13316     13308     13307     13310     13311
     13308     13307     13310     13312     13308     13307     13310     13313
     13309     13307     13310     13311     13309     13307     13310     13312
     13309     13307     13310     13313     13310     13313     13316     13317
     13310     13313     13316     13318     13310     13313     13316     13319
     13311     13310     13313     13314     13311     13310     13313     13315
     13311     13310     13313     13316     13312     13310     13313     13314
     13312     13310     13313     13315     13312     13310     13313     13316
     13313     13316     13319     13320     13313     13316     13319     13321
     13313     13316     13319     13322     13314     13313     13316     13317
     13314     13313     13316     13318     13314     13313     13316     13319
     13315     13313     13316     13317     13315     13313     13316     13318
     13315     13313     13316     13319     13316     13319     13322     13323
     13316     13319     13322     13324     13316     13319     13322     13325
     13317     13316     13319     13320     13317     13316     13319     13321
     13317     13316     13319     13322     13318     13316     13319     13320
     13318     13316     13319     13321     13318     13316     13319     13322
     13319     13322     13325     13326     13319     13322     13325     13327
     13319     13322     13325     13328     13320     13319     13322     13323
     13320     13319     13322     13324     13320     13319     13322     13325
     13321     13319     13322     13323     13321     13319     13322     13324
     13321     13319     13322     13325     13322     13325     13328     13329
     13322     13325     13328     13330     13322     13325     13328     13331
     13323     13322     13325     13326     13323     13322     13325     13327
     13323     13322     13325     13328     13324     13322     13325     13326
     13324     13322     13325     13327     13324     13322     13325     13328
     13326     13325     13328     13329     13326     13325     13328     13330
     13326     13325     13328     13331     13327     13325     13328     13329
     13327     13325     13328     13330     13327     13325     13328     13331
     13332     13334     13337     13338     13332     13334     13337     13339
     13332     13334     13337     13340     13333     13332     13334     13335
     13333     13332     13334     13336     13333     13332     13334     13337
     13334     13337     13340     13341     13334     13337     13340     13342
     13334     13337     13340     13343     13335     13334     13337     13338
     13335     13334     13337     13339     13335     13334     13337     13340
     13336     13334     13337     13338     13336     13334     13337     13339
     13336     13334     13337     13340     13337     13340     13343     13344
     13337     13340     13343     13345     13337     13340     13343     13346
     13338     13337     13340     13341     13338     13337     13340     13342
     13338     13337     13340     13343     13339     13337     13340     13341
     13339     13337     13340     13342     13339     13337     13340     13343
     13340     13343     13346     13347     13340     13343     13346     13348
     13340     13343     13346     13349     13341     13340     13343     13344
     13341     13340     13343     13345     13341     13340     13343     13346
     13342     13340     13343     13344     13342     13340     13343     13345
     13342     13340     13343     13346     13343     13346     13349     13350
     13343     13346     13349     13351     13343     13346     13349     13352
     13344     13343     13346     13347     13344     13343     13346     13348
     13344     13343     13346     13349     13345     13343     13346     13347
     13345     13343     13346     13348     13345     13343     13346     13349
     13346     13349     13352     13353     13346     13349     13352     13354
     13346     13349     13352     13355     13347     13346     13349     13350
     13347     13346     13349     13351     13347     13346     13349     13352
     13348     13346     13349     13350     13348     13346     13349     13351
     13348     13346     13349     13352     13349     13352     13355     13356
     13349     13352     13355     13357     13350     13349     13352     13353
     13350     13349     13352     13354     13350     13349     13352     13355
     13351     13349     13352     13353     13351     13349     13352     13354
     13351     13349     13352     13355     13352     13355     13357     13358
     13352     13355     13357     13359     13353     13352     13355     13356
     13353     13352     13355     13357     13354     13352     13355     13356
     13354     13352     13355     13357     13355     13357     13359     13360
     13355     13357     13359     13361     13355     13357     13359     13362
     13356     13355     13357     13358     13356     13355     13357     13359
     13357     13359     13362     13363     13357     13359     13362     13364
     13357     13359     13362     13365     13358     13357     13359     13360
     13358     13357     13359     13361     13358     13357     13359     13362
     13359     13362     13365     13366     13359     13362     13365     13367
     13359     13362     13365     13368     13360     13359     13362     13363
     13360     13359     13362     13364     13360     13359     13362     13365
     13361     13359     13362     13363     13361     13359     13362     13364
     13361     13359     13362     13365     13362     13365     13368     13369
     13362     13365     13368     13370     13362     13365     13368     13371
     13363     13362     13365     13366     13363     13362     13365     13367
     13363     13362     13365     13368     13364     13362     13365     13366
     13364     13362     13365     13367     13364     13362     13365     13368
     13365     13368     13371     13372     13365     13368     13371     13373
     13365     13368     13371     13374     13366     13365     13368     13369
     13366     13365     13368     13370     13366     13365     13368     13371
     13367     13365     13368     13369     13367     13365     13368     13370
     13367     13365     13368     13371     13368     13371     13374     13375
     13368     13371     13374     13376     13368     13371     13374     13377
     13369     13368     13371     13372     13369     13368     13371     13373
     13369     13368     13371     13374     13370     13368     13371     13372
     13370     13368     13371     13373     13370     13368     13371     13374
     13371     13374     13377     13378     13371     13374     13377     13379
     13371     13374     13377     13380     13372     13371     13374     13375
     13372     13371     13374     13376     13372     13371     13374     13377
     13373     13371     13374     13375     13373     13371     13374     13376
     13373     13371     13374     13377     13374     13377     13380     13381
     13374     13377     13380     13382     13374     13377     13380     13383
     13375     13374     13377     13378     13375     13374     13377     13379
     13375     13374     13377     13380     13376     13374     13377     13378
     13376     13374     13377     13379     13376     13374     13377     13380
     13378     13377     13380     13381     13378     13377     13380     13382
     13378     13377     13380     13383     13379     13377     13380     13381
     13379     13377     13380     13382     13379     13377     13380     13383
     21769     21782     21785     21786     21769     21782     21785     21787
     21769     21782     21785     21791     21770     21769     21774     21775
     21770     21769     21774     21776     21770     21769     21774     21777
     21770     21769     21778     21779     21770     21769     21778     21780
     21770     21769     21778     21781     21770     21769     21782     21783
     21770     21769     21782     21784     21770     21769     21782     21785
     21771     21770     21769     21774     21771     21770     21769     21778
     21771     21770     21769     21782     21772     21770     21769     21774
     21772     21770     21769     21778     21772     21770     21769     21782
     21773     21770     21769     21774     21773     21770     21769     21778
     21773     21770     21769     21782     21774     21769     21778     21779
     21774     21769     21778     21780     21774     21769     21778     21781
     21774     21769     21782     21783     21774     21769     21782     21784
     21774     21769     21782     21785     21775     21774     21769     21778
     21775     21774     21769     21782     21776     21774     21769     21778
     21776     21774     21769     21782     21777     21774     21769     21778
     21777     21774     21769     21782     21778     21769     21782     21783
     21778     21769     21782     21784     21778     21769     21782     21785
     21779     21778     21769     21782     21780     21778     21769     21782
     21781     21778     21769     21782     21782     21785     21791     21788
     21783     21782     21785     21786     21783     21782     21785     21787
     21783     21782     21785     21791     21784     21782     21785     21786
     21784     21782     21785     21787     21784     21782     21785     21791
     21785     21791     21788     21789     21785     21791     21788     21790
     21785     21791     21788     21792     21786     21785     21791     21788
     21787     21785     21791     21788     21788     21792     21793     21794
     21788     21792     21793     21795     21788     21792     21793     21796
     21789     21788     21792     21793     21790     21788     21792     21793
     21791     21788     21792     21793     21792     21793     21796     21797
     21792     21793     21796     21798     21792     21793     21796     21804
     21793     21796     21798     21799     21793     21796     21804     21805
     21793     21796     21804     21806     21793     21796     21804     21807
     21794     21793     21796     21797     21794     21793     21796     21798
     21794     21793     21796     21804     21795     21793     21796     21797
     21795     21793     21796     21798     21795     21793     21796     21804
     21796     21798     21799     21800     21796     21798     21799     21801
     21796     21804     21807     21808     21797     21796     21798     21799
     21797     21796     21804     21805     21797     21796     21804     21806
     21797     21796     21804     21807     21798     21796     21804     21805
     21798     21796     21804     21806     21798     21796     21804     21807
     21798     21799     21801     21802     21798     21799     21801     21803
     21798     21799     21801     21813     21799     21798     21796     21804
     21799     21801     21813     21814     21799     21801     21813     21815
     21799     21801     21813     21816     21800     21799     21801     21802
     21800     21799     21801     21803     21800     21799     21801     21813
     21801     21813     21816     21817     21801     21813     21816     21818
     21801     21813     21816     21819     21802     21801     21813     21814
     21802     21801     21813     21815     21802     21801     21813     21816
     21803     21801     21813     21814     21803     21801     21813     21815
     21803     21801     21813     21816     21804     21807     21808     21809
     21804     21807     21808     21810     21805     21804     21807     21808
     21806     21804     21807     21808     21807     21808     21810     21811
     21807     21808     21810     21812     21807     21808     21810     21858
     21808     21810     21858     21859     21808     21810     21858     21860
     21808     21810     21858     21861     21809     21808     21810     21811
     21809     21808     21810     21812     21809     21808     21810     21858
     21810     21858     21861     21862     21810     21858     21861     21863
     21810     21858     21861     21864     21811     21810     21858     21859
     21811     21810     21858     21860     21811     21810     21858     21861
     21812     21810     21858     21859     21812     21810     21858     21860
     21812     21810     21858     21861     21813     21816     21819     21820
     21813     21816     21819     21821     21813     21816     21819     21822
     21814     21813     21816     21817     21814     21813     21816     21818
     21814     21813     21816     21819     21815     21813     21816     21817
     21815     21813     21816     21818     21815     21813     21816     21819
     21816     21819     21822     21823     21816     21819     21822     21824
     21816     21819     21822     21825     21817     21816     21819     21820
     21817     21816     21819     21821     21817     21816     21819     21822
     21818     21816     21819     21820     21818     21816     21819     21821
     21818     21816     21819     21822     21819     21822     21825     21826
     21819     21822     21825     21827     21819     21822     21825     21828
     21820     21819     21822     21823     21820     21819     21822     21824
     21820     21819     21822     21825     21821     21819     21822     21823
     21821     21819     21822     21824     21821     21819     21822     21825
     21822     21825     21828     21829     21822     21825     21828     21830
     21822     21825     21828     21831     21823     21822     21825     21826
     21823     21822     21825     21827     21823     21822     21825     21828
     21824     21822     21825     21826     21824     21822     21825     21827
     21824     21822     21825     21828     21825     21828     21831     21832
     21825     21828     21831     21833     21826     21825     21828     21829
     21826     21825     21828     21830     21826     21825     21828     21831
     21827     21825     21828     21829     21827     21825     21828     21830
     21827     21825     21828     21831     21828     21831     21833     21834
     21828     21831     21833     21835     21829     21828     21831     21832
     21829     21828     21831     21833     21830     21828     21831     21832
     21830     21828     21831     21833     21831     21833     21835     21836
     21831     21833     21835     21837     21831     21833     21835     21838
     21832     21831     21833     21834     21832     21831     21833     21835
     21833     21835     21838     21839     21833     21835     21838     21840
     21834     21833     21835     21836     21834     21833     21835     21837
     21834     21833     21835     21838     21835     21838     21840     21841
     21835     21838     21840     21842     21836     21835     21838     21839
     21836     21835     21838     21840     21837     21835     21838     21839
     21837     21835     21838     21840     21838     21840     21842     21843
     21838     21840     21842     21844     21838     21840     21842     21845
     21839     21838     21840     21841     21839     21838     21840     21842
     21840     21842     21845     21846     21840     21842     21845     21847
     21840     21842     21845     21848     21841     21840     21842     21843
     21841     21840     21842     21844     21841     21840     21842     21845
     21842     21845     21848     21849     21842     21845     21848     21850
     21842     21845     21848     21851     21843     21842     21845     21846
     21843     21842     21845     21847     21843     21842     21845     21848
     21844     21842     21845     21846     21844     21842     21845     21847
     21844     21842     21845     21848     21845     21848     21851     21852
     21845     21848     21851     21853     21845     21848     21851     21854
     21846     21845     21848     21849     21846     21845     21848     21850
     21846     21845     21848     21851     21847     21845     21848     21849
     21847     21845     21848     21850     21847     21845     21848     21851
     21848     21851     21854     21855     21848     21851     21854     21856
     21848     21851     21854     21857     21849     21848     21851     21852
     21849     21848     21851     21853     21849     21848     21851     21854
     21850     21848     21851     21852     21850     21848     21851     21853
     21850     21848     21851     21854     21852     21851     21854     21855
     21852     21851     21854     21856     21852     21851     21854     21857
     21853     21851     21854     21855     21853     21851     21854     21856
     21853     21851     21854     21857     21858     21861     21864     21865
     21858     21861     21864     21866     21858     21861     21864     21867
     21859     21858     21861     21862     21859     21858     21861     21863
     21859     21858     21861     21864     21860     21858     21861     21862
     21860     21858     21861     21863     21860     21858     21861     21864
     21861     21864     21867     21868     21861     21864     21867     21869
     21861     21864     21867     21870     21862     21861     21864     21865
     21862     21861     21864     21866     21862     21861     21864     21867
     21863     21861     21864     21865     21863     21861     21864     21866
     21863     21861     21864     21867     21864     21867     21870     21871
     21864     21867     21870     21872     21864     21867     21870     21873
     21865     21864     21867     21868     21865     21864     21867     21869
     21865     21864     21867     21870     21866     21864     21867     21868
     21866     21864     21867     21869     21866     21864     21867     21870
     21867     21870     21873     21874     21867     21870     21873     21875
     21867     21870     21873     21876     21868     21867     21870     21871
     21868     21867     21870     21872     21868     21867     21870     21873
     21869     21867     21870     21871     21869     21867     21870     21872
     21869     21867     21870     21873     21870     21873     21876     21877
     21870     21873     21876     21878     21870     21873     21876     21879
     21871     21870     21873     21874     21871     21870     21873     21875
     21871     21870     21873     21876     21872     21870     21873     21874
     21872     21870     21873     21875     21872     21870     21873     21876
     21873     21876     21879     21880     21873     21876     21879     21881
     21873     21876     21879     21882     21874     21873     21876     21877
     21874     21873     21876     21878     21874     21873     21876     21879
     21875     21873     21876     21877     21875     21873     21876     21878
     21875     21873     21876     21879     21876     21879     21882     21883
     21876     21879     21882     21884     21876     21879     21882     21885
     21877     21876     21879     21880     21877     21876     21879     21881
     21877     21876     21879     21882     21878     21876     21879     21880
     21878     21876     21879     21881     21878     21876     21879     21882
     21879     21882     21885     21886     21879     21882     21885     21887
     21879     21882     21885     21888     21880     21879     21882     21883
     21880     21879     21882     21884     21880     21879     21882     21885
     21881     21879     21882     21883     21881     21879     21882     21884
     21881     21879     21882     21885     21882     21885     21888     21889
     21882     21885     21888     21890     21882     21885     21888     21891
     21883     21882     21885     21886     21883     21882     21885     21887
     21883     21882     21885     21888     21884     21882     21885     21886
     21884     21882     21885     21887     21884     21882     21885     21888
     21885     21888     21891     21892     21885     21888     21891     21893
     21885     21888     21891     21894     21886     21885     21888     21889
     21886     21885     21888     21890     21886     21885     21888     21891
     21887     21885     21888     21889     21887     21885     21888     21890
     21887     21885     21888     21891     21888     21891     21894     21895
     21888     21891     21894     21896     21888     21891     21894     21897
     21889     21888     21891     21892     21889     21888     21891     21893
     21889     21888     21891     21894     21890     21888     21891     21892
     21890     21888     21891     21893     21890     21888     21891     21894
     21891     21894     21897     21898     21891     21894     21897     21899
     21891     21894     21897     21900     21892     21891     21894     21895
     21892     21891     21894     21896     21892     21891     21894     21897
     21893     21891     21894     21895     21893     21891     21894     21896
     21893     21891     21894     21897     21894     21897     21900     21901
     21894     21897     21900     21902     21894     21897     21900     21903
     21895     21894     21897     21898     21895     21894     21897     21899
     21895     21894     21897     21900     21896     21894     21897     21898
     21896     21894     21897     21899     21896     21894     21897     21900
     21897     21900     21903     21904     21897     21900     21903     21905
     21897     21900     21903     21906     21898     21897     21900     21901
     21898     21897     21900     21902     21898     21897     21900     21903
     21899     21897     21900     21901     21899     21897     21900     21902
     21899     21897     21900     21903     21901     21900     21903     21904
     21901     21900     21903     21905     21901     21900     21903     21906
     21902     21900     21903     21904     21902     21900     21903     21905
     21902     21900     21903     21906      8401      8405      8408      8409
      8401      8405      8408      8439      8401      8447      8444      8439
      8401      8447      8444      8445      8401      8447      8444      8446
      8402      8401      8403      8404      8402      8401      8405      8406
      8402      8401      8405      8407      8402      8401      8405      8408
      8402      8401      8447      8444      8402      8401      8447      8448
      8402      8401      8447      8449      8403      8401      8405      8406
      8403      8401      8405      8407      8403      8401      8405      8408
      8403      8401      8447      8444      8403      8401      8447      8448
      8403      8401      8447      8449      8404      8403      8401      8405
      8404      8403      8401      8447      8405      8401      8447      8444
      8405      8401      8447      8448      8405      8401      8447      8449
      8405      8408      8409      8410      8405      8408      8409      8411
      8405      8408      8439      8437      8405      8408      8439      8440
      8405      8408      8439      8444      8406      8405      8401      8447
      8406      8405      8408      8409      8406      8405      8408      8439
      8407      8405      8401      8447      8407      8405      8408      8409
      8407      8405      8408      8439      8408      8405      8401      8447
      8408      8409      8411      8412      8408      8409      8411      8413
      8408      8409      8411      8414      8408      8439      8437      8414
      8408      8439      8437      8434      8408      8439      8437      8438
      8408      8439      8440      8441      8408      8439      8440      8442
      8408      8439      8440      8443      8408      8439      8444      8445
      8408      8439      8444      8446      8408      8439      8444      8447
      8409      8408      8439      8437      8409      8408      8439      8440
      8409      8408      8439      8444      8409      8411      8414      8415
      8409      8411      8414      8416      8409      8411      8414      8437
      8410      8409      8408      8439      8410      8409      8411      8412
      8410      8409      8411      8413      8410      8409      8411      8414
      8411      8409      8408      8439      8411      8414      8416      8417
      8411      8414      8416      8418      8411      8414      8416      8426
      8411      8414      8437      8434      8411      8414      8437      8438
      8411      8414      8437      8439      8412      8411      8414      8415
      8412      8411      8414      8416      8412      8411      8414      8437
      8413      8411      8414      8415      8413      8411      8414      8416
      8413      8411      8414      8437      8414      8416      8418      8419
      8414      8416      8418      8420      8414      8416      8418      8421
      8414      8416      8426      8424      8414      8416      8426      8427
      8414      8416      8426      8431      8414      8437      8434      8431
      8414      8437      8434      8435      8414      8437      8434      8436
      8414      8437      8439      8440      8414      8437      8439      8444
      8415      8414      8416      8417      8415      8414      8416      8418
      8415      8414      8416      8426      8415      8414      8437      8434
      8415      8414      8437      8438      8415      8414      8437      8439
      8416      8414      8437      8434      8416      8414      8437      8438
      8416      8414      8437      8439      8416      8418      8421      8422
      8416      8418      8421      8423      8416      8418      8421      8424
      8416      8426      8424      8421      8416      8426      8424      8425
      8416      8426      8424      8450      8416      8426      8427      8428
      8416      8426      8427      8429      8416      8426      8427      8430
      8416      8426      8431      8432      8416      8426      8431      8433
      8416      8426      8431      8434      8417      8416      8414      8437
      8417      8416      8418      8419      8417      8416      8418      8420
      8417      8416      8418      8421      8417      8416      8426      8424
      8417      8416      8426      8427      8417      8416      8426      8431
      8418      8416      8414      8437      8418      8416      8426      8424
      8418      8416      8426      8427      8418      8416      8426      8431
      8418      8421      8424      8425      8418      8421      8424      8426
      8418      8421      8424      8450      8419      8418      8416      8426
      8419      8418      8421      8422      8419      8418      8421      8423
      8419      8418      8421      8424      8420      8418      8416      8426
      8420      8418      8421      8422      8420      8418      8421      8423
      8420      8418      8421      8424      8421      8418      8416      8426
      8421      8424      8426      8427      8421      8424      8426      8431
      8421      8424      8450      8451      8421      8424      8450      8452
      8421      8424      8450      8456      8422      8421      8424      8425
      8422      8421      8424      8426      8422      8421      8424      8450
      8423      8421      8424      8425      8423      8421      8424      8426
      8423      8421      8424      8450      8424      8426      8427      8428
      8424      8426      8427      8429      8424      8426      8427      8430
      8424      8426      8431      8432      8424      8426      8431      8433
      8424      8426      8431      8434      8424      8450      8452      8453
      8424      8450      8452      8454      8424      8450      8452      8455
      8424      8450      8456      8457      8424      8450      8456      8458
      8424      8450      8456      8459      8425      8424      8426      8427
      8425      8424      8426      8431      8425      8424      8450      8451
      8425      8424      8450      8452      8425      8424      8450      8456
      8426      8416      8414      8437      8426      8424      8450      8451
      8426      8424      8450      8452      8426      8424      8450      8456
      8426      8431      8434      8435      8426      8431      8434      8436
      8426      8431      8434      8437      8427      8426      8424      8450
      8427      8426      8431      8432      8427      8426      8431      8433
      8427      8426      8431      8434      8428      8427      8426      8431
      8429      8427      8426      8431      8430      8427      8426      8431
      8431      8426      8424      8450      8431      8434      8437      8438
      8431      8434      8437      8439      8432      8431      8434      8435
      8432      8431      8434      8436      8432      8431      8434      8437
      8433      8431      8434      8435      8433      8431      8434      8436
      8433      8431      8434      8437      8434      8437      8439      8440
      8434      8437      8439      8444      8435      8434      8437      8438
      8435      8434      8437      8439      8436      8434      8437      8438
      8436      8434      8437      8439      8437      8439      8440      8441
      8437      8439      8440      8442      8437      8439      8440      8443
      8437      8439      8444      8445      8437      8439      8444      8446
      8437      8439      8444      8447      8438      8437      8439      8440
      8438      8437      8439      8444      8439      8444      8447      8448
      8439      8444      8447      8449      8440      8439      8444      8445
      8440      8439      8444      8446      8440      8439      8444      8447
      8441      8440      8439      8444      8442      8440      8439      8444
      8443      8440      8439      8444      8445      8444      8447      8448
      8445      8444      8447      8449      8446      8444      8447      8448
      8446      8444      8447      8449      8450      8456      8459      8460
      8450      8456      8459      8461      8450      8456      8459      8462
      8451      8450      8452      8453      8451      8450      8452      8454
      8451      8450      8452      8455      8451      8450      8456      8457
      8451      8450      8456      8458      8451      8450      8456      8459
      8452      8450      8456      8457      8452      8450      8456      8458
      8452      8450      8456      8459      8453      8452      8450      8456
      8454      8452      8450      8456      8455      8452      8450      8456
      8456      8459      8462      8463      8456      8459      8462      8464
      8456      8459      8462      8465      8457      8456      8459      8460
      8457      8456      8459      8461      8457      8456      8459      8462
      8458      8456      8459      8460      8458      8456      8459      8461
      8458      8456      8459      8462      8459      8462      8465      8466
      8459      8462      8465      8467      8459      8462      8465      8471
      8460      8459      8462      8463      8460      8459      8462      8464
      8460      8459      8462      8465      8461      8459      8462      8463
      8461      8459      8462      8464      8461      8459      8462      8465
      8462      8465      8467      8468      8462      8465      8467      8469
      8462      8465      8467      8470      8462      8465      8471      8472
      8462      8465      8471      8473      8462      8465      8471      8474
      8463      8462      8465      8466      8463      8462      8465      8467
      8463      8462      8465      8471      8464      8462      8465      8466
      8464      8462      8465      8467      8464      8462      8465      8471
      8466      8465      8467      8468      8466      8465      8467      8469
      8466      8465      8467      8470      8466      8465      8471      8472
      8466      8465      8471      8473      8466      8465      8471      8474
      8467      8465      8471      8472      8467      8465      8471      8473
      8467      8465      8471      8474      8468      8467      8465      8471
      8469      8467      8465      8471      8470      8467      8465      8471
     19017     19021     19024     19025     19017     19021     19024     19026
     19017     19021     19024     19030     19018     19017     19021     19022
     19018     19017     19021     19023     19018     19017     19021     19024
     19019     19017     19021     19022     19019     19017     19021     19023
     19019     19017     19021     19024     19020     19017     19021     19022
     19020     19017     19021     19023     19020     19017     19021     19024
     19021     19024     19030     19027     19022     19021     19024     19025
     19022     19021     19024     19026     19022     19021     19024     19030
     19023     19021     19024     19025     19023     19021     19024     19026
     19023     19021     19024     19030     19024     19030     19027     19028
     19024     19030     19027     19029     19024     19030     19027     19031
     19025     19024     19030     19027     19026     19024     19030     19027
     19027     19031     19032     19033     19027     19031     19032     19034
     19027     19031     19032     19035     19028     19027     19031     19032
     19029     19027     19031     19032     19030     19027     19031     19032
     19031     19032     19035     19036     19031     19032     19035     19037
     19031     19032     19035     19043     19032     19035     19037     19038
     19032     19035     19043     19044     19032     19035     19043     19045
     19032     19035     19043     19046     19033     19032     19035     19036
     19033     19032     19035     19037     19033     19032     19035     19043
     19034     19032     19035     19036     19034     19032     19035     19037
     19034     19032     19035     19043     19035     19037     19038     19039
     19035     19037     19038     19040     19035     19043     19046     19047
     19036     19035     19037     19038     19036     19035     19043     19044
     19036     19035     19043     19045     19036     19035     19043     19046
     19037     19035     19043     19044     19037     19035     19043     19045
     19037     19035     19043     19046     19037     19038     19040     19041
     19037     19038     19040     19042     19037     19038     19040     19052
     19038     19037     19035     19043     19038     19040     19052     19053
     19038     19040     19052     19054     19038     19040     19052     19055
     19039     19038     19040     19041     19039     19038     19040     19042
     19039     19038     19040     19052     19040     19052     19055     19056
     19040     19052     19055     19057     19040     19052     19055     19058
     19041     19040     19052     19053     19041     19040     19052     19054
     19041     19040     19052     19055     19042     19040     19052     19053
     19042     19040     19052     19054     19042     19040     19052     19055
     19043     19046     19047     19048     19043     19046     19047     19049
     19044     19043     19046     19047     19045     19043     19046     19047
     19046     19047     19049     19050     19046     19047     19049     19051
     19046     19047     19049     19099     19047     19049     19099     19100
     19047     19049     19099     19101     19047     19049     19099     19102
     19048     19047     19049     19050     19048     19047     19049     19051
     19048     19047     19049     19099     19049     19099     19102     19103
     19049     19099     19102     19104     19049     19099     19102     19105
     19050     19049     19099     19100     19050     19049     19099     19101
     19050     19049     19099     19102     19051     19049     19099     19100
     19051     19049     19099     19101     19051     19049     19099     19102
     19052     19055     19058     19059     19052     19055     19058     19060
     19052     19055     19058     19061     19053     19052     19055     19056
     19053     19052     19055     19057     19053     19052     19055     19058
     19054     19052     19055     19056     19054     19052     19055     19057
     19054     19052     19055     19058     19055     19058     19061     19062
     19055     19058     19061     19063     19055     19058     19061     19064
     19056     19055     19058     19059     19056     19055     19058     19060
     19056     19055     19058     19061     19057     19055     19058     19059
     19057     19055     19058     19060     19057     19055     19058     19061
     19058     19061     19064     19065     19058     19061     19064     19066
     19058     19061     19064     19067     19059     19058     19061     19062
     19059     19058     19061     19063     19059     19058     19061     19064
     19060     19058     19061     19062     19060     19058     19061     19063
     19060     19058     19061     19064     19061     19064     19067     19068
     19061     19064     19067     19069     19061     19064     19067     19070
     19062     19061     19064     19065     19062     19061     19064     19066
     19062     19061     19064     19067     19063     19061     19064     19065
     19063     19061     19064     19066     19063     19061     19064     19067
     19064     19067     19070     19071     19064     19067     19070     19072
     19065     19064     19067     19068     19065     19064     19067     19069
     19065     19064     19067     19070     19066     19064     19067     19068
     19066     19064     19067     19069     19066     19064     19067     19070
     19067     19070     19072     19073     19067     19070     19072     19074
     19068     19067     19070     19071     19068     19067     19070     19072
     19069     19067     19070     19071     19069     19067     19070     19072
     19070     19072     19074     19075     19070     19072     19074     19076
     19070     19072     19074     19077     19071     19070     19072     19073
     19071     19070     19072     19074     19072     19074     19077     19078
     19072     19074     19077     19079     19072     19074     19077     19080
     19073     19072     19074     19075     19073     19072     19074     19076
     19073     19072     19074     19077     19074     19077     19080     19081
     19074     19077     19080     19082     19074     19077     19080     19083
     19075     19074     19077     19078     19075     19074     19077     19079
     19075     19074     19077     19080     19076     19074     19077     19078
     19076     19074     19077     19079     19076     19074     19077     19080
     19077     19080     19083     19084     19077     19080     19083     19085
     19077     19080     19083     19086     19078     19077     19080     19081
     19078     19077     19080     19082     19078     19077     19080     19083
     19079     19077     19080     19081     19079     19077     19080     19082
     19079     19077     19080     19083     19080     19083     19086     19087
     19080     19083     19086     19088     19080     19083     19086     19089
     19081     19080     19083     19084     19081     19080     19083     19085
     19081     19080     19083     19086     19082     19080     19083     19084
     19082     19080     19083     19085     19082     19080     19083     19086
     19083     19086     19089     19090     19083     19086     19089     19091
     19083     19086     19089     19092     19084     19083     19086     19087
     19084     19083     19086     19088     19084     19083     19086     19089
     19085     19083     19086     19087     19085     19083     19086     19088
     19085     19083     19086     19089     19086     19089     19092     19093
     19086     19089     19092     19094     19086     19089     19092     19095
     19087     19086     19089     19090     19087     19086     19089     19091
     19087     19086     19089     19092     19088     19086     19089     19090
     19088     19086     19089     19091     19088     19086     19089     19092
     19089     19092     19095     19096     19089     19092     19095     19097
     19089     19092     19095     19098     19090     19089     19092     19093
     19090     19089     19092     19094     19090     19089     19092     19095
     19091     19089     19092     19093     19091     19089     19092     19094
     19091     19089     19092     19095     19093     19092     19095     19096
     19093     19092     19095     19097     19093     19092     19095     19098
     19094     19092     19095     19096     19094     19092     19095     19097
     19094     19092     19095     19098     19099     19102     19105     19106
     19099     19102     19105     19107     19099     19102     19105     19108
     19100     19099     19102     19103     19100     19099     19102     19104
     19100     19099     19102     19105     19101     19099     19102     19103
     19101     19099     19102     19104     19101     19099     19102     19105
     19102     19105     19108     19109     19102     19105     19108     19110
     19102     19105     19108     19111     19103     19102     19105     19106
     19103     19102     19105     19107     19103     19102     19105     19108
     19104     19102     19105     19106     19104     19102     19105     19107
     19104     19102     19105     19108     19105     19108     19111     19112
     19105     19108     19111     19113     19105     19108     19111     19114
     19106     19105     19108     19109     19106     19105     19108     19110
     19106     19105     19108     19111     19107     19105     19108     19109
     19107     19105     19108     19110     19107     19105     19108     19111
     19108     19111     19114     19115     19108     19111     19114     19116
     19108     19111     19114     19117     19109     19108     19111     19112
     19109     19108     19111     19113     19109     19108     19111     19114
     19110     19108     19111     19112     19110     19108     19111     19113
     19110     19108     19111     19114     19111     19114     19117     19118
     19111     19114     19117     19119     19111     19114     19117     19120
     19112     19111     19114     19115     19112     19111     19114     19116
     19112     19111     19114     19117     19113     19111     19114     19115
     19113     19111     19114     19116     19113     19111     19114     19117
     19114     19117     19120     19121     19114     19117     19120     19122
     19114     19117     19120     19123     19115     19114     19117     19118
     19115     19114     19117     19119     19115     19114     19117     19120
     19116     19114     19117     19118     19116     19114     19117     19119
     19116     19114     19117     19120     19117     19120     19123     19124
     19117     19120     19123     19125     19117     19120     19123     19126
     19118     19117     19120     19121     19118     19117     19120     19122
     19118     19117     19120     19123     19119     19117     19120     19121
     19119     19117     19120     19122     19119     19117     19120     19123
     19120     19123     19126     19127     19120     19123     19126     19128
     19120     19123     19126     19129     19121     19120     19123     19124
     19121     19120     19123     19125     19121     19120     19123     19126
     19122     19120     19123     19124     19122     19120     19123     19125
     19122     19120     19123     19126     19123     19126     19129     19130
     19123     19126     19129     19131     19123     19126     19129     19132
     19124     19123     19126     19127     19124     19123     19126     19128
     19124     19123     19126     19129     19125     19123     19126     19127
     19125     19123     19126     19128     19125     19123     19126     19129
     19126     19129     19132     19133     19126     19129     19132     19134
     19126     19129     19132     19135     19127     19126     19129     19130
     19127     19126     19129     19131     19127     19126     19129     19132
     19128     19126     19129     19130     19128     19126     19129     19131
     19128     19126     19129     19132     19129     19132     19135     19136
     19129     19132     19135     19137     19129     19132     19135     19138
     19130     19129     19132     19133     19130     19129     19132     19134
     19130     19129     19132     19135     19131     19129     19132     19133
     19131     19129     19132     19134     19131     19129     19132     19135
     19132     19135     19138     19139     19132     19135     19138     19140
     19132     19135     19138     19141     19133     19132     19135     19136
     19133     19132     19135     19137     19133     19132     19135     19138
     19134     19132     19135     19136     19134     19132     19135     19137
     19134     19132     19135     19138     19135     19138     19141     19142
     19135     19138     19141     19143     19135     19138     19141     19144
     19136     19135     19138     19139     19136     19135     19138     19140
     19136     19135     19138     19141     19137     19135     19138     19139
     19137     19135     19138     19140     19137     19135     19138     19141
     19138     19141     19144     19145     19138     19141     19144     19146
     19138     19141     19144     19147     19139     19138     19141     19142
     19139     19138     19141     19143     19139     19138     19141     19144
     19140     19138     19141     19142     19140     19138     19141     19143
     19140     19138     19141     19144     19142     19141     19144     19145
     19142     19141     19144     19146     19142     19141     19144     19147
     19143     19141     19144     19145     19143     19141     19144     19146
     19143     19141     19144     19147     13384     13397     13400     13401
     13384     13397     13400     13402     13384     13397     13400     13407
     13385     13384     13389     13390     13385     13384     13389     13391
     13385     13384     13389     13392     13385     13384     13393     13394
     13385     13384     13393     13395     13385     13384     13393     13396
     13385     13384     13397     13398     13385     13384     13397     13399
     13385     13384     13397     13400     13386     13385     13384     13389
     13386     13385     13384     13393     13386     13385     13384     13397
     13387     13385     13384     13389     13387     13385     13384     13393
     13387     13385     13384     13397     13388     13385     13384     13389
     13388     13385     13384     13393     13388     13385     13384     13397
     13389     13384     13393     13394     13389     13384     13393     13395
     13389     13384     13393     13396     13389     13384     13397     13398
     13389     13384     13397     13399     13389     13384     13397     13400
     13390     13389     13384     13393     13390     13389     13384     13397
     13391     13389     13384     13393     13391     13389     13384     13397
     13392     13389     13384     13393     13392     13389     13384     13397
     13393     13384     13397     13398     13393     13384     13397     13399
     13393     13384     13397     13400     13394     13393     13384     13397
     13395     13393     13384     13397     13396     13393     13384     13397
     13397     13400     13407     13403     13398     13397     13400     13401
     13398     13397     13400     13402     13398     13397     13400     13407
     13399     13397     13400     13401     13399     13397     13400     13402
     13399     13397     13400     13407     13400     13407     13403     13404
     13400     13407     13403     13405     13400     13407     13403     13406
     13401     13400     13407     13403     13402     13400     13407     13403
     13403     13406     13408     13409     13403     13406     13408     13410
     13403     13406     13408     13413     13404     13403     13406     13408
     13405     13403     13406     13408     13406     13408     13413     13411
     13406     13408     13413     13414     13406     13408     13413     13415
     13407     13403     13406     13408     13408     13413     13411     13412
     13408     13413     13411     13463     13408     13413     13415     13416
     13408     13413     13415     13417     13408     13413     13415     13419
     13409     13408     13413     13411     13409     13408     13413     13414
     13409     13408     13413     13415     13410     13408     13413     13411
     13410     13408     13413     13414     13410     13408     13413     13415
     13411     13413     13415     13416     13411     13413     13415     13417
     13411     13413     13415     13419     13411     13463     13465     13466
     13411     13463     13465     13467     13411     13463     13465     13468
     13412     13411     13413     13414     13412     13411     13413     13415
     13412     13411     13463     13464     13412     13411     13463     13465
     13413     13411     13463     13464     13413     13411     13463     13465
     13413     13415     13417     13418     13413     13415     13419     13420
     13413     13415     13419     13421     13414     13413     13411     13463
     13414     13413     13415     13416     13414     13413     13415     13417
     13414     13413     13415     13419     13415     13413     13411     13463
     13415     13419     13421     13422     13415     13419     13421     13423
     13416     13415     13417     13418     13416     13415     13419     13420
     13416     13415     13419     13421     13417     13415     13419     13420
     13417     13415     13419     13421     13418     13417     13415     13419
     13419     13421     13423     13424     13419     13421     13423     13425
     13419     13421     13423     13426     13420     13419     13421     13422
     13420     13419     13421     13423     13421     13423     13426     13427
     13421     13423     13426     13428     13421     13423     13426     13429
     13422     13421     13423     13424     13422     13421     13423     13425
     13422     13421     13423     13426     13423     13426     13429     13430
     13423     13426     13429     13431     13423     13426     13429     13432
     13424     13423     13426     13427     13424     13423     13426     13428
     13424     13423     13426     13429     13425     13423     13426     13427
     13425     13423     13426     13428     13425     13423     13426     13429
     13426     13429     13432     13433     13426     13429     13432     13434
     13426     13429     13432     13435     13427     13426     13429     13430
     13427     13426     13429     13431     13427     13426     13429     13432
     13428     13426     13429     13430     13428     13426     13429     13431
     13428     13426     13429     13432     13429     13432     13435     13436
     13429     13432     13435     13437     13429     13432     13435     13438
     13430     13429     13432     13433     13430     13429     13432     13434
     13430     13429     13432     13435     13431     13429     13432     13433
     13431     13429     13432     13434     13431     13429     13432     13435
     13432     13435     13438     13439     13432     13435     13438     13440
     13432     13435     13438     13441     13433     13432     13435     13436
     13433     13432     13435     13437     13433     13432     13435     13438
     13434     13432     13435     13436     13434     13432     13435     13437
     13434     13432     13435     13438     13435     13438     13441     13442
     13435     13438     13441     13443     13435     13438     13441     13444
     13436     13435     13438     13439     13436     13435     13438     13440
     13436     13435     13438     13441     13437     13435     13438     13439
     13437     13435     13438     13440     13437     13435     13438     13441
     13438     13441     13444     13445     13438     13441     13444     13446
     13438     13441     13444     13447     13439     13438     13441     13442
     13439     13438     13441     13443     13439     13438     13441     13444
     13440     13438     13441     13442     13440     13438     13441     13443
     13440     13438     13441     13444     13441     13444     13447     13448
     13441     13444     13447     13449     13441     13444     13447     13450
     13442     13441     13444     13445     13442     13441     13444     13446
     13442     13441     13444     13447     13443     13441     13444     13445
     13443     13441     13444     13446     13443     13441     13444     13447
     13444     13447     13450     13451     13444     13447     13450     13452
     13444     13447     13450     13453     13445     13444     13447     13448
     13445     13444     13447     13449     13445     13444     13447     13450
     13446     13444     13447     13448     13446     13444     13447     13449
     13446     13444     13447     13450     13447     13450     13453     13454
     13447     13450     13453     13455     13447     13450     13453     13456
     13448     13447     13450     13451     13448     13447     13450     13452
     13448     13447     13450     13453     13449     13447     13450     13451
     13449     13447     13450     13452     13449     13447     13450     13453
     13450     13453     13456     13457     13450     13453     13456     13458
     13450     13453     13456     13459     13451     13450     13453     13454
     13451     13450     13453     13455     13451     13450     13453     13456
     13452     13450     13453     13454     13452     13450     13453     13455
     13452     13450     13453     13456     13453     13456     13459     13460
     13453     13456     13459     13461     13453     13456     13459     13462
     13454     13453     13456     13457     13454     13453     13456     13458
     13454     13453     13456     13459     13455     13453     13456     13457
     13455     13453     13456     13458     13455     13453     13456     13459
     13457     13456     13459     13460     13457     13456     13459     13461
     13457     13456     13459     13462     13458     13456     13459     13460
     13458     13456     13459     13461     13458     13456     13459     13462
     13463     13465     13468     13469     13463     13465     13468     13470
     13463     13465     13468     13471     13464     13463     13465     13466
     13464     13463     13465     13467     13464     13463     13465     13468
     13465     13468     13471     13472     13465     13468     13471     13473
     13465     13468     13471     13474     13466     13465     13468     13469
     13466     13465     13468     13470     13466     13465     13468     13471
     13467     13465     13468     13469     13467     13465     13468     13470
     13467     13465     13468     13471     13468     13471     13474     13475
     13468     13471     13474     13476     13468     13471     13474     13477
     13469     13468     13471     13472     13469     13468     13471     13473
     13469     13468     13471     13474     13470     13468     13471     13472
     13470     13468     13471     13473     13470     13468     13471     13474
     13471     13474     13477     13478     13471     13474     13477     13479
     13471     13474     13477     13480     13472     13471     13474     13475
     13472     13471     13474     13476     13472     13471     13474     13477
     13473     13471     13474     13475     13473     13471     13474     13476
     13473     13471     13474     13477     13474     13477     13480     13481
     13474     13477     13480     13482     13474     13477     13480     13483
     13475     13474     13477     13478     13475     13474     13477     13479
     13475     13474     13477     13480     13476     13474     13477     13478
     13476     13474     13477     13479     13476     13474     13477     13480
     13477     13480     13483     13484     13477     13480     13483     13485
     13477     13480     13483     13486     13478     13477     13480     13481
     13478     13477     13480     13482     13478     13477     13480     13483
     13479     13477     13480     13481     13479     13477     13480     13482
     13479     13477     13480     13483     13480     13483     13486     13487
     13480     13483     13486     13488     13481     13480     13483     13484
     13481     13480     13483     13485     13481     13480     13483     13486
     13482     13480     13483     13484     13482     13480     13483     13485
     13482     13480     13483     13486     13483     13486     13488     13489
     13483     13486     13488     13490     13484     13483     13486     13487
     13484     13483     13486     13488     13485     13483     13486     13487
     13485     13483     13486     13488     13486     13488     13490     13491
     13486     13488     13490     13492     13486     13488     13490     13493
     13487     13486     13488     13489     13487     13486     13488     13490
     13488     13490     13493     13494     13488     13490     13493     13495
     13488     13490     13493     13496     13489     13488     13490     13491
     13489     13488     13490     13492     13489     13488     13490     13493
     13490     13493     13496     13497     13490     13493     13496     13498
     13490     13493     13496     13499     13491     13490     13493     13494
     13491     13490     13493     13495     13491     13490     13493     13496
     13492     13490     13493     13494     13492     13490     13493     13495
     13492     13490     13493     13496     13493     13496     13499     13500
     13493     13496     13499     13501     13493     13496     13499     13502
     13494     13493     13496     13497     13494     13493     13496     13498
     13494     13493     13496     13499     13495     13493     13496     13497
     13495     13493     13496     13498     13495     13493     13496     13499
     13496     13499     13502     13503     13496     13499     13502     13504
     13496     13499     13502     13505     13497     13496     13499     13500
     13497     13496     13499     13501     13497     13496     13499     13502
     13498     13496     13499     13500     13498     13496     13499     13501
     13498     13496     13499     13502     13499     13502     13505     13506
     13499     13502     13505     13507     13499     13502     13505     13508
     13500     13499     13502     13503     13500     13499     13502     13504
     13500     13499     13502     13505     13501     13499     13502     13503
     13501     13499     13502     13504     13501     13499     13502     13505
     13502     13505     13508     13509     13502     13505     13508     13510
     13502     13505     13508     13511     13503     13502     13505     13506
     13503     13502     13505     13507     13503     13502     13505     13508
     13504     13502     13505     13506     13504     13502     13505     13507
     13504     13502     13505     13508     13505     13508     13511     13512
     13505     13508     13511     13513     13505     13508     13511     13514
     13506     13505     13508     13509     13506     13505     13508     13510
     13506     13505     13508     13511     13507     13505     13508     13509
     13507     13505     13508     13510     13507     13505     13508     13511
     13509     13508     13511     13512     13509     13508     13511     13513
     13509     13508     13511     13514     13510     13508     13511     13512
     13510     13508     13511     13513     13510     13508     13511     13514
     17052     17056     17059     17060     17052     17056     17059     17061
     17052     17056     17059     17065     17053     17052     17056     17057
     17053     17052     17056     17058     17053     17052     17056     17059
     17054     17052     17056     17057     17054     17052     17056     17058
     17054     17052     17056     17059     17055     17052     17056     17057
     17055     17052     17056     17058     17055     17052     17056     17059
     17056     17059     17065     17062     17057     17056     17059     17060
     17057     17056     17059     17061     17057     17056     17059     17065
     17058     17056     17059     17060     17058     17056     17059     17061
     17058     17056     17059     17065     17059     17065     17062     17063
     17059     17065     17062     17064     17059     17065     17062     17066
     17060     17059     17065     17062     17061     17059     17065     17062
     17062     17066     17067     17068     17062     17066     17067     17069
     17062     17066     17067     17070     17063     17062     17066     17067
     17064     17062     17066     17067     17065     17062     17066     17067
     17066     17067     17070     17071     17066     17067     17070     17072
     17066     17067     17070     17078     17067     17070     17072     17073
     17067     17070     17078     17079     17067     17070     17078     17080
     17067     17070     17078     17081     17068     17067     17070     17071
     17068     17067     17070     17072     17068     17067     17070     17078
     17069     17067     17070     17071     17069     17067     17070     17072
     17069     17067     17070     17078     17070     17072     17073     17074
     17070     17072     17073     17075     17070     17078     17081     17082
     17071     17070     17072     17073     17071     17070     17078     17079
     17071     17070     17078     17080     17071     17070     17078     17081
     17072     17070     17078     17079     17072     17070     17078     17080
     17072     17070     17078     17081     17072     17073     17075     17076
     17072     17073     17075     17077     17072     17073     17075     17087
     17073     17072     17070     17078     17073     17075     17087     17088
     17073     17075     17087     17089     17073     17075     17087     17090
     17074     17073     17075     17076     17074     17073     17075     17077
     17074     17073     17075     17087     17075     17087     17090     17091
     17075     17087     17090     17092     17075     17087     17090     17093
     17076     17075     17087     17088     17076     17075     17087     17089
     17076     17075     17087     17090     17077     17075     17087     17088
     17077     17075     17087     17089     17077     17075     17087     17090
     17078     17081     17082     17083     17078     17081     17082     17084
     17079     17078     17081     17082     17080     17078     17081     17082
     17081     17082     17084     17085     17081     17082     17084     17086
     17081     17082     17084     17134     17082     17084     17134     17135
     17082     17084     17134     17136     17082     17084     17134     17137
     17083     17082     17084     17085     17083     17082     17084     17086
     17083     17082     17084     17134     17084     17134     17137     17138
     17084     17134     17137     17139     17084     17134     17137     17140
     17085     17084     17134     17135     17085     17084     17134     17136
     17085     17084     17134     17137     17086     17084     17134     17135
     17086     17084     17134     17136     17086     17084     17134     17137
     17087     17090     17093     17094     17087     17090     17093     17095
     17088     17087     17090     17091     17088     17087     17090     17092
     17088     17087     17090     17093     17089     17087     17090     17091
     17089     17087     17090     17092     17089     17087     17090     17093
     17090     17093     17095     17096     17090     17093     17095     17097
     17091     17090     17093     17094     17091     17090     17093     17095
     17092     17090     17093     17094     17092     17090     17093     17095
     17093     17095     17097     17098     17093     17095     17097     17099
     17093     17095     17097     17100     17094     17093     17095     17096
     17094     17093     17095     17097     17095     17097     17100     17101
     17095     17097     17100     17102     17096     17095     17097     17098
     17096     17095     17097     17099     17096     17095     17097     17100
     17097     17100     17102     17103     17097     17100     17102     17104
     17098     17097     17100     17101     17098     17097     17100     17102
     17099     17097     17100     17101     17099     17097     17100     17102
     17100     17102     17104     17105     17100     17102     17104     17106
     17100     17102     17104     17107     17101     17100     17102     17103
     17101     17100     17102     17104     17102     17104     17107     17108
     17102     17104     17107     17109     17103     17102     17104     17105
     17103     17102     17104     17106     17103     17102     17104     17107
     17104     17107     17109     17110     17104     17107     17109     17111
     17105     17104     17107     17108     17105     17104     17107     17109
     17106     17104     17107     17108     17106     17104     17107     17109
     17107     17109     17111     17112     17107     17109     17111     17113
     17107     17109     17111     17114     17108     17107     17109     17110
     17108     17107     17109     17111     17109     17111     17114     17115
     17109     17111     17114     17116     17110     17109     17111     17112
     17110     17109     17111     17113     17110     17109     17111     17114
     17111     17114     17116     17117     17111     17114     17116     17118
     17112     17111     17114     17115     17112     17111     17114     17116
     17113     17111     17114     17115     17113     17111     17114     17116
     17114     17116     17118     17119     17114     17116     17118     17120
     17114     17116     17118     17121     17115     17114     17116     17117
     17115     17114     17116     17118     17116     17118     17121     17122
     17116     17118     17121     17123     17116     17118     17121     17124
     17117     17116     17118     17119     17117     17116     17118     17120
     17117     17116     17118     17121     17118     17121     17124     17125
     17118     17121     17124     17126     17118     17121     17124     17127
     17119     17118     17121     17122     17119     17118     17121     17123
     17119     17118     17121     17124     17120     17118     17121     17122
     17120     17118     17121     17123     17120     17118     17121     17124
     17121     17124     17127     17128     17121     17124     17127     17129
     17121     17124     17127     17130     17122     17121     17124     17125
     17122     17121     17124     17126     17122     17121     17124     17127
     17123     17121     17124     17125     17123     17121     17124     17126
     17123     17121     17124     17127     17124     17127     17130     17131
     17124     17127     17130     17132     17124     17127     17130     17133
     17125     17124     17127     17128     17125     17124     17127     17129
     17125     17124     17127     17130     17126     17124     17127     17128
     17126     17124     17127     17129     17126     17124     17127     17130
     17128     17127     17130     17131     17128     17127     17130     17132
     17128     17127     17130     17133     17129     17127     17130     17131
     17129     17127     17130     17132     17129     17127     17130     17133
     17134     17137     17140     17141     17134     17137     17140     17142
     17134     17137     17140     17143     17135     17134     17137     17138
     17135     17134     17137     17139     17135     17134     17137     17140
     17136     17134     17137     17138     17136     17134     17137     17139
     17136     17134     17137     17140     17137     17140     17143     17144
     17137     17140     17143     17145     17137     17140     17143     17146
     17138     17137     17140     17141     17138     17137     17140     17142
     17138     17137     17140     17143     17139     17137     17140     17141
     17139     17137     17140     17142     17139     17137     17140     17143
     17140     17143     17146     17147     17140     17143     17146     17148
     17140     17143     17146     17149     17141     17140     17143     17144
     17141     17140     17143     17145     17141     17140     17143     17146
     17142     17140     17143     17144     17142     17140     17143     17145
     17142     17140     17143     17146     17143     17146     17149     17150
     17143     17146     17149     17151     17143     17146     17149     17152
     17144     17143     17146     17147     17144     17143     17146     17148
     17144     17143     17146     17149     17145     17143     17146     17147
     17145     17143     17146     17148     17145     17143     17146     17149
     17146     17149     17152     17153     17146     17149     17152     17154
     17146     17149     17152     17155     17147     17146     17149     17150
     17147     17146     17149     17151     17147     17146     17149     17152
     17148     17146     17149     17150     17148     17146     17149     17151
     17148     17146     17149     17152     17149     17152     17155     17156
     17149     17152     17155     17157     17149     17152     17155     17158
     17150     17149     17152     17153     17150     17149     17152     17154
     17150     17149     17152     17155     17151     17149     17152     17153
     17151     17149     17152     17154     17151     17149     17152     17155
     17152     17155     17158     17159     17152     17155     17158     17160
     17152     17155     17158     17161     17153     17152     17155     17156
     17153     17152     17155     17157     17153     17152     17155     17158
     17154     17152     17155     17156     17154     17152     17155     17157
     17154     17152     17155     17158     17155     17158     17161     17162
     17155     17158     17161     17163     17155     17158     17161     17164
     17156     17155     17158     17159     17156     17155     17158     17160
     17156     17155     17158     17161     17157     17155     17158     17159
     17157     17155     17158     17160     17157     17155     17158     17161
     17158     17161     17164     17165     17158     17161     17164     17166
     17158     17161     17164     17167     17159     17158     17161     17162
     17159     17158     17161     17163     17159     17158     17161     17164
     17160     17158     17161     17162     17160     17158     17161     17163
     17160     17158     17161     17164     17161     17164     17167     17168
     17161     17164     17167     17169     17161     17164     17167     17170
     17162     17161     17164     17165     17162     17161     17164     17166
     17162     17161     17164     17167     17163     17161     17164     17165
     17163     17161     17164     17166     17163     17161     17164     17167
     17164     17167     17170     17171     17164     17167     17170     17172
     17164     17167     17170     17173     17165     17164     17167     17168
     17165     17164     17167     17169     17165     17164     17167     17170
     17166     17164     17167     17168     17166     17164     17167     17169
     17166     17164     17167     17170     17167     17170     17173     17174
     17167     17170     17173     17175     17167     17170     17173     17176
     17168     17167     17170     17171     17168     17167     17170     17172
     17168     17167     17170     17173     17169     17167     17170     17171
     17169     17167     17170     17172     17169     17167     17170     17173
     17170     17173     17176     17177     17170     17173     17176     17178
     17170     17173     17176     17179     17171     17170     17173     17174
     17171     17170     17173     17175     17171     17170     17173     17176
     17172     17170     17173     17174     17172     17170     17173     17175
     17172     17170     17173     17176     17173     17176     17179     17180
     17173     17176     17179     17181     17173     17176     17179     17182
     17174     17173     17176     17177     17174     17173     17176     17178
     17174     17173     17176     17179     17175     17173     17176     17177
     17175     17173     17176     17178     17175     17173     17176     17179
     17177     17176     17179     17180     17177     17176     17179     17181
     17177     17176     17179     17182     17178     17176     17179     17180
     17178     17176     17179     17181     17178     17176     17179     17182
     17183     17187     17190     17191     17183     17187     17190     17192
     17183     17187     17190     17196     17184     17183     17187     17188
     17184     17183     17187     17189     17184     17183     17187     17190
     17185     17183     17187     17188     17185     17183     17187     17189
     17185     17183     17187     17190     17186     17183     17187     17188
     17186     17183     17187     17189     17186     17183     17187     17190
     17187     17190     17196     17193     17188     17187     17190     17191
     17188     17187     17190     17192     17188     17187     17190     17196
     17189     17187     17190     17191     17189     17187     17190     17192
     17189     17187     17190     17196     17190     17196     17193     17194
     17190     17196     17193     17195     17190     17196     17193     17197
     17191     17190     17196     17193     17192     17190     17196     17193
     17193     17197     17198     17199     17193     17197     17198     17200
     17193     17197     17198     17201     17194     17193     17197     17198
     17195     17193     17197     17198     17196     17193     17197     17198
     17197     17198     17201     17202     17197     17198     17201     17203
     17197     17198     17201     17209     17198     17201     17203     17204
     17198     17201     17209     17210     17198     17201     17209     17211
     17198     17201     17209     17212     17199     17198     17201     17202
     17199     17198     17201     17203     17199     17198     17201     17209
     17200     17198     17201     17202     17200     17198     17201     17203
     17200     17198     17201     17209     17201     17203     17204     17205
     17201     17203     17204     17206     17201     17209     17212     17213
     17202     17201     17203     17204     17202     17201     17209     17210
     17202     17201     17209     17211     17202     17201     17209     17212
     17203     17201     17209     17210     17203     17201     17209     17211
     17203     17201     17209     17212     17203     17204     17206     17207
     17203     17204     17206     17208     17203     17204     17206     17218
     17204     17203     17201     17209     17204     17206     17218     17219
     17204     17206     17218     17220     17204     17206     17218     17221
     17205     17204     17206     17207     17205     17204     17206     17208
     17205     17204     17206     17218     17206     17218     17221     17222
     17206     17218     17221     17223     17206     17218     17221     17224
     17207     17206     17218     17219     17207     17206     17218     17220
     17207     17206     17218     17221     17208     17206     17218     17219
     17208     17206     17218     17220     17208     17206     17218     17221
     17209     17212     17213     17214     17209     17212     17213     17215
     17210     17209     17212     17213     17211     17209     17212     17213
     17212     17213     17215     17216     17212     17213     17215     17217
     17212     17213     17215     17265     17213     17215     17265     17266
     17213     17215     17265     17267     17213     17215     17265     17268
     17214     17213     17215     17216     17214     17213     17215     17217
     17214     17213     17215     17265     17215     17265     17268     17269
     17215     17265     17268     17270     17215     17265     17268     17271
     17216     17215     17265     17266     17216     17215     17265     17267
     17216     17215     17265     17268     17217     17215     17265     17266
     17217     17215     17265     17267     17217     17215     17265     17268
     17218     17221     17224     17225     17218     17221     17224     17226
     17219     17218     17221     17222     17219     17218     17221     17223
     17219     17218     17221     17224     17220     17218     17221     17222
     17220     17218     17221     17223     17220     17218     17221     17224
     17221     17224     17226     17227     17221     17224     17226     17228
     17222     17221     17224     17225     17222     17221     17224     17226
     17223     17221     17224     17225     17223     17221     17224     17226
     17224     17226     17228     17229     17224     17226     17228     17230
     17224     17226     17228     17231     17225     17224     17226     17227
     17225     17224     17226     17228     17226     17228     17231     17232
     17226     17228     17231     17233     17227     17226     17228     17229
     17227     17226     17228     17230     17227     17226     17228     17231
     17228     17231     17233     17234     17228     17231     17233     17235
     17229     17228     17231     17232     17229     17228     17231     17233
     17230     17228     17231     17232     17230     17228     17231     17233
     17231     17233     17235     17236     17231     17233     17235     17237
     17231     17233     17235     17238     17232     17231     17233     17234
     17232     17231     17233     17235     17233     17235     17238     17239
     17233     17235     17238     17240     17234     17233     17235     17236
     17234     17233     17235     17237     17234     17233     17235     17238
     17235     17238     17240     17241     17235     17238     17240     17242
     17236     17235     17238     17239     17236     17235     17238     17240
     17237     17235     17238     17239     17237     17235     17238     17240
     17238     17240     17242     17243     17238     17240     17242     17244
     17238     17240     17242     17245     17239     17238     17240     17241
     17239     17238     17240     17242     17240     17242     17245     17246
     17240     17242     17245     17247     17241     17240     17242     17243
     17241     17240     17242     17244     17241     17240     17242     17245
     17242     17245     17247     17248     17242     17245     17247     17249
     17243     17242     17245     17246     17243     17242     17245     17247
     17244     17242     17245     17246     17244     17242     17245     17247
     17245     17247     17249     17250     17245     17247     17249     17251
     17245     17247     17249     17252     17246     17245     17247     17248
     17246     17245     17247     17249     17247     17249     17252     17253
     17247     17249     17252     17254     17247     17249     17252     17255
     17248     17247     17249     17250     17248     17247     17249     17251
     17248     17247     17249     17252     17249     17252     17255     17256
     17249     17252     17255     17257     17249     17252     17255     17258
     17250     17249     17252     17253     17250     17249     17252     17254
     17250     17249     17252     17255     17251     17249     17252     17253
     17251     17249     17252     17254     17251     17249     17252     17255
     17252     17255     17258     17259     17252     17255     17258     17260
     17252     17255     17258     17261     17253     17252     17255     17256
     17253     17252     17255     17257     17253     17252     17255     17258
     17254     17252     17255     17256     17254     17252     17255     17257
     17254     17252     17255     17258     17255     17258     17261     17262
     17255     17258     17261     17263     17255     17258     17261     17264
     17256     17255     17258     17259     17256     17255     17258     17260
     17256     17255     17258     17261     17257     17255     17258     17259
     17257     17255     17258     17260     17257     17255     17258     17261
     17259     17258     17261     17262     17259     17258     17261     17263
     17259     17258     17261     17264     17260     17258     17261     17262
     17260     17258     17261     17263     17260     17258     17261     17264
     17265     17268     17271     17272     17265     17268     17271     17273
     17265     17268     17271     17274     17266     17265     17268     17269
     17266     17265     17268     17270     17266     17265     17268     17271
     17267     17265     17268     17269     17267     17265     17268     17270
     17267     17265     17268     17271     17268     17271     17274     17275
     17268     17271     17274     17276     17268     17271     17274     17277
     17269     17268     17271     17272     17269     17268     17271     17273
     17269     17268     17271     17274     17270     17268     17271     17272
     17270     17268     17271     17273     17270     17268     17271     17274
     17271     17274     17277     17278     17271     17274     17277     17279
     17271     17274     17277     17280     17272     17271     17274     17275
     17272     17271     17274     17276     17272     17271     17274     17277
     17273     17271     17274     17275     17273     17271     17274     17276
     17273     17271     17274     17277     17274     17277     17280     17281
     17274     17277     17280     17282     17274     17277     17280     17283
     17275     17274     17277     17278     17275     17274     17277     17279
     17275     17274     17277     17280     17276     17274     17277     17278
     17276     17274     17277     17279     17276     17274     17277     17280
     17277     17280     17283     17284     17277     17280     17283     17285
     17277     17280     17283     17286     17278     17277     17280     17281
     17278     17277     17280     17282     17278     17277     17280     17283
     17279     17277     17280     17281     17279     17277     17280     17282
     17279     17277     17280     17283     17280     17283     17286     17287
     17280     17283     17286     17288     17280     17283     17286     17289
     17281     17280     17283     17284     17281     17280     17283     17285
     17281     17280     17283     17286     17282     17280     17283     17284
     17282     17280     17283     17285     17282     17280     17283     17286
     17283     17286     17289     17290     17283     17286     17289     17291
     17283     17286     17289     17292     17284     17283     17286     17287
     17284     17283     17286     17288     17284     17283     17286     17289
     17285     17283     17286     17287     17285     17283     17286     17288
     17285     17283     17286     17289     17286     17289     17292     17293
     17286     17289     17292     17294     17286     17289     17292     17295
     17287     17286     17289     17290     17287     17286     17289     17291
     17287     17286     17289     17292     17288     17286     17289     17290
     17288     17286     17289     17291     17288     17286     17289     17292
     17289     17292     17295     17296     17289     17292     17295     17297
     17289     17292     17295     17298     17290     17289     17292     17293
     17290     17289     17292     17294     17290     17289     17292     17295
     17291     17289     17292     17293     17291     17289     17292     17294
     17291     17289     17292     17295     17292     17295     17298     17299
     17292     17295     17298     17300     17292     17295     17298     17301
     17293     17292     17295     17296     17293     17292     17295     17297
     17293     17292     17295     17298     17294     17292     17295     17296
     17294     17292     17295     17297     17294     17292     17295     17298
     17295     17298     17301     17302     17295     17298     17301     17303
     17295     17298     17301     17304     17296     17295     17298     17299
     17296     17295     17298     17300     17296     17295     17298     17301
     17297     17295     17298     17299     17297     17295     17298     17300
     17297     17295     17298     17301     17298     17301     17304     17305
     17298     17301     17304     17306     17298     17301     17304     17307
     17299     17298     17301     17302     17299     17298     17301     17303
     17299     17298     17301     17304     17300     17298     17301     17302
     17300     17298     17301     17303     17300     17298     17301     17304
     17301     17304     17307     17308     17301     17304     17307     17309
     17301     17304     17307     17310     17302     17301     17304     17305
     17302     17301     17304     17306     17302     17301     17304     17307
     17303     17301     17304     17305     17303     17301     17304     17306
     17303     17301     17304     17307     17304     17307     17310     17311
     17304     17307     17310     17312     17304     17307     17310     17313
     17305     17304     17307     17308     17305     17304     17307     17309
     17305     17304     17307     17310     17306     17304     17307     17308
     17306     17304     17307     17309     17306     17304     17307     17310
     17308     17307     17310     17311     17308     17307     17310     17312
     17308     17307     17310     17313     17309     17307     17310     17311
     17309     17307     17310     17312     17309     17307     17310     17313
     19148     19152     19155     19156     19148     19152     19155     19157
     19148     19152     19155     19161     19149     19148     19152     19153
     19149     19148     19152     19154     19149     19148     19152     19155
     19150     19148     19152     19153     19150     19148     19152     19154
     19150     19148     19152     19155     19151     19148     19152     19153
     19151     19148     19152     19154     19151     19148     19152     19155
     19152     19155     19161     19158     19153     19152     19155     19156
     19153     19152     19155     19157     19153     19152     19155     19161
     19154     19152     19155     19156     19154     19152     19155     19157
     19154     19152     19155     19161     19155     19161     19158     19159
     19155     19161     19158     19160     19155     19161     19158     19162
     19156     19155     19161     19158     19157     19155     19161     19158
     19158     19162     19163     19164     19158     19162     19163     19165
     19158     19162     19163     19166     19159     19158     19162     19163
     19160     19158     19162     19163     19161     19158     19162     19163
     19162     19163     19166     19167     19162     19163     19166     19168
     19162     19163     19166     19174     19163     19166     19168     19169
     19163     19166     19174     19175     19163     19166     19174     19176
     19163     19166     19174     19177     19164     19163     19166     19167
     19164     19163     19166     19168     19164     19163     19166     19174
     19165     19163     19166     19167     19165     19163     19166     19168
     19165     19163     19166     19174     19166     19168     19169     19170
     19166     19168     19169     19171     19166     19174     19177     19178
     19167     19166     19168     19169     19167     19166     19174     19175
     19167     19166     19174     19176     19167     19166     19174     19177
     19168     19166     19174     19175     19168     19166     19174     19176
     19168     19166     19174     19177     19168     19169     19171     19172
     19168     19169     19171     19173     19168     19169     19171     19183
     19169     19168     19166     19174     19169     19171     19183     19184
     19169     19171     19183     19185     19169     19171     19183     19186
     19170     19169     19171     19172     19170     19169     19171     19173
     19170     19169     19171     19183     19171     19183     19186     19187
     19171     19183     19186     19188     19171     19183     19186     19189
     19172     19171     19183     19184     19172     19171     19183     19185
     19172     19171     19183     19186     19173     19171     19183     19184
     19173     19171     19183     19185     19173     19171     19183     19186
     19174     19177     19178     19179     19174     19177     19178     19180
     19175     19174     19177     19178     19176     19174     19177     19178
     19177     19178     19180     19181     19177     19178     19180     19182
     19177     19178     19180     19230     19178     19180     19230     19231
     19178     19180     19230     19232     19178     19180     19230     19233
     19179     19178     19180     19181     19179     19178     19180     19182
     19179     19178     19180     19230     19180     19230     19233     19234
     19180     19230     19233     19235     19180     19230     19233     19236
     19181     19180     19230     19231     19181     19180     19230     19232
     19181     19180     19230     19233     19182     19180     19230     19231
     19182     19180     19230     19232     19182     19180     19230     19233
     19183     19186     19189     19190     19183     19186     19189     19191
     19183     19186     19189     19192     19184     19183     19186     19187
     19184     19183     19186     19188     19184     19183     19186     19189
     19185     19183     19186     19187     19185     19183     19186     19188
     19185     19183     19186     19189     19186     19189     19192     19193
     19186     19189     19192     19194     19186     19189     19192     19195
     19187     19186     19189     19190     19187     19186     19189     19191
     19187     19186     19189     19192     19188     19186     19189     19190
     19188     19186     19189     19191     19188     19186     19189     19192
     19189     19192     19195     19196     19189     19192     19195     19197
     19189     19192     19195     19198     19190     19189     19192     19193
     19190     19189     19192     19194     19190     19189     19192     19195
     19191     19189     19192     19193     19191     19189     19192     19194
     19191     19189     19192     19195     19192     19195     19198     19199
     19192     19195     19198     19200     19192     19195     19198     19201
     19193     19192     19195     19196     19193     19192     19195     19197
     19193     19192     19195     19198     19194     19192     19195     19196
     19194     19192     19195     19197     19194     19192     19195     19198
     19195     19198     19201     19202     19195     19198     19201     19203
     19196     19195     19198     19199     19196     19195     19198     19200
     19196     19195     19198     19201     19197     19195     19198     19199
     19197     19195     19198     19200     19197     19195     19198     19201
     19198     19201     19203     19204     19198     19201     19203     19205
     19199     19198     19201     19202     19199     19198     19201     19203
     19200     19198     19201     19202     19200     19198     19201     19203
     19201     19203     19205     19206     19201     19203     19205     19207
     19201     19203     19205     19208     19202     19201     19203     19204
     19202     19201     19203     19205     19203     19205     19208     19209
     19203     19205     19208     19210     19203     19205     19208     19211
     19204     19203     19205     19206     19204     19203     19205     19207
     19204     19203     19205     19208     19205     19208     19211     19212
     19205     19208     19211     19213     19205     19208     19211     19214
     19206     19205     19208     19209     19206     19205     19208     19210
     19206     19205     19208     19211     19207     19205     19208     19209
     19207     19205     19208     19210     19207     19205     19208     19211
     19208     19211     19214     19215     19208     19211     19214     19216
     19208     19211     19214     19217     19209     19208     19211     19212
     19209     19208     19211     19213     19209     19208     19211     19214
     19210     19208     19211     19212     19210     19208     19211     19213
     19210     19208     19211     19214     19211     19214     19217     19218
     19211     19214     19217     19219     19211     19214     19217     19220
     19212     19211     19214     19215     19212     19211     19214     19216
     19212     19211     19214     19217     19213     19211     19214     19215
     19213     19211     19214     19216     19213     19211     19214     19217
     19214     19217     19220     19221     19214     19217     19220     19222
     19214     19217     19220     19223     19215     19214     19217     19218
     19215     19214     19217     19219     19215     19214     19217     19220
     19216     19214     19217     19218     19216     19214     19217     19219
     19216     19214     19217     19220     19217     19220     19223     19224
     19217     19220     19223     19225     19217     19220     19223     19226
     19218     19217     19220     19221     19218     19217     19220     19222
     19218     19217     19220     19223     19219     19217     19220     19221
     19219     19217     19220     19222     19219     19217     19220     19223
     19220     19223     19226     19227     19220     19223     19226     19228
     19220     19223     19226     19229     19221     19220     19223     19224
     19221     19220     19223     19225     19221     19220     19223     19226
     19222     19220     19223     19224     19222     19220     19223     19225
     19222     19220     19223     19226     19224     19223     19226     19227
     19224     19223     19226     19228     19224     19223     19226     19229
     19225     19223     19226     19227     19225     19223     19226     19228
     19225     19223     19226     19229     19230     19233     19236     19237
     19230     19233     19236     19238     19230     19233     19236     19239
     19231     19230     19233     19234     19231     19230     19233     19235
     19231     19230     19233     19236     19232     19230     19233     19234
     19232     19230     19233     19235     19232     19230     19233     19236
     19233     19236     19239     19240     19233     19236     19239     19241
     19233     19236     19239     19242     19234     19233     19236     19237
     19234     19233     19236     19238     19234     19233     19236     19239
     19235     19233     19236     19237     19235     19233     19236     19238
     19235     19233     19236     19239     19236     19239     19242     19243
     19236     19239     19242     19244     19236     19239     19242     19245
     19237     19236     19239     19240     19237     19236     19239     19241
     19237     19236     19239     19242     19238     19236     19239     19240
     19238     19236     19239     19241     19238     19236     19239     19242
     19239     19242     19245     19246     19239     19242     19245     19247
     19239     19242     19245     19248     19240     19239     19242     19243
     19240     19239     19242     19244     19240     19239     19242     19245
     19241     19239     19242     19243     19241     19239     19242     19244
     19241     19239     19242     19245     19242     19245     19248     19249
     19242     19245     19248     19250     19242     19245     19248     19251
     19243     19242     19245     19246     19243     19242     19245     19247
     19243     19242     19245     19248     19244     19242     19245     19246
     19244     19242     19245     19247     19244     19242     19245     19248
     19245     19248     19251     19252     19245     19248     19251     19253
     19245     19248     19251     19254     19246     19245     19248     19249
     19246     19245     19248     19250     19246     19245     19248     19251
     19247     19245     19248     19249     19247     19245     19248     19250
     19247     19245     19248     19251     19248     19251     19254     19255
     19248     19251     19254     19256     19248     19251     19254     19257
     19249     19248     19251     19252     19249     19248     19251     19253
     19249     19248     19251     19254     19250     19248     19251     19252
     19250     19248     19251     19253     19250     19248     19251     19254
     19251     19254     19257     19258     19251     19254     19257     19259
     19251     19254     19257     19260     19252     19251     19254     19255
     19252     19251     19254     19256     19252     19251     19254     19257
     19253     19251     19254     19255     19253     19251     19254     19256
     19253     19251     19254     19257     19254     19257     19260     19261
     19254     19257     19260     19262     19254     19257     19260     19263
     19255     19254     19257     19258     19255     19254     19257     19259
     19255     19254     19257     19260     19256     19254     19257     19258
     19256     19254     19257     19259     19256     19254     19257     19260
     19257     19260     19263     19264     19257     19260     19263     19265
     19257     19260     19263     19266     19258     19257     19260     19261
     19258     19257     19260     19262     19258     19257     19260     19263
     19259     19257     19260     19261     19259     19257     19260     19262
     19259     19257     19260     19263     19260     19263     19266     19267
     19260     19263     19266     19268     19260     19263     19266     19269
     19261     19260     19263     19264     19261     19260     19263     19265
     19261     19260     19263     19266     19262     19260     19263     19264
     19262     19260     19263     19265     19262     19260     19263     19266
     19263     19266     19269     19270     19263     19266     19269     19271
     19263     19266     19269     19272     19264     19263     19266     19267
     19264     19263     19266     19268     19264     19263     19266     19269
     19265     19263     19266     19267     19265     19263     19266     19268
     19265     19263     19266     19269     19266     19269     19272     19273
     19266     19269     19272     19274     19266     19269     19272     19275
     19267     19266     19269     19270     19267     19266     19269     19271
     19267     19266     19269     19272     19268     19266     19269     19270
     19268     19266     19269     19271     19268     19266     19269     19272
     19269     19272     19275     19276     19269     19272     19275     19277
     19269     19272     19275     19278     19270     19269     19272     19273
     19270     19269     19272     19274     19270     19269     19272     19275
     19271     19269     19272     19273     19271     19269     19272     19274
     19271     19269     19272     19275     19273     19272     19275     19276
     19273     19272     19275     19277     19273     19272     19275     19278
     19274     19272     19275     19276     19274     19272     19275     19277
     19274     19272     19275     19278     19970     19974     19976     19977
     19970     19974     19978     19979     19970     19974     19978     19980
     19970     19974     19978     19982     19970     19990     19986     19982
     19970     19990     19986     19987     19970     19990     19986     19988
     19970     19990     19995     19992     19971     19970     19972     19973
     19971     19970     19974     19975     19971     19970     19974     19976
     19971     19970     19974     19978     19971     19970     19990     19986
     19971     19970     19990     19991     19971     19970     19990     19995
     19972     19970     19974     19975     19972     19970     19974     19976
     19972     19970     19974     19978     19972     19970     19990     19986
     19972     19970     19990     19991     19972     19970     19990     19995
     19973     19972     19970     19974     19973     19972     19970     19990
     19974     19970     19990     19986     19974     19970     19990     19991
     19974     19970     19990     19995     19974     19978     19980     19981
     19974     19978     19982     19983     19974     19978     19982     19984
     19974     19978     19982     19986     19975     19974     19970     19990
     19975     19974     19976     19977     19975     19974     19978     19979
     19975     19974     19978     19980     19975     19974     19978     19982
     19976     19974     19970     19990     19976     19974     19978     19979
     19976     19974     19978     19980     19976     19974     19978     19982
     19977     19976     19974     19978     19978     19974     19970     19990
     19978     19982     19984     19985     19978     19982     19986     19987
     19978     19982     19986     19988     19978     19982     19986     19990
     19979     19978     19980     19981     19979     19978     19982     19983
     19979     19978     19982     19984     19979     19978     19982     19986
     19980     19978     19982     19983     19980     19978     19982     19984
     19980     19978     19982     19986     19981     19980     19978     19982
     19982     19986     19988     19989     19982     19986     19990     19991
     19982     19986     19990     19995     19983     19982     19984     19985
     19983     19982     19986     19987     19983     19982     19986     19988
     19983     19982     19986     19990     19984     19982     19986     19987
     19984     19982     19986     19988     19984     19982     19986     19990
     19985     19984     19982     19986     19986     19990     19995     19992
     19987     19986     19988     19989     19987     19986     19990     19991
     19987     19986     19990     19995     19988     19986     19990     19991
     19988     19986     19990     19995     19989     19988     19986     19990
     19990     19995     19992     19993     19990     19995     19992     19994
     19990     19995     19992     19996     19991     19990     19995     19992
     19992     19996     19997     19998     19992     19996     19997     19999
     19992     19996     19997     20000     19993     19992     19996     19997
     19994     19992     19996     19997     19995     19992     19996     19997
     19996     19997     20000     20001     19996     19997     20000     20002
     19996     19997     20000     20008     19997     20000     20002     20003
     19997     20000     20008     20009     19997     20000     20008     20010
     19997     20000     20008     20011     19998     19997     20000     20001
     19998     19997     20000     20002     19998     19997     20000     20008
     19999     19997     20000     20001     19999     19997     20000     20002
     19999     19997     20000     20008     20000     20002     20003     20004
     20000     20002     20003     20005     20000     20008     20011     20012
     20001     20000     20002     20003     20001     20000     20008     20009
     20001     20000     20008     20010     20001     20000     20008     20011
     20002     20000     20008     20009     20002     20000     20008     20010
     20002     20000     20008     20011     20002     20003     20005     20006
     20002     20003     20005     20007     20002     20003     20005     20017
     20003     20002     20000     20008     20003     20005     20017     20018
     20003     20005     20017     20019     20003     20005     20017     20020
     20004     20003     20005     20006     20004     20003     20005     20007
     20004     20003     20005     20017     20005     20017     20020     20021
     20005     20017     20020     20022     20005     20017     20020     20023
     20006     20005     20017     20018     20006     20005     20017     20019
     20006     20005     20017     20020     20007     20005     20017     20018
     20007     20005     20017     20019     20007     20005     20017     20020
     20008     20011     20012     20013     20008     20011     20012     20014
     20009     20008     20011     20012     20010     20008     20011     20012
     20011     20012     20014     20015     20011     20012     20014     20016
     20011     20012     20014     20064     20012     20014     20064     20065
     20012     20014     20064     20066     20012     20014     20064     20067
     20013     20012     20014     20015     20013     20012     20014     20016
     20013     20012     20014     20064     20014     20064     20067     20068
     20014     20064     20067     20069     20014     20064     20067     20070
     20015     20014     20064     20065     20015     20014     20064     20066
     20015     20014     20064     20067     20016     20014     20064     20065
     20016     20014     20064     20066     20016     20014     20064     20067
     20017     20020     20023     20024     20017     20020     20023     20025
     20018     20017     20020     20021     20018     20017     20020     20022
     20018     20017     20020     20023     20019     20017     20020     20021
     20019     20017     20020     20022     20019     20017     20020     20023
     20020     20023     20025     20026     20020     20023     20025     20027
     20021     20020     20023     20024     20021     20020     20023     20025
     20022     20020     20023     20024     20022     20020     20023     20025
     20023     20025     20027     20028     20023     20025     20027     20029
     20023     20025     20027     20030     20024     20023     20025     20026
     20024     20023     20025     20027     20025     20027     20030     20031
     20025     20027     20030     20032     20026     20025     20027     20028
     20026     20025     20027     20029     20026     20025     20027     20030
     20027     20030     20032     20033     20027     20030     20032     20034
     20028     20027     20030     20031     20028     20027     20030     20032
     20029     20027     20030     20031     20029     20027     20030     20032
     20030     20032     20034     20035     20030     20032     20034     20036
     20030     20032     20034     20037     20031     20030     20032     20033
     20031     20030     20032     20034     20032     20034     20037     20038
     20032     20034     20037     20039     20033     20032     20034     20035
     20033     20032     20034     20036     20033     20032     20034     20037
     20034     20037     20039     20040     20034     20037     20039     20041
     20035     20034     20037     20038     20035     20034     20037     20039
     20036     20034     20037     20038     20036     20034     20037     20039
     20037     20039     20041     20042     20037     20039     20041     20043
     20037     20039     20041     20044     20038     20037     20039     20040
     20038     20037     20039     20041     20039     20041     20044     20045
     20039     20041     20044     20046     20040     20039     20041     20042
     20040     20039     20041     20043     20040     20039     20041     20044
     20041     20044     20046     20047     20041     20044     20046     20048
     20042     20041     20044     20045     20042     20041     20044     20046
     20043     20041     20044     20045     20043     20041     20044     20046
     20044     20046     20048     20049     20044     20046     20048     20050
     20044     20046     20048     20051     20045     20044     20046     20047
     20045     20044     20046     20048     20046     20048     20051     20052
     20046     20048     20051     20053     20046     20048     20051     20054
     20047     20046     20048     20049     20047     20046     20048     20050
     20047     20046     20048     20051     20048     20051     20054     20055
     20048     20051     20054     20056     20048     20051     20054     20057
     20049     20048     20051     20052     20049     20048     20051     20053
     20049     20048     20051     20054     20050     20048     20051     20052
     20050     20048     20051     20053     20050     20048     20051     20054
     20051     20054     20057     20058     20051     20054     20057     20059
     20051     20054     20057     20060     20052     20051     20054     20055
     20052     20051     20054     20056     20052     20051     20054     20057
     20053     20051     20054     20055     20053     20051     20054     20056
     20053     20051     20054     20057     20054     20057     20060     20061
     20054     20057     20060     20062     20054     20057     20060     20063
     20055     20054     20057     20058     20055     20054     20057     20059
     20055     20054     20057     20060     20056     20054     20057     20058
     20056     20054     20057     20059     20056     20054     20057     20060
     20058     20057     20060     20061     20058     20057     20060     20062
     20058     20057     20060     20063     20059     20057     20060     20061
     20059     20057     20060     20062     20059     20057     20060     20063
     20064     20067     20070     20071     20064     20067     20070     20072
     20064     20067     20070     20073     20065     20064     20067     20068
     20065     20064     20067     20069     20065     20064     20067     20070
     20066     20064     20067     20068     20066     20064     20067     20069
     20066     20064     20067     20070     20067     20070     20073     20074
     20067     20070     20073     20075     20067     20070     20073     20076
     20068     20067     20070     20071     20068     20067     20070     20072
     20068     20067     20070     20073     20069     20067     20070     20071
     20069     20067     20070     20072     20069     20067     20070     20073
     20070     20073     20076     20077     20070     20073     20076     20078
     20070     20073     20076     20079     20071     20070     20073     20074
     20071     20070     20073     20075     20071     20070     20073     20076
     20072     20070     20073     20074     20072     20070     20073     20075
     20072     20070     20073     20076     20073     20076     20079     20080
     20073     20076     20079     20081     20073     20076     20079     20082
     20074     20073     20076     20077     20074     20073     20076     20078
     20074     20073     20076     20079     20075     20073     20076     20077
     20075     20073     20076     20078     20075     20073     20076     20079
     20076     20079     20082     20083     20076     20079     20082     20084
     20076     20079     20082     20085     20077     20076     20079     20080
     20077     20076     20079     20081     20077     20076     20079     20082
     20078     20076     20079     20080     20078     20076     20079     20081
     20078     20076     20079     20082     20079     20082     20085     20086
     20079     20082     20085     20087     20079     20082     20085     20088
     20080     20079     20082     20083     20080     20079     20082     20084
     20080     20079     20082     20085     20081     20079     20082     20083
     20081     20079     20082     20084     20081     20079     20082     20085
     20082     20085     20088     20089     20082     20085     20088     20090
     20082     20085     20088     20091     20083     20082     20085     20086
     20083     20082     20085     20087     20083     20082     20085     20088
     20084     20082     20085     20086     20084     20082     20085     20087
     20084     20082     20085     20088     20085     20088     20091     20092
     20085     20088     20091     20093     20085     20088     20091     20094
     20086     20085     20088     20089     20086     20085     20088     20090
     20086     20085     20088     20091     20087     20085     20088     20089
     20087     20085     20088     20090     20087     20085     20088     20091
     20088     20091     20094     20095     20088     20091     20094     20096
     20088     20091     20094     20097     20089     20088     20091     20092
     20089     20088     20091     20093     20089     20088     20091     20094
     20090     20088     20091     20092     20090     20088     20091     20093
     20090     20088     20091     20094     20091     20094     20097     20098
     20091     20094     20097     20099     20091     20094     20097     20100
     20092     20091     20094     20095     20092     20091     20094     20096
     20092     20091     20094     20097     20093     20091     20094     20095
     20093     20091     20094     20096     20093     20091     20094     20097
     20094     20097     20100     20101     20094     20097     20100     20102
     20094     20097     20100     20103     20095     20094     20097     20098
     20095     20094     20097     20099     20095     20094     20097     20100
     20096     20094     20097     20098     20096     20094     20097     20099
     20096     20094     20097     20100     20097     20100     20103     20104
     20097     20100     20103     20105     20097     20100     20103     20106
     20098     20097     20100     20101     20098     20097     20100     20102
     20098     20097     20100     20103     20099     20097     20100     20101
     20099     20097     20100     20102     20099     20097     20100     20103
     20100     20103     20106     20107     20100     20103     20106     20108
     20100     20103     20106     20109     20101     20100     20103     20104
     20101     20100     20103     20105     20101     20100     20103     20106
     20102     20100     20103     20104     20102     20100     20103     20105
     20102     20100     20103     20106     20103     20106     20109     20110
     20103     20106     20109     20111     20103     20106     20109     20112
     20104     20103     20106     20107     20104     20103     20106     20108
     20104     20103     20106     20109     20105     20103     20106     20107
     20105     20103     20106     20108     20105     20103     20106     20109
     20107     20106     20109     20110     20107     20106     20109     20111
     20107     20106     20109     20112     20108     20106     20109     20110
     20108     20106     20109     20111     20108     20106     20109     20112
     13515     13528     13531     13532     13515     13528     13531     13533
     13515     13528     13531     13538     13516     13515     13520     13521
     13516     13515     13520     13522     13516     13515     13520     13523
     13516     13515     13524     13525     13516     13515     13524     13526
     13516     13515     13524     13527     13516     13515     13528     13529
     13516     13515     13528     13530     13516     13515     13528     13531
     13517     13516     13515     13520     13517     13516     13515     13524
     13517     13516     13515     13528     13518     13516     13515     13520
     13518     13516     13515     13524     13518     13516     13515     13528
     13519     13516     13515     13520     13519     13516     13515     13524
     13519     13516     13515     13528     13520     13515     13524     13525
     13520     13515     13524     13526     13520     13515     13524     13527
     13520     13515     13528     13529     13520     13515     13528     13530
     13520     13515     13528     13531     13521     13520     13515     13524
     13521     13520     13515     13528     13522     13520     13515     13524
     13522     13520     13515     13528     13523     13520     13515     13524
     13523     13520     13515     13528     13524     13515     13528     13529
     13524     13515     13528     13530     13524     13515     13528     13531
     13525     13524     13515     13528     13526     13524     13515     13528
     13527     13524     13515     13528     13528     13531     13538     13534
     13529     13528     13531     13532     13529     13528     13531     13533
     13529     13528     13531     13538     13530     13528     13531     13532
     13530     13528     13531     13533     13530     13528     13531     13538
     13531     13538     13534     13535     13531     13538     13534     13536
     13531     13538     13534     13537     13532     13531     13538     13534
     13533     13531     13538     13534     13534     13537     13539     13540
     13534     13537     13539     13541     13534     13537     13539     13544
     13535     13534     13537     13539     13536     13534     13537     13539
     13537     13539     13544     13542     13537     13539     13544     13545
     13537     13539     13544     13546     13538     13534     13537     13539
     13539     13544     13542     13543     13539     13544     13542     13594
     13539     13544     13546     13547     13539     13544     13546     13548
     13539     13544     13546     13550     13540     13539     13544     13542
     13540     13539     13544     13545     13540     13539     13544     13546
     13541     13539     13544     13542     13541     13539     13544     13545
     13541     13539     13544     13546     13542     13544     13546     13547
     13542     13544     13546     13548     13542     13544     13546     13550
     13542     13594     13596     13597     13542     13594     13596     13598
     13542     13594     13596     13599     13543     13542     13544     13545
     13543     13542     13544     13546     13543     13542     13594     13595
     13543     13542     13594     13596     13544     13542     13594     13595
     13544     13542     13594     13596     13544     13546     13548     13549
     13544     13546     13550     13551     13544     13546     13550     13552
     13545     13544     13542     13594     13545     13544     13546     13547
     13545     13544     13546     13548     13545     13544     13546     13550
     13546     13544     13542     13594     13546     13550     13552     13553
     13546     13550     13552     13554     13547     13546     13548     13549
     13547     13546     13550     13551     13547     13546     13550     13552
     13548     13546     13550     13551     13548     13546     13550     13552
     13549     13548     13546     13550     13550     13552     13554     13555
     13550     13552     13554     13556     13550     13552     13554     13557
     13551     13550     13552     13553     13551     13550     13552     13554
     13552     13554     13557     13558     13552     13554     13557     13559
     13552     13554     13557     13560     13553     13552     13554     13555
     13553     13552     13554     13556     13553     13552     13554     13557
     13554     13557     13560     13561     13554     13557     13560     13562
     13554     13557     13560     13563     13555     13554     13557     13558
     13555     13554     13557     13559     13555     13554     13557     13560
     13556     13554     13557     13558     13556     13554     13557     13559
     13556     13554     13557     13560     13557     13560     13563     13564
     13557     13560     13563     13565     13557     13560     13563     13566
     13558     13557     13560     13561     13558     13557     13560     13562
     13558     13557     13560     13563     13559     13557     13560     13561
     13559     13557     13560     13562     13559     13557     13560     13563
     13560     13563     13566     13567     13560     13563     13566     13568
     13560     13563     13566     13569     13561     13560     13563     13564
     13561     13560     13563     13565     13561     13560     13563     13566
     13562     13560     13563     13564     13562     13560     13563     13565
     13562     13560     13563     13566     13563     13566     13569     13570
     13563     13566     13569     13571     13563     13566     13569     13572
     13564     13563     13566     13567     13564     13563     13566     13568
     13564     13563     13566     13569     13565     13563     13566     13567
     13565     13563     13566     13568     13565     13563     13566     13569
     13566     13569     13572     13573     13566     13569     13572     13574
     13566     13569     13572     13575     13567     13566     13569     13570
     13567     13566     13569     13571     13567     13566     13569     13572
     13568     13566     13569     13570     13568     13566     13569     13571
     13568     13566     13569     13572     13569     13572     13575     13576
     13569     13572     13575     13577     13569     13572     13575     13578
     13570     13569     13572     13573     13570     13569     13572     13574
     13570     13569     13572     13575     13571     13569     13572     13573
     13571     13569     13572     13574     13571     13569     13572     13575
     13572     13575     13578     13579     13572     13575     13578     13580
     13572     13575     13578     13581     13573     13572     13575     13576
     13573     13572     13575     13577     13573     13572     13575     13578
     13574     13572     13575     13576     13574     13572     13575     13577
     13574     13572     13575     13578     13575     13578     13581     13582
     13575     13578     13581     13583     13575     13578     13581     13584
     13576     13575     13578     13579     13576     13575     13578     13580
     13576     13575     13578     13581     13577     13575     13578     13579
     13577     13575     13578     13580     13577     13575     13578     13581
     13578     13581     13584     13585     13578     13581     13584     13586
     13578     13581     13584     13587     13579     13578     13581     13582
     13579     13578     13581     13583     13579     13578     13581     13584
     13580     13578     13581     13582     13580     13578     13581     13583
     13580     13578     13581     13584     13581     13584     13587     13588
     13581     13584     13587     13589     13581     13584     13587     13590
     13582     13581     13584     13585     13582     13581     13584     13586
     13582     13581     13584     13587     13583     13581     13584     13585
     13583     13581     13584     13586     13583     13581     13584     13587
     13584     13587     13590     13591     13584     13587     13590     13592
     13584     13587     13590     13593     13585     13584     13587     13588
     13585     13584     13587     13589     13585     13584     13587     13590
     13586     13584     13587     13588     13586     13584     13587     13589
     13586     13584     13587     13590     13588     13587     13590     13591
     13588     13587     13590     13592     13588     13587     13590     13593
     13589     13587     13590     13591     13589     13587     13590     13592
     13589     13587     13590     13593     13594     13596     13599     13600
     13594     13596     13599     13601     13594     13596     13599     13602
     13595     13594     13596     13597     13595     13594     13596     13598
     13595     13594     13596     13599     13596     13599     13602     13603
     13596     13599     13602     13604     13596     13599     13602     13605
     13597     13596     13599     13600     13597     13596     13599     13601
     13597     13596     13599     13602     13598     13596     13599     13600
     13598     13596     13599     13601     13598     13596     13599     13602
     13599     13602     13605     13606     13599     13602     13605     13607
     13599     13602     13605     13608     13600     13599     13602     13603
     13600     13599     13602     13604     13600     13599     13602     13605
     13601     13599     13602     13603     13601     13599     13602     13604
     13601     13599     13602     13605     13602     13605     13608     13609
     13602     13605     13608     13610     13602     13605     13608     13611
     13603     13602     13605     13606     13603     13602     13605     13607
     13603     13602     13605     13608     13604     13602     13605     13606
     13604     13602     13605     13607     13604     13602     13605     13608
     13605     13608     13611     13612     13605     13608     13611     13613
     13605     13608     13611     13614     13606     13605     13608     13609
     13606     13605     13608     13610     13606     13605     13608     13611
     13607     13605     13608     13609     13607     13605     13608     13610
     13607     13605     13608     13611     13608     13611     13614     13615
     13608     13611     13614     13616     13608     13611     13614     13617
     13609     13608     13611     13612     13609     13608     13611     13613
     13609     13608     13611     13614     13610     13608     13611     13612
     13610     13608     13611     13613     13610     13608     13611     13614
     13611     13614     13617     13618     13611     13614     13617     13619
     13612     13611     13614     13615     13612     13611     13614     13616
     13612     13611     13614     13617     13613     13611     13614     13615
     13613     13611     13614     13616     13613     13611     13614     13617
     13614     13617     13619     13620     13614     13617     13619     13621
     13615     13614     13617     13618     13615     13614     13617     13619
     13616     13614     13617     13618     13616     13614     13617     13619
     13617     13619     13621     13622     13617     13619     13621     13623
     13617     13619     13621     13624     13618     13617     13619     13620
     13618     13617     13619     13621     13619     13621     13624     13625
     13619     13621     13624     13626     13619     13621     13624     13627
     13620     13619     13621     13622     13620     13619     13621     13623
     13620     13619     13621     13624     13621     13624     13627     13628
     13621     13624     13627     13629     13621     13624     13627     13630
     13622     13621     13624     13625     13622     13621     13624     13626
     13622     13621     13624     13627     13623     13621     13624     13625
     13623     13621     13624     13626     13623     13621     13624     13627
     13624     13627     13630     13631     13624     13627     13630     13632
     13624     13627     13630     13633     13625     13624     13627     13628
     13625     13624     13627     13629     13625     13624     13627     13630
     13626     13624     13627     13628     13626     13624     13627     13629
     13626     13624     13627     13630     13627     13630     13633     13634
     13627     13630     13633     13635     13627     13630     13633     13636
     13628     13627     13630     13631     13628     13627     13630     13632
     13628     13627     13630     13633     13629     13627     13630     13631
     13629     13627     13630     13632     13629     13627     13630     13633
     13630     13633     13636     13637     13630     13633     13636     13638
     13630     13633     13636     13639     13631     13630     13633     13634
     13631     13630     13633     13635     13631     13630     13633     13636
     13632     13630     13633     13634     13632     13630     13633     13635
     13632     13630     13633     13636     13633     13636     13639     13640
     13633     13636     13639     13641     13633     13636     13639     13642
     13634     13633     13636     13637     13634     13633     13636     13638
     13634     13633     13636     13639     13635     13633     13636     13637
     13635     13633     13636     13638     13635     13633     13636     13639
     13636     13639     13642     13643     13636     13639     13642     13644
     13636     13639     13642     13645     13637     13636     13639     13640
     13637     13636     13639     13641     13637     13636     13639     13642
     13638     13636     13639     13640     13638     13636     13639     13641
     13638     13636     13639     13642     13640     13639     13642     13643
     13640     13639     13642     13644     13640     13639     13642     13645
     13641     13639     13642     13643     13641     13639     13642     13644
     13641     13639     13642     13645      8475      8479      8482      8483
      8475      8479      8482      8513      8475      8521      8518      8513
      8475      8521      8518      8519      8475      8521      8518      8520
      8476      8475      8477      8478      8476      8475      8479      8480
      8476      8475      8479      8481      8476      8475      8479      8482
      8476      8475      8521      8518      8476      8475      8521      8522
      8476      8475      8521      8523      8477      8475      8479      8480
      8477      8475      8479      8481      8477      8475      8479      8482
      8477      8475      8521      8518      8477      8475      8521      8522
      8477      8475      8521      8523      8478      8477      8475      8479
      8478      8477      8475      8521      8479      8475      8521      8518
      8479      8475      8521      8522      8479      8475      8521      8523
      8479      8482      8483      8484      8479      8482      8483      8485
      8479      8482      8513      8511      8479      8482      8513      8514
      8479      8482      8513      8518      8480      8479      8475      8521
      8480      8479      8482      8483      8480      8479      8482      8513
      8481      8479      8475      8521      8481      8479      8482      8483
      8481      8479      8482      8513      8482      8479      8475      8521
      8482      8483      8485      8486      8482      8483      8485      8487
      8482      8483      8485      8488      8482      8513      8511      8488
      8482      8513      8511      8508      8482      8513      8511      8512
      8482      8513      8514      8515      8482      8513      8514      8516
      8482      8513      8514      8517      8482      8513      8518      8519
      8482      8513      8518      8520      8482      8513      8518      8521
      8483      8482      8513      8511      8483      8482      8513      8514
      8483      8482      8513      8518      8483      8485      8488      8489
      8483      8485      8488      8490      8483      8485      8488      8511
      8484      8483      8482      8513      8484      8483      8485      8486
      8484      8483      8485      8487      8484      8483      8485      8488
      8485      8483      8482      8513      8485      8488      8490      8491
      8485      8488      8490      8492      8485      8488      8490      8500
      8485      8488      8511      8508      8485      8488      8511      8512
      8485      8488      8511      8513      8486      8485      8488      8489
      8486      8485      8488      8490      8486      8485      8488      8511
      8487      8485      8488      8489      8487      8485      8488      8490
      8487      8485      8488      8511      8488      8490      8492      8493
      8488      8490      8492      8494      8488      8490      8492      8495
      8488      8490      8500      8498      8488      8490      8500      8501
      8488      8490      8500      8505      8488      8511      8508      8505
      8488      8511      8508      8509      8488      8511      8508      8510
      8488      8511      8513      8514      8488      8511      8513      8518
      8489      8488      8490      8491      8489      8488      8490      8492
      8489      8488      8490      8500      8489      8488      8511      8508
      8489      8488      8511      8512      8489      8488      8511      8513
      8490      8488      8511      8508      8490      8488      8511      8512
      8490      8488      8511      8513      8490      8492      8495      8496
      8490      8492      8495      8497      8490      8492      8495      8498
      8490      8500      8498      8495      8490      8500      8498      8499
      8490      8500      8498      8524      8490      8500      8501      8502
      8490      8500      8501      8503      8490      8500      8501      8504
      8490      8500      8505      8506      8490      8500      8505      8507
      8490      8500      8505      8508      8491      8490      8488      8511
      8491      8490      8492      8493      8491      8490      8492      8494
      8491      8490      8492      8495      8491      8490      8500      8498
      8491      8490      8500      8501      8491      8490      8500      8505
      8492      8490      8488      8511      8492      8490      8500      8498
      8492      8490      8500      8501      8492      8490      8500      8505
      8492      8495      8498      8499      8492      8495      8498      8500
      8492      8495      8498      8524      8493      8492      8490      8500
      8493      8492      8495      8496      8493      8492      8495      8497
      8493      8492      8495      8498      8494      8492      8490      8500
      8494      8492      8495      8496      8494      8492      8495      8497
      8494      8492      8495      8498      8495      8492      8490      8500
      8495      8498      8500      8501      8495      8498      8500      8505
      8495      8498      8524      8525      8495      8498      8524      8526
      8495      8498      8524      8530      8496      8495      8498      8499
      8496      8495      8498      8500      8496      8495      8498      8524
      8497      8495      8498      8499      8497      8495      8498      8500
      8497      8495      8498      8524      8498      8500      8501      8502
      8498      8500      8501      8503      8498      8500      8501      8504
      8498      8500      8505      8506      8498      8500      8505      8507
      8498      8500      8505      8508      8498      8524      8526      8527
      8498      8524      8526      8528      8498      8524      8526      8529
      8498      8524      8530      8531      8498      8524      8530      8532
      8498      8524      8530      8533      8499      8498      8500      8501
      8499      8498      8500      8505      8499      8498      8524      8525
      8499      8498      8524      8526      8499      8498      8524      8530
      8500      8490      8488      8511      8500      8498      8524      8525
      8500      8498      8524      8526      8500      8498      8524      8530
      8500      8505      8508      8509      8500      8505      8508      8510
      8500      8505      8508      8511      8501      8500      8498      8524
      8501      8500      8505      8506      8501      8500      8505      8507
      8501      8500      8505      8508      8502      8501      8500      8505
      8503      8501      8500      8505      8504      8501      8500      8505
      8505      8500      8498      8524      8505      8508      8511      8512
      8505      8508      8511      8513      8506      8505      8508      8509
      8506      8505      8508      8510      8506      8505      8508      8511
      8507      8505      8508      8509      8507      8505      8508      8510
      8507      8505      8508      8511      8508      8511      8513      8514
      8508      8511      8513      8518      8509      8508      8511      8512
      8509      8508      8511      8513      8510      8508      8511      8512
      8510      8508      8511      8513      8511      8513      8514      8515
      8511      8513      8514      8516      8511      8513      8514      8517
      8511      8513      8518      8519      8511      8513      8518      8520
      8511      8513      8518      8521      8512      8511      8513      8514
      8512      8511      8513      8518      8513      8518      8521      8522
      8513      8518      8521      8523      8514      8513      8518      8519
      8514      8513      8518      8520      8514      8513      8518      8521
      8515      8514      8513      8518      8516      8514      8513      8518
      8517      8514      8513      8518      8519      8518      8521      8522
      8519      8518      8521      8523      8520      8518      8521      8522
      8520      8518      8521      8523      8524      8530      8533      8534
      8524      8530      8533      8535      8524      8530      8533      8536
      8525      8524      8526      8527      8525      8524      8526      8528
      8525      8524      8526      8529      8525      8524      8530      8531
      8525      8524      8530      8532      8525      8524      8530      8533
      8526      8524      8530      8531      8526      8524      8530      8532
      8526      8524      8530      8533      8527      8526      8524      8530
      8528      8526      8524      8530      8529      8526      8524      8530
      8530      8533      8536      8537      8530      8533      8536      8538
      8530      8533      8536      8539      8531      8530      8533      8534
      8531      8530      8533      8535      8531      8530      8533      8536
      8532      8530      8533      8534      8532      8530      8533      8535
      8532      8530      8533      8536      8533      8536      8539      8540
      8533      8536      8539      8541      8533      8536      8539      8545
      8534      8533      8536      8537      8534      8533      8536      8538
      8534      8533      8536      8539      8535      8533      8536      8537
      8535      8533      8536      8538      8535      8533      8536      8539
      8536      8539      8541      8542      8536      8539      8541      8543
      8536      8539      8541      8544      8536      8539      8545      8546
      8536      8539      8545      8547      8536      8539      8545      8548
      8537      8536      8539      8540      8537      8536      8539      8541
      8537      8536      8539      8545      8538      8536      8539      8540
      8538      8536      8539      8541      8538      8536      8539      8545
      8540      8539      8541      8542      8540      8539      8541      8543
      8540      8539      8541      8544      8540      8539      8545      8546
      8540      8539      8545      8547      8540      8539      8545      8548
      8541      8539      8545      8546      8541      8539      8545      8547
      8541      8539      8545      8548      8542      8541      8539      8545
      8543      8541      8539      8545      8544      8541      8539      8545
      8549      8553      8556      8557      8549      8553      8556      8587
      8549      8595      8592      8587      8549      8595      8592      8593
      8549      8595      8592      8594      8550      8549      8551      8552
      8550      8549      8553      8554      8550      8549      8553      8555
      8550      8549      8553      8556      8550      8549      8595      8592
      8550      8549      8595      8596      8550      8549      8595      8597
      8551      8549      8553      8554      8551      8549      8553      8555
      8551      8549      8553      8556      8551      8549      8595      8592
      8551      8549      8595      8596      8551      8549      8595      8597
      8552      8551      8549      8553      8552      8551      8549      8595
      8553      8549      8595      8592      8553      8549      8595      8596
      8553      8549      8595      8597      8553      8556      8557      8558
      8553      8556      8557      8559      8553      8556      8587      8585
      8553      8556      8587      8588      8553      8556      8587      8592
      8554      8553      8549      8595      8554      8553      8556      8557
      8554      8553      8556      8587      8555      8553      8549      8595
      8555      8553      8556      8557      8555      8553      8556      8587
      8556      8553      8549      8595      8556      8557      8559      8560
      8556      8557      8559      8561      8556      8557      8559      8562
      8556      8587      8585      8562      8556      8587      8585      8582
      8556      8587      8585      8586      8556      8587      8588      8589
      8556      8587      8588      8590      8556      8587      8588      8591
      8556      8587      8592      8593      8556      8587      8592      8594
      8556      8587      8592      8595      8557      8556      8587      8585
      8557      8556      8587      8588      8557      8556      8587      8592
      8557      8559      8562      8563      8557      8559      8562      8564
      8557      8559      8562      8585      8558      8557      8556      8587
      8558      8557      8559      8560      8558      8557      8559      8561
      8558      8557      8559      8562      8559      8557      8556      8587
      8559      8562      8564      8565      8559      8562      8564      8566
      8559      8562      8564      8574      8559      8562      8585      8582
      8559      8562      8585      8586      8559      8562      8585      8587
      8560      8559      8562      8563      8560      8559      8562      8564
      8560      8559      8562      8585      8561      8559      8562      8563
      8561      8559      8562      8564      8561      8559      8562      8585
      8562      8564      8566      8567      8562      8564      8566      8568
      8562      8564      8566      8569      8562      8564      8574      8572
      8562      8564      8574      8575      8562      8564      8574      8579
      8562      8585      8582      8579      8562      8585      8582      8583
      8562      8585      8582      8584      8562      8585      8587      8588
      8562      8585      8587      8592      8563      8562      8564      8565
      8563      8562      8564      8566      8563      8562      8564      8574
      8563      8562      8585      8582      8563      8562      8585      8586
      8563      8562      8585      8587      8564      8562      8585      8582
      8564      8562      8585      8586      8564      8562      8585      8587
      8564      8566      8569      8570      8564      8566      8569      8571
      8564      8566      8569      8572      8564      8574      8572      8569
      8564      8574      8572      8573      8564      8574      8572      8598
      8564      8574      8575      8576      8564      8574      8575      8577
      8564      8574      8575      8578      8564      8574      8579      8580
      8564      8574      8579      8581      8564      8574      8579      8582
      8565      8564      8562      8585      8565      8564      8566      8567
      8565      8564      8566      8568      8565      8564      8566      8569
      8565      8564      8574      8572      8565      8564      8574      8575
      8565      8564      8574      8579      8566      8564      8562      8585
      8566      8564      8574      8572      8566      8564      8574      8575
      8566      8564      8574      8579      8566      8569      8572      8573
      8566      8569      8572      8574      8566      8569      8572      8598
      8567      8566      8564      8574      8567      8566      8569      8570
      8567      8566      8569      8571      8567      8566      8569      8572
      8568      8566      8564      8574      8568      8566      8569      8570
      8568      8566      8569      8571      8568      8566      8569      8572
      8569      8566      8564      8574      8569      8572      8574      8575
      8569      8572      8574      8579      8569      8572      8598      8599
      8569      8572      8598      8600      8569      8572      8598      8604
      8570      8569      8572      8573      8570      8569      8572      8574
      8570      8569      8572      8598      8571      8569      8572      8573
      8571      8569      8572      8574      8571      8569      8572      8598
      8572      8574      8575      8576      8572      8574      8575      8577
      8572      8574      8575      8578      8572      8574      8579      8580
      8572      8574      8579      8581      8572      8574      8579      8582
      8572      8598      8600      8601      8572      8598      8600      8602
      8572      8598      8600      8603      8572      8598      8604      8605
      8572      8598      8604      8606      8572      8598      8604      8607
      8573      8572      8574      8575      8573      8572      8574      8579
      8573      8572      8598      8599      8573      8572      8598      8600
      8573      8572      8598      8604      8574      8564      8562      8585
      8574      8572      8598      8599      8574      8572      8598      8600
      8574      8572      8598      8604      8574      8579      8582      8583
      8574      8579      8582      8584      8574      8579      8582      8585
      8575      8574      8572      8598      8575      8574      8579      8580
      8575      8574      8579      8581      8575      8574      8579      8582
      8576      8575      8574      8579      8577      8575      8574      8579
      8578      8575      8574      8579      8579      8574      8572      8598
      8579      8582      8585      8586      8579      8582      8585      8587
      8580      8579      8582      8583      8580      8579      8582      8584
      8580      8579      8582      8585      8581      8579      8582      8583
      8581      8579      8582      8584      8581      8579      8582      8585
      8582      8585      8587      8588      8582      8585      8587      8592
      8583      8582      8585      8586      8583      8582      8585      8587
      8584      8582      8585      8586      8584      8582      8585      8587
      8585      8587      8588      8589      8585      8587      8588      8590
      8585      8587      8588      8591      8585      8587      8592      8593
      8585      8587      8592      8594      8585      8587      8592      8595
      8586      8585      8587      8588      8586      8585      8587      8592
      8587      8592      8595      8596      8587      8592      8595      8597
      8588      8587      8592      8593      8588      8587      8592      8594
      8588      8587      8592      8595      8589      8588      8587      8592
      8590      8588      8587      8592      8591      8588      8587      8592
      8593      8592      8595      8596      8593      8592      8595      8597
      8594      8592      8595      8596      8594      8592      8595      8597
      8598      8604      8607      8608      8598      8604      8607      8609
      8598      8604      8607      8610      8599      8598      8600      8601
      8599      8598      8600      8602      8599      8598      8600      8603
      8599      8598      8604      8605      8599      8598      8604      8606
      8599      8598      8604      8607      8600      8598      8604      8605
      8600      8598      8604      8606      8600      8598      8604      8607
      8601      8600      8598      8604      8602      8600      8598      8604
      8603      8600      8598      8604      8604      8607      8610      8611
      8604      8607      8610      8612      8604      8607      8610      8613
      8605      8604      8607      8608      8605      8604      8607      8609
      8605      8604      8607      8610      8606      8604      8607      8608
      8606      8604      8607      8609      8606      8604      8607      8610
      8607      8610      8613      8614      8607      8610      8613      8615
      8607      8610      8613      8619      8608      8607      8610      8611
      8608      8607      8610      8612      8608      8607      8610      8613
      8609      8607      8610      8611      8609      8607      8610      8612
      8609      8607      8610      8613      8610      8613      8615      8616
      8610      8613      8615      8617      8610      8613      8615      8618
      8610      8613      8619      8620      8610      8613      8619      8621
      8610      8613      8619      8622      8611      8610      8613      8614
      8611      8610      8613      8615      8611      8610      8613      8619
      8612      8610      8613      8614      8612      8610      8613      8615
      8612      8610      8613      8619      8614      8613      8615      8616
      8614      8613      8615      8617      8614      8613      8615      8618
      8614      8613      8619      8620      8614      8613      8619      8621
      8614      8613      8619      8622      8615      8613      8619      8620
      8615      8613      8619      8621      8615      8613      8619      8622
      8616      8615      8613      8619      8617      8615      8613      8619
      8618      8615      8613      8619      8623      8627      8630      8631
      8623      8627      8630      8661      8623      8669      8666      8661
      8623      8669      8666      8667      8623      8669      8666      8668
      8624      8623      8625      8626      8624      8623      8627      8628
      8624      8623      8627      8629      8624      8623      8627      8630
      8624      8623      8669      8666      8624      8623      8669      8670
      8624      8623      8669      8671      8625      8623      8627      8628
      8625      8623      8627      8629      8625      8623      8627      8630
      8625      8623      8669      8666      8625      8623      8669      8670
      8625      8623      8669      8671      8626      8625      8623      8627
      8626      8625      8623      8669      8627      8623      8669      8666
      8627      8623      8669      8670      8627      8623      8669      8671
      8627      8630      8631      8632      8627      8630      8631      8633
      8627      8630      8661      8659      8627      8630      8661      8662
      8627      8630      8661      8666      8628      8627      8623      8669
      8628      8627      8630      8631      8628      8627      8630      8661
      8629      8627      8623      8669      8629      8627      8630      8631
      8629      8627      8630      8661      8630      8627      8623      8669
      8630      8631      8633      8634      8630      8631      8633      8635
      8630      8631      8633      8636      8630      8661      8659      8636
      8630      8661      8659      8656      8630      8661      8659      8660
      8630      8661      8662      8663      8630      8661      8662      8664
      8630      8661      8662      8665      8630      8661      8666      8667
      8630      8661      8666      8668      8630      8661      8666      8669
      8631      8630      8661      8659      8631      8630      8661      8662
      8631      8630      8661      8666      8631      8633      8636      8637
      8631      8633      8636      8638      8631      8633      8636      8659
      8632      8631      8630      8661      8632      8631      8633      8634
      8632      8631      8633      8635      8632      8631      8633      8636
      8633      8631      8630      8661      8633      8636      8638      8639
      8633      8636      8638      8640      8633      8636      8638      8648
      8633      8636      8659      8656      8633      8636      8659      8660
      8633      8636      8659      8661      8634      8633      8636      8637
      8634      8633      8636      8638      8634      8633      8636      8659
      8635      8633      8636      8637      8635      8633      8636      8638
      8635      8633      8636      8659      8636      8638      8640      8641
      8636      8638      8640      8642      8636      8638      8640      8643
      8636      8638      8648      8646      8636      8638      8648      8649
      8636      8638      8648      8653      8636      8659      8656      8653
      8636      8659      8656      8657      8636      8659      8656      8658
      8636      8659      8661      8662      8636      8659      8661      8666
      8637      8636      8638      8639      8637      8636      8638      8640
      8637      8636      8638      8648      8637      8636      8659      8656
      8637      8636      8659      8660      8637      8636      8659      8661
      8638      8636      8659      8656      8638      8636      8659      8660
      8638      8636      8659      8661      8638      8640      8643      8644
      8638      8640      8643      8645      8638      8640      8643      8646
      8638      8648      8646      8643      8638      8648      8646      8647
      8638      8648      8646      8672      8638      8648      8649      8650
      8638      8648      8649      8651      8638      8648      8649      8652
      8638      8648      8653      8654      8638      8648      8653      8655
      8638      8648      8653      8656      8639      8638      8636      8659
      8639      8638      8640      8641      8639      8638      8640      8642
      8639      8638      8640      8643      8639      8638      8648      8646
      8639      8638      8648      8649      8639      8638      8648      8653
      8640      8638      8636      8659      8640      8638      8648      8646
      8640      8638      8648      8649      8640      8638      8648      8653
      8640      8643      8646      8647      8640      8643      8646      8648
      8640      8643      8646      8672      8641      8640      8638      8648
      8641      8640      8643      8644      8641      8640      8643      8645
      8641      8640      8643      8646      8642      8640      8638      8648
      8642      8640      8643      8644      8642      8640      8643      8645
      8642      8640      8643      8646      8643      8640      8638      8648
      8643      8646      8648      8649      8643      8646      8648      8653
      8643      8646      8672      8673      8643      8646      8672      8674
      8643      8646      8672      8678      8644      8643      8646      8647
      8644      8643      8646      8648      8644      8643      8646      8672
      8645      8643      8646      8647      8645      8643      8646      8648
      8645      8643      8646      8672      8646      8648      8649      8650
      8646      8648      8649      8651      8646      8648      8649      8652
      8646      8648      8653      8654      8646      8648      8653      8655
      8646      8648      8653      8656      8646      8672      8674      8675
      8646      8672      8674      8676      8646      8672      8674      8677
      8646      8672      8678      8679      8646      8672      8678      8680
      8646      8672      8678      8681      8647      8646      8648      8649
      8647      8646      8648      8653      8647      8646      8672      8673
      8647      8646      8672      8674      8647      8646      8672      8678
      8648      8638      8636      8659      8648      8646      8672      8673
      8648      8646      8672      8674      8648      8646      8672      8678
      8648      8653      8656      8657      8648      8653      8656      8658
      8648      8653      8656      8659      8649      8648      8646      8672
      8649      8648      8653      8654      8649      8648      8653      8655
      8649      8648      8653      8656      8650      8649      8648      8653
      8651      8649      8648      8653      8652      8649      8648      8653
      8653      8648      8646      8672      8653      8656      8659      8660
      8653      8656      8659      8661      8654      8653      8656      8657
      8654      8653      8656      8658      8654      8653      8656      8659
      8655      8653      8656      8657      8655      8653      8656      8658
      8655      8653      8656      8659      8656      8659      8661      8662
      8656      8659      8661      8666      8657      8656      8659      8660
      8657      8656      8659      8661      8658      8656      8659      8660
      8658      8656      8659      8661      8659      8661      8662      8663
      8659      8661      8662      8664      8659      8661      8662      8665
      8659      8661      8666      8667      8659      8661      8666      8668
      8659      8661      8666      8669      8660      8659      8661      8662
      8660      8659      8661      8666      8661      8666      8669      8670
      8661      8666      8669      8671      8662      8661      8666      8667
      8662      8661      8666      8668      8662      8661      8666      8669
      8663      8662      8661      8666      8664      8662      8661      8666
      8665      8662      8661      8666      8667      8666      8669      8670
      8667      8666      8669      8671      8668      8666      8669      8670
      8668      8666      8669      8671      8672      8678      8681      8682
      8672      8678      8681      8683      8672      8678      8681      8684
      8673      8672      8674      8675      8673      8672      8674      8676
      8673      8672      8674      8677      8673      8672      8678      8679
      8673      8672      8678      8680      8673      8672      8678      8681
      8674      8672      8678      8679      8674      8672      8678      8680
      8674      8672      8678      8681      8675      8674      8672      8678
      8676      8674      8672      8678      8677      8674      8672      8678
      8678      8681      8684      8685      8678      8681      8684      8686
      8678      8681      8684      8687      8679      8678      8681      8682
      8679      8678      8681      8683      8679      8678      8681      8684
      8680      8678      8681      8682      8680      8678      8681      8683
      8680      8678      8681      8684      8681      8684      8687      8688
      8681      8684      8687      8689      8681      8684      8687      8693
      8682      8681      8684      8685      8682      8681      8684      8686
      8682      8681      8684      8687      8683      8681      8684      8685
      8683      8681      8684      8686      8683      8681      8684      8687
      8684      8687      8689      8690      8684      8687      8689      8691
      8684      8687      8689      8692      8684      8687      8693      8694
      8684      8687      8693      8695      8684      8687      8693      8696
      8685      8684      8687      8688      8685      8684      8687      8689
      8685      8684      8687      8693      8686      8684      8687      8688
      8686      8684      8687      8689      8686      8684      8687      8693
      8688      8687      8689      8690      8688      8687      8689      8691
      8688      8687      8689      8692      8688      8687      8693      8694
      8688      8687      8693      8695      8688      8687      8693      8696
      8689      8687      8693      8694      8689      8687      8693      8695
      8689      8687      8693      8696      8690      8689      8687      8693
      8691      8689      8687      8693      8692      8689      8687      8693
      8697      8701      8704      8705      8697      8701      8704      8735
      8697      8743      8740      8735      8697      8743      8740      8741
      8697      8743      8740      8742      8698      8697      8699      8700
      8698      8697      8701      8702      8698      8697      8701      8703
      8698      8697      8701      8704      8698      8697      8743      8740
      8698      8697      8743      8744      8698      8697      8743      8745
      8699      8697      8701      8702      8699      8697      8701      8703
      8699      8697      8701      8704      8699      8697      8743      8740
      8699      8697      8743      8744      8699      8697      8743      8745
      8700      8699      8697      8701      8700      8699      8697      8743
      8701      8697      8743      8740      8701      8697      8743      8744
      8701      8697      8743      8745      8701      8704      8705      8706
      8701      8704      8705      8707      8701      8704      8735      8733
      8701      8704      8735      8736      8701      8704      8735      8740
      8702      8701      8697      8743      8702      8701      8704      8705
      8702      8701      8704      8735      8703      8701      8697      8743
      8703      8701      8704      8705      8703      8701      8704      8735
      8704      8701      8697      8743      8704      8705      8707      8708
      8704      8705      8707      8709      8704      8705      8707      8710
      8704      8735      8733      8710      8704      8735      8733      8730
      8704      8735      8733      8734      8704      8735      8736      8737
      8704      8735      8736      8738      8704      8735      8736      8739
      8704      8735      8740      8741      8704      8735      8740      8742
      8704      8735      8740      8743      8705      8704      8735      8733
      8705      8704      8735      8736      8705      8704      8735      8740
      8705      8707      8710      8711      8705      8707      8710      8712
      8705      8707      8710      8733      8706      8705      8704      8735
      8706      8705      8707      8708      8706      8705      8707      8709
      8706      8705      8707      8710      8707      8705      8704      8735
      8707      8710      8712      8713      8707      8710      8712      8714
      8707      8710      8712      8722      8707      8710      8733      8730
      8707      8710      8733      8734      8707      8710      8733      8735
      8708      8707      8710      8711      8708      8707      8710      8712
      8708      8707      8710      8733      8709      8707      8710      8711
      8709      8707      8710      8712      8709      8707      8710      8733
      8710      8712      8714      8715      8710      8712      8714      8716
      8710      8712      8714      8717      8710      8712      8722      8720
      8710      8712      8722      8723      8710      8712      8722      8727
      8710      8733      8730      8727      8710      8733      8730      8731
      8710      8733      8730      8732      8710      8733      8735      8736
      8710      8733      8735      8740      8711      8710      8712      8713
      8711      8710      8712      8714      8711      8710      8712      8722
      8711      8710      8733      8730      8711      8710      8733      8734
      8711      8710      8733      8735      8712      8710      8733      8730
      8712      8710      8733      8734      8712      8710      8733      8735
      8712      8714      8717      8718      8712      8714      8717      8719
      8712      8714      8717      8720      8712      8722      8720      8717
      8712      8722      8720      8721      8712      8722      8720      8746
      8712      8722      8723      8724      8712      8722      8723      8725
      8712      8722      8723      8726      8712      8722      8727      8728
      8712      8722      8727      8729      8712      8722      8727      8730
      8713      8712      8710      8733      8713      8712      8714      8715
      8713      8712      8714      8716      8713      8712      8714      8717
      8713      8712      8722      8720      8713      8712      8722      8723
      8713      8712      8722      8727      8714      8712      8710      8733
      8714      8712      8722      8720      8714      8712      8722      8723
      8714      8712      8722      8727      8714      8717      8720      8721
      8714      8717      8720      8722      8714      8717      8720      8746
      8715      8714      8712      8722      8715      8714      8717      8718
      8715      8714      8717      8719      8715      8714      8717      8720
      8716      8714      8712      8722      8716      8714      8717      8718
      8716      8714      8717      8719      8716      8714      8717      8720
      8717      8714      8712      8722      8717      8720      8722      8723
      8717      8720      8722      8727      8717      8720      8746      8747
      8717      8720      8746      8748      8717      8720      8746      8752
      8718      8717      8720      8721      8718      8717      8720      8722
      8718      8717      8720      8746      8719      8717      8720      8721
      8719      8717      8720      8722      8719      8717      8720      8746
      8720      8722      8723      8724      8720      8722      8723      8725
      8720      8722      8723      8726      8720      8722      8727      8728
      8720      8722      8727      8729      8720      8722      8727      8730
      8720      8746      8748      8749      8720      8746      8748      8750
      8720      8746      8748      8751      8720      8746      8752      8753
      8720      8746      8752      8754      8720      8746      8752      8755
      8721      8720      8722      8723      8721      8720      8722      8727
      8721      8720      8746      8747      8721      8720      8746      8748
      8721      8720      8746      8752      8722      8712      8710      8733
      8722      8720      8746      8747      8722      8720      8746      8748
      8722      8720      8746      8752      8722      8727      8730      8731
      8722      8727      8730      8732      8722      8727      8730      8733
      8723      8722      8720      8746      8723      8722      8727      8728
      8723      8722      8727      8729      8723      8722      8727      8730
      8724      8723      8722      8727      8725      8723      8722      8727
      8726      8723      8722      8727      8727      8722      8720      8746
      8727      8730      8733      8734      8727      8730      8733      8735
      8728      8727      8730      8731      8728      8727      8730      8732
      8728      8727      8730      8733      8729      8727      8730      8731
      8729      8727      8730      8732      8729      8727      8730      8733
      8730      8733      8735      8736      8730      8733      8735      8740
      8731      8730      8733      8734      8731      8730      8733      8735
      8732      8730      8733      8734      8732      8730      8733      8735
      8733      8735      8736      8737      8733      8735      8736      8738
      8733      8735      8736      8739      8733      8735      8740      8741
      8733      8735      8740      8742      8733      8735      8740      8743
      8734      8733      8735      8736      8734      8733      8735      8740
      8735      8740      8743      8744      8735      8740      8743      8745
      8736      8735      8740      8741      8736      8735      8740      8742
      8736      8735      8740      8743      8737      8736      8735      8740
      8738      8736      8735      8740      8739      8736      8735      8740
      8741      8740      8743      8744      8741      8740      8743      8745
      8742      8740      8743      8744      8742      8740      8743      8745
      8746      8752      8755      8756      8746      8752      8755      8757
      8746      8752      8755      8758      8747      8746      8748      8749
      8747      8746      8748      8750      8747      8746      8748      8751
      8747      8746      8752      8753      8747      8746      8752      8754
      8747      8746      8752      8755      8748      8746      8752      8753
      8748      8746      8752      8754      8748      8746      8752      8755
      8749      8748      8746      8752      8750      8748      8746      8752
      8751      8748      8746      8752      8752      8755      8758      8759
      8752      8755      8758      8760      8752      8755      8758      8761
      8753      8752      8755      8756      8753      8752      8755      8757
      8753      8752      8755      8758      8754      8752      8755      8756
      8754      8752      8755      8757      8754      8752      8755      8758
      8755      8758      8761      8762      8755      8758      8761      8763
      8755      8758      8761      8767      8756      8755      8758      8759
      8756      8755      8758      8760      8756      8755      8758      8761
      8757      8755      8758      8759      8757      8755      8758      8760
      8757      8755      8758      8761      8758      8761      8763      8764
      8758      8761      8763      8765      8758      8761      8763      8766
      8758      8761      8767      8768      8758      8761      8767      8769
      8758      8761      8767      8770      8759      8758      8761      8762
      8759      8758      8761      8763      8759      8758      8761      8767
      8760      8758      8761      8762      8760      8758      8761      8763
      8760      8758      8761      8767      8762      8761      8763      8764
      8762      8761      8763      8765      8762      8761      8763      8766
      8762      8761      8767      8768      8762      8761      8767      8769
      8762      8761      8767      8770      8763      8761      8767      8768
      8763      8761      8767      8769      8763      8761      8767      8770
      8764      8763      8761      8767      8765      8763      8761      8767
      8766      8763      8761      8767      8771      8775      8778      8779
      8771      8775      8778      8809      8771      8817      8814      8809
      8771      8817      8814      8815      8771      8817      8814      8816
      8772      8771      8773      8774      8772      8771      8775      8776
      8772      8771      8775      8777      8772      8771      8775      8778
      8772      8771      8817      8814      8772      8771      8817      8818
      8772      8771      8817      8819      8773      8771      8775      8776
      8773      8771      8775      8777      8773      8771      8775      8778
      8773      8771      8817      8814      8773      8771      8817      8818
      8773      8771      8817      8819      8774      8773      8771      8775
      8774      8773      8771      8817      8775      8771      8817      8814
      8775      8771      8817      8818      8775      8771      8817      8819
      8775      8778      8779      8780      8775      8778      8779      8781
      8775      8778      8809      8807      8775      8778      8809      8810
      8775      8778      8809      8814      8776      8775      8771      8817
      8776      8775      8778      8779      8776      8775      8778      8809
      8777      8775      8771      8817      8777      8775      8778      8779
      8777      8775      8778      8809      8778      8775      8771      8817
      8778      8779      8781      8782      8778      8779      8781      8783
      8778      8779      8781      8784      8778      8809      8807      8784
      8778      8809      8807      8804      8778      8809      8807      8808
      8778      8809      8810      8811      8778      8809      8810      8812
      8778      8809      8810      8813      8778      8809      8814      8815
      8778      8809      8814      8816      8778      8809      8814      8817
      8779      8778      8809      8807      8779      8778      8809      8810
      8779      8778      8809      8814      8779      8781      8784      8785
      8779      8781      8784      8786      8779      8781      8784      8807
      8780      8779      8778      8809      8780      8779      8781      8782
      8780      8779      8781      8783      8780      8779      8781      8784
      8781      8779      8778      8809      8781      8784      8786      8787
      8781      8784      8786      8788      8781      8784      8786      8796
      8781      8784      8807      8804      8781      8784      8807      8808
      8781      8784      8807      8809      8782      8781      8784      8785
      8782      8781      8784      8786      8782      8781      8784      8807
      8783      8781      8784      8785      8783      8781      8784      8786
      8783      8781      8784      8807      8784      8786      8788      8789
      8784      8786      8788      8790      8784      8786      8788      8791
      8784      8786      8796      8794      8784      8786      8796      8797
      8784      8786      8796      8801      8784      8807      8804      8801
      8784      8807      8804      8805      8784      8807      8804      8806
      8784      8807      8809      8810      8784      8807      8809      8814
      8785      8784      8786      8787      8785      8784      8786      8788
      8785      8784      8786      8796      8785      8784      8807      8804
      8785      8784      8807      8808      8785      8784      8807      8809
      8786      8784      8807      8804      8786      8784      8807      8808
      8786      8784      8807      8809      8786      8788      8791      8792
      8786      8788      8791      8793      8786      8788      8791      8794
      8786      8796      8794      8791      8786      8796      8794      8795
      8786      8796      8794      8820      8786      8796      8797      8798
      8786      8796      8797      8799      8786      8796      8797      8800
      8786      8796      8801      8802      8786      8796      8801      8803
      8786      8796      8801      8804      8787      8786      8784      8807
      8787      8786      8788      8789      8787      8786      8788      8790
      8787      8786      8788      8791      8787      8786      8796      8794
      8787      8786      8796      8797      8787      8786      8796      8801
      8788      8786      8784      8807      8788      8786      8796      8794
      8788      8786      8796      8797      8788      8786      8796      8801
      8788      8791      8794      8795      8788      8791      8794      8796
      8788      8791      8794      8820      8789      8788      8786      8796
      8789      8788      8791      8792      8789      8788      8791      8793
      8789      8788      8791      8794      8790      8788      8786      8796
      8790      8788      8791      8792      8790      8788      8791      8793
      8790      8788      8791      8794      8791      8788      8786      8796
      8791      8794      8796      8797      8791      8794      8796      8801
      8791      8794      8820      8821      8791      8794      8820      8822
      8791      8794      8820      8826      8792      8791      8794      8795
      8792      8791      8794      8796      8792      8791      8794      8820
      8793      8791      8794      8795      8793      8791      8794      8796
      8793      8791      8794      8820      8794      8796      8797      8798
      8794      8796      8797      8799      8794      8796      8797      8800
      8794      8796      8801      8802      8794      8796      8801      8803
      8794      8796      8801      8804      8794      8820      8822      8823
      8794      8820      8822      8824      8794      8820      8822      8825
      8794      8820      8826      8827      8794      8820      8826      8828
      8794      8820      8826      8829      8795      8794      8796      8797
      8795      8794      8796      8801      8795      8794      8820      8821
      8795      8794      8820      8822      8795      8794      8820      8826
      8796      8786      8784      8807      8796      8794      8820      8821
      8796      8794      8820      8822      8796      8794      8820      8826
      8796      8801      8804      8805      8796      8801      8804      8806
      8796      8801      8804      8807      8797      8796      8794      8820
      8797      8796      8801      8802      8797      8796      8801      8803
      8797      8796      8801      8804      8798      8797      8796      8801
      8799      8797      8796      8801      8800      8797      8796      8801
      8801      8796      8794      8820      8801      8804      8807      8808
      8801      8804      8807      8809      8802      8801      8804      8805
      8802      8801      8804      8806      8802      8801      8804      8807
      8803      8801      8804      8805      8803      8801      8804      8806
      8803      8801      8804      8807      8804      8807      8809      8810
      8804      8807      8809      8814      8805      8804      8807      8808
      8805      8804      8807      8809      8806      8804      8807      8808
      8806      8804      8807      8809      8807      8809      8810      8811
      8807      8809      8810      8812      8807      8809      8810      8813
      8807      8809      8814      8815      8807      8809      8814      8816
      8807      8809      8814      8817      8808      8807      8809      8810
      8808      8807      8809      8814      8809      8814      8817      8818
      8809      8814      8817      8819      8810      8809      8814      8815
      8810      8809      8814      8816      8810      8809      8814      8817
      8811      8810      8809      8814      8812      8810      8809      8814
      8813      8810      8809      8814      8815      8814      8817      8818
      8815      8814      8817      8819      8816      8814      8817      8818
      8816      8814      8817      8819      8820      8826      8829      8830
      8820      8826      8829      8831      8820      8826      8829      8832
      8821      8820      8822      8823      8821      8820      8822      8824
      8821      8820      8822      8825      8821      8820      8826      8827
      8821      8820      8826      8828      8821      8820      8826      8829
      8822      8820      8826      8827      8822      8820      8826      8828
      8822      8820      8826      8829      8823      8822      8820      8826
      8824      8822      8820      8826      8825      8822      8820      8826
      8826      8829      8832      8833      8826      8829      8832      8834
      8826      8829      8832      8835      8827      8826      8829      8830
      8827      8826      8829      8831      8827      8826      8829      8832
      8828      8826      8829      8830      8828      8826      8829      8831
      8828      8826      8829      8832      8829      8832      8835      8836
      8829      8832      8835      8837      8829      8832      8835      8841
      8830      8829      8832      8833      8830      8829      8832      8834
      8830      8829      8832      8835      8831      8829      8832      8833
      8831      8829      8832      8834      8831      8829      8832      8835
      8832      8835      8837      8838      8832      8835      8837      8839
      8832      8835      8837      8840      8832      8835      8841      8842
      8832      8835      8841      8843      8832      8835      8841      8844
      8833      8832      8835      8836      8833      8832      8835      8837
      8833      8832      8835      8841      8834      8832      8835      8836
      8834      8832      8835      8837      8834      8832      8835      8841
      8836      8835      8837      8838      8836      8835      8837      8839
      8836      8835      8837      8840      8836      8835      8841      8842
      8836      8835      8841      8843      8836      8835      8841      8844
      8837      8835      8841      8842      8837      8835      8841      8843
      8837      8835      8841      8844      8838      8837      8835      8841
      8839      8837      8835      8841      8840      8837      8835      8841
      8845      8849      8852      8853      8845      8849      8852      8883
      8845      8891      8888      8883      8845      8891      8888      8889
      8845      8891      8888      8890      8846      8845      8847      8848
      8846      8845      8849      8850      8846      8845      8849      8851
      8846      8845      8849      8852      8846      8845      8891      8888
      8846      8845      8891      8892      8846      8845      8891      8893
      8847      8845      8849      8850      8847      8845      8849      8851
      8847      8845      8849      8852      8847      8845      8891      8888
      8847      8845      8891      8892      8847      8845      8891      8893
      8848      8847      8845      8849      8848      8847      8845      8891
      8849      8845      8891      8888      8849      8845      8891      8892
      8849      8845      8891      8893      8849      8852      8853      8854
      8849      8852      8853      8855      8849      8852      8883      8881
      8849      8852      8883      8884      8849      8852      8883      8888
      8850      8849      8845      8891      8850      8849      8852      8853
      8850      8849      8852      8883      8851      8849      8845      8891
      8851      8849      8852      8853      8851      8849      8852      8883
      8852      8849      8845      8891      8852      8853      8855      8856
      8852      8853      8855      8857      8852      8853      8855      8858
      8852      8883      8881      8858      8852      8883      8881      8878
      8852      8883      8881      8882      8852      8883      8884      8885
      8852      8883      8884      8886      8852      8883      8884      8887
      8852      8883      8888      8889      8852      8883      8888      8890
      8852      8883      8888      8891      8853      8852      8883      8881
      8853      8852      8883      8884      8853      8852      8883      8888
      8853      8855      8858      8859      8853      8855      8858      8860
      8853      8855      8858      8881      8854      8853      8852      8883
      8854      8853      8855      8856      8854      8853      8855      8857
      8854      8853      8855      8858      8855      8853      8852      8883
      8855      8858      8860      8861      8855      8858      8860      8862
      8855      8858      8860      8870      8855      8858      8881      8878
      8855      8858      8881      8882      8855      8858      8881      8883
      8856      8855      8858      8859      8856      8855      8858      8860
      8856      8855      8858      8881      8857      8855      8858      8859
      8857      8855      8858      8860      8857      8855      8858      8881
      8858      8860      8862      8863      8858      8860      8862      8864
      8858      8860      8862      8865      8858      8860      8870      8868
      8858      8860      8870      8871      8858      8860      8870      8875
      8858      8881      8878      8875      8858      8881      8878      8879
      8858      8881      8878      8880      8858      8881      8883      8884
      8858      8881      8883      8888      8859      8858      8860      8861
      8859      8858      8860      8862      8859      8858      8860      8870
      8859      8858      8881      8878      8859      8858      8881      8882
      8859      8858      8881      8883      8860      8858      8881      8878
      8860      8858      8881      8882      8860      8858      8881      8883
      8860      8862      8865      8866      8860      8862      8865      8867
      8860      8862      8865      8868      8860      8870      8868      8865
      8860      8870      8868      8869      8860      8870      8868      8894
      8860      8870      8871      8872      8860      8870      8871      8873
      8860      8870      8871      8874      8860      8870      8875      8876
      8860      8870      8875      8877      8860      8870      8875      8878
      8861      8860      8858      8881      8861      8860      8862      8863
      8861      8860      8862      8864      8861      8860      8862      8865
      8861      8860      8870      8868      8861      8860      8870      8871
      8861      8860      8870      8875      8862      8860      8858      8881
      8862      8860      8870      8868      8862      8860      8870      8871
      8862      8860      8870      8875      8862      8865      8868      8869
      8862      8865      8868      8870      8862      8865      8868      8894
      8863      8862      8860      8870      8863      8862      8865      8866
      8863      8862      8865      8867      8863      8862      8865      8868
      8864      8862      8860      8870      8864      8862      8865      8866
      8864      8862      8865      8867      8864      8862      8865      8868
      8865      8862      8860      8870      8865      8868      8870      8871
      8865      8868      8870      8875      8865      8868      8894      8895
      8865      8868      8894      8896      8865      8868      8894      8900
      8866      8865      8868      8869      8866      8865      8868      8870
      8866      8865      8868      8894      8867      8865      8868      8869
      8867      8865      8868      8870      8867      8865      8868      8894
      8868      8870      8871      8872      8868      8870      8871      8873
      8868      8870      8871      8874      8868      8870      8875      8876
      8868      8870      8875      8877      8868      8870      8875      8878
      8868      8894      8896      8897      8868      8894      8896      8898
      8868      8894      8896      8899      8868      8894      8900      8901
      8868      8894      8900      8902      8868      8894      8900      8903
      8869      8868      8870      8871      8869      8868      8870      8875
      8869      8868      8894      8895      8869      8868      8894      8896
      8869      8868      8894      8900      8870      8860      8858      8881
      8870      8868      8894      8895      8870      8868      8894      8896
      8870      8868      8894      8900      8870      8875      8878      8879
      8870      8875      8878      8880      8870      8875      8878      8881
      8871      8870      8868      8894      8871      8870      8875      8876
      8871      8870      8875      8877      8871      8870      8875      8878
      8872      8871      8870      8875      8873      8871      8870      8875
      8874      8871      8870      8875      8875      8870      8868      8894
      8875      8878      8881      8882      8875      8878      8881      8883
      8876      8875      8878      8879      8876      8875      8878      8880
      8876      8875      8878      8881      8877      8875      8878      8879
      8877      8875      8878      8880      8877      8875      8878      8881
      8878      8881      8883      8884      8878      8881      8883      8888
      8879      8878      8881      8882      8879      8878      8881      8883
      8880      8878      8881      8882      8880      8878      8881      8883
      8881      8883      8884      8885      8881      8883      8884      8886
      8881      8883      8884      8887      8881      8883      8888      8889
      8881      8883      8888      8890      8881      8883      8888      8891
      8882      8881      8883      8884      8882      8881      8883      8888
      8883      8888      8891      8892      8883      8888      8891      8893
      8884      8883      8888      8889      8884      8883      8888      8890
      8884      8883      8888      8891      8885      8884      8883      8888
      8886      8884      8883      8888      8887      8884      8883      8888
      8889      8888      8891      8892      8889      8888      8891      8893
      8890      8888      8891      8892      8890      8888      8891      8893
      8894      8900      8903      8904      8894      8900      8903      8905
      8894      8900      8903      8906      8895      8894      8896      8897
      8895      8894      8896      8898      8895      8894      8896      8899
      8895      8894      8900      8901      8895      8894      8900      8902
      8895      8894      8900      8903      8896      8894      8900      8901
      8896      8894      8900      8902      8896      8894      8900      8903
      8897      8896      8894      8900      8898      8896      8894      8900
      8899      8896      8894      8900      8900      8903      8906      8907
      8900      8903      8906      8908      8900      8903      8906      8909
      8901      8900      8903      8904      8901      8900      8903      8905
      8901      8900      8903      8906      8902      8900      8903      8904
      8902      8900      8903      8905      8902      8900      8903      8906
      8903      8906      8909      8910      8903      8906      8909      8911
      8903      8906      8909      8915      8904      8903      8906      8907
      8904      8903      8906      8908      8904      8903      8906      8909
      8905      8903      8906      8907      8905      8903      8906      8908
      8905      8903      8906      8909      8906      8909      8911      8912
      8906      8909      8911      8913      8906      8909      8911      8914
      8906      8909      8915      8916      8906      8909      8915      8917
      8906      8909      8915      8918      8907      8906      8909      8910
      8907      8906      8909      8911      8907      8906      8909      8915
      8908      8906      8909      8910      8908      8906      8909      8911
      8908      8906      8909      8915      8910      8909      8911      8912
      8910      8909      8911      8913      8910      8909      8911      8914
      8910      8909      8915      8916      8910      8909      8915      8917
      8910      8909      8915      8918      8911      8909      8915      8916
      8911      8909      8915      8917      8911      8909      8915      8918
      8912      8911      8909      8915      8913      8911      8909      8915
      8914      8911      8909      8915     13646     13659     13662     13663
     13646     13659     13662     13664     13646     13659     13662     13669
     13647     13646     13651     13652     13647     13646     13651     13653
     13647     13646     13651     13654     13647     13646     13655     13656
     13647     13646     13655     13657     13647     13646     13655     13658
     13647     13646     13659     13660     13647     13646     13659     13661
     13647     13646     13659     13662     13648     13647     13646     13651
     13648     13647     13646     13655     13648     13647     13646     13659
     13649     13647     13646     13651     13649     13647     13646     13655
     13649     13647     13646     13659     13650     13647     13646     13651
     13650     13647     13646     13655     13650     13647     13646     13659
     13651     13646     13655     13656     13651     13646     13655     13657
     13651     13646     13655     13658     13651     13646     13659     13660
     13651     13646     13659     13661     13651     13646     13659     13662
     13652     13651     13646     13655     13652     13651     13646     13659
     13653     13651     13646     13655     13653     13651     13646     13659
     13654     13651     13646     13655     13654     13651     13646     13659
     13655     13646     13659     13660     13655     13646     13659     13661
     13655     13646     13659     13662     13656     13655     13646     13659
     13657     13655     13646     13659     13658     13655     13646     13659
     13659     13662     13669     13665     13660     13659     13662     13663
     13660     13659     13662     13664     13660     13659     13662     13669
     13661     13659     13662     13663     13661     13659     13662     13664
     13661     13659     13662     13669     13662     13669     13665     13666
     13662     13669     13665     13667     13662     13669     13665     13668
     13663     13662     13669     13665     13664     13662     13669     13665
     13665     13668     13670     13671     13665     13668     13670     13672
     13665     13668     13670     13675     13666     13665     13668     13670
     13667     13665     13668     13670     13668     13670     13675     13673
     13668     13670     13675     13676     13668     13670     13675     13677
     13669     13665     13668     13670     13670     13675     13673     13674
     13670     13675     13673     13725     13670     13675     13677     13678
     13670     13675     13677     13679     13670     13675     13677     13681
     13671     13670     13675     13673     13671     13670     13675     13676
     13671     13670     13675     13677     13672     13670     13675     13673
     13672     13670     13675     13676     13672     13670     13675     13677
     13673     13675     13677     13678     13673     13675     13677     13679
     13673     13675     13677     13681     13673     13725     13727     13728
     13673     13725     13727     13729     13673     13725     13727     13730
     13674     13673     13675     13676     13674     13673     13675     13677
     13674     13673     13725     13726     13674     13673     13725     13727
     13675     13673     13725     13726     13675     13673     13725     13727
     13675     13677     13679     13680     13675     13677     13681     13682
     13675     13677     13681     13683     13676     13675     13673     13725
     13676     13675     13677     13678     13676     13675     13677     13679
     13676     13675     13677     13681     13677     13675     13673     13725
     13677     13681     13683     13684     13677     13681     13683     13685
     13678     13677     13679     13680     13678     13677     13681     13682
     13678     13677     13681     13683     13679     13677     13681     13682
     13679     13677     13681     13683     13680     13679     13677     13681
     13681     13683     13685     13686     13681     13683     13685     13687
     13681     13683     13685     13688     13682     13681     13683     13684
     13682     13681     13683     13685     13683     13685     13688     13689
     13683     13685     13688     13690     13683     13685     13688     13691
     13684     13683     13685     13686     13684     13683     13685     13687
     13684     13683     13685     13688     13685     13688     13691     13692
     13685     13688     13691     13693     13685     13688     13691     13694
     13686     13685     13688     13689     13686     13685     13688     13690
     13686     13685     13688     13691     13687     13685     13688     13689
     13687     13685     13688     13690     13687     13685     13688     13691
     13688     13691     13694     13695     13688     13691     13694     13696
     13688     13691     13694     13697     13689     13688     13691     13692
     13689     13688     13691     13693     13689     13688     13691     13694
     13690     13688     13691     13692     13690     13688     13691     13693
     13690     13688     13691     13694     13691     13694     13697     13698
     13691     13694     13697     13699     13691     13694     13697     13700
     13692     13691     13694     13695     13692     13691     13694     13696
     13692     13691     13694     13697     13693     13691     13694     13695
     13693     13691     13694     13696     13693     13691     13694     13697
     13694     13697     13700     13701     13694     13697     13700     13702
     13694     13697     13700     13703     13695     13694     13697     13698
     13695     13694     13697     13699     13695     13694     13697     13700
     13696     13694     13697     13698     13696     13694     13697     13699
     13696     13694     13697     13700     13697     13700     13703     13704
     13697     13700     13703     13705     13697     13700     13703     13706
     13698     13697     13700     13701     13698     13697     13700     13702
     13698     13697     13700     13703     13699     13697     13700     13701
     13699     13697     13700     13702     13699     13697     13700     13703
     13700     13703     13706     13707     13700     13703     13706     13708
     13700     13703     13706     13709     13701     13700     13703     13704
     13701     13700     13703     13705     13701     13700     13703     13706
     13702     13700     13703     13704     13702     13700     13703     13705
     13702     13700     13703     13706     13703     13706     13709     13710
     13703     13706     13709     13711     13703     13706     13709     13712
     13704     13703     13706     13707     13704     13703     13706     13708
     13704     13703     13706     13709     13705     13703     13706     13707
     13705     13703     13706     13708     13705     13703     13706     13709
     13706     13709     13712     13713     13706     13709     13712     13714
     13706     13709     13712     13715     13707     13706     13709     13710
     13707     13706     13709     13711     13707     13706     13709     13712
     13708     13706     13709     13710     13708     13706     13709     13711
     13708     13706     13709     13712     13709     13712     13715     13716
     13709     13712     13715     13717     13709     13712     13715     13718
     13710     13709     13712     13713     13710     13709     13712     13714
     13710     13709     13712     13715     13711     13709     13712     13713
     13711     13709     13712     13714     13711     13709     13712     13715
     13712     13715     13718     13719     13712     13715     13718     13720
     13712     13715     13718     13721     13713     13712     13715     13716
     13713     13712     13715     13717     13713     13712     13715     13718
     13714     13712     13715     13716     13714     13712     13715     13717
     13714     13712     13715     13718     13715     13718     13721     13722
     13715     13718     13721     13723     13715     13718     13721     13724
     13716     13715     13718     13719     13716     13715     13718     13720
     13716     13715     13718     13721     13717     13715     13718     13719
     13717     13715     13718     13720     13717     13715     13718     13721
     13719     13718     13721     13722     13719     13718     13721     13723
     13719     13718     13721     13724     13720     13718     13721     13722
     13720     13718     13721     13723     13720     13718     13721     13724
     13725     13727     13730     13731     13725     13727     13730     13732
     13725     13727     13730     13733     13726     13725     13727     13728
     13726     13725     13727     13729     13726     13725     13727     13730
     13727     13730     13733     13734     13727     13730     13733     13735
     13727     13730     13733     13736     13728     13727     13730     13731
     13728     13727     13730     13732     13728     13727     13730     13733
     13729     13727     13730     13731     13729     13727     13730     13732
     13729     13727     13730     13733     13730     13733     13736     13737
     13730     13733     13736     13738     13730     13733     13736     13739
     13731     13730     13733     13734     13731     13730     13733     13735
     13731     13730     13733     13736     13732     13730     13733     13734
     13732     13730     13733     13735     13732     13730     13733     13736
     13733     13736     13739     13740     13733     13736     13739     13741
     13733     13736     13739     13742     13734     13733     13736     13737
     13734     13733     13736     13738     13734     13733     13736     13739
     13735     13733     13736     13737     13735     13733     13736     13738
     13735     13733     13736     13739     13736     13739     13742     13743
     13736     13739     13742     13744     13736     13739     13742     13745
     13737     13736     13739     13740     13737     13736     13739     13741
     13737     13736     13739     13742     13738     13736     13739     13740
     13738     13736     13739     13741     13738     13736     13739     13742
     13739     13742     13745     13746     13739     13742     13745     13747
     13739     13742     13745     13748     13740     13739     13742     13743
     13740     13739     13742     13744     13740     13739     13742     13745
     13741     13739     13742     13743     13741     13739     13742     13744
     13741     13739     13742     13745     13742     13745     13748     13749
     13742     13745     13748     13750     13743     13742     13745     13746
     13743     13742     13745     13747     13743     13742     13745     13748
     13744     13742     13745     13746     13744     13742     13745     13747
     13744     13742     13745     13748     13745     13748     13750     13751
     13745     13748     13750     13752     13746     13745     13748     13749
     13746     13745     13748     13750     13747     13745     13748     13749
     13747     13745     13748     13750     13748     13750     13752     13753
     13748     13750     13752     13754     13748     13750     13752     13755
     13749     13748     13750     13751     13749     13748     13750     13752
     13750     13752     13755     13756     13750     13752     13755     13757
     13750     13752     13755     13758     13751     13750     13752     13753
     13751     13750     13752     13754     13751     13750     13752     13755
     13752     13755     13758     13759     13752     13755     13758     13760
     13752     13755     13758     13761     13753     13752     13755     13756
     13753     13752     13755     13757     13753     13752     13755     13758
     13754     13752     13755     13756     13754     13752     13755     13757
     13754     13752     13755     13758     13755     13758     13761     13762
     13755     13758     13761     13763     13755     13758     13761     13764
     13756     13755     13758     13759     13756     13755     13758     13760
     13756     13755     13758     13761     13757     13755     13758     13759
     13757     13755     13758     13760     13757     13755     13758     13761
     13758     13761     13764     13765     13758     13761     13764     13766
     13758     13761     13764     13767     13759     13758     13761     13762
     13759     13758     13761     13763     13759     13758     13761     13764
     13760     13758     13761     13762     13760     13758     13761     13763
     13760     13758     13761     13764     13761     13764     13767     13768
     13761     13764     13767     13769     13761     13764     13767     13770
     13762     13761     13764     13765     13762     13761     13764     13766
     13762     13761     13764     13767     13763     13761     13764     13765
     13763     13761     13764     13766     13763     13761     13764     13767
     13764     13767     13770     13771     13764     13767     13770     13772
     13764     13767     13770     13773     13765     13764     13767     13768
     13765     13764     13767     13769     13765     13764     13767     13770
     13766     13764     13767     13768     13766     13764     13767     13769
     13766     13764     13767     13770     13767     13770     13773     13774
     13767     13770     13773     13775     13767     13770     13773     13776
     13768     13767     13770     13771     13768     13767     13770     13772
     13768     13767     13770     13773     13769     13767     13770     13771
     13769     13767     13770     13772     13769     13767     13770     13773
     13771     13770     13773     13774     13771     13770     13773     13775
     13771     13770     13773     13776     13772     13770     13773     13774
     13772     13770     13773     13775     13772     13770     13773     13776
      3529      3530      3545      3546      3529      3530      3545      3547
      3529      3530      3545      3551      3530      3529      3533      3534
      3530      3529      3533      3535      3530      3529      3533      3536
      3530      3529      3537      3538      3530      3529      3537      3539
      3530      3529      3537      3540      3530      3529      3541      3542
      3530      3529      3541      3543      3530      3529      3541      3544
      3530      3545      3551      3548      3531      3530      3529      3533
      3531      3530      3529      3537      3531      3530      3529      3541
      3531      3530      3545      3546      3531      3530      3545      3547
      3531      3530      3545      3551      3532      3530      3529      3533
      3532      3530      3529      3537      3532      3530      3529      3541
      3532      3530      3545      3546      3532      3530      3545      3547
      3532      3530      3545      3551      3533      3529      3530      3545
      3533      3529      3537      3538      3533      3529      3537      3539
      3533      3529      3537      3540      3533      3529      3541      3542
      3533      3529      3541      3543      3533      3529      3541      3544
      3534      3533      3529      3537      3534      3533      3529      3541
      3535      3533      3529      3537      3535      3533      3529      3541
      3536      3533      3529      3537      3536      3533      3529      3541
      3537      3529      3530      3545      3537      3529      3541      3542
      3537      3529      3541      3543      3537      3529      3541      3544
      3538      3537      3529      3541      3539      3537      3529      3541
      3540      3537      3529      3541      3541      3529      3530      3545
      3545      3551      3548      3549      3545      3551      3548      3550
      3545      3551      3548      3552      3546      3545      3551      3548
      3547      3545      3551      3548      3548      3552      3553      3554
      3548      3552      3553      3555      3548      3552      3553      3556
      3549      3548      3552      3553      3550      3548      3552      3553
      3551      3548      3552      3553      3552      3553      3556      3557
      3552      3553      3556      3558      3552      3553      3556      3564
      3553      3556      3558      3559      3553      3556      3564      3565
      3553      3556      3564      3566      3553      3556      3564      3567
      3554      3553      3556      3557      3554      3553      3556      3558
      3554      3553      3556      3564      3555      3553      3556      3557
      3555      3553      3556      3558      3555      3553      3556      3564
      3556      3558      3559      3560      3556      3558      3559      3561
      3556      3564      3567      3568      3557      3556      3558      3559
      3557      3556      3564      3565      3557      3556      3564      3566
      3557      3556      3564      3567      3558      3556      3564      3565
      3558      3556      3564      3566      3558      3556      3564      3567
      3558      3559      3561      3562      3558      3559      3561      3563
      3558      3559      3561      3573      3559      3558      3556      3564
      3559      3561      3573      3574      3559      3561      3573      3575
      3559      3561      3573      3576      3560      3559      3561      3562
      3560      3559      3561      3563      3560      3559      3561      3573
      3561      3573      3576      3577      3561      3573      3576      3578
      3561      3573      3576      3579      3562      3561      3573      3574
      3562      3561      3573      3575      3562      3561      3573      3576
      3563      3561      3573      3574      3563      3561      3573      3575
      3563      3561      3573      3576      3564      3567      3568      3569
      3564      3567      3568      3570      3565      3564      3567      3568
      3566      3564      3567      3568      3567      3568      3570      3571
      3567      3568      3570      3572      3567      3568      3570      3620
      3568      3570      3620      3621      3568      3570      3620      3622
      3568      3570      3620      3623      3569      3568      3570      3571
      3569      3568      3570      3572      3569      3568      3570      3620
      3570      3620      3623      3624      3570      3620      3623      3625
      3570      3620      3623      3626      3571      3570      3620      3621
      3571      3570      3620      3622      3571      3570      3620      3623
      3572      3570      3620      3621      3572      3570      3620      3622
      3572      3570      3620      3623      3573      3576      3579      3580
      3573      3576      3579      3581      3574      3573      3576      3577
      3574      3573      3576      3578      3574      3573      3576      3579
      3575      3573      3576      3577      3575      3573      3576      3578
      3575      3573      3576      3579      3576      3579      3581      3582
      3576      3579      3581      3583      3577      3576      3579      3580
      3577      3576      3579      3581      3578      3576      3579      3580
      3578      3576      3579      3581      3579      3581      3583      3584
      3579      3581      3583      3585      3579      3581      3583      3586
      3580      3579      3581      3582      3580      3579      3581      3583
      3581      3583      3586      3587      3581      3583      3586      3588
      3582      3581      3583      3584      3582      3581      3583      3585
      3582      3581      3583      3586      3583      3586      3588      3589
      3583      3586      3588      3590      3584      3583      3586      3587
      3584      3583      3586      3588      3585      3583      3586      3587
      3585      3583      3586      3588      3586      3588      3590      3591
      3586      3588      3590      3592      3586      3588      3590      3593
      3587      3586      3588      3589      3587      3586      3588      3590
      3588      3590      3593      3594      3588      3590      3593      3595
      3589      3588      3590      3591      3589      3588      3590      3592
      3589      3588      3590      3593      3590      3593      3595      3596
      3590      3593      3595      3597      3591      3590      3593      3594
      3591      3590      3593      3595      3592      3590      3593      3594
      3592      3590      3593      3595      3593      3595      3597      3598
      3593      3595      3597      3599      3593      3595      3597      3600
      3594      3593      3595      3596      3594      3593      3595      3597
      3595      3597      3600      3601      3595      3597      3600      3602
      3596      3595      3597      3598      3596      3595      3597      3599
      3596      3595      3597      3600      3597      3600      3602      3603
      3597      3600      3602      3604      3598      3597      3600      3601
      3598      3597      3600      3602      3599      3597      3600      3601
      3599      3597      3600      3602      3600      3602      3604      3605
      3600      3602      3604      3606      3600      3602      3604      3607
      3601      3600      3602      3603      3601      3600      3602      3604
      3602      3604      3607      3608      3602      3604      3607      3609
      3602      3604      3607      3610      3603      3602      3604      3605
      3603      3602      3604      3606      3603      3602      3604      3607
      3604      3607      3610      3611      3604      3607      3610      3612
      3604      3607      3610      3613      3605      3604      3607      3608
      3605      3604      3607      3609      3605      3604      3607      3610
      3606      3604      3607      3608      3606      3604      3607      3609
      3606      3604      3607      3610      3607      3610      3613      3614
      3607      3610      3613      3615      3607      3610      3613      3616
      3608      3607      3610      3611      3608      3607      3610      3612
      3608      3607      3610      3613      3609      3607      3610      3611
      3609      3607      3610      3612      3609      3607      3610      3613
      3610      3613      3616      3617      3610      3613      3616      3618
      3610      3613      3616      3619      3611      3610      3613      3614
      3611      3610      3613      3615      3611      3610      3613      3616
      3612      3610      3613      3614      3612      3610      3613      3615
      3612      3610      3613      3616      3614      3613      3616      3617
      3614      3613      3616      3618      3614      3613      3616      3619
      3615      3613      3616      3617      3615      3613      3616      3618
      3615      3613      3616      3619      3620      3623      3626      3627
      3620      3623      3626      3628      3620      3623      3626      3629
      3621      3620      3623      3624      3621      3620      3623      3625
      3621      3620      3623      3626      3622      3620      3623      3624
      3622      3620      3623      3625      3622      3620      3623      3626
      3623      3626      3629      3630      3623      3626      3629      3631
      3623      3626      3629      3632      3624      3623      3626      3627
      3624      3623      3626      3628      3624      3623      3626      3629
      3625      3623      3626      3627      3625      3623      3626      3628
      3625      3623      3626      3629      3626      3629      3632      3633
      3626      3629      3632      3634      3626      3629      3632      3635
      3627      3626      3629      3630      3627      3626      3629      3631
      3627      3626      3629      3632      3628      3626      3629      3630
      3628      3626      3629      3631      3628      3626      3629      3632
      3629      3632      3635      3636      3629      3632      3635      3637
      3629      3632      3635      3638      3630      3629      3632      3633
      3630      3629      3632      3634      3630      3629      3632      3635
      3631      3629      3632      3633      3631      3629      3632      3634
      3631      3629      3632      3635      3632      3635      3638      3639
      3632      3635      3638      3640      3632      3635      3638      3641
      3633      3632      3635      3636      3633      3632      3635      3637
      3633      3632      3635      3638      3634      3632      3635      3636
      3634      3632      3635      3637      3634      3632      3635      3638
      3635      3638      3641      3642      3635      3638      3641      3643
      3635      3638      3641      3644      3636      3635      3638      3639
      3636      3635      3638      3640      3636      3635      3638      3641
      3637      3635      3638      3639      3637      3635      3638      3640
      3637      3635      3638      3641      3638      3641      3644      3645
      3638      3641      3644      3646      3638      3641      3644      3647
      3639      3638      3641      3642      3639      3638      3641      3643
      3639      3638      3641      3644      3640      3638      3641      3642
      3640      3638      3641      3643      3640      3638      3641      3644
      3641      3644      3647      3648      3641      3644      3647      3649
      3641      3644      3647      3650      3642      3641      3644      3645
      3642      3641      3644      3646      3642      3641      3644      3647
      3643      3641      3644      3645      3643      3641      3644      3646
      3643      3641      3644      3647      3644      3647      3650      3651
      3644      3647      3650      3652      3644      3647      3650      3653
      3645      3644      3647      3648      3645      3644      3647      3649
      3645      3644      3647      3650      3646      3644      3647      3648
      3646      3644      3647      3649      3646      3644      3647      3650
      3647      3650      3653      3654      3647      3650      3653      3655
      3647      3650      3653      3656      3648      3647      3650      3651
      3648      3647      3650      3652      3648      3647      3650      3653
      3649      3647      3650      3651      3649      3647      3650      3652
      3649      3647      3650      3653      3650      3653      3656      3657
      3650      3653      3656      3658      3650      3653      3656      3659
      3651      3650      3653      3654      3651      3650      3653      3655
      3651      3650      3653      3656      3652      3650      3653      3654
      3652      3650      3653      3655      3652      3650      3653      3656
      3653      3656      3659      3660      3653      3656      3659      3661
      3653      3656      3659      3662      3654      3653      3656      3657
      3654      3653      3656      3658      3654      3653      3656      3659
      3655      3653      3656      3657      3655      3653      3656      3658
      3655      3653      3656      3659      3656      3659      3662      3663
      3656      3659      3662      3664      3656      3659      3662      3665
      3657      3656      3659      3660      3657      3656      3659      3661
      3657      3656      3659      3662      3658      3656      3659      3660
      3658      3656      3659      3661      3658      3656      3659      3662
      3659      3662      3665      3666      3659      3662      3665      3667
      3659      3662      3665      3668      3660      3659      3662      3663
      3660      3659      3662      3664      3660      3659      3662      3665
      3661      3659      3662      3663      3661      3659      3662      3664
      3661      3659      3662      3665      3663      3662      3665      3666
      3663      3662      3665      3667      3663      3662      3665      3668
      3664      3662      3665      3666      3664      3662      3665      3667
      3664      3662      3665      3668     17314     17318     17321     17322
     17314     17318     17321     17323     17314     17318     17321     17327
     17315     17314     17318     17319     17315     17314     17318     17320
     17315     17314     17318     17321     17316     17314     17318     17319
     17316     17314     17318     17320     17316     17314     17318     17321
     17317     17314     17318     17319     17317     17314     17318     17320
     17317     17314     17318     17321     17318     17321     17327     17324
     17319     17318     17321     17322     17319     17318     17321     17323
     17319     17318     17321     17327     17320     17318     17321     17322
     17320     17318     17321     17323     17320     17318     17321     17327
     17321     17327     17324     17325     17321     17327     17324     17326
     17321     17327     17324     17328     17322     17321     17327     17324
     17323     17321     17327     17324     17324     17328     17329     17330
     17324     17328     17329     17331     17324     17328     17329     17332
     17325     17324     17328     17329     17326     17324     17328     17329
     17327     17324     17328     17329     17328     17329     17332     17333
     17328     17329     17332     17334     17328     17329     17332     17340
     17329     17332     17334     17335     17329     17332     17340     17341
     17329     17332     17340     17342     17329     17332     17340     17343
     17330     17329     17332     17333     17330     17329     17332     17334
     17330     17329     17332     17340     17331     17329     17332     17333
     17331     17329     17332     17334     17331     17329     17332     17340
     17332     17334     17335     17336     17332     17334     17335     17337
     17332     17340     17343     17344     17333     17332     17334     17335
     17333     17332     17340     17341     17333     17332     17340     17342
     17333     17332     17340     17343     17334     17332     17340     17341
     17334     17332     17340     17342     17334     17332     17340     17343
     17334     17335     17337     17338     17334     17335     17337     17339
     17334     17335     17337     17349     17335     17334     17332     17340
     17335     17337     17349     17350     17335     17337     17349     17351
     17335     17337     17349     17352     17336     17335     17337     17338
     17336     17335     17337     17339     17336     17335     17337     17349
     17337     17349     17352     17353     17337     17349     17352     17354
     17337     17349     17352     17355     17338     17337     17349     17350
     17338     17337     17349     17351     17338     17337     17349     17352
     17339     17337     17349     17350     17339     17337     17349     17351
     17339     17337     17349     17352     17340     17343     17344     17345
     17340     17343     17344     17346     17341     17340     17343     17344
     17342     17340     17343     17344     17343     17344     17346     17347
     17343     17344     17346     17348     17343     17344     17346     17396
     17344     17346     17396     17397     17344     17346     17396     17398
     17344     17346     17396     17399     17345     17344     17346     17347
     17345     17344     17346     17348     17345     17344     17346     17396
     17346     17396     17399     17400     17346     17396     17399     17401
     17346     17396     17399     17402     17347     17346     17396     17397
     17347     17346     17396     17398     17347     17346     17396     17399
     17348     17346     17396     17397     17348     17346     17396     17398
     17348     17346     17396     17399     17349     17352     17355     17356
     17349     17352     17355     17357     17350     17349     17352     17353
     17350     17349     17352     17354     17350     17349     17352     17355
     17351     17349     17352     17353     17351     17349     17352     17354
     17351     17349     17352     17355     17352     17355     17357     17358
     17352     17355     17357     17359     17353     17352     17355     17356
     17353     17352     17355     17357     17354     17352     17355     17356
     17354     17352     17355     17357     17355     17357     17359     17360
     17355     17357     17359     17361     17355     17357     17359     17362
     17356     17355     17357     17358     17356     17355     17357     17359
     17357     17359     17362     17363     17357     17359     17362     17364
     17358     17357     17359     17360     17358     17357     17359     17361
     17358     17357     17359     17362     17359     17362     17364     17365
     17359     17362     17364     17366     17360     17359     17362     17363
     17360     17359     17362     17364     17361     17359     17362     17363
     17361     17359     17362     17364     17362     17364     17366     17367
     17362     17364     17366     17368     17362     17364     17366     17369
     17363     17362     17364     17365     17363     17362     17364     17366
     17364     17366     17369     17370     17364     17366     17369     17371
     17365     17364     17366     17367     17365     17364     17366     17368
     17365     17364     17366     17369     17366     17369     17371     17372
     17366     17369     17371     17373     17367     17366     17369     17370
     17367     17366     17369     17371     17368     17366     17369     17370
     17368     17366     17369     17371     17369     17371     17373     17374
     17369     17371     17373     17375     17369     17371     17373     17376
     17370     17369     17371     17372     17370     17369     17371     17373
     17371     17373     17376     17377     17371     17373     17376     17378
     17372     17371     17373     17374     17372     17371     17373     17375
     17372     17371     17373     17376     17373     17376     17378     17379
     17373     17376     17378     17380     17374     17373     17376     17377
     17374     17373     17376     17378     17375     17373     17376     17377
     17375     17373     17376     17378     17376     17378     17380     17381
     17376     17378     17380     17382     17376     17378     17380     17383
     17377     17376     17378     17379     17377     17376     17378     17380
     17378     17380     17383     17384     17378     17380     17383     17385
     17378     17380     17383     17386     17379     17378     17380     17381
     17379     17378     17380     17382     17379     17378     17380     17383
     17380     17383     17386     17387     17380     17383     17386     17388
     17380     17383     17386     17389     17381     17380     17383     17384
     17381     17380     17383     17385     17381     17380     17383     17386
     17382     17380     17383     17384     17382     17380     17383     17385
     17382     17380     17383     17386     17383     17386     17389     17390
     17383     17386     17389     17391     17383     17386     17389     17392
     17384     17383     17386     17387     17384     17383     17386     17388
     17384     17383     17386     17389     17385     17383     17386     17387
     17385     17383     17386     17388     17385     17383     17386     17389
     17386     17389     17392     17393     17386     17389     17392     17394
     17386     17389     17392     17395     17387     17386     17389     17390
     17387     17386     17389     17391     17387     17386     17389     17392
     17388     17386     17389     17390     17388     17386     17389     17391
     17388     17386     17389     17392     17390     17389     17392     17393
     17390     17389     17392     17394     17390     17389     17392     17395
     17391     17389     17392     17393     17391     17389     17392     17394
     17391     17389     17392     17395     17396     17399     17402     17403
     17396     17399     17402     17404     17396     17399     17402     17405
     17397     17396     17399     17400     17397     17396     17399     17401
     17397     17396     17399     17402     17398     17396     17399     17400
     17398     17396     17399     17401     17398     17396     17399     17402
     17399     17402     17405     17406     17399     17402     17405     17407
     17399     17402     17405     17408     17400     17399     17402     17403
     17400     17399     17402     17404     17400     17399     17402     17405
     17401     17399     17402     17403     17401     17399     17402     17404
     17401     17399     17402     17405     17402     17405     17408     17409
     17402     17405     17408     17410     17402     17405     17408     17411
     17403     17402     17405     17406     17403     17402     17405     17407
     17403     17402     17405     17408     17404     17402     17405     17406
     17404     17402     17405     17407     17404     17402     17405     17408
     17405     17408     17411     17412     17405     17408     17411     17413
     17405     17408     17411     17414     17406     17405     17408     17409
     17406     17405     17408     17410     17406     17405     17408     17411
     17407     17405     17408     17409     17407     17405     17408     17410
     17407     17405     17408     17411     17408     17411     17414     17415
     17408     17411     17414     17416     17408     17411     17414     17417
     17409     17408     17411     17412     17409     17408     17411     17413
     17409     17408     17411     17414     17410     17408     17411     17412
     17410     17408     17411     17413     17410     17408     17411     17414
     17411     17414     17417     17418     17411     17414     17417     17419
     17411     17414     17417     17420     17412     17411     17414     17415
     17412     17411     17414     17416     17412     17411     17414     17417
     17413     17411     17414     17415     17413     17411     17414     17416
     17413     17411     17414     17417     17414     17417     17420     17421
     17414     17417     17420     17422     17414     17417     17420     17423
     17415     17414     17417     17418     17415     17414     17417     17419
     17415     17414     17417     17420     17416     17414     17417     17418
     17416     17414     17417     17419     17416     17414     17417     17420
     17417     17420     17423     17424     17417     17420     17423     17425
     17417     17420     17423     17426     17418     17417     17420     17421
     17418     17417     17420     17422     17418     17417     17420     17423
     17419     17417     17420     17421     17419     17417     17420     17422
     17419     17417     17420     17423     17420     17423     17426     17427
     17420     17423     17426     17428     17420     17423     17426     17429
     17421     17420     17423     17424     17421     17420     17423     17425
     17421     17420     17423     17426     17422     17420     17423     17424
     17422     17420     17423     17425     17422     17420     17423     17426
     17423     17426     17429     17430     17423     17426     17429     17431
     17423     17426     17429     17432     17424     17423     17426     17427
     17424     17423     17426     17428     17424     17423     17426     17429
     17425     17423     17426     17427     17425     17423     17426     17428
     17425     17423     17426     17429     17426     17429     17432     17433
     17426     17429     17432     17434     17426     17429     17432     17435
     17427     17426     17429     17430     17427     17426     17429     17431
     17427     17426     17429     17432     17428     17426     17429     17430
     17428     17426     17429     17431     17428     17426     17429     17432
     17429     17432     17435     17436     17429     17432     17435     17437
     17429     17432     17435     17438     17430     17429     17432     17433
     17430     17429     17432     17434     17430     17429     17432     17435
     17431     17429     17432     17433     17431     17429     17432     17434
     17431     17429     17432     17435     17432     17435     17438     17439
     17432     17435     17438     17440     17432     17435     17438     17441
     17433     17432     17435     17436     17433     17432     17435     17437
     17433     17432     17435     17438     17434     17432     17435     17436
     17434     17432     17435     17437     17434     17432     17435     17438
     17435     17438     17441     17442     17435     17438     17441     17443
     17435     17438     17441     17444     17436     17435     17438     17439
     17436     17435     17438     17440     17436     17435     17438     17441
     17437     17435     17438     17439     17437     17435     17438     17440
     17437     17435     17438     17441     17439     17438     17441     17442
     17439     17438     17441     17443     17439     17438     17441     17444
     17440     17438     17441     17442     17440     17438     17441     17443
     17440     17438     17441     17444      8919      8923      8926      8927
      8919      8923      8926      8957      8919      8965      8962      8957
      8919      8965      8962      8963      8919      8965      8962      8964
      8920      8919      8921      8922      8920      8919      8923      8924
      8920      8919      8923      8925      8920      8919      8923      8926
      8920      8919      8965      8962      8920      8919      8965      8966
      8920      8919      8965      8967      8921      8919      8923      8924
      8921      8919      8923      8925      8921      8919      8923      8926
      8921      8919      8965      8962      8921      8919      8965      8966
      8921      8919      8965      8967      8922      8921      8919      8923
      8922      8921      8919      8965      8923      8919      8965      8962
      8923      8919      8965      8966      8923      8919      8965      8967
      8923      8926      8927      8928      8923      8926      8927      8929
      8923      8926      8957      8955      8923      8926      8957      8958
      8923      8926      8957      8962      8924      8923      8919      8965
      8924      8923      8926      8927      8924      8923      8926      8957
      8925      8923      8919      8965      8925      8923      8926      8927
      8925      8923      8926      8957      8926      8923      8919      8965
      8926      8927      8929      8930      8926      8927      8929      8931
      8926      8927      8929      8932      8926      8957      8955      8932
      8926      8957      8955      8952      8926      8957      8955      8956
      8926      8957      8958      8959      8926      8957      8958      8960
      8926      8957      8958      8961      8926      8957      8962      8963
      8926      8957      8962      8964      8926      8957      8962      8965
      8927      8926      8957      8955      8927      8926      8957      8958
      8927      8926      8957      8962      8927      8929      8932      8933
      8927      8929      8932      8934      8927      8929      8932      8955
      8928      8927      8926      8957      8928      8927      8929      8930
      8928      8927      8929      8931      8928      8927      8929      8932
      8929      8927      8926      8957      8929      8932      8934      8935
      8929      8932      8934      8936      8929      8932      8934      8944
      8929      8932      8955      8952      8929      8932      8955      8956
      8929      8932      8955      8957      8930      8929      8932      8933
      8930      8929      8932      8934      8930      8929      8932      8955
      8931      8929      8932      8933      8931      8929      8932      8934
      8931      8929      8932      8955      8932      8934      8936      8937
      8932      8934      8936      8938      8932      8934      8936      8939
      8932      8934      8944      8942      8932      8934      8944      8945
      8932      8934      8944      8949      8932      8955      8952      8949
      8932      8955      8952      8953      8932      8955      8952      8954
      8932      8955      8957      8958      8932      8955      8957      8962
      8933      8932      8934      8935      8933      8932      8934      8936
      8933      8932      8934      8944      8933      8932      8955      8952
      8933      8932      8955      8956      8933      8932      8955      8957
      8934      8932      8955      8952      8934      8932      8955      8956
      8934      8932      8955      8957      8934      8936      8939      8940
      8934      8936      8939      8941      8934      8936      8939      8942
      8934      8944      8942      8939      8934      8944      8942      8943
      8934      8944      8942      8968      8934      8944      8945      8946
      8934      8944      8945      8947      8934      8944      8945      8948
      8934      8944      8949      8950      8934      8944      8949      8951
      8934      8944      8949      8952      8935      8934      8932      8955
      8935      8934      8936      8937      8935      8934      8936      8938
      8935      8934      8936      8939      8935      8934      8944      8942
      8935      8934      8944      8945      8935      8934      8944      8949
      8936      8934      8932      8955      8936      8934      8944      8942
      8936      8934      8944      8945      8936      8934      8944      8949
      8936      8939      8942      8943      8936      8939      8942      8944
      8936      8939      8942      8968      8937      8936      8934      8944
      8937      8936      8939      8940      8937      8936      8939      8941
      8937      8936      8939      8942      8938      8936      8934      8944
      8938      8936      8939      8940      8938      8936      8939      8941
      8938      8936      8939      8942      8939      8936      8934      8944
      8939      8942      8944      8945      8939      8942      8944      8949
      8939      8942      8968      8969      8939      8942      8968      8970
      8939      8942      8968      8974      8940      8939      8942      8943
      8940      8939      8942      8944      8940      8939      8942      8968
      8941      8939      8942      8943      8941      8939      8942      8944
      8941      8939      8942      8968      8942      8944      8945      8946
      8942      8944      8945      8947      8942      8944      8945      8948
      8942      8944      8949      8950      8942      8944      8949      8951
      8942      8944      8949      8952      8942      8968      8970      8971
      8942      8968      8970      8972      8942      8968      8970      8973
      8942      8968      8974      8975      8942      8968      8974      8976
      8942      8968      8974      8977      8943      8942      8944      8945
      8943      8942      8944      8949      8943      8942      8968      8969
      8943      8942      8968      8970      8943      8942      8968      8974
      8944      8934      8932      8955      8944      8942      8968      8969
      8944      8942      8968      8970      8944      8942      8968      8974
      8944      8949      8952      8953      8944      8949      8952      8954
      8944      8949      8952      8955      8945      8944      8942      8968
      8945      8944      8949      8950      8945      8944      8949      8951
      8945      8944      8949      8952      8946      8945      8944      8949
      8947      8945      8944      8949      8948      8945      8944      8949
      8949      8944      8942      8968      8949      8952      8955      8956
      8949      8952      8955      8957      8950      8949      8952      8953
      8950      8949      8952      8954      8950      8949      8952      8955
      8951      8949      8952      8953      8951      8949      8952      8954
      8951      8949      8952      8955      8952      8955      8957      8958
      8952      8955      8957      8962      8953      8952      8955      8956
      8953      8952      8955      8957      8954      8952      8955      8956
      8954      8952      8955      8957      8955      8957      8958      8959
      8955      8957      8958      8960      8955      8957      8958      8961
      8955      8957      8962      8963      8955      8957      8962      8964
      8955      8957      8962      8965      8956      8955      8957      8958
      8956      8955      8957      8962      8957      8962      8965      8966
      8957      8962      8965      8967      8958      8957      8962      8963
      8958      8957      8962      8964      8958      8957      8962      8965
      8959      8958      8957      8962      8960      8958      8957      8962
      8961      8958      8957      8962      8963      8962      8965      8966
      8963      8962      8965      8967      8964      8962      8965      8966
      8964      8962      8965      8967      8968      8974      8977      8978
      8968      8974      8977      8979      8968      8974      8977      8980
      8969      8968      8970      8971      8969      8968      8970      8972
      8969      8968      8970      8973      8969      8968      8974      8975
      8969      8968      8974      8976      8969      8968      8974      8977
      8970      8968      8974      8975      8970      8968      8974      8976
      8970      8968      8974      8977      8971      8970      8968      8974
      8972      8970      8968      8974      8973      8970      8968      8974
      8974      8977      8980      8981      8974      8977      8980      8982
      8974      8977      8980      8983      8975      8974      8977      8978
      8975      8974      8977      8979      8975      8974      8977      8980
      8976      8974      8977      8978      8976      8974      8977      8979
      8976      8974      8977      8980      8977      8980      8983      8984
      8977      8980      8983      8985      8977      8980      8983      8989
      8978      8977      8980      8981      8978      8977      8980      8982
      8978      8977      8980      8983      8979      8977      8980      8981
      8979      8977      8980      8982      8979      8977      8980      8983
      8980      8983      8985      8986      8980      8983      8985      8987
      8980      8983      8985      8988      8980      8983      8989      8990
      8980      8983      8989      8991      8980      8983      8989      8992
      8981      8980      8983      8984      8981      8980      8983      8985
      8981      8980      8983      8989      8982      8980      8983      8984
      8982      8980      8983      8985      8982      8980      8983      8989
      8984      8983      8985      8986      8984      8983      8985      8987
      8984      8983      8985      8988      8984      8983      8989      8990
      8984      8983      8989      8991      8984      8983      8989      8992
      8985      8983      8989      8990      8985      8983      8989      8991
      8985      8983      8989      8992      8986      8985      8983      8989
      8987      8985      8983      8989      8988      8985      8983      8989
     17445     17449     17452     17453     17445     17449     17452     17454
     17445     17449     17452     17458     17446     17445     17449     17450
     17446     17445     17449     17451     17446     17445     17449     17452
     17447     17445     17449     17450     17447     17445     17449     17451
     17447     17445     17449     17452     17448     17445     17449     17450
     17448     17445     17449     17451     17448     17445     17449     17452
     17449     17452     17458     17455     17450     17449     17452     17453
     17450     17449     17452     17454     17450     17449     17452     17458
     17451     17449     17452     17453     17451     17449     17452     17454
     17451     17449     17452     17458     17452     17458     17455     17456
     17452     17458     17455     17457     17452     17458     17455     17459
     17453     17452     17458     17455     17454     17452     17458     17455
     17455     17459     17460     17461     17455     17459     17460     17462
     17455     17459     17460     17463     17456     17455     17459     17460
     17457     17455     17459     17460     17458     17455     17459     17460
     17459     17460     17463     17464     17459     17460     17463     17465
     17459     17460     17463     17471     17460     17463     17465     17466
     17460     17463     17471     17472     17460     17463     17471     17473
     17460     17463     17471     17474     17461     17460     17463     17464
     17461     17460     17463     17465     17461     17460     17463     17471
     17462     17460     17463     17464     17462     17460     17463     17465
     17462     17460     17463     17471     17463     17465     17466     17467
     17463     17465     17466     17468     17463     17471     17474     17475
     17464     17463     17465     17466     17464     17463     17471     17472
     17464     17463     17471     17473     17464     17463     17471     17474
     17465     17463     17471     17472     17465     17463     17471     17473
     17465     17463     17471     17474     17465     17466     17468     17469
     17465     17466     17468     17470     17465     17466     17468     17480
     17466     17465     17463     17471     17466     17468     17480     17481
     17466     17468     17480     17482     17466     17468     17480     17483
     17467     17466     17468     17469     17467     17466     17468     17470
     17467     17466     17468     17480     17468     17480     17483     17484
     17468     17480     17483     17485     17468     17480     17483     17486
     17469     17468     17480     17481     17469     17468     17480     17482
     17469     17468     17480     17483     17470     17468     17480     17481
     17470     17468     17480     17482     17470     17468     17480     17483
     17471     17474     17475     17476     17471     17474     17475     17477
     17472     17471     17474     17475     17473     17471     17474     17475
     17474     17475     17477     17478     17474     17475     17477     17479
     17474     17475     17477     17527     17475     17477     17527     17528
     17475     17477     17527     17529     17475     17477     17527     17530
     17476     17475     17477     17478     17476     17475     17477     17479
     17476     17475     17477     17527     17477     17527     17530     17531
     17477     17527     17530     17532     17477     17527     17530     17533
     17478     17477     17527     17528     17478     17477     17527     17529
     17478     17477     17527     17530     17479     17477     17527     17528
     17479     17477     17527     17529     17479     17477     17527     17530
     17480     17483     17486     17487     17480     17483     17486     17488
     17481     17480     17483     17484     17481     17480     17483     17485
     17481     17480     17483     17486     17482     17480     17483     17484
     17482     17480     17483     17485     17482     17480     17483     17486
     17483     17486     17488     17489     17483     17486     17488     17490
     17484     17483     17486     17487     17484     17483     17486     17488
     17485     17483     17486     17487     17485     17483     17486     17488
     17486     17488     17490     17491     17486     17488     17490     17492
     17486     17488     17490     17493     17487     17486     17488     17489
     17487     17486     17488     17490     17488     17490     17493     17494
     17488     17490     17493     17495     17489     17488     17490     17491
     17489     17488     17490     17492     17489     17488     17490     17493
     17490     17493     17495     17496     17490     17493     17495     17497
     17491     17490     17493     17494     17491     17490     17493     17495
     17492     17490     17493     17494     17492     17490     17493     17495
     17493     17495     17497     17498     17493     17495     17497     17499
     17493     17495     17497     17500     17494     17493     17495     17496
     17494     17493     17495     17497     17495     17497     17500     17501
     17495     17497     17500     17502     17496     17495     17497     17498
     17496     17495     17497     17499     17496     17495     17497     17500
     17497     17500     17502     17503     17497     17500     17502     17504
     17498     17497     17500     17501     17498     17497     17500     17502
     17499     17497     17500     17501     17499     17497     17500     17502
     17500     17502     17504     17505     17500     17502     17504     17506
     17500     17502     17504     17507     17501     17500     17502     17503
     17501     17500     17502     17504     17502     17504     17507     17508
     17502     17504     17507     17509     17503     17502     17504     17505
     17503     17502     17504     17506     17503     17502     17504     17507
     17504     17507     17509     17510     17504     17507     17509     17511
     17505     17504     17507     17508     17505     17504     17507     17509
     17506     17504     17507     17508     17506     17504     17507     17509
     17507     17509     17511     17512     17507     17509     17511     17513
     17507     17509     17511     17514     17508     17507     17509     17510
     17508     17507     17509     17511     17509     17511     17514     17515
     17509     17511     17514     17516     17509     17511     17514     17517
     17510     17509     17511     17512     17510     17509     17511     17513
     17510     17509     17511     17514     17511     17514     17517     17518
     17511     17514     17517     17519     17511     17514     17517     17520
     17512     17511     17514     17515     17512     17511     17514     17516
     17512     17511     17514     17517     17513     17511     17514     17515
     17513     17511     17514     17516     17513     17511     17514     17517
     17514     17517     17520     17521     17514     17517     17520     17522
     17514     17517     17520     17523     17515     17514     17517     17518
     17515     17514     17517     17519     17515     17514     17517     17520
     17516     17514     17517     17518     17516     17514     17517     17519
     17516     17514     17517     17520     17517     17520     17523     17524
     17517     17520     17523     17525     17517     17520     17523     17526
     17518     17517     17520     17521     17518     17517     17520     17522
     17518     17517     17520     17523     17519     17517     17520     17521
     17519     17517     17520     17522     17519     17517     17520     17523
     17521     17520     17523     17524     17521     17520     17523     17525
     17521     17520     17523     17526     17522     17520     17523     17524
     17522     17520     17523     17525     17522     17520     17523     17526
     17527     17530     17533     17534     17527     17530     17533     17535
     17527     17530     17533     17536     17528     17527     17530     17531
     17528     17527     17530     17532     17528     17527     17530     17533
     17529     17527     17530     17531     17529     17527     17530     17532
     17529     17527     17530     17533     17530     17533     17536     17537
     17530     17533     17536     17538     17530     17533     17536     17539
     17531     17530     17533     17534     17531     17530     17533     17535
     17531     17530     17533     17536     17532     17530     17533     17534
     17532     17530     17533     17535     17532     17530     17533     17536
     17533     17536     17539     17540     17533     17536     17539     17541
     17533     17536     17539     17542     17534     17533     17536     17537
     17534     17533     17536     17538     17534     17533     17536     17539
     17535     17533     17536     17537     17535     17533     17536     17538
     17535     17533     17536     17539     17536     17539     17542     17543
     17536     17539     17542     17544     17536     17539     17542     17545
     17537     17536     17539     17540     17537     17536     17539     17541
     17537     17536     17539     17542     17538     17536     17539     17540
     17538     17536     17539     17541     17538     17536     17539     17542
     17539     17542     17545     17546     17539     17542     17545     17547
     17539     17542     17545     17548     17540     17539     17542     17543
     17540     17539     17542     17544     17540     17539     17542     17545
     17541     17539     17542     17543     17541     17539     17542     17544
     17541     17539     17542     17545     17542     17545     17548     17549
     17542     17545     17548     17550     17542     17545     17548     17551
     17543     17542     17545     17546     17543     17542     17545     17547
     17543     17542     17545     17548     17544     17542     17545     17546
     17544     17542     17545     17547     17544     17542     17545     17548
     17545     17548     17551     17552     17545     17548     17551     17553
     17545     17548     17551     17554     17546     17545     17548     17549
     17546     17545     17548     17550     17546     17545     17548     17551
     17547     17545     17548     17549     17547     17545     17548     17550
     17547     17545     17548     17551     17548     17551     17554     17555
     17548     17551     17554     17556     17548     17551     17554     17557
     17549     17548     17551     17552     17549     17548     17551     17553
     17549     17548     17551     17554     17550     17548     17551     17552
     17550     17548     17551     17553     17550     17548     17551     17554
     17551     17554     17557     17558     17551     17554     17557     17559
     17551     17554     17557     17560     17552     17551     17554     17555
     17552     17551     17554     17556     17552     17551     17554     17557
     17553     17551     17554     17555     17553     17551     17554     17556
     17553     17551     17554     17557     17554     17557     17560     17561
     17554     17557     17560     17562     17554     17557     17560     17563
     17555     17554     17557     17558     17555     17554     17557     17559
     17555     17554     17557     17560     17556     17554     17557     17558
     17556     17554     17557     17559     17556     17554     17557     17560
     17557     17560     17563     17564     17557     17560     17563     17565
     17557     17560     17563     17566     17558     17557     17560     17561
     17558     17557     17560     17562     17558     17557     17560     17563
     17559     17557     17560     17561     17559     17557     17560     17562
     17559     17557     17560     17563     17560     17563     17566     17567
     17560     17563     17566     17568     17560     17563     17566     17569
     17561     17560     17563     17564     17561     17560     17563     17565
     17561     17560     17563     17566     17562     17560     17563     17564
     17562     17560     17563     17565     17562     17560     17563     17566
     17563     17566     17569     17570     17563     17566     17569     17571
     17563     17566     17569     17572     17564     17563     17566     17567
     17564     17563     17566     17568     17564     17563     17566     17569
     17565     17563     17566     17567     17565     17563     17566     17568
     17565     17563     17566     17569     17566     17569     17572     17573
     17566     17569     17572     17574     17566     17569     17572     17575
     17567     17566     17569     17570     17567     17566     17569     17571
     17567     17566     17569     17572     17568     17566     17569     17570
     17568     17566     17569     17571     17568     17566     17569     17572
     17570     17569     17572     17573     17570     17569     17572     17574
     17570     17569     17572     17575     17571     17569     17572     17573
     17571     17569     17572     17574     17571     17569     17572     17575
      8993      8997      9000      9001      8993      8997      9000      9031
      8993      9039      9036      9031      8993      9039      9036      9037
      8993      9039      9036      9038      8994      8993      8995      8996
      8994      8993      8997      8998      8994      8993      8997      8999
      8994      8993      8997      9000      8994      8993      9039      9036
      8994      8993      9039      9040      8994      8993      9039      9041
      8995      8993      8997      8998      8995      8993      8997      8999
      8995      8993      8997      9000      8995      8993      9039      9036
      8995      8993      9039      9040      8995      8993      9039      9041
      8996      8995      8993      8997      8996      8995      8993      9039
      8997      8993      9039      9036      8997      8993      9039      9040
      8997      8993      9039      9041      8997      9000      9001      9002
      8997      9000      9001      9003      8997      9000      9031      9029
      8997      9000      9031      9032      8997      9000      9031      9036
      8998      8997      8993      9039      8998      8997      9000      9001
      8998      8997      9000      9031      8999      8997      8993      9039
      8999      8997      9000      9001      8999      8997      9000      9031
      9000      8997      8993      9039      9000      9001      9003      9004
      9000      9001      9003      9005      9000      9001      9003      9006
      9000      9031      9029      9006      9000      9031      9029      9026
      9000      9031      9029      9030      9000      9031      9032      9033
      9000      9031      9032      9034      9000      9031      9032      9035
      9000      9031      9036      9037      9000      9031      9036      9038
      9000      9031      9036      9039      9001      9000      9031      9029
      9001      9000      9031      9032      9001      9000      9031      9036
      9001      9003      9006      9007      9001      9003      9006      9008
      9001      9003      9006      9029      9002      9001      9000      9031
      9002      9001      9003      9004      9002      9001      9003      9005
      9002      9001      9003      9006      9003      9001      9000      9031
      9003      9006      9008      9009      9003      9006      9008      9010
      9003      9006      9008      9018      9003      9006      9029      9026
      9003      9006      9029      9030      9003      9006      9029      9031
      9004      9003      9006      9007      9004      9003      9006      9008
      9004      9003      9006      9029      9005      9003      9006      9007
      9005      9003      9006      9008      9005      9003      9006      9029
      9006      9008      9010      9011      9006      9008      9010      9012
      9006      9008      9010      9013      9006      9008      9018      9016
      9006      9008      9018      9019      9006      9008      9018      9023
      9006      9029      9026      9023      9006      9029      9026      9027
      9006      9029      9026      9028      9006      9029      9031      9032
      9006      9029      9031      9036      9007      9006      9008      9009
      9007      9006      9008      9010      9007      9006      9008      9018
      9007      9006      9029      9026      9007      9006      9029      9030
      9007      9006      9029      9031      9008      9006      9029      9026
      9008      9006      9029      9030      9008      9006      9029      9031
      9008      9010      9013      9014      9008      9010      9013      9015
      9008      9010      9013      9016      9008      9018      9016      9013
      9008      9018      9016      9017      9008      9018      9016      9042
      9008      9018      9019      9020      9008      9018      9019      9021
      9008      9018      9019      9022      9008      9018      9023      9024
      9008      9018      9023      9025      9008      9018      9023      9026
      9009      9008      9006      9029      9009      9008      9010      9011
      9009      9008      9010      9012      9009      9008      9010      9013
      9009      9008      9018      9016      9009      9008      9018      9019
      9009      9008      9018      9023      9010      9008      9006      9029
      9010      9008      9018      9016      9010      9008      9018      9019
      9010      9008      9018      9023      9010      9013      9016      9017
      9010      9013      9016      9018      9010      9013      9016      9042
      9011      9010      9008      9018      9011      9010      9013      9014
      9011      9010      9013      9015      9011      9010      9013      9016
      9012      9010      9008      9018      9012      9010      9013      9014
      9012      9010      9013      9015      9012      9010      9013      9016
      9013      9010      9008      9018      9013      9016      9018      9019
      9013      9016      9018      9023      9013      9016      9042      9043
      9013      9016      9042      9044      9013      9016      9042      9048
      9014      9013      9016      9017      9014      9013      9016      9018
      9014      9013      9016      9042      9015      9013      9016      9017
      9015      9013      9016      9018      9015      9013      9016      9042
      9016      9018      9019      9020      9016      9018      9019      9021
      9016      9018      9019      9022      9016      9018      9023      9024
      9016      9018      9023      9025      9016      9018      9023      9026
      9016      9042      9044      9045      9016      9042      9044      9046
      9016      9042      9044      9047      9016      9042      9048      9049
      9016      9042      9048      9050      9016      9042      9048      9051
      9017      9016      9018      9019      9017      9016      9018      9023
      9017      9016      9042      9043      9017      9016      9042      9044
      9017      9016      9042      9048      9018      9008      9006      9029
      9018      9016      9042      9043      9018      9016      9042      9044
      9018      9016      9042      9048      9018      9023      9026      9027
      9018      9023      9026      9028      9018      9023      9026      9029
      9019      9018      9016      9042      9019      9018      9023      9024
      9019      9018      9023      9025      9019      9018      9023      9026
      9020      9019      9018      9023      9021      9019      9018      9023
      9022      9019      9018      9023      9023      9018      9016      9042
      9023      9026      9029      9030      9023      9026      9029      9031
      9024      9023      9026      9027      9024      9023      9026      9028
      9024      9023      9026      9029      9025      9023      9026      9027
      9025      9023      9026      9028      9025      9023      9026      9029
      9026      9029      9031      9032      9026      9029      9031      9036
      9027      9026      9029      9030      9027      9026      9029      9031
      9028      9026      9029      9030      9028      9026      9029      9031
      9029      9031      9032      9033      9029      9031      9032      9034
      9029      9031      9032      9035      9029      9031      9036      9037
      9029      9031      9036      9038      9029      9031      9036      9039
      9030      9029      9031      9032      9030      9029      9031      9036
      9031      9036      9039      9040      9031      9036      9039      9041
      9032      9031      9036      9037      9032      9031      9036      9038
      9032      9031      9036      9039      9033      9032      9031      9036
      9034      9032      9031      9036      9035      9032      9031      9036
      9037      9036      9039      9040      9037      9036      9039      9041
      9038      9036      9039      9040      9038      9036      9039      9041
      9042      9048      9051      9052      9042      9048      9051      9053
      9042      9048      9051      9054      9043      9042      9044      9045
      9043      9042      9044      9046      9043      9042      9044      9047
      9043      9042      9048      9049      9043      9042      9048      9050
      9043      9042      9048      9051      9044      9042      9048      9049
      9044      9042      9048      9050      9044      9042      9048      9051
      9045      9044      9042      9048      9046      9044      9042      9048
      9047      9044      9042      9048      9048      9051      9054      9055
      9048      9051      9054      9056      9048      9051      9054      9057
      9049      9048      9051      9052      9049      9048      9051      9053
      9049      9048      9051      9054      9050      9048      9051      9052
      9050      9048      9051      9053      9050      9048      9051      9054
      9051      9054      9057      9058      9051      9054      9057      9059
      9051      9054      9057      9063      9052      9051      9054      9055
      9052      9051      9054      9056      9052      9051      9054      9057
      9053      9051      9054      9055      9053      9051      9054      9056
      9053      9051      9054      9057      9054      9057      9059      9060
      9054      9057      9059      9061      9054      9057      9059      9062
      9054      9057      9063      9064      9054      9057      9063      9065
      9054      9057      9063      9066      9055      9054      9057      9058
      9055      9054      9057      9059      9055      9054      9057      9063
      9056      9054      9057      9058      9056      9054      9057      9059
      9056      9054      9057      9063      9058      9057      9059      9060
      9058      9057      9059      9061      9058      9057      9059      9062
      9058      9057      9063      9064      9058      9057      9063      9065
      9058      9057      9063      9066      9059      9057      9063      9064
      9059      9057      9063      9065      9059      9057      9063      9066
      9060      9059      9057      9063      9061      9059      9057      9063
      9062      9059      9057      9063     13777     13790     13793     13794
     13777     13790     13793     13795     13777     13790     13793     13800
     13778     13777     13782     13783     13778     13777     13782     13784
     13778     13777     13782     13785     13778     13777     13786     13787
     13778     13777     13786     13788     13778     13777     13786     13789
     13778     13777     13790     13791     13778     13777     13790     13792
     13778     13777     13790     13793     13779     13778     13777     13782
     13779     13778     13777     13786     13779     13778     13777     13790
     13780     13778     13777     13782     13780     13778     13777     13786
     13780     13778     13777     13790     13781     13778     13777     13782
     13781     13778     13777     13786     13781     13778     13777     13790
     13782     13777     13786     13787     13782     13777     13786     13788
     13782     13777     13786     13789     13782     13777     13790     13791
     13782     13777     13790     13792     13782     13777     13790     13793
     13783     13782     13777     13786     13783     13782     13777     13790
     13784     13782     13777     13786     13784     13782     13777     13790
     13785     13782     13777     13786     13785     13782     13777     13790
     13786     13777     13790     13791     13786     13777     13790     13792
     13786     13777     13790     13793     13787     13786     13777     13790
     13788     13786     13777     13790     13789     13786     13777     13790
     13790     13793     13800     13796     13791     13790     13793     13794
     13791     13790     13793     13795     13791     13790     13793     13800
     13792     13790     13793     13794     13792     13790     13793     13795
     13792     13790     13793     13800     13793     13800     13796     13797
     13793     13800     13796     13798     13793     13800     13796     13799
     13794     13793     13800     13796     13795     13793     13800     13796
     13796     13799     13801     13802     13796     13799     13801     13803
     13796     13799     13801     13806     13797     13796     13799     13801
     13798     13796     13799     13801     13799     13801     13806     13804
     13799     13801     13806     13807     13799     13801     13806     13808
     13800     13796     13799     13801     13801     13806     13804     13805
     13801     13806     13804     13856     13801     13806     13808     13809
     13801     13806     13808     13810     13801     13806     13808     13812
     13802     13801     13806     13804     13802     13801     13806     13807
     13802     13801     13806     13808     13803     13801     13806     13804
     13803     13801     13806     13807     13803     13801     13806     13808
     13804     13806     13808     13809     13804     13806     13808     13810
     13804     13806     13808     13812     13804     13856     13858     13859
     13804     13856     13858     13860     13804     13856     13858     13861
     13805     13804     13806     13807     13805     13804     13806     13808
     13805     13804     13856     13857     13805     13804     13856     13858
     13806     13804     13856     13857     13806     13804     13856     13858
     13806     13808     13810     13811     13806     13808     13812     13813
     13806     13808     13812     13814     13807     13806     13804     13856
     13807     13806     13808     13809     13807     13806     13808     13810
     13807     13806     13808     13812     13808     13806     13804     13856
     13808     13812     13814     13815     13808     13812     13814     13816
     13809     13808     13810     13811     13809     13808     13812     13813
     13809     13808     13812     13814     13810     13808     13812     13813
     13810     13808     13812     13814     13811     13810     13808     13812
     13812     13814     13816     13817     13812     13814     13816     13818
     13812     13814     13816     13819     13813     13812     13814     13815
     13813     13812     13814     13816     13814     13816     13819     13820
     13814     13816     13819     13821     13814     13816     13819     13822
     13815     13814     13816     13817     13815     13814     13816     13818
     13815     13814     13816     13819     13816     13819     13822     13823
     13816     13819     13822     13824     13816     13819     13822     13825
     13817     13816     13819     13820     13817     13816     13819     13821
     13817     13816     13819     13822     13818     13816     13819     13820
     13818     13816     13819     13821     13818     13816     13819     13822
     13819     13822     13825     13826     13819     13822     13825     13827
     13819     13822     13825     13828     13820     13819     13822     13823
     13820     13819     13822     13824     13820     13819     13822     13825
     13821     13819     13822     13823     13821     13819     13822     13824
     13821     13819     13822     13825     13822     13825     13828     13829
     13822     13825     13828     13830     13822     13825     13828     13831
     13823     13822     13825     13826     13823     13822     13825     13827
     13823     13822     13825     13828     13824     13822     13825     13826
     13824     13822     13825     13827     13824     13822     13825     13828
     13825     13828     13831     13832     13825     13828     13831     13833
     13825     13828     13831     13834     13826     13825     13828     13829
     13826     13825     13828     13830     13826     13825     13828     13831
     13827     13825     13828     13829     13827     13825     13828     13830
     13827     13825     13828     13831     13828     13831     13834     13835
     13828     13831     13834     13836     13828     13831     13834     13837
     13829     13828     13831     13832     13829     13828     13831     13833
     13829     13828     13831     13834     13830     13828     13831     13832
     13830     13828     13831     13833     13830     13828     13831     13834
     13831     13834     13837     13838     13831     13834     13837     13839
     13831     13834     13837     13840     13832     13831     13834     13835
     13832     13831     13834     13836     13832     13831     13834     13837
     13833     13831     13834     13835     13833     13831     13834     13836
     13833     13831     13834     13837     13834     13837     13840     13841
     13834     13837     13840     13842     13834     13837     13840     13843
     13835     13834     13837     13838     13835     13834     13837     13839
     13835     13834     13837     13840     13836     13834     13837     13838
     13836     13834     13837     13839     13836     13834     13837     13840
     13837     13840     13843     13844     13837     13840     13843     13845
     13837     13840     13843     13846     13838     13837     13840     13841
     13838     13837     13840     13842     13838     13837     13840     13843
     13839     13837     13840     13841     13839     13837     13840     13842
     13839     13837     13840     13843     13840     13843     13846     13847
     13840     13843     13846     13848     13840     13843     13846     13849
     13841     13840     13843     13844     13841     13840     13843     13845
     13841     13840     13843     13846     13842     13840     13843     13844
     13842     13840     13843     13845     13842     13840     13843     13846
     13843     13846     13849     13850     13843     13846     13849     13851
     13843     13846     13849     13852     13844     13843     13846     13847
     13844     13843     13846     13848     13844     13843     13846     13849
     13845     13843     13846     13847     13845     13843     13846     13848
     13845     13843     13846     13849     13846     13849     13852     13853
     13846     13849     13852     13854     13846     13849     13852     13855
     13847     13846     13849     13850     13847     13846     13849     13851
     13847     13846     13849     13852     13848     13846     13849     13850
     13848     13846     13849     13851     13848     13846     13849     13852
     13850     13849     13852     13853     13850     13849     13852     13854
     13850     13849     13852     13855     13851     13849     13852     13853
     13851     13849     13852     13854     13851     13849     13852     13855
     13856     13858     13861     13862     13856     13858     13861     13863
     13856     13858     13861     13864     13857     13856     13858     13859
     13857     13856     13858     13860     13857     13856     13858     13861
     13858     13861     13864     13865     13858     13861     13864     13866
     13858     13861     13864     13867     13859     13858     13861     13862
     13859     13858     13861     13863     13859     13858     13861     13864
     13860     13858     13861     13862     13860     13858     13861     13863
     13860     13858     13861     13864     13861     13864     13867     13868
     13861     13864     13867     13869     13861     13864     13867     13870
     13862     13861     13864     13865     13862     13861     13864     13866
     13862     13861     13864     13867     13863     13861     13864     13865
     13863     13861     13864     13866     13863     13861     13864     13867
     13864     13867     13870     13871     13864     13867     13870     13872
     13864     13867     13870     13873     13865     13864     13867     13868
     13865     13864     13867     13869     13865     13864     13867     13870
     13866     13864     13867     13868     13866     13864     13867     13869
     13866     13864     13867     13870     13867     13870     13873     13874
     13867     13870     13873     13875     13867     13870     13873     13876
     13868     13867     13870     13871     13868     13867     13870     13872
     13868     13867     13870     13873     13869     13867     13870     13871
     13869     13867     13870     13872     13869     13867     13870     13873
     13870     13873     13876     13877     13870     13873     13876     13878
     13870     13873     13876     13879     13871     13870     13873     13874
     13871     13870     13873     13875     13871     13870     13873     13876
     13872     13870     13873     13874     13872     13870     13873     13875
     13872     13870     13873     13876     13873     13876     13879     13880
     13873     13876     13879     13881     13874     13873     13876     13877
     13874     13873     13876     13878     13874     13873     13876     13879
     13875     13873     13876     13877     13875     13873     13876     13878
     13875     13873     13876     13879     13876     13879     13881     13882
     13876     13879     13881     13883     13877     13876     13879     13880
     13877     13876     13879     13881     13878     13876     13879     13880
     13878     13876     13879     13881     13879     13881     13883     13884
     13879     13881     13883     13885     13879     13881     13883     13886
     13880     13879     13881     13882     13880     13879     13881     13883
     13881     13883     13886     13887     13881     13883     13886     13888
     13881     13883     13886     13889     13882     13881     13883     13884
     13882     13881     13883     13885     13882     13881     13883     13886
     13883     13886     13889     13890     13883     13886     13889     13891
     13883     13886     13889     13892     13884     13883     13886     13887
     13884     13883     13886     13888     13884     13883     13886     13889
     13885     13883     13886     13887     13885     13883     13886     13888
     13885     13883     13886     13889     13886     13889     13892     13893
     13886     13889     13892     13894     13886     13889     13892     13895
     13887     13886     13889     13890     13887     13886     13889     13891
     13887     13886     13889     13892     13888     13886     13889     13890
     13888     13886     13889     13891     13888     13886     13889     13892
     13889     13892     13895     13896     13889     13892     13895     13897
     13889     13892     13895     13898     13890     13889     13892     13893
     13890     13889     13892     13894     13890     13889     13892     13895
     13891     13889     13892     13893     13891     13889     13892     13894
     13891     13889     13892     13895     13892     13895     13898     13899
     13892     13895     13898     13900     13892     13895     13898     13901
     13893     13892     13895     13896     13893     13892     13895     13897
     13893     13892     13895     13898     13894     13892     13895     13896
     13894     13892     13895     13897     13894     13892     13895     13898
     13895     13898     13901     13902     13895     13898     13901     13903
     13895     13898     13901     13904     13896     13895     13898     13899
     13896     13895     13898     13900     13896     13895     13898     13901
     13897     13895     13898     13899     13897     13895     13898     13900
     13897     13895     13898     13901     13898     13901     13904     13905
     13898     13901     13904     13906     13898     13901     13904     13907
     13899     13898     13901     13902     13899     13898     13901     13903
     13899     13898     13901     13904     13900     13898     13901     13902
     13900     13898     13901     13903     13900     13898     13901     13904
     13902     13901     13904     13905     13902     13901     13904     13906
     13902     13901     13904     13907     13903     13901     13904     13905
     13903     13901     13904     13906     13903     13901     13904     13907
     21907     21920     21923     21924     21907     21920     21923     21925
     21907     21920     21923     21929     21908     21907     21912     21913
     21908     21907     21912     21914     21908     21907     21912     21915
     21908     21907     21916     21917     21908     21907     21916     21918
     21908     21907     21916     21919     21908     21907     21920     21921
     21908     21907     21920     21922     21908     21907     21920     21923
     21909     21908     21907     21912     21909     21908     21907     21916
     21909     21908     21907     21920     21910     21908     21907     21912
     21910     21908     21907     21916     21910     21908     21907     21920
     21911     21908     21907     21912     21911     21908     21907     21916
     21911     21908     21907     21920     21912     21907     21916     21917
     21912     21907     21916     21918     21912     21907     21916     21919
     21912     21907     21920     21921     21912     21907     21920     21922
     21912     21907     21920     21923     21913     21912     21907     21916
     21913     21912     21907     21920     21914     21912     21907     21916
     21914     21912     21907     21920     21915     21912     21907     21916
     21915     21912     21907     21920     21916     21907     21920     21921
     21916     21907     21920     21922     21916     21907     21920     21923
     21917     21916     21907     21920     21918     21916     21907     21920
     21919     21916     21907     21920     21920     21923     21929     21926
     21921     21920     21923     21924     21921     21920     21923     21925
     21921     21920     21923     21929     21922     21920     21923     21924
     21922     21920     21923     21925     21922     21920     21923     21929
     21923     21929     21926     21927     21923     21929     21926     21928
     21923     21929     21926     21930     21924     21923     21929     21926
     21925     21923     21929     21926     21926     21930     21931     21932
     21926     21930     21931     21933     21926     21930     21931     21934
     21927     21926     21930     21931     21928     21926     21930     21931
     21929     21926     21930     21931     21930     21931     21934     21935
     21930     21931     21934     21936     21930     21931     21934     21942
     21931     21934     21936     21937     21931     21934     21942     21943
     21931     21934     21942     21944     21931     21934     21942     21945
     21932     21931     21934     21935     21932     21931     21934     21936
     21932     21931     21934     21942     21933     21931     21934     21935
     21933     21931     21934     21936     21933     21931     21934     21942
     21934     21936     21937     21938     21934     21936     21937     21939
     21934     21942     21945     21946     21935     21934     21936     21937
     21935     21934     21942     21943     21935     21934     21942     21944
     21935     21934     21942     21945     21936     21934     21942     21943
     21936     21934     21942     21944     21936     21934     21942     21945
     21936     21937     21939     21940     21936     21937     21939     21941
     21936     21937     21939     21951     21937     21936     21934     21942
     21937     21939     21951     21952     21937     21939     21951     21953
     21937     21939     21951     21954     21938     21937     21939     21940
     21938     21937     21939     21941     21938     21937     21939     21951
     21939     21951     21954     21955     21939     21951     21954     21956
     21939     21951     21954     21957     21940     21939     21951     21952
     21940     21939     21951     21953     21940     21939     21951     21954
     21941     21939     21951     21952     21941     21939     21951     21953
     21941     21939     21951     21954     21942     21945     21946     21947
     21942     21945     21946     21948     21943     21942     21945     21946
     21944     21942     21945     21946     21945     21946     21948     21949
     21945     21946     21948     21950     21945     21946     21948     21996
     21946     21948     21996     21997     21946     21948     21996     21998
     21946     21948     21996     21999     21947     21946     21948     21949
     21947     21946     21948     21950     21947     21946     21948     21996
     21948     21996     21999     22000     21948     21996     21999     22001
     21948     21996     21999     22002     21949     21948     21996     21997
     21949     21948     21996     21998     21949     21948     21996     21999
     21950     21948     21996     21997     21950     21948     21996     21998
     21950     21948     21996     21999     21951     21954     21957     21958
     21951     21954     21957     21959     21951     21954     21957     21960
     21952     21951     21954     21955     21952     21951     21954     21956
     21952     21951     21954     21957     21953     21951     21954     21955
     21953     21951     21954     21956     21953     21951     21954     21957
     21954     21957     21960     21961     21954     21957     21960     21962
     21954     21957     21960     21963     21955     21954     21957     21958
     21955     21954     21957     21959     21955     21954     21957     21960
     21956     21954     21957     21958     21956     21954     21957     21959
     21956     21954     21957     21960     21957     21960     21963     21964
     21957     21960     21963     21965     21957     21960     21963     21966
     21958     21957     21960     21961     21958     21957     21960     21962
     21958     21957     21960     21963     21959     21957     21960     21961
     21959     21957     21960     21962     21959     21957     21960     21963
     21960     21963     21966     21967     21960     21963     21966     21968
     21960     21963     21966     21969     21961     21960     21963     21964
     21961     21960     21963     21965     21961     21960     21963     21966
     21962     21960     21963     21964     21962     21960     21963     21965
     21962     21960     21963     21966     21963     21966     21969     21970
     21963     21966     21969     21971     21964     21963     21966     21967
     21964     21963     21966     21968     21964     21963     21966     21969
     21965     21963     21966     21967     21965     21963     21966     21968
     21965     21963     21966     21969     21966     21969     21971     21972
     21966     21969     21971     21973     21967     21966     21969     21970
     21967     21966     21969     21971     21968     21966     21969     21970
     21968     21966     21969     21971     21969     21971     21973     21974
     21969     21971     21973     21975     21969     21971     21973     21976
     21970     21969     21971     21972     21970     21969     21971     21973
     21971     21973     21976     21977     21971     21973     21976     21978
     21972     21971     21973     21974     21972     21971     21973     21975
     21972     21971     21973     21976     21973     21976     21978     21979
     21973     21976     21978     21980     21974     21973     21976     21977
     21974     21973     21976     21978     21975     21973     21976     21977
     21975     21973     21976     21978     21976     21978     21980     21981
     21976     21978     21980     21982     21976     21978     21980     21983
     21977     21976     21978     21979     21977     21976     21978     21980
     21978     21980     21983     21984     21978     21980     21983     21985
     21978     21980     21983     21986     21979     21978     21980     21981
     21979     21978     21980     21982     21979     21978     21980     21983
     21980     21983     21986     21987     21980     21983     21986     21988
     21980     21983     21986     21989     21981     21980     21983     21984
     21981     21980     21983     21985     21981     21980     21983     21986
     21982     21980     21983     21984     21982     21980     21983     21985
     21982     21980     21983     21986     21983     21986     21989     21990
     21983     21986     21989     21991     21983     21986     21989     21992
     21984     21983     21986     21987     21984     21983     21986     21988
     21984     21983     21986     21989     21985     21983     21986     21987
     21985     21983     21986     21988     21985     21983     21986     21989
     21986     21989     21992     21993     21986     21989     21992     21994
     21986     21989     21992     21995     21987     21986     21989     21990
     21987     21986     21989     21991     21987     21986     21989     21992
     21988     21986     21989     21990     21988     21986     21989     21991
     21988     21986     21989     21992     21990     21989     21992     21993
     21990     21989     21992     21994     21990     21989     21992     21995
     21991     21989     21992     21993     21991     21989     21992     21994
     21991     21989     21992     21995     21996     21999     22002     22003
     21996     21999     22002     22004     21996     21999     22002     22005
     21997     21996     21999     22000     21997     21996     21999     22001
     21997     21996     21999     22002     21998     21996     21999     22000
     21998     21996     21999     22001     21998     21996     21999     22002
     21999     22002     22005     22006     21999     22002     22005     22007
     21999     22002     22005     22008     22000     21999     22002     22003
     22000     21999     22002     22004     22000     21999     22002     22005
     22001     21999     22002     22003     22001     21999     22002     22004
     22001     21999     22002     22005     22002     22005     22008     22009
     22002     22005     22008     22010     22002     22005     22008     22011
     22003     22002     22005     22006     22003     22002     22005     22007
     22003     22002     22005     22008     22004     22002     22005     22006
     22004     22002     22005     22007     22004     22002     22005     22008
     22005     22008     22011     22012     22005     22008     22011     22013
     22005     22008     22011     22014     22006     22005     22008     22009
     22006     22005     22008     22010     22006     22005     22008     22011
     22007     22005     22008     22009     22007     22005     22008     22010
     22007     22005     22008     22011     22008     22011     22014     22015
     22008     22011     22014     22016     22008     22011     22014     22017
     22009     22008     22011     22012     22009     22008     22011     22013
     22009     22008     22011     22014     22010     22008     22011     22012
     22010     22008     22011     22013     22010     22008     22011     22014
     22011     22014     22017     22018     22011     22014     22017     22019
     22011     22014     22017     22020     22012     22011     22014     22015
     22012     22011     22014     22016     22012     22011     22014     22017
     22013     22011     22014     22015     22013     22011     22014     22016
     22013     22011     22014     22017     22014     22017     22020     22021
     22014     22017     22020     22022     22014     22017     22020     22023
     22015     22014     22017     22018     22015     22014     22017     22019
     22015     22014     22017     22020     22016     22014     22017     22018
     22016     22014     22017     22019     22016     22014     22017     22020
     22017     22020     22023     22024     22017     22020     22023     22025
     22017     22020     22023     22026     22018     22017     22020     22021
     22018     22017     22020     22022     22018     22017     22020     22023
     22019     22017     22020     22021     22019     22017     22020     22022
     22019     22017     22020     22023     22020     22023     22026     22027
     22020     22023     22026     22028     22020     22023     22026     22029
     22021     22020     22023     22024     22021     22020     22023     22025
     22021     22020     22023     22026     22022     22020     22023     22024
     22022     22020     22023     22025     22022     22020     22023     22026
     22023     22026     22029     22030     22023     22026     22029     22031
     22023     22026     22029     22032     22024     22023     22026     22027
     22024     22023     22026     22028     22024     22023     22026     22029
     22025     22023     22026     22027     22025     22023     22026     22028
     22025     22023     22026     22029     22026     22029     22032     22033
     22026     22029     22032     22034     22026     22029     22032     22035
     22027     22026     22029     22030     22027     22026     22029     22031
     22027     22026     22029     22032     22028     22026     22029     22030
     22028     22026     22029     22031     22028     22026     22029     22032
     22029     22032     22035     22036     22029     22032     22035     22037
     22029     22032     22035     22038     22030     22029     22032     22033
     22030     22029     22032     22034     22030     22029     22032     22035
     22031     22029     22032     22033     22031     22029     22032     22034
     22031     22029     22032     22035     22032     22035     22038     22039
     22032     22035     22038     22040     22032     22035     22038     22041
     22033     22032     22035     22036     22033     22032     22035     22037
     22033     22032     22035     22038     22034     22032     22035     22036
     22034     22032     22035     22037     22034     22032     22035     22038
     22035     22038     22041     22042     22035     22038     22041     22043
     22035     22038     22041     22044     22036     22035     22038     22039
     22036     22035     22038     22040     22036     22035     22038     22041
     22037     22035     22038     22039     22037     22035     22038     22040
     22037     22035     22038     22041     22039     22038     22041     22042
     22039     22038     22041     22043     22039     22038     22041     22044
     22040     22038     22041     22042     22040     22038     22041     22043
     22040     22038     22041     22044      3669      3670      3685      3686
      3669      3670      3685      3687      3669      3670      3685      3691
      3670      3669      3673      3674      3670      3669      3673      3675
      3670      3669      3673      3676      3670      3669      3677      3678
      3670      3669      3677      3679      3670      3669      3677      3680
      3670      3669      3681      3682      3670      3669      3681      3683
      3670      3669      3681      3684      3670      3685      3691      3688
      3671      3670      3669      3673      3671      3670      3669      3677
      3671      3670      3669      3681      3671      3670      3685      3686
      3671      3670      3685      3687      3671      3670      3685      3691
      3672      3670      3669      3673      3672      3670      3669      3677
      3672      3670      3669      3681      3672      3670      3685      3686
      3672      3670      3685      3687      3672      3670      3685      3691
      3673      3669      3670      3685      3673      3669      3677      3678
      3673      3669      3677      3679      3673      3669      3677      3680
      3673      3669      3681      3682      3673      3669      3681      3683
      3673      3669      3681      3684      3674      3673      3669      3677
      3674      3673      3669      3681      3675      3673      3669      3677
      3675      3673      3669      3681      3676      3673      3669      3677
      3676      3673      3669      3681      3677      3669      3670      3685
      3677      3669      3681      3682      3677      3669      3681      3683
      3677      3669      3681      3684      3678      3677      3669      3681
      3679      3677      3669      3681      3680      3677      3669      3681
      3681      3669      3670      3685      3685      3691      3688      3689
      3685      3691      3688      3690      3685      3691      3688      3692
      3686      3685      3691      3688      3687      3685      3691      3688
      3688      3692      3693      3694      3688      3692      3693      3695
      3688      3692      3693      3696      3689      3688      3692      3693
      3690      3688      3692      3693      3691      3688      3692      3693
      3692      3693      3696      3697      3692      3693      3696      3698
      3692      3693      3696      3704      3693      3696      3698      3699
      3693      3696      3704      3705      3693      3696      3704      3706
      3693      3696      3704      3707      3694      3693      3696      3697
      3694      3693      3696      3698      3694      3693      3696      3704
      3695      3693      3696      3697      3695      3693      3696      3698
      3695      3693      3696      3704      3696      3698      3699      3700
      3696      3698      3699      3701      3696      3704      3707      3708
      3697      3696      3698      3699      3697      3696      3704      3705
      3697      3696      3704      3706      3697      3696      3704      3707
      3698      3696      3704      3705      3698      3696      3704      3706
      3698      3696      3704      3707      3698      3699      3701      3702
      3698      3699      3701      3703      3698      3699      3701      3713
      3699      3698      3696      3704      3699      3701      3713      3714
      3699      3701      3713      3715      3699      3701      3713      3716
      3700      3699      3701      3702      3700      3699      3701      3703
      3700      3699      3701      3713      3701      3713      3716      3717
      3701      3713      3716      3718      3701      3713      3716      3719
      3702      3701      3713      3714      3702      3701      3713      3715
      3702      3701      3713      3716      3703      3701      3713      3714
      3703      3701      3713      3715      3703      3701      3713      3716
      3704      3707      3708      3709      3704      3707      3708      3710
      3705      3704      3707      3708      3706      3704      3707      3708
      3707      3708      3710      3711      3707      3708      3710      3712
      3707      3708      3710      3760      3708      3710      3760      3761
      3708      3710      3760      3762      3708      3710      3760      3763
      3709      3708      3710      3711      3709      3708      3710      3712
      3709      3708      3710      3760      3710      3760      3763      3764
      3710      3760      3763      3765      3710      3760      3763      3766
      3711      3710      3760      3761      3711      3710      3760      3762
      3711      3710      3760      3763      3712      3710      3760      3761
      3712      3710      3760      3762      3712      3710      3760      3763
      3713      3716      3719      3720      3713      3716      3719      3721
      3714      3713      3716      3717      3714      3713      3716      3718
      3714      3713      3716      3719      3715      3713      3716      3717
      3715      3713      3716      3718      3715      3713      3716      3719
      3716      3719      3721      3722      3716      3719      3721      3723
      3717      3716      3719      3720      3717      3716      3719      3721
      3718      3716      3719      3720      3718      3716      3719      3721
      3719      3721      3723      3724      3719      3721      3723      3725
      3719      3721      3723      3726      3720      3719      3721      3722
      3720      3719      3721      3723      3721      3723      3726      3727
      3721      3723      3726      3728      3722      3721      3723      3724
      3722      3721      3723      3725      3722      3721      3723      3726
      3723      3726      3728      3729      3723      3726      3728      3730
      3724      3723      3726      3727      3724      3723      3726      3728
      3725      3723      3726      3727      3725      3723      3726      3728
      3726      3728      3730      3731      3726      3728      3730      3732
      3726      3728      3730      3733      3727      3726      3728      3729
      3727      3726      3728      3730      3728      3730      3733      3734
      3728      3730      3733      3735      3729      3728      3730      3731
      3729      3728      3730      3732      3729      3728      3730      3733
      3730      3733      3735      3736      3730      3733      3735      3737
      3731      3730      3733      3734      3731      3730      3733      3735
      3732      3730      3733      3734      3732      3730      3733      3735
      3733      3735      3737      3738      3733      3735      3737      3739
      3733      3735      3737      3740      3734      3733      3735      3736
      3734      3733      3735      3737      3735      3737      3740      3741
      3735      3737      3740      3742      3736      3735      3737      3738
      3736      3735      3737      3739      3736      3735      3737      3740
      3737      3740      3742      3743      3737      3740      3742      3744
      3738      3737      3740      3741      3738      3737      3740      3742
      3739      3737      3740      3741      3739      3737      3740      3742
      3740      3742      3744      3745      3740      3742      3744      3746
      3740      3742      3744      3747      3741      3740      3742      3743
      3741      3740      3742      3744      3742      3744      3747      3748
      3742      3744      3747      3749      3742      3744      3747      3750
      3743      3742      3744      3745      3743      3742      3744      3746
      3743      3742      3744      3747      3744      3747      3750      3751
      3744      3747      3750      3752      3744      3747      3750      3753
      3745      3744      3747      3748      3745      3744      3747      3749
      3745      3744      3747      3750      3746      3744      3747      3748
      3746      3744      3747      3749      3746      3744      3747      3750
      3747      3750      3753      3754      3747      3750      3753      3755
      3747      3750      3753      3756      3748      3747      3750      3751
      3748      3747      3750      3752      3748      3747      3750      3753
      3749      3747      3750      3751      3749      3747      3750      3752
      3749      3747      3750      3753      3750      3753      3756      3757
      3750      3753      3756      3758      3750      3753      3756      3759
      3751      3750      3753      3754      3751      3750      3753      3755
      3751      3750      3753      3756      3752      3750      3753      3754
      3752      3750      3753      3755      3752      3750      3753      3756
      3754      3753      3756      3757      3754      3753      3756      3758
      3754      3753      3756      3759      3755      3753      3756      3757
      3755      3753      3756      3758      3755      3753      3756      3759
      3760      3763      3766      3767      3760      3763      3766      3768
      3760      3763      3766      3769      3761      3760      3763      3764
      3761      3760      3763      3765      3761      3760      3763      3766
      3762      3760      3763      3764      3762      3760      3763      3765
      3762      3760      3763      3766      3763      3766      3769      3770
      3763      3766      3769      3771      3763      3766      3769      3772
      3764      3763      3766      3767      3764      3763      3766      3768
      3764      3763      3766      3769      3765      3763      3766      3767
      3765      3763      3766      3768      3765      3763      3766      3769
      3766      3769      3772      3773      3766      3769      3772      3774
      3766      3769      3772      3775      3767      3766      3769      3770
      3767      3766      3769      3771      3767      3766      3769      3772
      3768      3766      3769      3770      3768      3766      3769      3771
      3768      3766      3769      3772      3769      3772      3775      3776
      3769      3772      3775      3777      3769      3772      3775      3778
      3770      3769      3772      3773      3770      3769      3772      3774
      3770      3769      3772      3775      3771      3769      3772      3773
      3771      3769      3772      3774      3771      3769      3772      3775
      3772      3775      3778      3779      3772      3775      3778      3780
      3772      3775      3778      3781      3773      3772      3775      3776
      3773      3772      3775      3777      3773      3772      3775      3778
      3774      3772      3775      3776      3774      3772      3775      3777
      3774      3772      3775      3778      3775      3778      3781      3782
      3775      3778      3781      3783      3775      3778      3781      3784
      3776      3775      3778      3779      3776      3775      3778      3780
      3776      3775      3778      3781      3777      3775      3778      3779
      3777      3775      3778      3780      3777      3775      3778      3781
      3778      3781      3784      3785      3778      3781      3784      3786
      3778      3781      3784      3787      3779      3778      3781      3782
      3779      3778      3781      3783      3779      3778      3781      3784
      3780      3778      3781      3782      3780      3778      3781      3783
      3780      3778      3781      3784      3781      3784      3787      3788
      3781      3784      3787      3789      3781      3784      3787      3790
      3782      3781      3784      3785      3782      3781      3784      3786
      3782      3781      3784      3787      3783      3781      3784      3785
      3783      3781      3784      3786      3783      3781      3784      3787
      3784      3787      3790      3791      3784      3787      3790      3792
      3784      3787      3790      3793      3785      3784      3787      3788
      3785      3784      3787      3789      3785      3784      3787      3790
      3786      3784      3787      3788      3786      3784      3787      3789
      3786      3784      3787      3790      3787      3790      3793      3794
      3787      3790      3793      3795      3787      3790      3793      3796
      3788      3787      3790      3791      3788      3787      3790      3792
      3788      3787      3790      3793      3789      3787      3790      3791
      3789      3787      3790      3792      3789      3787      3790      3793
      3790      3793      3796      3797      3790      3793      3796      3798
      3790      3793      3796      3799      3791      3790      3793      3794
      3791      3790      3793      3795      3791      3790      3793      3796
      3792      3790      3793      3794      3792      3790      3793      3795
      3792      3790      3793      3796      3793      3796      3799      3800
      3793      3796      3799      3801      3793      3796      3799      3802
      3794      3793      3796      3797      3794      3793      3796      3798
      3794      3793      3796      3799      3795      3793      3796      3797
      3795      3793      3796      3798      3795      3793      3796      3799
      3796      3799      3802      3803      3796      3799      3802      3804
      3796      3799      3802      3805      3797      3796      3799      3800
      3797      3796      3799      3801      3797      3796      3799      3802
      3798      3796      3799      3800      3798      3796      3799      3801
      3798      3796      3799      3802      3799      3802      3805      3806
      3799      3802      3805      3807      3799      3802      3805      3808
      3800      3799      3802      3803      3800      3799      3802      3804
      3800      3799      3802      3805      3801      3799      3802      3803
      3801      3799      3802      3804      3801      3799      3802      3805
      3803      3802      3805      3806      3803      3802      3805      3807
      3803      3802      3805      3808      3804      3802      3805      3806
      3804      3802      3805      3807      3804      3802      3805      3808
      1464      1468      1470      1471      1464      1468      1470      1472
      1464      1468      1473      1474      1464      1468      1473      1475
      1464      1468      1473      1479      1465      1464      1468      1469
      1465      1464      1468      1470      1465      1464      1468      1473
      1466      1464      1468      1469      1466      1464      1468      1470
      1466      1464      1468      1473      1467      1464      1468      1469
      1467      1464      1468      1470      1467      1464      1468      1473
      1468      1473      1479      1476      1469      1468      1470      1471
      1469      1468      1470      1472      1469      1468      1473      1474
      1469      1468      1473      1475      1469      1468      1473      1479
      1470      1468      1473      1474      1470      1468      1473      1475
      1470      1468      1473      1479      1471      1470      1468      1473
      1472      1470      1468      1473      1473      1479      1476      1477
      1473      1479      1476      1478      1473      1479      1476      1480
      1474      1473      1479      1476      1475      1473      1479      1476
      1476      1480      1481      1482      1476      1480      1481      1483
      1476      1480      1481      1484      1477      1476      1480      1481
      1478      1476      1480      1481      1479      1476      1480      1481
      1480      1481      1484      1485      1480      1481      1484      1486
      1480      1481      1484      1492      1481      1484      1486      1487
      1481      1484      1492      1493      1481      1484      1492      1494
      1481      1484      1492      1495      1482      1481      1484      1485
      1482      1481      1484      1486      1482      1481      1484      1492
      1483      1481      1484      1485      1483      1481      1484      1486
      1483      1481      1484      1492      1484      1486      1487      1488
      1484      1486      1487      1489      1484      1492      1495      1496
      1485      1484      1486      1487      1485      1484      1492      1493
      1485      1484      1492      1494      1485      1484      1492      1495
      1486      1484      1492      1493      1486      1484      1492      1494
      1486      1484      1492      1495      1486      1487      1489      1490
      1486      1487      1489      1491      1486      1487      1489      1501
      1487      1486      1484      1492      1487      1489      1501      1502
      1487      1489      1501      1503      1487      1489      1501      1504
      1488      1487      1489      1490      1488      1487      1489      1491
      1488      1487      1489      1501      1489      1501      1504      1505
      1489      1501      1504      1506      1489      1501      1504      1507
      1490      1489      1501      1502      1490      1489      1501      1503
      1490      1489      1501      1504      1491      1489      1501      1502
      1491      1489      1501      1503      1491      1489      1501      1504
      1492      1495      1496      1497      1492      1495      1496      1498
      1493      1492      1495      1496      1494      1492      1495      1496
      1495      1496      1498      1499      1495      1496      1498      1500
      1495      1496      1498      1548      1496      1498      1548      1549
      1496      1498      1548      1550      1496      1498      1548      1551
      1497      1496      1498      1499      1497      1496      1498      1500
      1497      1496      1498      1548      1498      1548      1551      1552
      1498      1548      1551      1553      1498      1548      1551      1554
      1499      1498      1548      1549      1499      1498      1548      1550
      1499      1498      1548      1551      1500      1498      1548      1549
      1500      1498      1548      1550      1500      1498      1548      1551
      1501      1504      1507      1508      1501      1504      1507      1509
      1502      1501      1504      1505      1502      1501      1504      1506
      1502      1501      1504      1507      1503      1501      1504      1505
      1503      1501      1504      1506      1503      1501      1504      1507
      1504      1507      1509      1510      1504      1507      1509      1511
      1505      1504      1507      1508      1505      1504      1507      1509
      1506      1504      1507      1508      1506      1504      1507      1509
      1507      1509      1511      1512      1507      1509      1511      1513
      1507      1509      1511      1514      1508      1507      1509      1510
      1508      1507      1509      1511      1509      1511      1514      1515
      1509      1511      1514      1516      1510      1509      1511      1512
      1510      1509      1511      1513      1510      1509      1511      1514
      1511      1514      1516      1517      1511      1514      1516      1518
      1512      1511      1514      1515      1512      1511      1514      1516
      1513      1511      1514      1515      1513      1511      1514      1516
      1514      1516      1518      1519      1514      1516      1518      1520
      1514      1516      1518      1521      1515      1514      1516      1517
      1515      1514      1516      1518      1516      1518      1521      1522
      1516      1518      1521      1523      1517      1516      1518      1519
      1517      1516      1518      1520      1517      1516      1518      1521
      1518      1521      1523      1524      1518      1521      1523      1525
      1519      1518      1521      1522      1519      1518      1521      1523
      1520      1518      1521      1522      1520      1518      1521      1523
      1521      1523      1525      1526      1521      1523      1525      1527
      1521      1523      1525      1528      1522      1521      1523      1524
      1522      1521      1523      1525      1523      1525      1528      1529
      1523      1525      1528      1530      1524      1523      1525      1526
      1524      1523      1525      1527      1524      1523      1525      1528
      1525      1528      1530      1531      1525      1528      1530      1532
      1526      1525      1528      1529      1526      1525      1528      1530
      1527      1525      1528      1529      1527      1525      1528      1530
      1528      1530      1532      1533      1528      1530      1532      1534
      1528      1530      1532      1535      1529      1528      1530      1531
      1529      1528      1530      1532      1530      1532      1535      1536
      1530      1532      1535      1537      1530      1532      1535      1538
      1531      1530      1532      1533      1531      1530      1532      1534
      1531      1530      1532      1535      1532      1535      1538      1539
      1532      1535      1538      1540      1532      1535      1538      1541
      1533      1532      1535      1536      1533      1532      1535      1537
      1533      1532      1535      1538      1534      1532      1535      1536
      1534      1532      1535      1537      1534      1532      1535      1538
      1535      1538      1541      1542      1535      1538      1541      1543
      1535      1538      1541      1544      1536      1535      1538      1539
      1536      1535      1538      1540      1536      1535      1538      1541
      1537      1535      1538      1539      1537      1535      1538      1540
      1537      1535      1538      1541      1538      1541      1544      1545
      1538      1541      1544      1546      1538      1541      1544      1547
      1539      1538      1541      1542      1539      1538      1541      1543
      1539      1538      1541      1544      1540      1538      1541      1542
      1540      1538      1541      1543      1540      1538      1541      1544
      1542      1541      1544      1545      1542      1541      1544      1546
      1542      1541      1544      1547      1543      1541      1544      1545
      1543      1541      1544      1546      1543      1541      1544      1547
      1548      1551      1554      1555      1548      1551      1554      1556
      1548      1551      1554      1557      1549      1548      1551      1552
      1549      1548      1551      1553      1549      1548      1551      1554
      1550      1548      1551      1552      1550      1548      1551      1553
      1550      1548      1551      1554      1551      1554      1557      1558
      1551      1554      1557      1559      1551      1554      1557      1560
      1552      1551      1554      1555      1552      1551      1554      1556
      1552      1551      1554      1557      1553      1551      1554      1555
      1553      1551      1554      1556      1553      1551      1554      1557
      1554      1557      1560      1561      1554      1557      1560      1562
      1554      1557      1560      1563      1555      1554      1557      1558
      1555      1554      1557      1559      1555      1554      1557      1560
      1556      1554      1557      1558      1556      1554      1557      1559
      1556      1554      1557      1560      1557      1560      1563      1564
      1557      1560      1563      1565      1557      1560      1563      1566
      1558      1557      1560      1561      1558      1557      1560      1562
      1558      1557      1560      1563      1559      1557      1560      1561
      1559      1557      1560      1562      1559      1557      1560      1563
      1560      1563      1566      1567      1560      1563      1566      1568
      1560      1563      1566      1569      1561      1560      1563      1564
      1561      1560      1563      1565      1561      1560      1563      1566
      1562      1560      1563      1564      1562      1560      1563      1565
      1562      1560      1563      1566      1563      1566      1569      1570
      1563      1566      1569      1571      1563      1566      1569      1572
      1564      1563      1566      1567      1564      1563      1566      1568
      1564      1563      1566      1569      1565      1563      1566      1567
      1565      1563      1566      1568      1565      1563      1566      1569
      1566      1569      1572      1573      1566      1569      1572      1574
      1566      1569      1572      1575      1567      1566      1569      1570
      1567      1566      1569      1571      1567      1566      1569      1572
      1568      1566      1569      1570      1568      1566      1569      1571
      1568      1566      1569      1572      1569      1572      1575      1576
      1569      1572      1575      1577      1569      1572      1575      1578
      1570      1569      1572      1573      1570      1569      1572      1574
      1570      1569      1572      1575      1571      1569      1572      1573
      1571      1569      1572      1574      1571      1569      1572      1575
      1572      1575      1578      1579      1572      1575      1578      1580
      1572      1575      1578      1581      1573      1572      1575      1576
      1573      1572      1575      1577      1573      1572      1575      1578
      1574      1572      1575      1576      1574      1572      1575      1577
      1574      1572      1575      1578      1575      1578      1581      1582
      1575      1578      1581      1583      1575      1578      1581      1584
      1576      1575      1578      1579      1576      1575      1578      1580
      1576      1575      1578      1581      1577      1575      1578      1579
      1577      1575      1578      1580      1577      1575      1578      1581
      1578      1581      1584      1585      1578      1581      1584      1586
      1578      1581      1584      1587      1579      1578      1581      1582
      1579      1578      1581      1583      1579      1578      1581      1584
      1580      1578      1581      1582      1580      1578      1581      1583
      1580      1578      1581      1584      1581      1584      1587      1588
      1581      1584      1587      1589      1581      1584      1587      1590
      1582      1581      1584      1585      1582      1581      1584      1586
      1582      1581      1584      1587      1583      1581      1584      1585
      1583      1581      1584      1586      1583      1581      1584      1587
      1584      1587      1590      1591      1584      1587      1590      1592
      1584      1587      1590      1593      1585      1584      1587      1588
      1585      1584      1587      1589      1585      1584      1587      1590
      1586      1584      1587      1588      1586      1584      1587      1589
      1586      1584      1587      1590      1587      1590      1593      1594
      1587      1590      1593      1595      1587      1590      1593      1596
      1588      1587      1590      1591      1588      1587      1590      1592
      1588      1587      1590      1593      1589      1587      1590      1591
      1589      1587      1590      1592      1589      1587      1590      1593
      1591      1590      1593      1594      1591      1590      1593      1595
      1591      1590      1593      1596      1592      1590      1593      1594
      1592      1590      1593      1595      1592      1590      1593      1596
      9067      9071      9074      9075      9067      9071      9074      9105
      9067      9113      9110      9105      9067      9113      9110      9111
      9067      9113      9110      9112      9068      9067      9069      9070
      9068      9067      9071      9072      9068      9067      9071      9073
      9068      9067      9071      9074      9068      9067      9113      9110
      9068      9067      9113      9114      9068      9067      9113      9115
      9069      9067      9071      9072      9069      9067      9071      9073
      9069      9067      9071      9074      9069      9067      9113      9110
      9069      9067      9113      9114      9069      9067      9113      9115
      9070      9069      9067      9071      9070      9069      9067      9113
      9071      9067      9113      9110      9071      9067      9113      9114
      9071      9067      9113      9115      9071      9074      9075      9076
      9071      9074      9075      9077      9071      9074      9105      9103
      9071      9074      9105      9106      9071      9074      9105      9110
      9072      9071      9067      9113      9072      9071      9074      9075
      9072      9071      9074      9105      9073      9071      9067      9113
      9073      9071      9074      9075      9073      9071      9074      9105
      9074      9071      9067      9113      9074      9075      9077      9078
      9074      9075      9077      9079      9074      9075      9077      9080
      9074      9105      9103      9080      9074      9105      9103      9100
      9074      9105      9103      9104      9074      9105      9106      9107
      9074      9105      9106      9108      9074      9105      9106      9109
      9074      9105      9110      9111      9074      9105      9110      9112
      9074      9105      9110      9113      9075      9074      9105      9103
      9075      9074      9105      9106      9075      9074      9105      9110
      9075      9077      9080      9081      9075      9077      9080      9082
      9075      9077      9080      9103      9076      9075      9074      9105
      9076      9075      9077      9078      9076      9075      9077      9079
      9076      9075      9077      9080      9077      9075      9074      9105
      9077      9080      9082      9083      9077      9080      9082      9084
      9077      9080      9082      9092      9077      9080      9103      9100
      9077      9080      9103      9104      9077      9080      9103      9105
      9078      9077      9080      9081      9078      9077      9080      9082
      9078      9077      9080      9103      9079      9077      9080      9081
      9079      9077      9080      9082      9079      9077      9080      9103
      9080      9082      9084      9085      9080      9082      9084      9086
      9080      9082      9084      9087      9080      9082      9092      9090
      9080      9082      9092      9093      9080      9082      9092      9097
      9080      9103      9100      9097      9080      9103      9100      9101
      9080      9103      9100      9102      9080      9103      9105      9106
      9080      9103      9105      9110      9081      9080      9082      9083
      9081      9080      9082      9084      9081      9080      9082      9092
      9081      9080      9103      9100      9081      9080      9103      9104
      9081      9080      9103      9105      9082      9080      9103      9100
      9082      9080      9103      9104      9082      9080      9103      9105
      9082      9084      9087      9088      9082      9084      9087      9089
      9082      9084      9087      9090      9082      9092      9090      9087
      9082      9092      9090      9091      9082      9092      9090      9116
      9082      9092      9093      9094      9082      9092      9093      9095
      9082      9092      9093      9096      9082      9092      9097      9098
      9082      9092      9097      9099      9082      9092      9097      9100
      9083      9082      9080      9103      9083      9082      9084      9085
      9083      9082      9084      9086      9083      9082      9084      9087
      9083      9082      9092      9090      9083      9082      9092      9093
      9083      9082      9092      9097      9084      9082      9080      9103
      9084      9082      9092      9090      9084      9082      9092      9093
      9084      9082      9092      9097      9084      9087      9090      9091
      9084      9087      9090      9092      9084      9087      9090      9116
      9085      9084      9082      9092      9085      9084      9087      9088
      9085      9084      9087      9089      9085      9084      9087      9090
      9086      9084      9082      9092      9086      9084      9087      9088
      9086      9084      9087      9089      9086      9084      9087      9090
      9087      9084      9082      9092      9087      9090      9092      9093
      9087      9090      9092      9097      9087      9090      9116      9117
      9087      9090      9116      9118      9087      9090      9116      9122
      9088      9087      9090      9091      9088      9087      9090      9092
      9088      9087      9090      9116      9089      9087      9090      9091
      9089      9087      9090      9092      9089      9087      9090      9116
      9090      9092      9093      9094      9090      9092      9093      9095
      9090      9092      9093      9096      9090      9092      9097      9098
      9090      9092      9097      9099      9090      9092      9097      9100
      9090      9116      9118      9119      9090      9116      9118      9120
      9090      9116      9118      9121      9090      9116      9122      9123
      9090      9116      9122      9124      9090      9116      9122      9125
      9091      9090      9092      9093      9091      9090      9092      9097
      9091      9090      9116      9117      9091      9090      9116      9118
      9091      9090      9116      9122      9092      9082      9080      9103
      9092      9090      9116      9117      9092      9090      9116      9118
      9092      9090      9116      9122      9092      9097      9100      9101
      9092      9097      9100      9102      9092      9097      9100      9103
      9093      9092      9090      9116      9093      9092      9097      9098
      9093      9092      9097      9099      9093      9092      9097      9100
      9094      9093      9092      9097      9095      9093      9092      9097
      9096      9093      9092      9097      9097      9092      9090      9116
      9097      9100      9103      9104      9097      9100      9103      9105
      9098      9097      9100      9101      9098      9097      9100      9102
      9098      9097      9100      9103      9099      9097      9100      9101
      9099      9097      9100      9102      9099      9097      9100      9103
      9100      9103      9105      9106      9100      9103      9105      9110
      9101      9100      9103      9104      9101      9100      9103      9105
      9102      9100      9103      9104      9102      9100      9103      9105
      9103      9105      9106      9107      9103      9105      9106      9108
      9103      9105      9106      9109      9103      9105      9110      9111
      9103      9105      9110      9112      9103      9105      9110      9113
      9104      9103      9105      9106      9104      9103      9105      9110
      9105      9110      9113      9114      9105      9110      9113      9115
      9106      9105      9110      9111      9106      9105      9110      9112
      9106      9105      9110      9113      9107      9106      9105      9110
      9108      9106      9105      9110      9109      9106      9105      9110
      9111      9110      9113      9114      9111      9110      9113      9115
      9112      9110      9113      9114      9112      9110      9113      9115
      9116      9122      9125      9126      9116      9122      9125      9127
      9116      9122      9125      9128      9117      9116      9118      9119
      9117      9116      9118      9120      9117      9116      9118      9121
      9117      9116      9122      9123      9117      9116      9122      9124
      9117      9116      9122      9125      9118      9116      9122      9123
      9118      9116      9122      9124      9118      9116      9122      9125
      9119      9118      9116      9122      9120      9118      9116      9122
      9121      9118      9116      9122      9122      9125      9128      9129
      9122      9125      9128      9130      9122      9125      9128      9131
      9123      9122      9125      9126      9123      9122      9125      9127
      9123      9122      9125      9128      9124      9122      9125      9126
      9124      9122      9125      9127      9124      9122      9125      9128
      9125      9128      9131      9132      9125      9128      9131      9133
      9125      9128      9131      9137      9126      9125      9128      9129
      9126      9125      9128      9130      9126      9125      9128      9131
      9127      9125      9128      9129      9127      9125      9128      9130
      9127      9125      9128      9131      9128      9131      9133      9134
      9128      9131      9133      9135      9128      9131      9133      9136
      9128      9131      9137      9138      9128      9131      9137      9139
      9128      9131      9137      9140      9129      9128      9131      9132
      9129      9128      9131      9133      9129      9128      9131      9137
      9130      9128      9131      9132      9130      9128      9131      9133
      9130      9128      9131      9137      9132      9131      9133      9134
      9132      9131      9133      9135      9132      9131      9133      9136
      9132      9131      9137      9138      9132      9131      9137      9139
      9132      9131      9137      9140      9133      9131      9137      9138
      9133      9131      9137      9139      9133      9131      9137      9140
      9134      9133      9131      9137      9135      9133      9131      9137
      9136      9133      9131      9137     19279     19283     19286     19287
     19279     19283     19286     19288     19279     19283     19286     19292
     19280     19279     19283     19284     19280     19279     19283     19285
     19280     19279     19283     19286     19281     19279     19283     19284
     19281     19279     19283     19285     19281     19279     19283     19286
     19282     19279     19283     19284     19282     19279     19283     19285
     19282     19279     19283     19286     19283     19286     19292     19289
     19284     19283     19286     19287     19284     19283     19286     19288
     19284     19283     19286     19292     19285     19283     19286     19287
     19285     19283     19286     19288     19285     19283     19286     19292
     19286     19292     19289     19290     19286     19292     19289     19291
     19286     19292     19289     19293     19287     19286     19292     19289
     19288     19286     19292     19289     19289     19293     19294     19295
     19289     19293     19294     19296     19289     19293     19294     19297
     19290     19289     19293     19294     19291     19289     19293     19294
     19292     19289     19293     19294     19293     19294     19297     19298
     19293     19294     19297     19299     19293     19294     19297     19305
     19294     19297     19299     19300     19294     19297     19305     19306
     19294     19297     19305     19307     19294     19297     19305     19308
     19295     19294     19297     19298     19295     19294     19297     19299
     19295     19294     19297     19305     19296     19294     19297     19298
     19296     19294     19297     19299     19296     19294     19297     19305
     19297     19299     19300     19301     19297     19299     19300     19302
     19297     19305     19308     19309     19298     19297     19299     19300
     19298     19297     19305     19306     19298     19297     19305     19307
     19298     19297     19305     19308     19299     19297     19305     19306
     19299     19297     19305     19307     19299     19297     19305     19308
     19299     19300     19302     19303     19299     19300     19302     19304
     19299     19300     19302     19314     19300     19299     19297     19305
     19300     19302     19314     19315     19300     19302     19314     19316
     19300     19302     19314     19317     19301     19300     19302     19303
     19301     19300     19302     19304     19301     19300     19302     19314
     19302     19314     19317     19318     19302     19314     19317     19319
     19302     19314     19317     19320     19303     19302     19314     19315
     19303     19302     19314     19316     19303     19302     19314     19317
     19304     19302     19314     19315     19304     19302     19314     19316
     19304     19302     19314     19317     19305     19308     19309     19310
     19305     19308     19309     19311     19306     19305     19308     19309
     19307     19305     19308     19309     19308     19309     19311     19312
     19308     19309     19311     19313     19308     19309     19311     19361
     19309     19311     19361     19362     19309     19311     19361     19363
     19309     19311     19361     19364     19310     19309     19311     19312
     19310     19309     19311     19313     19310     19309     19311     19361
     19311     19361     19364     19365     19311     19361     19364     19366
     19311     19361     19364     19367     19312     19311     19361     19362
     19312     19311     19361     19363     19312     19311     19361     19364
     19313     19311     19361     19362     19313     19311     19361     19363
     19313     19311     19361     19364     19314     19317     19320     19321
     19314     19317     19320     19322     19314     19317     19320     19323
     19315     19314     19317     19318     19315     19314     19317     19319
     19315     19314     19317     19320     19316     19314     19317     19318
     19316     19314     19317     19319     19316     19314     19317     19320
     19317     19320     19323     19324     19317     19320     19323     19325
     19317     19320     19323     19326     19318     19317     19320     19321
     19318     19317     19320     19322     19318     19317     19320     19323
     19319     19317     19320     19321     19319     19317     19320     19322
     19319     19317     19320     19323     19320     19323     19326     19327
     19320     19323     19326     19328     19320     19323     19326     19329
     19321     19320     19323     19324     19321     19320     19323     19325
     19321     19320     19323     19326     19322     19320     19323     19324
     19322     19320     19323     19325     19322     19320     19323     19326
     19323     19326     19329     19330     19323     19326     19329     19331
     19323     19326     19329     19332     19324     19323     19326     19327
     19324     19323     19326     19328     19324     19323     19326     19329
     19325     19323     19326     19327     19325     19323     19326     19328
     19325     19323     19326     19329     19326     19329     19332     19333
     19326     19329     19332     19334     19327     19326     19329     19330
     19327     19326     19329     19331     19327     19326     19329     19332
     19328     19326     19329     19330     19328     19326     19329     19331
     19328     19326     19329     19332     19329     19332     19334     19335
     19329     19332     19334     19336     19330     19329     19332     19333
     19330     19329     19332     19334     19331     19329     19332     19333
     19331     19329     19332     19334     19332     19334     19336     19337
     19332     19334     19336     19338     19332     19334     19336     19339
     19333     19332     19334     19335     19333     19332     19334     19336
     19334     19336     19339     19340     19334     19336     19339     19341
     19334     19336     19339     19342     19335     19334     19336     19337
     19335     19334     19336     19338     19335     19334     19336     19339
     19336     19339     19342     19343     19336     19339     19342     19344
     19336     19339     19342     19345     19337     19336     19339     19340
     19337     19336     19339     19341     19337     19336     19339     19342
     19338     19336     19339     19340     19338     19336     19339     19341
     19338     19336     19339     19342     19339     19342     19345     19346
     19339     19342     19345     19347     19339     19342     19345     19348
     19340     19339     19342     19343     19340     19339     19342     19344
     19340     19339     19342     19345     19341     19339     19342     19343
     19341     19339     19342     19344     19341     19339     19342     19345
     19342     19345     19348     19349     19342     19345     19348     19350
     19342     19345     19348     19351     19343     19342     19345     19346
     19343     19342     19345     19347     19343     19342     19345     19348
     19344     19342     19345     19346     19344     19342     19345     19347
     19344     19342     19345     19348     19345     19348     19351     19352
     19345     19348     19351     19353     19345     19348     19351     19354
     19346     19345     19348     19349     19346     19345     19348     19350
     19346     19345     19348     19351     19347     19345     19348     19349
     19347     19345     19348     19350     19347     19345     19348     19351
     19348     19351     19354     19355     19348     19351     19354     19356
     19348     19351     19354     19357     19349     19348     19351     19352
     19349     19348     19351     19353     19349     19348     19351     19354
     19350     19348     19351     19352     19350     19348     19351     19353
     19350     19348     19351     19354     19351     19354     19357     19358
     19351     19354     19357     19359     19351     19354     19357     19360
     19352     19351     19354     19355     19352     19351     19354     19356
     19352     19351     19354     19357     19353     19351     19354     19355
     19353     19351     19354     19356     19353     19351     19354     19357
     19355     19354     19357     19358     19355     19354     19357     19359
     19355     19354     19357     19360     19356     19354     19357     19358
     19356     19354     19357     19359     19356     19354     19357     19360
     19361     19364     19367     19368     19361     19364     19367     19369
     19361     19364     19367     19370     19362     19361     19364     19365
     19362     19361     19364     19366     19362     19361     19364     19367
     19363     19361     19364     19365     19363     19361     19364     19366
     19363     19361     19364     19367     19364     19367     19370     19371
     19364     19367     19370     19372     19364     19367     19370     19373
     19365     19364     19367     19368     19365     19364     19367     19369
     19365     19364     19367     19370     19366     19364     19367     19368
     19366     19364     19367     19369     19366     19364     19367     19370
     19367     19370     19373     19374     19367     19370     19373     19375
     19367     19370     19373     19376     19368     19367     19370     19371
     19368     19367     19370     19372     19368     19367     19370     19373
     19369     19367     19370     19371     19369     19367     19370     19372
     19369     19367     19370     19373     19370     19373     19376     19377
     19370     19373     19376     19378     19370     19373     19376     19379
     19371     19370     19373     19374     19371     19370     19373     19375
     19371     19370     19373     19376     19372     19370     19373     19374
     19372     19370     19373     19375     19372     19370     19373     19376
     19373     19376     19379     19380     19373     19376     19379     19381
     19373     19376     19379     19382     19374     19373     19376     19377
     19374     19373     19376     19378     19374     19373     19376     19379
     19375     19373     19376     19377     19375     19373     19376     19378
     19375     19373     19376     19379     19376     19379     19382     19383
     19376     19379     19382     19384     19376     19379     19382     19385
     19377     19376     19379     19380     19377     19376     19379     19381
     19377     19376     19379     19382     19378     19376     19379     19380
     19378     19376     19379     19381     19378     19376     19379     19382
     19379     19382     19385     19386     19379     19382     19385     19387
     19379     19382     19385     19388     19380     19379     19382     19383
     19380     19379     19382     19384     19380     19379     19382     19385
     19381     19379     19382     19383     19381     19379     19382     19384
     19381     19379     19382     19385     19382     19385     19388     19389
     19382     19385     19388     19390     19382     19385     19388     19391
     19383     19382     19385     19386     19383     19382     19385     19387
     19383     19382     19385     19388     19384     19382     19385     19386
     19384     19382     19385     19387     19384     19382     19385     19388
     19385     19388     19391     19392     19385     19388     19391     19393
     19385     19388     19391     19394     19386     19385     19388     19389
     19386     19385     19388     19390     19386     19385     19388     19391
     19387     19385     19388     19389     19387     19385     19388     19390
     19387     19385     19388     19391     19388     19391     19394     19395
     19388     19391     19394     19396     19388     19391     19394     19397
     19389     19388     19391     19392     19389     19388     19391     19393
     19389     19388     19391     19394     19390     19388     19391     19392
     19390     19388     19391     19393     19390     19388     19391     19394
     19391     19394     19397     19398     19391     19394     19397     19399
     19391     19394     19397     19400     19392     19391     19394     19395
     19392     19391     19394     19396     19392     19391     19394     19397
     19393     19391     19394     19395     19393     19391     19394     19396
     19393     19391     19394     19397     19394     19397     19400     19401
     19394     19397     19400     19402     19394     19397     19400     19403
     19395     19394     19397     19398     19395     19394     19397     19399
     19395     19394     19397     19400     19396     19394     19397     19398
     19396     19394     19397     19399     19396     19394     19397     19400
     19397     19400     19403     19404     19397     19400     19403     19405
     19397     19400     19403     19406     19398     19397     19400     19401
     19398     19397     19400     19402     19398     19397     19400     19403
     19399     19397     19400     19401     19399     19397     19400     19402
     19399     19397     19400     19403     19400     19403     19406     19407
     19400     19403     19406     19408     19400     19403     19406     19409
     19401     19400     19403     19404     19401     19400     19403     19405
     19401     19400     19403     19406     19402     19400     19403     19404
     19402     19400     19403     19405     19402     19400     19403     19406
     19404     19403     19406     19407     19404     19403     19406     19408
     19404     19403     19406     19409     19405     19403     19406     19407
     19405     19403     19406     19408     19405     19403     19406     19409
      1597      1601      1603      1604      1597      1601      1603      1605
      1597      1601      1606      1607      1597      1601      1606      1608
      1597      1601      1606      1612      1598      1597      1601      1602
      1598      1597      1601      1603      1598      1597      1601      1606
      1599      1597      1601      1602      1599      1597      1601      1603
      1599      1597      1601      1606      1600      1597      1601      1602
      1600      1597      1601      1603      1600      1597      1601      1606
      1601      1606      1612      1609      1602      1601      1603      1604
      1602      1601      1603      1605      1602      1601      1606      1607
      1602      1601      1606      1608      1602      1601      1606      1612
      1603      1601      1606      1607      1603      1601      1606      1608
      1603      1601      1606      1612      1604      1603      1601      1606
      1605      1603      1601      1606      1606      1612      1609      1610
      1606      1612      1609      1611      1606      1612      1609      1613
      1607      1606      1612      1609      1608      1606      1612      1609
      1609      1613      1614      1615      1609      1613      1614      1616
      1609      1613      1614      1617      1610      1609      1613      1614
      1611      1609      1613      1614      1612      1609      1613      1614
      1613      1614      1617      1618      1613      1614      1617      1619
      1613      1614      1617      1625      1614      1617      1619      1620
      1614      1617      1625      1626      1614      1617      1625      1627
      1614      1617      1625      1628      1615      1614      1617      1618
      1615      1614      1617      1619      1615      1614      1617      1625
      1616      1614      1617      1618      1616      1614      1617      1619
      1616      1614      1617      1625      1617      1619      1620      1621
      1617      1619      1620      1622      1617      1625      1628      1629
      1618      1617      1619      1620      1618      1617      1625      1626
      1618      1617      1625      1627      1618      1617      1625      1628
      1619      1617      1625      1626      1619      1617      1625      1627
      1619      1617      1625      1628      1619      1620      1622      1623
      1619      1620      1622      1624      1619      1620      1622      1634
      1620      1619      1617      1625      1620      1622      1634      1635
      1620      1622      1634      1636      1620      1622      1634      1637
      1621      1620      1622      1623      1621      1620      1622      1624
      1621      1620      1622      1634      1622      1634      1637      1638
      1622      1634      1637      1639      1622      1634      1637      1640
      1623      1622      1634      1635      1623      1622      1634      1636
      1623      1622      1634      1637      1624      1622      1634      1635
      1624      1622      1634      1636      1624      1622      1634      1637
      1625      1628      1629      1630      1625      1628      1629      1631
      1626      1625      1628      1629      1627      1625      1628      1629
      1628      1629      1631      1632      1628      1629      1631      1633
      1628      1629      1631      1681      1629      1631      1681      1682
      1629      1631      1681      1683      1629      1631      1681      1684
      1630      1629      1631      1632      1630      1629      1631      1633
      1630      1629      1631      1681      1631      1681      1684      1685
      1631      1681      1684      1686      1631      1681      1684      1687
      1632      1631      1681      1682      1632      1631      1681      1683
      1632      1631      1681      1684      1633      1631      1681      1682
      1633      1631      1681      1683      1633      1631      1681      1684
      1634      1637      1640      1641      1634      1637      1640      1642
      1635      1634      1637      1638      1635      1634      1637      1639
      1635      1634      1637      1640      1636      1634      1637      1638
      1636      1634      1637      1639      1636      1634      1637      1640
      1637      1640      1642      1643      1637      1640      1642      1644
      1638      1637      1640      1641      1638      1637      1640      1642
      1639      1637      1640      1641      1639      1637      1640      1642
      1640      1642      1644      1645      1640      1642      1644      1646
      1640      1642      1644      1647      1641      1640      1642      1643
      1641      1640      1642      1644      1642      1644      1647      1648
      1642      1644      1647      1649      1643      1642      1644      1645
      1643      1642      1644      1646      1643      1642      1644      1647
      1644      1647      1649      1650      1644      1647      1649      1651
      1645      1644      1647      1648      1645      1644      1647      1649
      1646      1644      1647      1648      1646      1644      1647      1649
      1647      1649      1651      1652      1647      1649      1651      1653
      1647      1649      1651      1654      1648      1647      1649      1650
      1648      1647      1649      1651      1649      1651      1654      1655
      1649      1651      1654      1656      1650      1649      1651      1652
      1650      1649      1651      1653      1650      1649      1651      1654
      1651      1654      1656      1657      1651      1654      1656      1658
      1652      1651      1654      1655      1652      1651      1654      1656
      1653      1651      1654      1655      1653      1651      1654      1656
      1654      1656      1658      1659      1654      1656      1658      1660
      1654      1656      1658      1661      1655      1654      1656      1657
      1655      1654      1656      1658      1656      1658      1661      1662
      1656      1658      1661      1663      1657      1656      1658      1659
      1657      1656      1658      1660      1657      1656      1658      1661
      1658      1661      1663      1664      1658      1661      1663      1665
      1659      1658      1661      1662      1659      1658      1661      1663
      1660      1658      1661      1662      1660      1658      1661      1663
      1661      1663      1665      1666      1661      1663      1665      1667
      1661      1663      1665      1668      1662      1661      1663      1664
      1662      1661      1663      1665      1663      1665      1668      1669
      1663      1665      1668      1670      1663      1665      1668      1671
      1664      1663      1665      1666      1664      1663      1665      1667
      1664      1663      1665      1668      1665      1668      1671      1672
      1665      1668      1671      1673      1665      1668      1671      1674
      1666      1665      1668      1669      1666      1665      1668      1670
      1666      1665      1668      1671      1667      1665      1668      1669
      1667      1665      1668      1670      1667      1665      1668      1671
      1668      1671      1674      1675      1668      1671      1674      1676
      1668      1671      1674      1677      1669      1668      1671      1672
      1669      1668      1671      1673      1669      1668      1671      1674
      1670      1668      1671      1672      1670      1668      1671      1673
      1670      1668      1671      1674      1671      1674      1677      1678
      1671      1674      1677      1679      1671      1674      1677      1680
      1672      1671      1674      1675      1672      1671      1674      1676
      1672      1671      1674      1677      1673      1671      1674      1675
      1673      1671      1674      1676      1673      1671      1674      1677
      1675      1674      1677      1678      1675      1674      1677      1679
      1675      1674      1677      1680      1676      1674      1677      1678
      1676      1674      1677      1679      1676      1674      1677      1680
      1681      1684      1687      1688      1681      1684      1687      1689
      1681      1684      1687      1690      1682      1681      1684      1685
      1682      1681      1684      1686      1682      1681      1684      1687
      1683      1681      1684      1685      1683      1681      1684      1686
      1683      1681      1684      1687      1684      1687      1690      1691
      1684      1687      1690      1692      1684      1687      1690      1693
      1685      1684      1687      1688      1685      1684      1687      1689
      1685      1684      1687      1690      1686      1684      1687      1688
      1686      1684      1687      1689      1686      1684      1687      1690
      1687      1690      1693      1694      1687      1690      1693      1695
      1687      1690      1693      1696      1688      1687      1690      1691
      1688      1687      1690      1692      1688      1687      1690      1693
      1689      1687      1690      1691      1689      1687      1690      1692
      1689      1687      1690      1693      1690      1693      1696      1697
      1690      1693      1696      1698      1690      1693      1696      1699
      1691      1690      1693      1694      1691      1690      1693      1695
      1691      1690      1693      1696      1692      1690      1693      1694
      1692      1690      1693      1695      1692      1690      1693      1696
      1693      1696      1699      1700      1693      1696      1699      1701
      1693      1696      1699      1702      1694      1693      1696      1697
      1694      1693      1696      1698      1694      1693      1696      1699
      1695      1693      1696      1697      1695      1693      1696      1698
      1695      1693      1696      1699      1696      1699      1702      1703
      1696      1699      1702      1704      1696      1699      1702      1705
      1697      1696      1699      1700      1697      1696      1699      1701
      1697      1696      1699      1702      1698      1696      1699      1700
      1698      1696      1699      1701      1698      1696      1699      1702
      1699      1702      1705      1706      1699      1702      1705      1707
      1699      1702      1705      1708      1700      1699      1702      1703
      1700      1699      1702      1704      1700      1699      1702      1705
      1701      1699      1702      1703      1701      1699      1702      1704
      1701      1699      1702      1705      1702      1705      1708      1709
      1702      1705      1708      1710      1702      1705      1708      1711
      1703      1702      1705      1706      1703      1702      1705      1707
      1703      1702      1705      1708      1704      1702      1705      1706
      1704      1702      1705      1707      1704      1702      1705      1708
      1705      1708      1711      1712      1705      1708      1711      1713
      1705      1708      1711      1714      1706      1705      1708      1709
      1706      1705      1708      1710      1706      1705      1708      1711
      1707      1705      1708      1709      1707      1705      1708      1710
      1707      1705      1708      1711      1708      1711      1714      1715
      1708      1711      1714      1716      1708      1711      1714      1717
      1709      1708      1711      1712      1709      1708      1711      1713
      1709      1708      1711      1714      1710      1708      1711      1712
      1710      1708      1711      1713      1710      1708      1711      1714
      1711      1714      1717      1718      1711      1714      1717      1719
      1711      1714      1717      1720      1712      1711      1714      1715
      1712      1711      1714      1716      1712      1711      1714      1717
      1713      1711      1714      1715      1713      1711      1714      1716
      1713      1711      1714      1717      1714      1717      1720      1721
      1714      1717      1720      1722      1714      1717      1720      1723
      1715      1714      1717      1718      1715      1714      1717      1719
      1715      1714      1717      1720      1716      1714      1717      1718
      1716      1714      1717      1719      1716      1714      1717      1720
      1717      1720      1723      1724      1717      1720      1723      1725
      1717      1720      1723      1726      1718      1717      1720      1721
      1718      1717      1720      1722      1718      1717      1720      1723
      1719      1717      1720      1721      1719      1717      1720      1722
      1719      1717      1720      1723      1720      1723      1726      1727
      1720      1723      1726      1728      1720      1723      1726      1729
      1721      1720      1723      1724      1721      1720      1723      1725
      1721      1720      1723      1726      1722      1720      1723      1724
      1722      1720      1723      1725      1722      1720      1723      1726
      1724      1723      1726      1727      1724      1723      1726      1728
      1724      1723      1726      1729      1725      1723      1726      1727
      1725      1723      1726      1728      1725      1723      1726      1729
     13908     13921     13924     13925     13908     13921     13924     13926
     13908     13921     13924     13931     13909     13908     13913     13914
     13909     13908     13913     13915     13909     13908     13913     13916
     13909     13908     13917     13918     13909     13908     13917     13919
     13909     13908     13917     13920     13909     13908     13921     13922
     13909     13908     13921     13923     13909     13908     13921     13924
     13910     13909     13908     13913     13910     13909     13908     13917
     13910     13909     13908     13921     13911     13909     13908     13913
     13911     13909     13908     13917     13911     13909     13908     13921
     13912     13909     13908     13913     13912     13909     13908     13917
     13912     13909     13908     13921     13913     13908     13917     13918
     13913     13908     13917     13919     13913     13908     13917     13920
     13913     13908     13921     13922     13913     13908     13921     13923
     13913     13908     13921     13924     13914     13913     13908     13917
     13914     13913     13908     13921     13915     13913     13908     13917
     13915     13913     13908     13921     13916     13913     13908     13917
     13916     13913     13908     13921     13917     13908     13921     13922
     13917     13908     13921     13923     13917     13908     13921     13924
     13918     13917     13908     13921     13919     13917     13908     13921
     13920     13917     13908     13921     13921     13924     13931     13927
     13922     13921     13924     13925     13922     13921     13924     13926
     13922     13921     13924     13931     13923     13921     13924     13925
     13923     13921     13924     13926     13923     13921     13924     13931
     13924     13931     13927     13928     13924     13931     13927     13929
     13924     13931     13927     13930     13925     13924     13931     13927
     13926     13924     13931     13927     13927     13930     13932     13933
     13927     13930     13932     13934     13927     13930     13932     13937
     13928     13927     13930     13932     13929     13927     13930     13932
     13930     13932     13937     13935     13930     13932     13937     13938
     13930     13932     13937     13939     13931     13927     13930     13932
     13932     13937     13935     13936     13932     13937     13935     13987
     13932     13937     13939     13940     13932     13937     13939     13941
     13932     13937     13939     13943     13933     13932     13937     13935
     13933     13932     13937     13938     13933     13932     13937     13939
     13934     13932     13937     13935     13934     13932     13937     13938
     13934     13932     13937     13939     13935     13937     13939     13940
     13935     13937     13939     13941     13935     13937     13939     13943
     13935     13987     13989     13990     13935     13987     13989     13991
     13935     13987     13989     13992     13936     13935     13937     13938
     13936     13935     13937     13939     13936     13935     13987     13988
     13936     13935     13987     13989     13937     13935     13987     13988
     13937     13935     13987     13989     13937     13939     13941     13942
     13937     13939     13943     13944     13937     13939     13943     13945
     13938     13937     13935     13987     13938     13937     13939     13940
     13938     13937     13939     13941     13938     13937     13939     13943
     13939     13937     13935     13987     13939     13943     13945     13946
     13939     13943     13945     13947     13940     13939     13941     13942
     13940     13939     13943     13944     13940     13939     13943     13945
     13941     13939     13943     13944     13941     13939     13943     13945
     13942     13941     13939     13943     13943     13945     13947     13948
     13943     13945     13947     13949     13943     13945     13947     13950
     13944     13943     13945     13946     13944     13943     13945     13947
     13945     13947     13950     13951     13945     13947     13950     13952
     13945     13947     13950     13953     13946     13945     13947     13948
     13946     13945     13947     13949     13946     13945     13947     13950
     13947     13950     13953     13954     13947     13950     13953     13955
     13947     13950     13953     13956     13948     13947     13950     13951
     13948     13947     13950     13952     13948     13947     13950     13953
     13949     13947     13950     13951     13949     13947     13950     13952
     13949     13947     13950     13953     13950     13953     13956     13957
     13950     13953     13956     13958     13950     13953     13956     13959
     13951     13950     13953     13954     13951     13950     13953     13955
     13951     13950     13953     13956     13952     13950     13953     13954
     13952     13950     13953     13955     13952     13950     13953     13956
     13953     13956     13959     13960     13953     13956     13959     13961
     13953     13956     13959     13962     13954     13953     13956     13957
     13954     13953     13956     13958     13954     13953     13956     13959
     13955     13953     13956     13957     13955     13953     13956     13958
     13955     13953     13956     13959     13956     13959     13962     13963
     13956     13959     13962     13964     13956     13959     13962     13965
     13957     13956     13959     13960     13957     13956     13959     13961
     13957     13956     13959     13962     13958     13956     13959     13960
     13958     13956     13959     13961     13958     13956     13959     13962
     13959     13962     13965     13966     13959     13962     13965     13967
     13959     13962     13965     13968     13960     13959     13962     13963
     13960     13959     13962     13964     13960     13959     13962     13965
     13961     13959     13962     13963     13961     13959     13962     13964
     13961     13959     13962     13965     13962     13965     13968     13969
     13962     13965     13968     13970     13962     13965     13968     13971
     13963     13962     13965     13966     13963     13962     13965     13967
     13963     13962     13965     13968     13964     13962     13965     13966
     13964     13962     13965     13967     13964     13962     13965     13968
     13965     13968     13971     13972     13965     13968     13971     13973
     13965     13968     13971     13974     13966     13965     13968     13969
     13966     13965     13968     13970     13966     13965     13968     13971
     13967     13965     13968     13969     13967     13965     13968     13970
     13967     13965     13968     13971     13968     13971     13974     13975
     13968     13971     13974     13976     13968     13971     13974     13977
     13969     13968     13971     13972     13969     13968     13971     13973
     13969     13968     13971     13974     13970     13968     13971     13972
     13970     13968     13971     13973     13970     13968     13971     13974
     13971     13974     13977     13978     13971     13974     13977     13979
     13971     13974     13977     13980     13972     13971     13974     13975
     13972     13971     13974     13976     13972     13971     13974     13977
     13973     13971     13974     13975     13973     13971     13974     13976
     13973     13971     13974     13977     13974     13977     13980     13981
     13974     13977     13980     13982     13974     13977     13980     13983
     13975     13974     13977     13978     13975     13974     13977     13979
     13975     13974     13977     13980     13976     13974     13977     13978
     13976     13974     13977     13979     13976     13974     13977     13980
     13977     13980     13983     13984     13977     13980     13983     13985
     13977     13980     13983     13986     13978     13977     13980     13981
     13978     13977     13980     13982     13978     13977     13980     13983
     13979     13977     13980     13981     13979     13977     13980     13982
     13979     13977     13980     13983     13981     13980     13983     13984
     13981     13980     13983     13985     13981     13980     13983     13986
     13982     13980     13983     13984     13982     13980     13983     13985
     13982     13980     13983     13986     13987     13989     13992     13993
     13987     13989     13992     13994     13987     13989     13992     13995
     13988     13987     13989     13990     13988     13987     13989     13991
     13988     13987     13989     13992     13989     13992     13995     13996
     13989     13992     13995     13997     13989     13992     13995     13998
     13990     13989     13992     13993     13990     13989     13992     13994
     13990     13989     13992     13995     13991     13989     13992     13993
     13991     13989     13992     13994     13991     13989     13992     13995
     13992     13995     13998     13999     13992     13995     13998     14000
     13992     13995     13998     14001     13993     13992     13995     13996
     13993     13992     13995     13997     13993     13992     13995     13998
     13994     13992     13995     13996     13994     13992     13995     13997
     13994     13992     13995     13998     13995     13998     14001     14002
     13995     13998     14001     14003     13995     13998     14001     14004
     13996     13995     13998     13999     13996     13995     13998     14000
     13996     13995     13998     14001     13997     13995     13998     13999
     13997     13995     13998     14000     13997     13995     13998     14001
     13998     14001     14004     14005     13998     14001     14004     14006
     13998     14001     14004     14007     13999     13998     14001     14002
     13999     13998     14001     14003     13999     13998     14001     14004
     14000     13998     14001     14002     14000     13998     14001     14003
     14000     13998     14001     14004     14001     14004     14007     14008
     14001     14004     14007     14009     14001     14004     14007     14010
     14002     14001     14004     14005     14002     14001     14004     14006
     14002     14001     14004     14007     14003     14001     14004     14005
     14003     14001     14004     14006     14003     14001     14004     14007
     14004     14007     14010     14011     14004     14007     14010     14012
     14005     14004     14007     14008     14005     14004     14007     14009
     14005     14004     14007     14010     14006     14004     14007     14008
     14006     14004     14007     14009     14006     14004     14007     14010
     14007     14010     14012     14013     14007     14010     14012     14014
     14008     14007     14010     14011     14008     14007     14010     14012
     14009     14007     14010     14011     14009     14007     14010     14012
     14010     14012     14014     14015     14010     14012     14014     14016
     14010     14012     14014     14017     14011     14010     14012     14013
     14011     14010     14012     14014     14012     14014     14017     14018
     14012     14014     14017     14019     14012     14014     14017     14020
     14013     14012     14014     14015     14013     14012     14014     14016
     14013     14012     14014     14017     14014     14017     14020     14021
     14014     14017     14020     14022     14014     14017     14020     14023
     14015     14014     14017     14018     14015     14014     14017     14019
     14015     14014     14017     14020     14016     14014     14017     14018
     14016     14014     14017     14019     14016     14014     14017     14020
     14017     14020     14023     14024     14017     14020     14023     14025
     14017     14020     14023     14026     14018     14017     14020     14021
     14018     14017     14020     14022     14018     14017     14020     14023
     14019     14017     14020     14021     14019     14017     14020     14022
     14019     14017     14020     14023     14020     14023     14026     14027
     14020     14023     14026     14028     14020     14023     14026     14029
     14021     14020     14023     14024     14021     14020     14023     14025
     14021     14020     14023     14026     14022     14020     14023     14024
     14022     14020     14023     14025     14022     14020     14023     14026
     14023     14026     14029     14030     14023     14026     14029     14031
     14023     14026     14029     14032     14024     14023     14026     14027
     14024     14023     14026     14028     14024     14023     14026     14029
     14025     14023     14026     14027     14025     14023     14026     14028
     14025     14023     14026     14029     14026     14029     14032     14033
     14026     14029     14032     14034     14026     14029     14032     14035
     14027     14026     14029     14030     14027     14026     14029     14031
     14027     14026     14029     14032     14028     14026     14029     14030
     14028     14026     14029     14031     14028     14026     14029     14032
     14029     14032     14035     14036     14029     14032     14035     14037
     14029     14032     14035     14038     14030     14029     14032     14033
     14030     14029     14032     14034     14030     14029     14032     14035
     14031     14029     14032     14033     14031     14029     14032     14034
     14031     14029     14032     14035     14033     14032     14035     14036
     14033     14032     14035     14037     14033     14032     14035     14038
     14034     14032     14035     14036     14034     14032     14035     14037
     14034     14032     14035     14038      9141      9145      9148      9149
      9141      9145      9148      9179      9141      9187      9184      9179
      9141      9187      9184      9185      9141      9187      9184      9186
      9142      9141      9143      9144      9142      9141      9145      9146
      9142      9141      9145      9147      9142      9141      9145      9148
      9142      9141      9187      9184      9142      9141      9187      9188
      9142      9141      9187      9189      9143      9141      9145      9146
      9143      9141      9145      9147      9143      9141      9145      9148
      9143      9141      9187      9184      9143      9141      9187      9188
      9143      9141      9187      9189      9144      9143      9141      9145
      9144      9143      9141      9187      9145      9141      9187      9184
      9145      9141      9187      9188      9145      9141      9187      9189
      9145      9148      9149      9150      9145      9148      9149      9151
      9145      9148      9179      9177      9145      9148      9179      9180
      9145      9148      9179      9184      9146      9145      9141      9187
      9146      9145      9148      9149      9146      9145      9148      9179
      9147      9145      9141      9187      9147      9145      9148      9149
      9147      9145      9148      9179      9148      9145      9141      9187
      9148      9149      9151      9152      9148      9149      9151      9153
      9148      9149      9151      9154      9148      9179      9177      9154
      9148      9179      9177      9174      9148      9179      9177      9178
      9148      9179      9180      9181      9148      9179      9180      9182
      9148      9179      9180      9183      9148      9179      9184      9185
      9148      9179      9184      9186      9148      9179      9184      9187
      9149      9148      9179      9177      9149      9148      9179      9180
      9149      9148      9179      9184      9149      9151      9154      9155
      9149      9151      9154      9156      9149      9151      9154      9177
      9150      9149      9148      9179      9150      9149      9151      9152
      9150      9149      9151      9153      9150      9149      9151      9154
      9151      9149      9148      9179      9151      9154      9156      9157
      9151      9154      9156      9158      9151      9154      9156      9166
      9151      9154      9177      9174      9151      9154      9177      9178
      9151      9154      9177      9179      9152      9151      9154      9155
      9152      9151      9154      9156      9152      9151      9154      9177
      9153      9151      9154      9155      9153      9151      9154      9156
      9153      9151      9154      9177      9154      9156      9158      9159
      9154      9156      9158      9160      9154      9156      9158      9161
      9154      9156      9166      9164      9154      9156      9166      9167
      9154      9156      9166      9171      9154      9177      9174      9171
      9154      9177      9174      9175      9154      9177      9174      9176
      9154      9177      9179      9180      9154      9177      9179      9184
      9155      9154      9156      9157      9155      9154      9156      9158
      9155      9154      9156      9166      9155      9154      9177      9174
      9155      9154      9177      9178      9155      9154      9177      9179
      9156      9154      9177      9174      9156      9154      9177      9178
      9156      9154      9177      9179      9156      9158      9161      9162
      9156      9158      9161      9163      9156      9158      9161      9164
      9156      9166      9164      9161      9156      9166      9164      9165
      9156      9166      9164      9190      9156      9166      9167      9168
      9156      9166      9167      9169      9156      9166      9167      9170
      9156      9166      9171      9172      9156      9166      9171      9173
      9156      9166      9171      9174      9157      9156      9154      9177
      9157      9156      9158      9159      9157      9156      9158      9160
      9157      9156      9158      9161      9157      9156      9166      9164
      9157      9156      9166      9167      9157      9156      9166      9171
      9158      9156      9154      9177      9158      9156      9166      9164
      9158      9156      9166      9167      9158      9156      9166      9171
      9158      9161      9164      9165      9158      9161      9164      9166
      9158      9161      9164      9190      9159      9158      9156      9166
      9159      9158      9161      9162      9159      9158      9161      9163
      9159      9158      9161      9164      9160      9158      9156      9166
      9160      9158      9161      9162      9160      9158      9161      9163
      9160      9158      9161      9164      9161      9158      9156      9166
      9161      9164      9166      9167      9161      9164      9166      9171
      9161      9164      9190      9191      9161      9164      9190      9192
      9161      9164      9190      9196      9162      9161      9164      9165
      9162      9161      9164      9166      9162      9161      9164      9190
      9163      9161      9164      9165      9163      9161      9164      9166
      9163      9161      9164      9190      9164      9166      9167      9168
      9164      9166      9167      9169      9164      9166      9167      9170
      9164      9166      9171      9172      9164      9166      9171      9173
      9164      9166      9171      9174      9164      9190      9192      9193
      9164      9190      9192      9194      9164      9190      9192      9195
      9164      9190      9196      9197      9164      9190      9196      9198
      9164      9190      9196      9199      9165      9164      9166      9167
      9165      9164      9166      9171      9165      9164      9190      9191
      9165      9164      9190      9192      9165      9164      9190      9196
      9166      9156      9154      9177      9166      9164      9190      9191
      9166      9164      9190      9192      9166      9164      9190      9196
      9166      9171      9174      9175      9166      9171      9174      9176
      9166      9171      9174      9177      9167      9166      9164      9190
      9167      9166      9171      9172      9167      9166      9171      9173
      9167      9166      9171      9174      9168      9167      9166      9171
      9169      9167      9166      9171      9170      9167      9166      9171
      9171      9166      9164      9190      9171      9174      9177      9178
      9171      9174      9177      9179      9172      9171      9174      9175
      9172      9171      9174      9176      9172      9171      9174      9177
      9173      9171      9174      9175      9173      9171      9174      9176
      9173      9171      9174      9177      9174      9177      9179      9180
      9174      9177      9179      9184      9175      9174      9177      9178
      9175      9174      9177      9179      9176      9174      9177      9178
      9176      9174      9177      9179      9177      9179      9180      9181
      9177      9179      9180      9182      9177      9179      9180      9183
      9177      9179      9184      9185      9177      9179      9184      9186
      9177      9179      9184      9187      9178      9177      9179      9180
      9178      9177      9179      9184      9179      9184      9187      9188
      9179      9184      9187      9189      9180      9179      9184      9185
      9180      9179      9184      9186      9180      9179      9184      9187
      9181      9180      9179      9184      9182      9180      9179      9184
      9183      9180      9179      9184      9185      9184      9187      9188
      9185      9184      9187      9189      9186      9184      9187      9188
      9186      9184      9187      9189      9190      9196      9199      9200
      9190      9196      9199      9201      9190      9196      9199      9202
      9191      9190      9192      9193      9191      9190      9192      9194
      9191      9190      9192      9195      9191      9190      9196      9197
      9191      9190      9196      9198      9191      9190      9196      9199
      9192      9190      9196      9197      9192      9190      9196      9198
      9192      9190      9196      9199      9193      9192      9190      9196
      9194      9192      9190      9196      9195      9192      9190      9196
      9196      9199      9202      9203      9196      9199      9202      9204
      9196      9199      9202      9205      9197      9196      9199      9200
      9197      9196      9199      9201      9197      9196      9199      9202
      9198      9196      9199      9200      9198      9196      9199      9201
      9198      9196      9199      9202      9199      9202      9205      9206
      9199      9202      9205      9207      9199      9202      9205      9211
      9200      9199      9202      9203      9200      9199      9202      9204
      9200      9199      9202      9205      9201      9199      9202      9203
      9201      9199      9202      9204      9201      9199      9202      9205
      9202      9205      9207      9208      9202      9205      9207      9209
      9202      9205      9207      9210      9202      9205      9211      9212
      9202      9205      9211      9213      9202      9205      9211      9214
      9203      9202      9205      9206      9203      9202      9205      9207
      9203      9202      9205      9211      9204      9202      9205      9206
      9204      9202      9205      9207      9204      9202      9205      9211
      9206      9205      9207      9208      9206      9205      9207      9209
      9206      9205      9207      9210      9206      9205      9211      9212
      9206      9205      9211      9213      9206      9205      9211      9214
      9207      9205      9211      9212      9207      9205      9211      9213
      9207      9205      9211      9214      9208      9207      9205      9211
      9209      9207      9205      9211      9210      9207      9205      9211
      9215      9219      9222      9223      9215      9219      9222      9253
      9215      9261      9258      9253      9215      9261      9258      9259
      9215      9261      9258      9260      9216      9215      9217      9218
      9216      9215      9219      9220      9216      9215      9219      9221
      9216      9215      9219      9222      9216      9215      9261      9258
      9216      9215      9261      9262      9216      9215      9261      9263
      9217      9215      9219      9220      9217      9215      9219      9221
      9217      9215      9219      9222      9217      9215      9261      9258
      9217      9215      9261      9262      9217      9215      9261      9263
      9218      9217      9215      9219      9218      9217      9215      9261
      9219      9215      9261      9258      9219      9215      9261      9262
      9219      9215      9261      9263      9219      9222      9223      9224
      9219      9222      9223      9225      9219      9222      9253      9251
      9219      9222      9253      9254      9219      9222      9253      9258
      9220      9219      9215      9261      9220      9219      9222      9223
      9220      9219      9222      9253      9221      9219      9215      9261
      9221      9219      9222      9223      9221      9219      9222      9253
      9222      9219      9215      9261      9222      9223      9225      9226
      9222      9223      9225      9227      9222      9223      9225      9228
      9222      9253      9251      9228      9222      9253      9251      9248
      9222      9253      9251      9252      9222      9253      9254      9255
      9222      9253      9254      9256      9222      9253      9254      9257
      9222      9253      9258      9259      9222      9253      9258      9260
      9222      9253      9258      9261      9223      9222      9253      9251
      9223      9222      9253      9254      9223      9222      9253      9258
      9223      9225      9228      9229      9223      9225      9228      9230
      9223      9225      9228      9251      9224      9223      9222      9253
      9224      9223      9225      9226      9224      9223      9225      9227
      9224      9223      9225      9228      9225      9223      9222      9253
      9225      9228      9230      9231      9225      9228      9230      9232
      9225      9228      9230      9240      9225      9228      9251      9248
      9225      9228      9251      9252      9225      9228      9251      9253
      9226      9225      9228      9229      9226      9225      9228      9230
      9226      9225      9228      9251      9227      9225      9228      9229
      9227      9225      9228      9230      9227      9225      9228      9251
      9228      9230      9232      9233      9228      9230      9232      9234
      9228      9230      9232      9235      9228      9230      9240      9238
      9228      9230      9240      9241      9228      9230      9240      9245
      9228      9251      9248      9245      9228      9251      9248      9249
      9228      9251      9248      9250      9228      9251      9253      9254
      9228      9251      9253      9258      9229      9228      9230      9231
      9229      9228      9230      9232      9229      9228      9230      9240
      9229      9228      9251      9248      9229      9228      9251      9252
      9229      9228      9251      9253      9230      9228      9251      9248
      9230      9228      9251      9252      9230      9228      9251      9253
      9230      9232      9235      9236      9230      9232      9235      9237
      9230      9232      9235      9238      9230      9240      9238      9235
      9230      9240      9238      9239      9230      9240      9238      9264
      9230      9240      9241      9242      9230      9240      9241      9243
      9230      9240      9241      9244      9230      9240      9245      9246
      9230      9240      9245      9247      9230      9240      9245      9248
      9231      9230      9228      9251      9231      9230      9232      9233
      9231      9230      9232      9234      9231      9230      9232      9235
      9231      9230      9240      9238      9231      9230      9240      9241
      9231      9230      9240      9245      9232      9230      9228      9251
      9232      9230      9240      9238      9232      9230      9240      9241
      9232      9230      9240      9245      9232      9235      9238      9239
      9232      9235      9238      9240      9232      9235      9238      9264
      9233      9232      9230      9240      9233      9232      9235      9236
      9233      9232      9235      9237      9233      9232      9235      9238
      9234      9232      9230      9240      9234      9232      9235      9236
      9234      9232      9235      9237      9234      9232      9235      9238
      9235      9232      9230      9240      9235      9238      9240      9241
      9235      9238      9240      9245      9235      9238      9264      9265
      9235      9238      9264      9266      9235      9238      9264      9270
      9236      9235      9238      9239      9236      9235      9238      9240
      9236      9235      9238      9264      9237      9235      9238      9239
      9237      9235      9238      9240      9237      9235      9238      9264
      9238      9240      9241      9242      9238      9240      9241      9243
      9238      9240      9241      9244      9238      9240      9245      9246
      9238      9240      9245      9247      9238      9240      9245      9248
      9238      9264      9266      9267      9238      9264      9266      9268
      9238      9264      9266      9269      9238      9264      9270      9271
      9238      9264      9270      9272      9238      9264      9270      9273
      9239      9238      9240      9241      9239      9238      9240      9245
      9239      9238      9264      9265      9239      9238      9264      9266
      9239      9238      9264      9270      9240      9230      9228      9251
      9240      9238      9264      9265      9240      9238      9264      9266
      9240      9238      9264      9270      9240      9245      9248      9249
      9240      9245      9248      9250      9240      9245      9248      9251
      9241      9240      9238      9264      9241      9240      9245      9246
      9241      9240      9245      9247      9241      9240      9245      9248
      9242      9241      9240      9245      9243      9241      9240      9245
      9244      9241      9240      9245      9245      9240      9238      9264
      9245      9248      9251      9252      9245      9248      9251      9253
      9246      9245      9248      9249      9246      9245      9248      9250
      9246      9245      9248      9251      9247      9245      9248      9249
      9247      9245      9248      9250      9247      9245      9248      9251
      9248      9251      9253      9254      9248      9251      9253      9258
      9249      9248      9251      9252      9249      9248      9251      9253
      9250      9248      9251      9252      9250      9248      9251      9253
      9251      9253      9254      9255      9251      9253      9254      9256
      9251      9253      9254      9257      9251      9253      9258      9259
      9251      9253      9258      9260      9251      9253      9258      9261
      9252      9251      9253      9254      9252      9251      9253      9258
      9253      9258      9261      9262      9253      9258      9261      9263
      9254      9253      9258      9259      9254      9253      9258      9260
      9254      9253      9258      9261      9255      9254      9253      9258
      9256      9254      9253      9258      9257      9254      9253      9258
      9259      9258      9261      9262      9259      9258      9261      9263
      9260      9258      9261      9262      9260      9258      9261      9263
      9264      9270      9273      9274      9264      9270      9273      9275
      9264      9270      9273      9276      9265      9264      9266      9267
      9265      9264      9266      9268      9265      9264      9266      9269
      9265      9264      9270      9271      9265      9264      9270      9272
      9265      9264      9270      9273      9266      9264      9270      9271
      9266      9264      9270      9272      9266      9264      9270      9273
      9267      9266      9264      9270      9268      9266      9264      9270
      9269      9266      9264      9270      9270      9273      9276      9277
      9270      9273      9276      9278      9270      9273      9276      9279
      9271      9270      9273      9274      9271      9270      9273      9275
      9271      9270      9273      9276      9272      9270      9273      9274
      9272      9270      9273      9275      9272      9270      9273      9276
      9273      9276      9279      9280      9273      9276      9279      9281
      9273      9276      9279      9285      9274      9273      9276      9277
      9274      9273      9276      9278      9274      9273      9276      9279
      9275      9273      9276      9277      9275      9273      9276      9278
      9275      9273      9276      9279      9276      9279      9281      9282
      9276      9279      9281      9283      9276      9279      9281      9284
      9276      9279      9285      9286      9276      9279      9285      9287
      9276      9279      9285      9288      9277      9276      9279      9280
      9277      9276      9279      9281      9277      9276      9279      9285
      9278      9276      9279      9280      9278      9276      9279      9281
      9278      9276      9279      9285      9280      9279      9281      9282
      9280      9279      9281      9283      9280      9279      9281      9284
      9280      9279      9285      9286      9280      9279      9285      9287
      9280      9279      9285      9288      9281      9279      9285      9286
      9281      9279      9285      9287      9281      9279      9285      9288
      9282      9281      9279      9285      9283      9281      9279      9285
      9284      9281      9279      9285      3809      3810      3825      3826
      3809      3810      3825      3827      3809      3810      3825      3831
      3810      3809      3813      3814      3810      3809      3813      3815
      3810      3809      3813      3816      3810      3809      3817      3818
      3810      3809      3817      3819      3810      3809      3817      3820
      3810      3809      3821      3822      3810      3809      3821      3823
      3810      3809      3821      3824      3810      3825      3831      3828
      3811      3810      3809      3813      3811      3810      3809      3817
      3811      3810      3809      3821      3811      3810      3825      3826
      3811      3810      3825      3827      3811      3810      3825      3831
      3812      3810      3809      3813      3812      3810      3809      3817
      3812      3810      3809      3821      3812      3810      3825      3826
      3812      3810      3825      3827      3812      3810      3825      3831
      3813      3809      3810      3825      3813      3809      3817      3818
      3813      3809      3817      3819      3813      3809      3817      3820
      3813      3809      3821      3822      3813      3809      3821      3823
      3813      3809      3821      3824      3814      3813      3809      3817
      3814      3813      3809      3821      3815      3813      3809      3817
      3815      3813      3809      3821      3816      3813      3809      3817
      3816      3813      3809      3821      3817      3809      3810      3825
      3817      3809      3821      3822      3817      3809      3821      3823
      3817      3809      3821      3824      3818      3817      3809      3821
      3819      3817      3809      3821      3820      3817      3809      3821
      3821      3809      3810      3825      3825      3831      3828      3829
      3825      3831      3828      3830      3825      3831      3828      3832
      3826      3825      3831      3828      3827      3825      3831      3828
      3828      3832      3833      3834      3828      3832      3833      3835
      3828      3832      3833      3836      3829      3828      3832      3833
      3830      3828      3832      3833      3831      3828      3832      3833
      3832      3833      3836      3837      3832      3833      3836      3838
      3832      3833      3836      3844      3833      3836      3838      3839
      3833      3836      3844      3845      3833      3836      3844      3846
      3833      3836      3844      3847      3834      3833      3836      3837
      3834      3833      3836      3838      3834      3833      3836      3844
      3835      3833      3836      3837      3835      3833      3836      3838
      3835      3833      3836      3844      3836      3838      3839      3840
      3836      3838      3839      3841      3836      3844      3847      3848
      3837      3836      3838      3839      3837      3836      3844      3845
      3837      3836      3844      3846      3837      3836      3844      3847
      3838      3836      3844      3845      3838      3836      3844      3846
      3838      3836      3844      3847      3838      3839      3841      3842
      3838      3839      3841      3843      3838      3839      3841      3853
      3839      3838      3836      3844      3839      3841      3853      3854
      3839      3841      3853      3855      3839      3841      3853      3856
      3840      3839      3841      3842      3840      3839      3841      3843
      3840      3839      3841      3853      3841      3853      3856      3857
      3841      3853      3856      3858      3841      3853      3856      3859
      3842      3841      3853      3854      3842      3841      3853      3855
      3842      3841      3853      3856      3843      3841      3853      3854
      3843      3841      3853      3855      3843      3841      3853      3856
      3844      3847      3848      3849      3844      3847      3848      3850
      3845      3844      3847      3848      3846      3844      3847      3848
      3847      3848      3850      3851      3847      3848      3850      3852
      3847      3848      3850      3900      3848      3850      3900      3901
      3848      3850      3900      3902      3848      3850      3900      3903
      3849      3848      3850      3851      3849      3848      3850      3852
      3849      3848      3850      3900      3850      3900      3903      3904
      3850      3900      3903      3905      3850      3900      3903      3906
      3851      3850      3900      3901      3851      3850      3900      3902
      3851      3850      3900      3903      3852      3850      3900      3901
      3852      3850      3900      3902      3852      3850      3900      3903
      3853      3856      3859      3860      3853      3856      3859      3861
      3854      3853      3856      3857      3854      3853      3856      3858
      3854      3853      3856      3859      3855      3853      3856      3857
      3855      3853      3856      3858      3855      3853      3856      3859
      3856      3859      3861      3862      3856      3859      3861      3863
      3857      3856      3859      3860      3857      3856      3859      3861
      3858      3856      3859      3860      3858      3856      3859      3861
      3859      3861      3863      3864      3859      3861      3863      3865
      3859      3861      3863      3866      3860      3859      3861      3862
      3860      3859      3861      3863      3861      3863      3866      3867
      3861      3863      3866      3868      3862      3861      3863      3864
      3862      3861      3863      3865      3862      3861      3863      3866
      3863      3866      3868      3869      3863      3866      3868      3870
      3864      3863      3866      3867      3864      3863      3866      3868
      3865      3863      3866      3867      3865      3863      3866      3868
      3866      3868      3870      3871      3866      3868      3870      3872
      3866      3868      3870      3873      3867      3866      3868      3869
      3867      3866      3868      3870      3868      3870      3873      3874
      3868      3870      3873      3875      3869      3868      3870      3871
      3869      3868      3870      3872      3869      3868      3870      3873
      3870      3873      3875      3876      3870      3873      3875      3877
      3871      3870      3873      3874      3871      3870      3873      3875
      3872      3870      3873      3874      3872      3870      3873      3875
      3873      3875      3877      3878      3873      3875      3877      3879
      3873      3875      3877      3880      3874      3873      3875      3876
      3874      3873      3875      3877      3875      3877      3880      3881
      3875      3877      3880      3882      3876      3875      3877      3878
      3876      3875      3877      3879      3876      3875      3877      3880
      3877      3880      3882      3883      3877      3880      3882      3884
      3878      3877      3880      3881      3878      3877      3880      3882
      3879      3877      3880      3881      3879      3877      3880      3882
      3880      3882      3884      3885      3880      3882      3884      3886
      3880      3882      3884      3887      3881      3880      3882      3883
      3881      3880      3882      3884      3882      3884      3887      3888
      3882      3884      3887      3889      3882      3884      3887      3890
      3883      3882      3884      3885      3883      3882      3884      3886
      3883      3882      3884      3887      3884      3887      3890      3891
      3884      3887      3890      3892      3884      3887      3890      3893
      3885      3884      3887      3888      3885      3884      3887      3889
      3885      3884      3887      3890      3886      3884      3887      3888
      3886      3884      3887      3889      3886      3884      3887      3890
      3887      3890      3893      3894      3887      3890      3893      3895
      3887      3890      3893      3896      3888      3887      3890      3891
      3888      3887      3890      3892      3888      3887      3890      3893
      3889      3887      3890      3891      3889      3887      3890      3892
      3889      3887      3890      3893      3890      3893      3896      3897
      3890      3893      3896      3898      3890      3893      3896      3899
      3891      3890      3893      3894      3891      3890      3893      3895
      3891      3890      3893      3896      3892      3890      3893      3894
      3892      3890      3893      3895      3892      3890      3893      3896
      3894      3893      3896      3897      3894      3893      3896      3898
      3894      3893      3896      3899      3895      3893      3896      3897
      3895      3893      3896      3898      3895      3893      3896      3899
      3900      3903      3906      3907      3900      3903      3906      3908
      3900      3903      3906      3909      3901      3900      3903      3904
      3901      3900      3903      3905      3901      3900      3903      3906
      3902      3900      3903      3904      3902      3900      3903      3905
      3902      3900      3903      3906      3903      3906      3909      3910
      3903      3906      3909      3911      3903      3906      3909      3912
      3904      3903      3906      3907      3904      3903      3906      3908
      3904      3903      3906      3909      3905      3903      3906      3907
      3905      3903      3906      3908      3905      3903      3906      3909
      3906      3909      3912      3913      3906      3909      3912      3914
      3906      3909      3912      3915      3907      3906      3909      3910
      3907      3906      3909      3911      3907      3906      3909      3912
      3908      3906      3909      3910      3908      3906      3909      3911
      3908      3906      3909      3912      3909      3912      3915      3916
      3909      3912      3915      3917      3909      3912      3915      3918
      3910      3909      3912      3913      3910      3909      3912      3914
      3910      3909      3912      3915      3911      3909      3912      3913
      3911      3909      3912      3914      3911      3909      3912      3915
      3912      3915      3918      3919      3912      3915      3918      3920
      3912      3915      3918      3921      3913      3912      3915      3916
      3913      3912      3915      3917      3913      3912      3915      3918
      3914      3912      3915      3916      3914      3912      3915      3917
      3914      3912      3915      3918      3915      3918      3921      3922
      3915      3918      3921      3923      3915      3918      3921      3924
      3916      3915      3918      3919      3916      3915      3918      3920
      3916      3915      3918      3921      3917      3915      3918      3919
      3917      3915      3918      3920      3917      3915      3918      3921
      3918      3921      3924      3925      3918      3921      3924      3926
      3918      3921      3924      3927      3919      3918      3921      3922
      3919      3918      3921      3923      3919      3918      3921      3924
      3920      3918      3921      3922      3920      3918      3921      3923
      3920      3918      3921      3924      3921      3924      3927      3928
      3921      3924      3927      3929      3921      3924      3927      3930
      3922      3921      3924      3925      3922      3921      3924      3926
      3922      3921      3924      3927      3923      3921      3924      3925
      3923      3921      3924      3926      3923      3921      3924      3927
      3924      3927      3930      3931      3924      3927      3930      3932
      3924      3927      3930      3933      3925      3924      3927      3928
      3925      3924      3927      3929      3925      3924      3927      3930
      3926      3924      3927      3928      3926      3924      3927      3929
      3926      3924      3927      3930      3927      3930      3933      3934
      3927      3930      3933      3935      3927      3930      3933      3936
      3928      3927      3930      3931      3928      3927      3930      3932
      3928      3927      3930      3933      3929      3927      3930      3931
      3929      3927      3930      3932      3929      3927      3930      3933
      3930      3933      3936      3937      3930      3933      3936      3938
      3930      3933      3936      3939      3931      3930      3933      3934
      3931      3930      3933      3935      3931      3930      3933      3936
      3932      3930      3933      3934      3932      3930      3933      3935
      3932      3930      3933      3936      3933      3936      3939      3940
      3933      3936      3939      3941      3933      3936      3939      3942
      3934      3933      3936      3937      3934      3933      3936      3938
      3934      3933      3936      3939      3935      3933      3936      3937
      3935      3933      3936      3938      3935      3933      3936      3939
      3936      3939      3942      3943      3936      3939      3942      3944
      3936      3939      3942      3945      3937      3936      3939      3940
      3937      3936      3939      3941      3937      3936      3939      3942
      3938      3936      3939      3940      3938      3936      3939      3941
      3938      3936      3939      3942      3939      3942      3945      3946
      3939      3942      3945      3947      3939      3942      3945      3948
      3940      3939      3942      3943      3940      3939      3942      3944
      3940      3939      3942      3945      3941      3939      3942      3943
      3941      3939      3942      3944      3941      3939      3942      3945
      3943      3942      3945      3946      3943      3942      3945      3947
      3943      3942      3945      3948      3944      3942      3945      3946
      3944      3942      3945      3947      3944      3942      3945      3948
     17576     17580     17583     17584     17576     17580     17583     17585
     17576     17580     17583     17589     17577     17576     17580     17581
     17577     17576     17580     17582     17577     17576     17580     17583
     17578     17576     17580     17581     17578     17576     17580     17582
     17578     17576     17580     17583     17579     17576     17580     17581
     17579     17576     17580     17582     17579     17576     17580     17583
     17580     17583     17589     17586     17581     17580     17583     17584
     17581     17580     17583     17585     17581     17580     17583     17589
     17582     17580     17583     17584     17582     17580     17583     17585
     17582     17580     17583     17589     17583     17589     17586     17587
     17583     17589     17586     17588     17583     17589     17586     17590
     17584     17583     17589     17586     17585     17583     17589     17586
     17586     17590     17591     17592     17586     17590     17591     17593
     17586     17590     17591     17594     17587     17586     17590     17591
     17588     17586     17590     17591     17589     17586     17590     17591
     17590     17591     17594     17595     17590     17591     17594     17596
     17590     17591     17594     17602     17591     17594     17596     17597
     17591     17594     17602     17603     17591     17594     17602     17604
     17591     17594     17602     17605     17592     17591     17594     17595
     17592     17591     17594     17596     17592     17591     17594     17602
     17593     17591     17594     17595     17593     17591     17594     17596
     17593     17591     17594     17602     17594     17596     17597     17598
     17594     17596     17597     17599     17594     17602     17605     17606
     17595     17594     17596     17597     17595     17594     17602     17603
     17595     17594     17602     17604     17595     17594     17602     17605
     17596     17594     17602     17603     17596     17594     17602     17604
     17596     17594     17602     17605     17596     17597     17599     17600
     17596     17597     17599     17601     17596     17597     17599     17611
     17597     17596     17594     17602     17597     17599     17611     17612
     17597     17599     17611     17613     17597     17599     17611     17614
     17598     17597     17599     17600     17598     17597     17599     17601
     17598     17597     17599     17611     17599     17611     17614     17615
     17599     17611     17614     17616     17599     17611     17614     17617
     17600     17599     17611     17612     17600     17599     17611     17613
     17600     17599     17611     17614     17601     17599     17611     17612
     17601     17599     17611     17613     17601     17599     17611     17614
     17602     17605     17606     17607     17602     17605     17606     17608
     17603     17602     17605     17606     17604     17602     17605     17606
     17605     17606     17608     17609     17605     17606     17608     17610
     17605     17606     17608     17658     17606     17608     17658     17659
     17606     17608     17658     17660     17606     17608     17658     17661
     17607     17606     17608     17609     17607     17606     17608     17610
     17607     17606     17608     17658     17608     17658     17661     17662
     17608     17658     17661     17663     17608     17658     17661     17664
     17609     17608     17658     17659     17609     17608     17658     17660
     17609     17608     17658     17661     17610     17608     17658     17659
     17610     17608     17658     17660     17610     17608     17658     17661
     17611     17614     17617     17618     17611     17614     17617     17619
     17612     17611     17614     17615     17612     17611     17614     17616
     17612     17611     17614     17617     17613     17611     17614     17615
     17613     17611     17614     17616     17613     17611     17614     17617
     17614     17617     17619     17620     17614     17617     17619     17621
     17615     17614     17617     17618     17615     17614     17617     17619
     17616     17614     17617     17618     17616     17614     17617     17619
     17617     17619     17621     17622     17617     17619     17621     17623
     17617     17619     17621     17624     17618     17617     17619     17620
     17618     17617     17619     17621     17619     17621     17624     17625
     17619     17621     17624     17626     17620     17619     17621     17622
     17620     17619     17621     17623     17620     17619     17621     17624
     17621     17624     17626     17627     17621     17624     17626     17628
     17622     17621     17624     17625     17622     17621     17624     17626
     17623     17621     17624     17625     17623     17621     17624     17626
     17624     17626     17628     17629     17624     17626     17628     17630
     17624     17626     17628     17631     17625     17624     17626     17627
     17625     17624     17626     17628     17626     17628     17631     17632
     17626     17628     17631     17633     17627     17626     17628     17629
     17627     17626     17628     17630     17627     17626     17628     17631
     17628     17631     17633     17634     17628     17631     17633     17635
     17629     17628     17631     17632     17629     17628     17631     17633
     17630     17628     17631     17632     17630     17628     17631     17633
     17631     17633     17635     17636     17631     17633     17635     17637
     17631     17633     17635     17638     17632     17631     17633     17634
     17632     17631     17633     17635     17633     17635     17638     17639
     17633     17635     17638     17640     17634     17633     17635     17636
     17634     17633     17635     17637     17634     17633     17635     17638
     17635     17638     17640     17641     17635     17638     17640     17642
     17636     17635     17638     17639     17636     17635     17638     17640
     17637     17635     17638     17639     17637     17635     17638     17640
     17638     17640     17642     17643     17638     17640     17642     17644
     17638     17640     17642     17645     17639     17638     17640     17641
     17639     17638     17640     17642     17640     17642     17645     17646
     17640     17642     17645     17647     17640     17642     17645     17648
     17641     17640     17642     17643     17641     17640     17642     17644
     17641     17640     17642     17645     17642     17645     17648     17649
     17642     17645     17648     17650     17642     17645     17648     17651
     17643     17642     17645     17646     17643     17642     17645     17647
     17643     17642     17645     17648     17644     17642     17645     17646
     17644     17642     17645     17647     17644     17642     17645     17648
     17645     17648     17651     17652     17645     17648     17651     17653
     17645     17648     17651     17654     17646     17645     17648     17649
     17646     17645     17648     17650     17646     17645     17648     17651
     17647     17645     17648     17649     17647     17645     17648     17650
     17647     17645     17648     17651     17648     17651     17654     17655
     17648     17651     17654     17656     17648     17651     17654     17657
     17649     17648     17651     17652     17649     17648     17651     17653
     17649     17648     17651     17654     17650     17648     17651     17652
     17650     17648     17651     17653     17650     17648     17651     17654
     17652     17651     17654     17655     17652     17651     17654     17656
     17652     17651     17654     17657     17653     17651     17654     17655
     17653     17651     17654     17656     17653     17651     17654     17657
     17658     17661     17664     17665     17658     17661     17664     17666
     17658     17661     17664     17667     17659     17658     17661     17662
     17659     17658     17661     17663     17659     17658     17661     17664
     17660     17658     17661     17662     17660     17658     17661     17663
     17660     17658     17661     17664     17661     17664     17667     17668
     17661     17664     17667     17669     17661     17664     17667     17670
     17662     17661     17664     17665     17662     17661     17664     17666
     17662     17661     17664     17667     17663     17661     17664     17665
     17663     17661     17664     17666     17663     17661     17664     17667
     17664     17667     17670     17671     17664     17667     17670     17672
     17664     17667     17670     17673     17665     17664     17667     17668
     17665     17664     17667     17669     17665     17664     17667     17670
     17666     17664     17667     17668     17666     17664     17667     17669
     17666     17664     17667     17670     17667     17670     17673     17674
     17667     17670     17673     17675     17667     17670     17673     17676
     17668     17667     17670     17671     17668     17667     17670     17672
     17668     17667     17670     17673     17669     17667     17670     17671
     17669     17667     17670     17672     17669     17667     17670     17673
     17670     17673     17676     17677     17670     17673     17676     17678
     17670     17673     17676     17679     17671     17670     17673     17674
     17671     17670     17673     17675     17671     17670     17673     17676
     17672     17670     17673     17674     17672     17670     17673     17675
     17672     17670     17673     17676     17673     17676     17679     17680
     17673     17676     17679     17681     17673     17676     17679     17682
     17674     17673     17676     17677     17674     17673     17676     17678
     17674     17673     17676     17679     17675     17673     17676     17677
     17675     17673     17676     17678     17675     17673     17676     17679
     17676     17679     17682     17683     17676     17679     17682     17684
     17676     17679     17682     17685     17677     17676     17679     17680
     17677     17676     17679     17681     17677     17676     17679     17682
     17678     17676     17679     17680     17678     17676     17679     17681
     17678     17676     17679     17682     17679     17682     17685     17686
     17679     17682     17685     17687     17679     17682     17685     17688
     17680     17679     17682     17683     17680     17679     17682     17684
     17680     17679     17682     17685     17681     17679     17682     17683
     17681     17679     17682     17684     17681     17679     17682     17685
     17682     17685     17688     17689     17682     17685     17688     17690
     17682     17685     17688     17691     17683     17682     17685     17686
     17683     17682     17685     17687     17683     17682     17685     17688
     17684     17682     17685     17686     17684     17682     17685     17687
     17684     17682     17685     17688     17685     17688     17691     17692
     17685     17688     17691     17693     17685     17688     17691     17694
     17686     17685     17688     17689     17686     17685     17688     17690
     17686     17685     17688     17691     17687     17685     17688     17689
     17687     17685     17688     17690     17687     17685     17688     17691
     17688     17691     17694     17695     17688     17691     17694     17696
     17688     17691     17694     17697     17689     17688     17691     17692
     17689     17688     17691     17693     17689     17688     17691     17694
     17690     17688     17691     17692     17690     17688     17691     17693
     17690     17688     17691     17694     17691     17694     17697     17698
     17691     17694     17697     17699     17691     17694     17697     17700
     17692     17691     17694     17695     17692     17691     17694     17696
     17692     17691     17694     17697     17693     17691     17694     17695
     17693     17691     17694     17696     17693     17691     17694     17697
     17694     17697     17700     17701     17694     17697     17700     17702
     17694     17697     17700     17703     17695     17694     17697     17698
     17695     17694     17697     17699     17695     17694     17697     17700
     17696     17694     17697     17698     17696     17694     17697     17699
     17696     17694     17697     17700     17697     17700     17703     17704
     17697     17700     17703     17705     17697     17700     17703     17706
     17698     17697     17700     17701     17698     17697     17700     17702
     17698     17697     17700     17703     17699     17697     17700     17701
     17699     17697     17700     17702     17699     17697     17700     17703
     17701     17700     17703     17704     17701     17700     17703     17705
     17701     17700     17703     17706     17702     17700     17703     17704
     17702     17700     17703     17705     17702     17700     17703     17706
     14039     14052     14055     14056     14039     14052     14055     14057
     14039     14052     14055     14062     14040     14039     14044     14045
     14040     14039     14044     14046     14040     14039     14044     14047
     14040     14039     14048     14049     14040     14039     14048     14050
     14040     14039     14048     14051     14040     14039     14052     14053
     14040     14039     14052     14054     14040     14039     14052     14055
     14041     14040     14039     14044     14041     14040     14039     14048
     14041     14040     14039     14052     14042     14040     14039     14044
     14042     14040     14039     14048     14042     14040     14039     14052
     14043     14040     14039     14044     14043     14040     14039     14048
     14043     14040     14039     14052     14044     14039     14048     14049
     14044     14039     14048     14050     14044     14039     14048     14051
     14044     14039     14052     14053     14044     14039     14052     14054
     14044     14039     14052     14055     14045     14044     14039     14048
     14045     14044     14039     14052     14046     14044     14039     14048
     14046     14044     14039     14052     14047     14044     14039     14048
     14047     14044     14039     14052     14048     14039     14052     14053
     14048     14039     14052     14054     14048     14039     14052     14055
     14049     14048     14039     14052     14050     14048     14039     14052
     14051     14048     14039     14052     14052     14055     14062     14058
     14053     14052     14055     14056     14053     14052     14055     14057
     14053     14052     14055     14062     14054     14052     14055     14056
     14054     14052     14055     14057     14054     14052     14055     14062
     14055     14062     14058     14059     14055     14062     14058     14060
     14055     14062     14058     14061     14056     14055     14062     14058
     14057     14055     14062     14058     14058     14061     14063     14064
     14058     14061     14063     14065     14058     14061     14063     14068
     14059     14058     14061     14063     14060     14058     14061     14063
     14061     14063     14068     14066     14061     14063     14068     14069
     14061     14063     14068     14070     14062     14058     14061     14063
     14063     14068     14066     14067     14063     14068     14066     14118
     14063     14068     14070     14071     14063     14068     14070     14072
     14063     14068     14070     14074     14064     14063     14068     14066
     14064     14063     14068     14069     14064     14063     14068     14070
     14065     14063     14068     14066     14065     14063     14068     14069
     14065     14063     14068     14070     14066     14068     14070     14071
     14066     14068     14070     14072     14066     14068     14070     14074
     14066     14118     14120     14121     14066     14118     14120     14122
     14066     14118     14120     14123     14067     14066     14068     14069
     14067     14066     14068     14070     14067     14066     14118     14119
     14067     14066     14118     14120     14068     14066     14118     14119
     14068     14066     14118     14120     14068     14070     14072     14073
     14068     14070     14074     14075     14068     14070     14074     14076
     14069     14068     14066     14118     14069     14068     14070     14071
     14069     14068     14070     14072     14069     14068     14070     14074
     14070     14068     14066     14118     14070     14074     14076     14077
     14070     14074     14076     14078     14071     14070     14072     14073
     14071     14070     14074     14075     14071     14070     14074     14076
     14072     14070     14074     14075     14072     14070     14074     14076
     14073     14072     14070     14074     14074     14076     14078     14079
     14074     14076     14078     14080     14074     14076     14078     14081
     14075     14074     14076     14077     14075     14074     14076     14078
     14076     14078     14081     14082     14076     14078     14081     14083
     14076     14078     14081     14084     14077     14076     14078     14079
     14077     14076     14078     14080     14077     14076     14078     14081
     14078     14081     14084     14085     14078     14081     14084     14086
     14078     14081     14084     14087     14079     14078     14081     14082
     14079     14078     14081     14083     14079     14078     14081     14084
     14080     14078     14081     14082     14080     14078     14081     14083
     14080     14078     14081     14084     14081     14084     14087     14088
     14081     14084     14087     14089     14081     14084     14087     14090
     14082     14081     14084     14085     14082     14081     14084     14086
     14082     14081     14084     14087     14083     14081     14084     14085
     14083     14081     14084     14086     14083     14081     14084     14087
     14084     14087     14090     14091     14084     14087     14090     14092
     14084     14087     14090     14093     14085     14084     14087     14088
     14085     14084     14087     14089     14085     14084     14087     14090
     14086     14084     14087     14088     14086     14084     14087     14089
     14086     14084     14087     14090     14087     14090     14093     14094
     14087     14090     14093     14095     14087     14090     14093     14096
     14088     14087     14090     14091     14088     14087     14090     14092
     14088     14087     14090     14093     14089     14087     14090     14091
     14089     14087     14090     14092     14089     14087     14090     14093
     14090     14093     14096     14097     14090     14093     14096     14098
     14090     14093     14096     14099     14091     14090     14093     14094
     14091     14090     14093     14095     14091     14090     14093     14096
     14092     14090     14093     14094     14092     14090     14093     14095
     14092     14090     14093     14096     14093     14096     14099     14100
     14093     14096     14099     14101     14093     14096     14099     14102
     14094     14093     14096     14097     14094     14093     14096     14098
     14094     14093     14096     14099     14095     14093     14096     14097
     14095     14093     14096     14098     14095     14093     14096     14099
     14096     14099     14102     14103     14096     14099     14102     14104
     14096     14099     14102     14105     14097     14096     14099     14100
     14097     14096     14099     14101     14097     14096     14099     14102
     14098     14096     14099     14100     14098     14096     14099     14101
     14098     14096     14099     14102     14099     14102     14105     14106
     14099     14102     14105     14107     14099     14102     14105     14108
     14100     14099     14102     14103     14100     14099     14102     14104
     14100     14099     14102     14105     14101     14099     14102     14103
     14101     14099     14102     14104     14101     14099     14102     14105
     14102     14105     14108     14109     14102     14105     14108     14110
     14102     14105     14108     14111     14103     14102     14105     14106
     14103     14102     14105     14107     14103     14102     14105     14108
     14104     14102     14105     14106     14104     14102     14105     14107
     14104     14102     14105     14108     14105     14108     14111     14112
     14105     14108     14111     14113     14105     14108     14111     14114
     14106     14105     14108     14109     14106     14105     14108     14110
     14106     14105     14108     14111     14107     14105     14108     14109
     14107     14105     14108     14110     14107     14105     14108     14111
     14108     14111     14114     14115     14108     14111     14114     14116
     14108     14111     14114     14117     14109     14108     14111     14112
     14109     14108     14111     14113     14109     14108     14111     14114
     14110     14108     14111     14112     14110     14108     14111     14113
     14110     14108     14111     14114     14112     14111     14114     14115
     14112     14111     14114     14116     14112     14111     14114     14117
     14113     14111     14114     14115     14113     14111     14114     14116
     14113     14111     14114     14117     14118     14120     14123     14124
     14118     14120     14123     14125     14118     14120     14123     14126
     14119     14118     14120     14121     14119     14118     14120     14122
     14119     14118     14120     14123     14120     14123     14126     14127
     14120     14123     14126     14128     14120     14123     14126     14129
     14121     14120     14123     14124     14121     14120     14123     14125
     14121     14120     14123     14126     14122     14120     14123     14124
     14122     14120     14123     14125     14122     14120     14123     14126
     14123     14126     14129     14130     14123     14126     14129     14131
     14123     14126     14129     14132     14124     14123     14126     14127
     14124     14123     14126     14128     14124     14123     14126     14129
     14125     14123     14126     14127     14125     14123     14126     14128
     14125     14123     14126     14129     14126     14129     14132     14133
     14126     14129     14132     14134     14126     14129     14132     14135
     14127     14126     14129     14130     14127     14126     14129     14131
     14127     14126     14129     14132     14128     14126     14129     14130
     14128     14126     14129     14131     14128     14126     14129     14132
     14129     14132     14135     14136     14129     14132     14135     14137
     14129     14132     14135     14138     14130     14129     14132     14133
     14130     14129     14132     14134     14130     14129     14132     14135
     14131     14129     14132     14133     14131     14129     14132     14134
     14131     14129     14132     14135     14132     14135     14138     14139
     14132     14135     14138     14140     14132     14135     14138     14141
     14133     14132     14135     14136     14133     14132     14135     14137
     14133     14132     14135     14138     14134     14132     14135     14136
     14134     14132     14135     14137     14134     14132     14135     14138
     14135     14138     14141     14142     14135     14138     14141     14143
     14136     14135     14138     14139     14136     14135     14138     14140
     14136     14135     14138     14141     14137     14135     14138     14139
     14137     14135     14138     14140     14137     14135     14138     14141
     14138     14141     14143     14144     14138     14141     14143     14145
     14139     14138     14141     14142     14139     14138     14141     14143
     14140     14138     14141     14142     14140     14138     14141     14143
     14141     14143     14145     14146     14141     14143     14145     14147
     14141     14143     14145     14148     14142     14141     14143     14144
     14142     14141     14143     14145     14143     14145     14148     14149
     14143     14145     14148     14150     14143     14145     14148     14151
     14144     14143     14145     14146     14144     14143     14145     14147
     14144     14143     14145     14148     14145     14148     14151     14152
     14145     14148     14151     14153     14145     14148     14151     14154
     14146     14145     14148     14149     14146     14145     14148     14150
     14146     14145     14148     14151     14147     14145     14148     14149
     14147     14145     14148     14150     14147     14145     14148     14151
     14148     14151     14154     14155     14148     14151     14154     14156
     14148     14151     14154     14157     14149     14148     14151     14152
     14149     14148     14151     14153     14149     14148     14151     14154
     14150     14148     14151     14152     14150     14148     14151     14153
     14150     14148     14151     14154     14151     14154     14157     14158
     14151     14154     14157     14159     14151     14154     14157     14160
     14152     14151     14154     14155     14152     14151     14154     14156
     14152     14151     14154     14157     14153     14151     14154     14155
     14153     14151     14154     14156     14153     14151     14154     14157
     14154     14157     14160     14161     14154     14157     14160     14162
     14154     14157     14160     14163     14155     14154     14157     14158
     14155     14154     14157     14159     14155     14154     14157     14160
     14156     14154     14157     14158     14156     14154     14157     14159
     14156     14154     14157     14160     14157     14160     14163     14164
     14157     14160     14163     14165     14157     14160     14163     14166
     14158     14157     14160     14161     14158     14157     14160     14162
     14158     14157     14160     14163     14159     14157     14160     14161
     14159     14157     14160     14162     14159     14157     14160     14163
     14160     14163     14166     14167     14160     14163     14166     14168
     14160     14163     14166     14169     14161     14160     14163     14164
     14161     14160     14163     14165     14161     14160     14163     14166
     14162     14160     14163     14164     14162     14160     14163     14165
     14162     14160     14163     14166     14164     14163     14166     14167
     14164     14163     14166     14168     14164     14163     14166     14169
     14165     14163     14166     14167     14165     14163     14166     14168
     14165     14163     14166     14169     17707     17711     17714     17715
     17707     17711     17714     17716     17707     17711     17714     17720
     17708     17707     17711     17712     17708     17707     17711     17713
     17708     17707     17711     17714     17709     17707     17711     17712
     17709     17707     17711     17713     17709     17707     17711     17714
     17710     17707     17711     17712     17710     17707     17711     17713
     17710     17707     17711     17714     17711     17714     17720     17717
     17712     17711     17714     17715     17712     17711     17714     17716
     17712     17711     17714     17720     17713     17711     17714     17715
     17713     17711     17714     17716     17713     17711     17714     17720
     17714     17720     17717     17718     17714     17720     17717     17719
     17714     17720     17717     17721     17715     17714     17720     17717
     17716     17714     17720     17717     17717     17721     17722     17723
     17717     17721     17722     17724     17717     17721     17722     17725
     17718     17717     17721     17722     17719     17717     17721     17722
     17720     17717     17721     17722     17721     17722     17725     17726
     17721     17722     17725     17727     17721     17722     17725     17733
     17722     17725     17727     17728     17722     17725     17733     17734
     17722     17725     17733     17735     17722     17725     17733     17736
     17723     17722     17725     17726     17723     17722     17725     17727
     17723     17722     17725     17733     17724     17722     17725     17726
     17724     17722     17725     17727     17724     17722     17725     17733
     17725     17727     17728     17729     17725     17727     17728     17730
     17725     17733     17736     17737     17726     17725     17727     17728
     17726     17725     17733     17734     17726     17725     17733     17735
     17726     17725     17733     17736     17727     17725     17733     17734
     17727     17725     17733     17735     17727     17725     17733     17736
     17727     17728     17730     17731     17727     17728     17730     17732
     17727     17728     17730     17742     17728     17727     17725     17733
     17728     17730     17742     17743     17728     17730     17742     17744
     17728     17730     17742     17745     17729     17728     17730     17731
     17729     17728     17730     17732     17729     17728     17730     17742
     17730     17742     17745     17746     17730     17742     17745     17747
     17730     17742     17745     17748     17731     17730     17742     17743
     17731     17730     17742     17744     17731     17730     17742     17745
     17732     17730     17742     17743     17732     17730     17742     17744
     17732     17730     17742     17745     17733     17736     17737     17738
     17733     17736     17737     17739     17734     17733     17736     17737
     17735     17733     17736     17737     17736     17737     17739     17740
     17736     17737     17739     17741     17736     17737     17739     17789
     17737     17739     17789     17790     17737     17739     17789     17791
     17737     17739     17789     17792     17738     17737     17739     17740
     17738     17737     17739     17741     17738     17737     17739     17789
     17739     17789     17792     17793     17739     17789     17792     17794
     17739     17789     17792     17795     17740     17739     17789     17790
     17740     17739     17789     17791     17740     17739     17789     17792
     17741     17739     17789     17790     17741     17739     17789     17791
     17741     17739     17789     17792     17742     17745     17748     17749
     17742     17745     17748     17750     17743     17742     17745     17746
     17743     17742     17745     17747     17743     17742     17745     17748
     17744     17742     17745     17746     17744     17742     17745     17747
     17744     17742     17745     17748     17745     17748     17750     17751
     17745     17748     17750     17752     17746     17745     17748     17749
     17746     17745     17748     17750     17747     17745     17748     17749
     17747     17745     17748     17750     17748     17750     17752     17753
     17748     17750     17752     17754     17748     17750     17752     17755
     17749     17748     17750     17751     17749     17748     17750     17752
     17750     17752     17755     17756     17750     17752     17755     17757
     17751     17750     17752     17753     17751     17750     17752     17754
     17751     17750     17752     17755     17752     17755     17757     17758
     17752     17755     17757     17759     17753     17752     17755     17756
     17753     17752     17755     17757     17754     17752     17755     17756
     17754     17752     17755     17757     17755     17757     17759     17760
     17755     17757     17759     17761     17755     17757     17759     17762
     17756     17755     17757     17758     17756     17755     17757     17759
     17757     17759     17762     17763     17757     17759     17762     17764
     17758     17757     17759     17760     17758     17757     17759     17761
     17758     17757     17759     17762     17759     17762     17764     17765
     17759     17762     17764     17766     17760     17759     17762     17763
     17760     17759     17762     17764     17761     17759     17762     17763
     17761     17759     17762     17764     17762     17764     17766     17767
     17762     17764     17766     17768     17762     17764     17766     17769
     17763     17762     17764     17765     17763     17762     17764     17766
     17764     17766     17769     17770     17764     17766     17769     17771
     17765     17764     17766     17767     17765     17764     17766     17768
     17765     17764     17766     17769     17766     17769     17771     17772
     17766     17769     17771     17773     17767     17766     17769     17770
     17767     17766     17769     17771     17768     17766     17769     17770
     17768     17766     17769     17771     17769     17771     17773     17774
     17769     17771     17773     17775     17769     17771     17773     17776
     17770     17769     17771     17772     17770     17769     17771     17773
     17771     17773     17776     17777     17771     17773     17776     17778
     17771     17773     17776     17779     17772     17771     17773     17774
     17772     17771     17773     17775     17772     17771     17773     17776
     17773     17776     17779     17780     17773     17776     17779     17781
     17773     17776     17779     17782     17774     17773     17776     17777
     17774     17773     17776     17778     17774     17773     17776     17779
     17775     17773     17776     17777     17775     17773     17776     17778
     17775     17773     17776     17779     17776     17779     17782     17783
     17776     17779     17782     17784     17776     17779     17782     17785
     17777     17776     17779     17780     17777     17776     17779     17781
     17777     17776     17779     17782     17778     17776     17779     17780
     17778     17776     17779     17781     17778     17776     17779     17782
     17779     17782     17785     17786     17779     17782     17785     17787
     17779     17782     17785     17788     17780     17779     17782     17783
     17780     17779     17782     17784     17780     17779     17782     17785
     17781     17779     17782     17783     17781     17779     17782     17784
     17781     17779     17782     17785     17783     17782     17785     17786
     17783     17782     17785     17787     17783     17782     17785     17788
     17784     17782     17785     17786     17784     17782     17785     17787
     17784     17782     17785     17788     17789     17792     17795     17796
     17789     17792     17795     17797     17789     17792     17795     17798
     17790     17789     17792     17793     17790     17789     17792     17794
     17790     17789     17792     17795     17791     17789     17792     17793
     17791     17789     17792     17794     17791     17789     17792     17795
     17792     17795     17798     17799     17792     17795     17798     17800
     17792     17795     17798     17801     17793     17792     17795     17796
     17793     17792     17795     17797     17793     17792     17795     17798
     17794     17792     17795     17796     17794     17792     17795     17797
     17794     17792     17795     17798     17795     17798     17801     17802
     17795     17798     17801     17803     17795     17798     17801     17804
     17796     17795     17798     17799     17796     17795     17798     17800
     17796     17795     17798     17801     17797     17795     17798     17799
     17797     17795     17798     17800     17797     17795     17798     17801
     17798     17801     17804     17805     17798     17801     17804     17806
     17798     17801     17804     17807     17799     17798     17801     17802
     17799     17798     17801     17803     17799     17798     17801     17804
     17800     17798     17801     17802     17800     17798     17801     17803
     17800     17798     17801     17804     17801     17804     17807     17808
     17801     17804     17807     17809     17801     17804     17807     17810
     17802     17801     17804     17805     17802     17801     17804     17806
     17802     17801     17804     17807     17803     17801     17804     17805
     17803     17801     17804     17806     17803     17801     17804     17807
     17804     17807     17810     17811     17804     17807     17810     17812
     17804     17807     17810     17813     17805     17804     17807     17808
     17805     17804     17807     17809     17805     17804     17807     17810
     17806     17804     17807     17808     17806     17804     17807     17809
     17806     17804     17807     17810     17807     17810     17813     17814
     17807     17810     17813     17815     17807     17810     17813     17816
     17808     17807     17810     17811     17808     17807     17810     17812
     17808     17807     17810     17813     17809     17807     17810     17811
     17809     17807     17810     17812     17809     17807     17810     17813
     17810     17813     17816     17817     17810     17813     17816     17818
     17810     17813     17816     17819     17811     17810     17813     17814
     17811     17810     17813     17815     17811     17810     17813     17816
     17812     17810     17813     17814     17812     17810     17813     17815
     17812     17810     17813     17816     17813     17816     17819     17820
     17813     17816     17819     17821     17813     17816     17819     17822
     17814     17813     17816     17817     17814     17813     17816     17818
     17814     17813     17816     17819     17815     17813     17816     17817
     17815     17813     17816     17818     17815     17813     17816     17819
     17816     17819     17822     17823     17816     17819     17822     17824
     17816     17819     17822     17825     17817     17816     17819     17820
     17817     17816     17819     17821     17817     17816     17819     17822
     17818     17816     17819     17820     17818     17816     17819     17821
     17818     17816     17819     17822     17819     17822     17825     17826
     17819     17822     17825     17827     17819     17822     17825     17828
     17820     17819     17822     17823     17820     17819     17822     17824
     17820     17819     17822     17825     17821     17819     17822     17823
     17821     17819     17822     17824     17821     17819     17822     17825
     17822     17825     17828     17829     17822     17825     17828     17830
     17822     17825     17828     17831     17823     17822     17825     17826
     17823     17822     17825     17827     17823     17822     17825     17828
     17824     17822     17825     17826     17824     17822     17825     17827
     17824     17822     17825     17828     17825     17828     17831     17832
     17825     17828     17831     17833     17825     17828     17831     17834
     17826     17825     17828     17829     17826     17825     17828     17830
     17826     17825     17828     17831     17827     17825     17828     17829
     17827     17825     17828     17830     17827     17825     17828     17831
     17828     17831     17834     17835     17828     17831     17834     17836
     17828     17831     17834     17837     17829     17828     17831     17832
     17829     17828     17831     17833     17829     17828     17831     17834
     17830     17828     17831     17832     17830     17828     17831     17833
     17830     17828     17831     17834     17832     17831     17834     17835
     17832     17831     17834     17836     17832     17831     17834     17837
     17833     17831     17834     17835     17833     17831     17834     17836
     17833     17831     17834     17837     14170     14183     14186     14187
     14170     14183     14186     14188     14170     14183     14186     14193
     14171     14170     14175     14176     14171     14170     14175     14177
     14171     14170     14175     14178     14171     14170     14179     14180
     14171     14170     14179     14181     14171     14170     14179     14182
     14171     14170     14183     14184     14171     14170     14183     14185
     14171     14170     14183     14186     14172     14171     14170     14175
     14172     14171     14170     14179     14172     14171     14170     14183
     14173     14171     14170     14175     14173     14171     14170     14179
     14173     14171     14170     14183     14174     14171     14170     14175
     14174     14171     14170     14179     14174     14171     14170     14183
     14175     14170     14179     14180     14175     14170     14179     14181
     14175     14170     14179     14182     14175     14170     14183     14184
     14175     14170     14183     14185     14175     14170     14183     14186
     14176     14175     14170     14179     14176     14175     14170     14183
     14177     14175     14170     14179     14177     14175     14170     14183
     14178     14175     14170     14179     14178     14175     14170     14183
     14179     14170     14183     14184     14179     14170     14183     14185
     14179     14170     14183     14186     14180     14179     14170     14183
     14181     14179     14170     14183     14182     14179     14170     14183
     14183     14186     14193     14189     14184     14183     14186     14187
     14184     14183     14186     14188     14184     14183     14186     14193
     14185     14183     14186     14187     14185     14183     14186     14188
     14185     14183     14186     14193     14186     14193     14189     14190
     14186     14193     14189     14191     14186     14193     14189     14192
     14187     14186     14193     14189     14188     14186     14193     14189
     14189     14192     14194     14195     14189     14192     14194     14196
     14189     14192     14194     14199     14190     14189     14192     14194
     14191     14189     14192     14194     14192     14194     14199     14197
     14192     14194     14199     14200     14192     14194     14199     14201
     14193     14189     14192     14194     14194     14199     14197     14198
     14194     14199     14197     14249     14194     14199     14201     14202
     14194     14199     14201     14203     14194     14199     14201     14205
     14195     14194     14199     14197     14195     14194     14199     14200
     14195     14194     14199     14201     14196     14194     14199     14197
     14196     14194     14199     14200     14196     14194     14199     14201
     14197     14199     14201     14202     14197     14199     14201     14203
     14197     14199     14201     14205     14197     14249     14251     14252
     14197     14249     14251     14253     14197     14249     14251     14254
     14198     14197     14199     14200     14198     14197     14199     14201
     14198     14197     14249     14250     14198     14197     14249     14251
     14199     14197     14249     14250     14199     14197     14249     14251
     14199     14201     14203     14204     14199     14201     14205     14206
     14199     14201     14205     14207     14200     14199     14197     14249
     14200     14199     14201     14202     14200     14199     14201     14203
     14200     14199     14201     14205     14201     14199     14197     14249
     14201     14205     14207     14208     14201     14205     14207     14209
     14202     14201     14203     14204     14202     14201     14205     14206
     14202     14201     14205     14207     14203     14201     14205     14206
     14203     14201     14205     14207     14204     14203     14201     14205
     14205     14207     14209     14210     14205     14207     14209     14211
     14205     14207     14209     14212     14206     14205     14207     14208
     14206     14205     14207     14209     14207     14209     14212     14213
     14207     14209     14212     14214     14207     14209     14212     14215
     14208     14207     14209     14210     14208     14207     14209     14211
     14208     14207     14209     14212     14209     14212     14215     14216
     14209     14212     14215     14217     14209     14212     14215     14218
     14210     14209     14212     14213     14210     14209     14212     14214
     14210     14209     14212     14215     14211     14209     14212     14213
     14211     14209     14212     14214     14211     14209     14212     14215
     14212     14215     14218     14219     14212     14215     14218     14220
     14212     14215     14218     14221     14213     14212     14215     14216
     14213     14212     14215     14217     14213     14212     14215     14218
     14214     14212     14215     14216     14214     14212     14215     14217
     14214     14212     14215     14218     14215     14218     14221     14222
     14215     14218     14221     14223     14215     14218     14221     14224
     14216     14215     14218     14219     14216     14215     14218     14220
     14216     14215     14218     14221     14217     14215     14218     14219
     14217     14215     14218     14220     14217     14215     14218     14221
     14218     14221     14224     14225     14218     14221     14224     14226
     14218     14221     14224     14227     14219     14218     14221     14222
     14219     14218     14221     14223     14219     14218     14221     14224
     14220     14218     14221     14222     14220     14218     14221     14223
     14220     14218     14221     14224     14221     14224     14227     14228
     14221     14224     14227     14229     14221     14224     14227     14230
     14222     14221     14224     14225     14222     14221     14224     14226
     14222     14221     14224     14227     14223     14221     14224     14225
     14223     14221     14224     14226     14223     14221     14224     14227
     14224     14227     14230     14231     14224     14227     14230     14232
     14224     14227     14230     14233     14225     14224     14227     14228
     14225     14224     14227     14229     14225     14224     14227     14230
     14226     14224     14227     14228     14226     14224     14227     14229
     14226     14224     14227     14230     14227     14230     14233     14234
     14227     14230     14233     14235     14227     14230     14233     14236
     14228     14227     14230     14231     14228     14227     14230     14232
     14228     14227     14230     14233     14229     14227     14230     14231
     14229     14227     14230     14232     14229     14227     14230     14233
     14230     14233     14236     14237     14230     14233     14236     14238
     14230     14233     14236     14239     14231     14230     14233     14234
     14231     14230     14233     14235     14231     14230     14233     14236
     14232     14230     14233     14234     14232     14230     14233     14235
     14232     14230     14233     14236     14233     14236     14239     14240
     14233     14236     14239     14241     14233     14236     14239     14242
     14234     14233     14236     14237     14234     14233     14236     14238
     14234     14233     14236     14239     14235     14233     14236     14237
     14235     14233     14236     14238     14235     14233     14236     14239
     14236     14239     14242     14243     14236     14239     14242     14244
     14236     14239     14242     14245     14237     14236     14239     14240
     14237     14236     14239     14241     14237     14236     14239     14242
     14238     14236     14239     14240     14238     14236     14239     14241
     14238     14236     14239     14242     14239     14242     14245     14246
     14239     14242     14245     14247     14239     14242     14245     14248
     14240     14239     14242     14243     14240     14239     14242     14244
     14240     14239     14242     14245     14241     14239     14242     14243
     14241     14239     14242     14244     14241     14239     14242     14245
     14243     14242     14245     14246     14243     14242     14245     14247
     14243     14242     14245     14248     14244     14242     14245     14246
     14244     14242     14245     14247     14244     14242     14245     14248
     14249     14251     14254     14255     14249     14251     14254     14256
     14249     14251     14254     14257     14250     14249     14251     14252
     14250     14249     14251     14253     14250     14249     14251     14254
     14251     14254     14257     14258     14251     14254     14257     14259
     14251     14254     14257     14260     14252     14251     14254     14255
     14252     14251     14254     14256     14252     14251     14254     14257
     14253     14251     14254     14255     14253     14251     14254     14256
     14253     14251     14254     14257     14254     14257     14260     14261
     14254     14257     14260     14262     14254     14257     14260     14263
     14255     14254     14257     14258     14255     14254     14257     14259
     14255     14254     14257     14260     14256     14254     14257     14258
     14256     14254     14257     14259     14256     14254     14257     14260
     14257     14260     14263     14264     14257     14260     14263     14265
     14257     14260     14263     14266     14258     14257     14260     14261
     14258     14257     14260     14262     14258     14257     14260     14263
     14259     14257     14260     14261     14259     14257     14260     14262
     14259     14257     14260     14263     14260     14263     14266     14267
     14260     14263     14266     14268     14260     14263     14266     14269
     14261     14260     14263     14264     14261     14260     14263     14265
     14261     14260     14263     14266     14262     14260     14263     14264
     14262     14260     14263     14265     14262     14260     14263     14266
     14263     14266     14269     14270     14263     14266     14269     14271
     14263     14266     14269     14272     14264     14263     14266     14267
     14264     14263     14266     14268     14264     14263     14266     14269
     14265     14263     14266     14267     14265     14263     14266     14268
     14265     14263     14266     14269     14266     14269     14272     14273
     14266     14269     14272     14274     14267     14266     14269     14270
     14267     14266     14269     14271     14267     14266     14269     14272
     14268     14266     14269     14270     14268     14266     14269     14271
     14268     14266     14269     14272     14269     14272     14274     14275
     14269     14272     14274     14276     14270     14269     14272     14273
     14270     14269     14272     14274     14271     14269     14272     14273
     14271     14269     14272     14274     14272     14274     14276     14277
     14272     14274     14276     14278     14272     14274     14276     14279
     14273     14272     14274     14275     14273     14272     14274     14276
     14274     14276     14279     14280     14274     14276     14279     14281
     14274     14276     14279     14282     14275     14274     14276     14277
     14275     14274     14276     14278     14275     14274     14276     14279
     14276     14279     14282     14283     14276     14279     14282     14284
     14276     14279     14282     14285     14277     14276     14279     14280
     14277     14276     14279     14281     14277     14276     14279     14282
     14278     14276     14279     14280     14278     14276     14279     14281
     14278     14276     14279     14282     14279     14282     14285     14286
     14279     14282     14285     14287     14279     14282     14285     14288
     14280     14279     14282     14283     14280     14279     14282     14284
     14280     14279     14282     14285     14281     14279     14282     14283
     14281     14279     14282     14284     14281     14279     14282     14285
     14282     14285     14288     14289     14282     14285     14288     14290
     14282     14285     14288     14291     14283     14282     14285     14286
     14283     14282     14285     14287     14283     14282     14285     14288
     14284     14282     14285     14286     14284     14282     14285     14287
     14284     14282     14285     14288     14285     14288     14291     14292
     14285     14288     14291     14293     14285     14288     14291     14294
     14286     14285     14288     14289     14286     14285     14288     14290
     14286     14285     14288     14291     14287     14285     14288     14289
     14287     14285     14288     14290     14287     14285     14288     14291
     14288     14291     14294     14295     14288     14291     14294     14296
     14288     14291     14294     14297     14289     14288     14291     14292
     14289     14288     14291     14293     14289     14288     14291     14294
     14290     14288     14291     14292     14290     14288     14291     14293
     14290     14288     14291     14294     14291     14294     14297     14298
     14291     14294     14297     14299     14291     14294     14297     14300
     14292     14291     14294     14295     14292     14291     14294     14296
     14292     14291     14294     14297     14293     14291     14294     14295
     14293     14291     14294     14296     14293     14291     14294     14297
     14295     14294     14297     14298     14295     14294     14297     14299
     14295     14294     14297     14300     14296     14294     14297     14298
     14296     14294     14297     14299     14296     14294     14297     14300
      9289      9293      9296      9297      9289      9293      9296      9327
      9289      9335      9332      9327      9289      9335      9332      9333
      9289      9335      9332      9334      9290      9289      9291      9292
      9290      9289      9293      9294      9290      9289      9293      9295
      9290      9289      9293      9296      9290      9289      9335      9332
      9290      9289      9335      9336      9290      9289      9335      9337
      9291      9289      9293      9294      9291      9289      9293      9295
      9291      9289      9293      9296      9291      9289      9335      9332
      9291      9289      9335      9336      9291      9289      9335      9337
      9292      9291      9289      9293      9292      9291      9289      9335
      9293      9289      9335      9332      9293      9289      9335      9336
      9293      9289      9335      9337      9293      9296      9297      9298
      9293      9296      9297      9299      9293      9296      9327      9325
      9293      9296      9327      9328      9293      9296      9327      9332
      9294      9293      9289      9335      9294      9293      9296      9297
      9294      9293      9296      9327      9295      9293      9289      9335
      9295      9293      9296      9297      9295      9293      9296      9327
      9296      9293      9289      9335      9296      9297      9299      9300
      9296      9297      9299      9301      9296      9297      9299      9302
      9296      9327      9325      9302      9296      9327      9325      9322
      9296      9327      9325      9326      9296      9327      9328      9329
      9296      9327      9328      9330      9296      9327      9328      9331
      9296      9327      9332      9333      9296      9327      9332      9334
      9296      9327      9332      9335      9297      9296      9327      9325
      9297      9296      9327      9328      9297      9296      9327      9332
      9297      9299      9302      9303      9297      9299      9302      9304
      9297      9299      9302      9325      9298      9297      9296      9327
      9298      9297      9299      9300      9298      9297      9299      9301
      9298      9297      9299      9302      9299      9297      9296      9327
      9299      9302      9304      9305      9299      9302      9304      9306
      9299      9302      9304      9314      9299      9302      9325      9322
      9299      9302      9325      9326      9299      9302      9325      9327
      9300      9299      9302      9303      9300      9299      9302      9304
      9300      9299      9302      9325      9301      9299      9302      9303
      9301      9299      9302      9304      9301      9299      9302      9325
      9302      9304      9306      9307      9302      9304      9306      9308
      9302      9304      9306      9309      9302      9304      9314      9312
      9302      9304      9314      9315      9302      9304      9314      9319
      9302      9325      9322      9319      9302      9325      9322      9323
      9302      9325      9322      9324      9302      9325      9327      9328
      9302      9325      9327      9332      9303      9302      9304      9305
      9303      9302      9304      9306      9303      9302      9304      9314
      9303      9302      9325      9322      9303      9302      9325      9326
      9303      9302      9325      9327      9304      9302      9325      9322
      9304      9302      9325      9326      9304      9302      9325      9327
      9304      9306      9309      9310      9304      9306      9309      9311
      9304      9306      9309      9312      9304      9314      9312      9309
      9304      9314      9312      9313      9304      9314      9312      9338
      9304      9314      9315      9316      9304      9314      9315      9317
      9304      9314      9315      9318      9304      9314      9319      9320
      9304      9314      9319      9321      9304      9314      9319      9322
      9305      9304      9302      9325      9305      9304      9306      9307
      9305      9304      9306      9308      9305      9304      9306      9309
      9305      9304      9314      9312      9305      9304      9314      9315
      9305      9304      9314      9319      9306      9304      9302      9325
      9306      9304      9314      9312      9306      9304      9314      9315
      9306      9304      9314      9319      9306      9309      9312      9313
      9306      9309      9312      9314      9306      9309      9312      9338
      9307      9306      9304      9314      9307      9306      9309      9310
      9307      9306      9309      9311      9307      9306      9309      9312
      9308      9306      9304      9314      9308      9306      9309      9310
      9308      9306      9309      9311      9308      9306      9309      9312
      9309      9306      9304      9314      9309      9312      9314      9315
      9309      9312      9314      9319      9309      9312      9338      9339
      9309      9312      9338      9340      9309      9312      9338      9344
      9310      9309      9312      9313      9310      9309      9312      9314
      9310      9309      9312      9338      9311      9309      9312      9313
      9311      9309      9312      9314      9311      9309      9312      9338
      9312      9314      9315      9316      9312      9314      9315      9317
      9312      9314      9315      9318      9312      9314      9319      9320
      9312      9314      9319      9321      9312      9314      9319      9322
      9312      9338      9340      9341      9312      9338      9340      9342
      9312      9338      9340      9343      9312      9338      9344      9345
      9312      9338      9344      9346      9312      9338      9344      9347
      9313      9312      9314      9315      9313      9312      9314      9319
      9313      9312      9338      9339      9313      9312      9338      9340
      9313      9312      9338      9344      9314      9304      9302      9325
      9314      9312      9338      9339      9314      9312      9338      9340
      9314      9312      9338      9344      9314      9319      9322      9323
      9314      9319      9322      9324      9314      9319      9322      9325
      9315      9314      9312      9338      9315      9314      9319      9320
      9315      9314      9319      9321      9315      9314      9319      9322
      9316      9315      9314      9319      9317      9315      9314      9319
      9318      9315      9314      9319      9319      9314      9312      9338
      9319      9322      9325      9326      9319      9322      9325      9327
      9320      9319      9322      9323      9320      9319      9322      9324
      9320      9319      9322      9325      9321      9319      9322      9323
      9321      9319      9322      9324      9321      9319      9322      9325
      9322      9325      9327      9328      9322      9325      9327      9332
      9323      9322      9325      9326      9323      9322      9325      9327
      9324      9322      9325      9326      9324      9322      9325      9327
      9325      9327      9328      9329      9325      9327      9328      9330
      9325      9327      9328      9331      9325      9327      9332      9333
      9325      9327      9332      9334      9325      9327      9332      9335
      9326      9325      9327      9328      9326      9325      9327      9332
      9327      9332      9335      9336      9327      9332      9335      9337
      9328      9327      9332      9333      9328      9327      9332      9334
      9328      9327      9332      9335      9329      9328      9327      9332
      9330      9328      9327      9332      9331      9328      9327      9332
      9333      9332      9335      9336      9333      9332      9335      9337
      9334      9332      9335      9336      9334      9332      9335      9337
      9338      9344      9347      9348      9338      9344      9347      9349
      9338      9344      9347      9350      9339      9338      9340      9341
      9339      9338      9340      9342      9339      9338      9340      9343
      9339      9338      9344      9345      9339      9338      9344      9346
      9339      9338      9344      9347      9340      9338      9344      9345
      9340      9338      9344      9346      9340      9338      9344      9347
      9341      9340      9338      9344      9342      9340      9338      9344
      9343      9340      9338      9344      9344      9347      9350      9351
      9344      9347      9350      9352      9344      9347      9350      9353
      9345      9344      9347      9348      9345      9344      9347      9349
      9345      9344      9347      9350      9346      9344      9347      9348
      9346      9344      9347      9349      9346      9344      9347      9350
      9347      9350      9353      9354      9347      9350      9353      9355
      9347      9350      9353      9359      9348      9347      9350      9351
      9348      9347      9350      9352      9348      9347      9350      9353
      9349      9347      9350      9351      9349      9347      9350      9352
      9349      9347      9350      9353      9350      9353      9355      9356
      9350      9353      9355      9357      9350      9353      9355      9358
      9350      9353      9359      9360      9350      9353      9359      9361
      9350      9353      9359      9362      9351      9350      9353      9354
      9351      9350      9353      9355      9351      9350      9353      9359
      9352      9350      9353      9354      9352      9350      9353      9355
      9352      9350      9353      9359      9354      9353      9355      9356
      9354      9353      9355      9357      9354      9353      9355      9358
      9354      9353      9359      9360      9354      9353      9359      9361
      9354      9353      9359      9362      9355      9353      9359      9360
      9355      9353      9359      9361      9355      9353      9359      9362
      9356      9355      9353      9359      9357      9355      9353      9359
      9358      9355      9353      9359      1730      1734      1736      1737
      1730      1734      1736      1738      1730      1734      1739      1740
      1730      1734      1739      1741      1730      1734      1739      1745
      1731      1730      1734      1735      1731      1730      1734      1736
      1731      1730      1734      1739      1732      1730      1734      1735
      1732      1730      1734      1736      1732      1730      1734      1739
      1733      1730      1734      1735      1733      1730      1734      1736
      1733      1730      1734      1739      1734      1739      1745      1742
      1735      1734      1736      1737      1735      1734      1736      1738
      1735      1734      1739      1740      1735      1734      1739      1741
      1735      1734      1739      1745      1736      1734      1739      1740
      1736      1734      1739      1741      1736      1734      1739      1745
      1737      1736      1734      1739      1738      1736      1734      1739
      1739      1745      1742      1743      1739      1745      1742      1744
      1739      1745      1742      1746      1740      1739      1745      1742
      1741      1739      1745      1742      1742      1746      1747      1748
      1742      1746      1747      1749      1742      1746      1747      1750
      1743      1742      1746      1747      1744      1742      1746      1747
      1745      1742      1746      1747      1746      1747      1750      1751
      1746      1747      1750      1752      1746      1747      1750      1758
      1747      1750      1752      1753      1747      1750      1758      1759
      1747      1750      1758      1760      1747      1750      1758      1761
      1748      1747      1750      1751      1748      1747      1750      1752
      1748      1747      1750      1758      1749      1747      1750      1751
      1749      1747      1750      1752      1749      1747      1750      1758
      1750      1752      1753      1754      1750      1752      1753      1755
      1750      1758      1761      1762      1751      1750      1752      1753
      1751      1750      1758      1759      1751      1750      1758      1760
      1751      1750      1758      1761      1752      1750      1758      1759
      1752      1750      1758      1760      1752      1750      1758      1761
      1752      1753      1755      1756      1752      1753      1755      1757
      1752      1753      1755      1767      1753      1752      1750      1758
      1753      1755      1767      1768      1753      1755      1767      1769
      1753      1755      1767      1770      1754      1753      1755      1756
      1754      1753      1755      1757      1754      1753      1755      1767
      1755      1767      1770      1771      1755      1767      1770      1772
      1755      1767      1770      1773      1756      1755      1767      1768
      1756      1755      1767      1769      1756      1755      1767      1770
      1757      1755      1767      1768      1757      1755      1767      1769
      1757      1755      1767      1770      1758      1761      1762      1763
      1758      1761      1762      1764      1759      1758      1761      1762
      1760      1758      1761      1762      1761      1762      1764      1765
      1761      1762      1764      1766      1761      1762      1764      1814
      1762      1764      1814      1815      1762      1764      1814      1816
      1762      1764      1814      1817      1763      1762      1764      1765
      1763      1762      1764      1766      1763      1762      1764      1814
      1764      1814      1817      1818      1764      1814      1817      1819
      1764      1814      1817      1820      1765      1764      1814      1815
      1765      1764      1814      1816      1765      1764      1814      1817
      1766      1764      1814      1815      1766      1764      1814      1816
      1766      1764      1814      1817      1767      1770      1773      1774
      1767      1770      1773      1775      1768      1767      1770      1771
      1768      1767      1770      1772      1768      1767      1770      1773
      1769      1767      1770      1771      1769      1767      1770      1772
      1769      1767      1770      1773      1770      1773      1775      1776
      1770      1773      1775      1777      1771      1770      1773      1774
      1771      1770      1773      1775      1772      1770      1773      1774
      1772      1770      1773      1775      1773      1775      1777      1778
      1773      1775      1777      1779      1773      1775      1777      1780
      1774      1773      1775      1776      1774      1773      1775      1777
      1775      1777      1780      1781      1775      1777      1780      1782
      1776      1775      1777      1778      1776      1775      1777      1779
      1776      1775      1777      1780      1777      1780      1782      1783
      1777      1780      1782      1784      1778      1777      1780      1781
      1778      1777      1780      1782      1779      1777      1780      1781
      1779      1777      1780      1782      1780      1782      1784      1785
      1780      1782      1784      1786      1780      1782      1784      1787
      1781      1780      1782      1783      1781      1780      1782      1784
      1782      1784      1787      1788      1782      1784      1787      1789
      1783      1782      1784      1785      1783      1782      1784      1786
      1783      1782      1784      1787      1784      1787      1789      1790
      1784      1787      1789      1791      1785      1784      1787      1788
      1785      1784      1787      1789      1786      1784      1787      1788
      1786      1784      1787      1789      1787      1789      1791      1792
      1787      1789      1791      1793      1787      1789      1791      1794
      1788      1787      1789      1790      1788      1787      1789      1791
      1789      1791      1794      1795      1789      1791      1794      1796
      1790      1789      1791      1792      1790      1789      1791      1793
      1790      1789      1791      1794      1791      1794      1796      1797
      1791      1794      1796      1798      1792      1791      1794      1795
      1792      1791      1794      1796      1793      1791      1794      1795
      1793      1791      1794      1796      1794      1796      1798      1799
      1794      1796      1798      1800      1794      1796      1798      1801
      1795      1794      1796      1797      1795      1794      1796      1798
      1796      1798      1801      1802      1796      1798      1801      1803
      1796      1798      1801      1804      1797      1796      1798      1799
      1797      1796      1798      1800      1797      1796      1798      1801
      1798      1801      1804      1805      1798      1801      1804      1806
      1798      1801      1804      1807      1799      1798      1801      1802
      1799      1798      1801      1803      1799      1798      1801      1804
      1800      1798      1801      1802      1800      1798      1801      1803
      1800      1798      1801      1804      1801      1804      1807      1808
      1801      1804      1807      1809      1801      1804      1807      1810
      1802      1801      1804      1805      1802      1801      1804      1806
      1802      1801      1804      1807      1803      1801      1804      1805
      1803      1801      1804      1806      1803      1801      1804      1807
      1804      1807      1810      1811      1804      1807      1810      1812
      1804      1807      1810      1813      1805      1804      1807      1808
      1805      1804      1807      1809      1805      1804      1807      1810
      1806      1804      1807      1808      1806      1804      1807      1809
      1806      1804      1807      1810      1808      1807      1810      1811
      1808      1807      1810      1812      1808      1807      1810      1813
      1809      1807      1810      1811      1809      1807      1810      1812
      1809      1807      1810      1813      1814      1817      1820      1821
      1814      1817      1820      1822      1814      1817      1820      1823
      1815      1814      1817      1818      1815      1814      1817      1819
      1815      1814      1817      1820      1816      1814      1817      1818
      1816      1814      1817      1819      1816      1814      1817      1820
      1817      1820      1823      1824      1817      1820      1823      1825
      1817      1820      1823      1826      1818      1817      1820      1821
      1818      1817      1820      1822      1818      1817      1820      1823
      1819      1817      1820      1821      1819      1817      1820      1822
      1819      1817      1820      1823      1820      1823      1826      1827
      1820      1823      1826      1828      1820      1823      1826      1829
      1821      1820      1823      1824      1821      1820      1823      1825
      1821      1820      1823      1826      1822      1820      1823      1824
      1822      1820      1823      1825      1822      1820      1823      1826
      1823      1826      1829      1830      1823      1826      1829      1831
      1823      1826      1829      1832      1824      1823      1826      1827
      1824      1823      1826      1828      1824      1823      1826      1829
      1825      1823      1826      1827      1825      1823      1826      1828
      1825      1823      1826      1829      1826      1829      1832      1833
      1826      1829      1832      1834      1826      1829      1832      1835
      1827      1826      1829      1830      1827      1826      1829      1831
      1827      1826      1829      1832      1828      1826      1829      1830
      1828      1826      1829      1831      1828      1826      1829      1832
      1829      1832      1835      1836      1829      1832      1835      1837
      1829      1832      1835      1838      1830      1829      1832      1833
      1830      1829      1832      1834      1830      1829      1832      1835
      1831      1829      1832      1833      1831      1829      1832      1834
      1831      1829      1832      1835      1832      1835      1838      1839
      1832      1835      1838      1840      1832      1835      1838      1841
      1833      1832      1835      1836      1833      1832      1835      1837
      1833      1832      1835      1838      1834      1832      1835      1836
      1834      1832      1835      1837      1834      1832      1835      1838
      1835      1838      1841      1842      1835      1838      1841      1843
      1835      1838      1841      1844      1836      1835      1838      1839
      1836      1835      1838      1840      1836      1835      1838      1841
      1837      1835      1838      1839      1837      1835      1838      1840
      1837      1835      1838      1841      1838      1841      1844      1845
      1838      1841      1844      1846      1838      1841      1844      1847
      1839      1838      1841      1842      1839      1838      1841      1843
      1839      1838      1841      1844      1840      1838      1841      1842
      1840      1838      1841      1843      1840      1838      1841      1844
      1841      1844      1847      1848      1841      1844      1847      1849
      1841      1844      1847      1850      1842      1841      1844      1845
      1842      1841      1844      1846      1842      1841      1844      1847
      1843      1841      1844      1845      1843      1841      1844      1846
      1843      1841      1844      1847      1844      1847      1850      1851
      1844      1847      1850      1852      1844      1847      1850      1853
      1845      1844      1847      1848      1845      1844      1847      1849
      1845      1844      1847      1850      1846      1844      1847      1848
      1846      1844      1847      1849      1846      1844      1847      1850
      1847      1850      1853      1854      1847      1850      1853      1855
      1847      1850      1853      1856      1848      1847      1850      1851
      1848      1847      1850      1852      1848      1847      1850      1853
      1849      1847      1850      1851      1849      1847      1850      1852
      1849      1847      1850      1853      1850      1853      1856      1857
      1850      1853      1856      1858      1850      1853      1856      1859
      1851      1850      1853      1854      1851      1850      1853      1855
      1851      1850      1853      1856      1852      1850      1853      1854
      1852      1850      1853      1855      1852      1850      1853      1856
      1853      1856      1859      1860      1853      1856      1859      1861
      1853      1856      1859      1862      1854      1853      1856      1857
      1854      1853      1856      1858      1854      1853      1856      1859
      1855      1853      1856      1857      1855      1853      1856      1858
      1855      1853      1856      1859      1857      1856      1859      1860
      1857      1856      1859      1861      1857      1856      1859      1862
      1858      1856      1859      1860      1858      1856      1859      1861
      1858      1856      1859      1862     19410     19414     19417     19418
     19410     19414     19417     19419     19410     19414     19417     19423
     19411     19410     19414     19415     19411     19410     19414     19416
     19411     19410     19414     19417     19412     19410     19414     19415
     19412     19410     19414     19416     19412     19410     19414     19417
     19413     19410     19414     19415     19413     19410     19414     19416
     19413     19410     19414     19417     19414     19417     19423     19420
     19415     19414     19417     19418     19415     19414     19417     19419
     19415     19414     19417     19423     19416     19414     19417     19418
     19416     19414     19417     19419     19416     19414     19417     19423
     19417     19423     19420     19421     19417     19423     19420     19422
     19417     19423     19420     19424     19418     19417     19423     19420
     19419     19417     19423     19420     19420     19424     19425     19426
     19420     19424     19425     19427     19420     19424     19425     19428
     19421     19420     19424     19425     19422     19420     19424     19425
     19423     19420     19424     19425     19424     19425     19428     19429
     19424     19425     19428     19430     19424     19425     19428     19436
     19425     19428     19430     19431     19425     19428     19436     19437
     19425     19428     19436     19438     19425     19428     19436     19439
     19426     19425     19428     19429     19426     19425     19428     19430
     19426     19425     19428     19436     19427     19425     19428     19429
     19427     19425     19428     19430     19427     19425     19428     19436
     19428     19430     19431     19432     19428     19430     19431     19433
     19428     19436     19439     19440     19429     19428     19430     19431
     19429     19428     19436     19437     19429     19428     19436     19438
     19429     19428     19436     19439     19430     19428     19436     19437
     19430     19428     19436     19438     19430     19428     19436     19439
     19430     19431     19433     19434     19430     19431     19433     19435
     19430     19431     19433     19445     19431     19430     19428     19436
     19431     19433     19445     19446     19431     19433     19445     19447
     19431     19433     19445     19448     19432     19431     19433     19434
     19432     19431     19433     19435     19432     19431     19433     19445
     19433     19445     19448     19449     19433     19445     19448     19450
     19433     19445     19448     19451     19434     19433     19445     19446
     19434     19433     19445     19447     19434     19433     19445     19448
     19435     19433     19445     19446     19435     19433     19445     19447
     19435     19433     19445     19448     19436     19439     19440     19441
     19436     19439     19440     19442     19437     19436     19439     19440
     19438     19436     19439     19440     19439     19440     19442     19443
     19439     19440     19442     19444     19439     19440     19442     19492
     19440     19442     19492     19493     19440     19442     19492     19494
     19440     19442     19492     19495     19441     19440     19442     19443
     19441     19440     19442     19444     19441     19440     19442     19492
     19442     19492     19495     19496     19442     19492     19495     19497
     19442     19492     19495     19498     19443     19442     19492     19493
     19443     19442     19492     19494     19443     19442     19492     19495
     19444     19442     19492     19493     19444     19442     19492     19494
     19444     19442     19492     19495     19445     19448     19451     19452
     19445     19448     19451     19453     19445     19448     19451     19454
     19446     19445     19448     19449     19446     19445     19448     19450
     19446     19445     19448     19451     19447     19445     19448     19449
     19447     19445     19448     19450     19447     19445     19448     19451
     19448     19451     19454     19455     19448     19451     19454     19456
     19448     19451     19454     19457     19449     19448     19451     19452
     19449     19448     19451     19453     19449     19448     19451     19454
     19450     19448     19451     19452     19450     19448     19451     19453
     19450     19448     19451     19454     19451     19454     19457     19458
     19451     19454     19457     19459     19451     19454     19457     19460
     19452     19451     19454     19455     19452     19451     19454     19456
     19452     19451     19454     19457     19453     19451     19454     19455
     19453     19451     19454     19456     19453     19451     19454     19457
     19454     19457     19460     19461     19454     19457     19460     19462
     19454     19457     19460     19463     19455     19454     19457     19458
     19455     19454     19457     19459     19455     19454     19457     19460
     19456     19454     19457     19458     19456     19454     19457     19459
     19456     19454     19457     19460     19457     19460     19463     19464
     19457     19460     19463     19465     19458     19457     19460     19461
     19458     19457     19460     19462     19458     19457     19460     19463
     19459     19457     19460     19461     19459     19457     19460     19462
     19459     19457     19460     19463     19460     19463     19465     19466
     19460     19463     19465     19467     19461     19460     19463     19464
     19461     19460     19463     19465     19462     19460     19463     19464
     19462     19460     19463     19465     19463     19465     19467     19468
     19463     19465     19467     19469     19463     19465     19467     19470
     19464     19463     19465     19466     19464     19463     19465     19467
     19465     19467     19470     19471     19465     19467     19470     19472
     19465     19467     19470     19473     19466     19465     19467     19468
     19466     19465     19467     19469     19466     19465     19467     19470
     19467     19470     19473     19474     19467     19470     19473     19475
     19467     19470     19473     19476     19468     19467     19470     19471
     19468     19467     19470     19472     19468     19467     19470     19473
     19469     19467     19470     19471     19469     19467     19470     19472
     19469     19467     19470     19473     19470     19473     19476     19477
     19470     19473     19476     19478     19470     19473     19476     19479
     19471     19470     19473     19474     19471     19470     19473     19475
     19471     19470     19473     19476     19472     19470     19473     19474
     19472     19470     19473     19475     19472     19470     19473     19476
     19473     19476     19479     19480     19473     19476     19479     19481
     19473     19476     19479     19482     19474     19473     19476     19477
     19474     19473     19476     19478     19474     19473     19476     19479
     19475     19473     19476     19477     19475     19473     19476     19478
     19475     19473     19476     19479     19476     19479     19482     19483
     19476     19479     19482     19484     19476     19479     19482     19485
     19477     19476     19479     19480     19477     19476     19479     19481
     19477     19476     19479     19482     19478     19476     19479     19480
     19478     19476     19479     19481     19478     19476     19479     19482
     19479     19482     19485     19486     19479     19482     19485     19487
     19479     19482     19485     19488     19480     19479     19482     19483
     19480     19479     19482     19484     19480     19479     19482     19485
     19481     19479     19482     19483     19481     19479     19482     19484
     19481     19479     19482     19485     19482     19485     19488     19489
     19482     19485     19488     19490     19482     19485     19488     19491
     19483     19482     19485     19486     19483     19482     19485     19487
     19483     19482     19485     19488     19484     19482     19485     19486
     19484     19482     19485     19487     19484     19482     19485     19488
     19486     19485     19488     19489     19486     19485     19488     19490
     19486     19485     19488     19491     19487     19485     19488     19489
     19487     19485     19488     19490     19487     19485     19488     19491
     19492     19495     19498     19499     19492     19495     19498     19500
     19492     19495     19498     19501     19493     19492     19495     19496
     19493     19492     19495     19497     19493     19492     19495     19498
     19494     19492     19495     19496     19494     19492     19495     19497
     19494     19492     19495     19498     19495     19498     19501     19502
     19495     19498     19501     19503     19495     19498     19501     19504
     19496     19495     19498     19499     19496     19495     19498     19500
     19496     19495     19498     19501     19497     19495     19498     19499
     19497     19495     19498     19500     19497     19495     19498     19501
     19498     19501     19504     19505     19498     19501     19504     19506
     19498     19501     19504     19507     19499     19498     19501     19502
     19499     19498     19501     19503     19499     19498     19501     19504
     19500     19498     19501     19502     19500     19498     19501     19503
     19500     19498     19501     19504     19501     19504     19507     19508
     19501     19504     19507     19509     19501     19504     19507     19510
     19502     19501     19504     19505     19502     19501     19504     19506
     19502     19501     19504     19507     19503     19501     19504     19505
     19503     19501     19504     19506     19503     19501     19504     19507
     19504     19507     19510     19511     19504     19507     19510     19512
     19504     19507     19510     19513     19505     19504     19507     19508
     19505     19504     19507     19509     19505     19504     19507     19510
     19506     19504     19507     19508     19506     19504     19507     19509
     19506     19504     19507     19510     19507     19510     19513     19514
     19507     19510     19513     19515     19507     19510     19513     19516
     19508     19507     19510     19511     19508     19507     19510     19512
     19508     19507     19510     19513     19509     19507     19510     19511
     19509     19507     19510     19512     19509     19507     19510     19513
     19510     19513     19516     19517     19510     19513     19516     19518
     19510     19513     19516     19519     19511     19510     19513     19514
     19511     19510     19513     19515     19511     19510     19513     19516
     19512     19510     19513     19514     19512     19510     19513     19515
     19512     19510     19513     19516     19513     19516     19519     19520
     19513     19516     19519     19521     19513     19516     19519     19522
     19514     19513     19516     19517     19514     19513     19516     19518
     19514     19513     19516     19519     19515     19513     19516     19517
     19515     19513     19516     19518     19515     19513     19516     19519
     19516     19519     19522     19523     19516     19519     19522     19524
     19516     19519     19522     19525     19517     19516     19519     19520
     19517     19516     19519     19521     19517     19516     19519     19522
     19518     19516     19519     19520     19518     19516     19519     19521
     19518     19516     19519     19522     19519     19522     19525     19526
     19519     19522     19525     19527     19519     19522     19525     19528
     19520     19519     19522     19523     19520     19519     19522     19524
     19520     19519     19522     19525     19521     19519     19522     19523
     19521     19519     19522     19524     19521     19519     19522     19525
     19522     19525     19528     19529     19522     19525     19528     19530
     19522     19525     19528     19531     19523     19522     19525     19526
     19523     19522     19525     19527     19523     19522     19525     19528
     19524     19522     19525     19526     19524     19522     19525     19527
     19524     19522     19525     19528     19525     19528     19531     19532
     19525     19528     19531     19533     19525     19528     19531     19534
     19526     19525     19528     19529     19526     19525     19528     19530
     19526     19525     19528     19531     19527     19525     19528     19529
     19527     19525     19528     19530     19527     19525     19528     19531
     19528     19531     19534     19535     19528     19531     19534     19536
     19528     19531     19534     19537     19529     19528     19531     19532
     19529     19528     19531     19533     19529     19528     19531     19534
     19530     19528     19531     19532     19530     19528     19531     19533
     19530     19528     19531     19534     19531     19534     19537     19538
     19531     19534     19537     19539     19531     19534     19537     19540
     19532     19531     19534     19535     19532     19531     19534     19536
     19532     19531     19534     19537     19533     19531     19534     19535
     19533     19531     19534     19536     19533     19531     19534     19537
     19535     19534     19537     19538     19535     19534     19537     19539
     19535     19534     19537     19540     19536     19534     19537     19538
     19536     19534     19537     19539     19536     19534     19537     19540
      3949      3950      3965      3966      3949      3950      3965      3967
      3949      3950      3965      3971      3950      3949      3953      3954
      3950      3949      3953      3955      3950      3949      3953      3956
      3950      3949      3957      3958      3950      3949      3957      3959
      3950      3949      3957      3960      3950      3949      3961      3962
      3950      3949      3961      3963      3950      3949      3961      3964
      3950      3965      3971      3968      3951      3950      3949      3953
      3951      3950      3949      3957      3951      3950      3949      3961
      3951      3950      3965      3966      3951      3950      3965      3967
      3951      3950      3965      3971      3952      3950      3949      3953
      3952      3950      3949      3957      3952      3950      3949      3961
      3952      3950      3965      3966      3952      3950      3965      3967
      3952      3950      3965      3971      3953      3949      3950      3965
      3953      3949      3957      3958      3953      3949      3957      3959
      3953      3949      3957      3960      3953      3949      3961      3962
      3953      3949      3961      3963      3953      3949      3961      3964
      3954      3953      3949      3957      3954      3953      3949      3961
      3955      3953      3949      3957      3955      3953      3949      3961
      3956      3953      3949      3957      3956      3953      3949      3961
      3957      3949      3950      3965      3957      3949      3961      3962
      3957      3949      3961      3963      3957      3949      3961      3964
      3958      3957      3949      3961      3959      3957      3949      3961
      3960      3957      3949      3961      3961      3949      3950      3965
      3965      3971      3968      3969      3965      3971      3968      3970
      3965      3971      3968      3972      3966      3965      3971      3968
      3967      3965      3971      3968      3968      3972      3973      3974
      3968      3972      3973      3975      3968      3972      3973      3976
      3969      3968      3972      3973      3970      3968      3972      3973
      3971      3968      3972      3973      3972      3973      3976      3977
      3972      3973      3976      3978      3972      3973      3976      3984
      3973      3976      3978      3979      3973      3976      3984      3985
      3973      3976      3984      3986      3973      3976      3984      3987
      3974      3973      3976      3977      3974      3973      3976      3978
      3974      3973      3976      3984      3975      3973      3976      3977
      3975      3973      3976      3978      3975      3973      3976      3984
      3976      3978      3979      3980      3976      3978      3979      3981
      3976      3984      3987      3988      3977      3976      3978      3979
      3977      3976      3984      3985      3977      3976      3984      3986
      3977      3976      3984      3987      3978      3976      3984      3985
      3978      3976      3984      3986      3978      3976      3984      3987
      3978      3979      3981      3982      3978      3979      3981      3983
      3978      3979      3981      3993      3979      3978      3976      3984
      3979      3981      3993      3994      3979      3981      3993      3995
      3979      3981      3993      3996      3980      3979      3981      3982
      3980      3979      3981      3983      3980      3979      3981      3993
      3981      3993      3996      3997      3981      3993      3996      3998
      3981      3993      3996      3999      3982      3981      3993      3994
      3982      3981      3993      3995      3982      3981      3993      3996
      3983      3981      3993      3994      3983      3981      3993      3995
      3983      3981      3993      3996      3984      3987      3988      3989
      3984      3987      3988      3990      3985      3984      3987      3988
      3986      3984      3987      3988      3987      3988      3990      3991
      3987      3988      3990      3992      3987      3988      3990      4040
      3988      3990      4040      4041      3988      3990      4040      4042
      3988      3990      4040      4043      3989      3988      3990      3991
      3989      3988      3990      3992      3989      3988      3990      4040
      3990      4040      4043      4044      3990      4040      4043      4045
      3990      4040      4043      4046      3991      3990      4040      4041
      3991      3990      4040      4042      3991      3990      4040      4043
      3992      3990      4040      4041      3992      3990      4040      4042
      3992      3990      4040      4043      3993      3996      3999      4000
      3993      3996      3999      4001      3994      3993      3996      3997
      3994      3993      3996      3998      3994      3993      3996      3999
      3995      3993      3996      3997      3995      3993      3996      3998
      3995      3993      3996      3999      3996      3999      4001      4002
      3996      3999      4001      4003      3997      3996      3999      4000
      3997      3996      3999      4001      3998      3996      3999      4000
      3998      3996      3999      4001      3999      4001      4003      4004
      3999      4001      4003      4005      3999      4001      4003      4006
      4000      3999      4001      4002      4000      3999      4001      4003
      4001      4003      4006      4007      4001      4003      4006      4008
      4002      4001      4003      4004      4002      4001      4003      4005
      4002      4001      4003      4006      4003      4006      4008      4009
      4003      4006      4008      4010      4004      4003      4006      4007
      4004      4003      4006      4008      4005      4003      4006      4007
      4005      4003      4006      4008      4006      4008      4010      4011
      4006      4008      4010      4012      4006      4008      4010      4013
      4007      4006      4008      4009      4007      4006      4008      4010
      4008      4010      4013      4014      4008      4010      4013      4015
      4009      4008      4010      4011      4009      4008      4010      4012
      4009      4008      4010      4013      4010      4013      4015      4016
      4010      4013      4015      4017      4011      4010      4013      4014
      4011      4010      4013      4015      4012      4010      4013      4014
      4012      4010      4013      4015      4013      4015      4017      4018
      4013      4015      4017      4019      4013      4015      4017      4020
      4014      4013      4015      4016      4014      4013      4015      4017
      4015      4017      4020      4021      4015      4017      4020      4022
      4016      4015      4017      4018      4016      4015      4017      4019
      4016      4015      4017      4020      4017      4020      4022      4023
      4017      4020      4022      4024      4018      4017      4020      4021
      4018      4017      4020      4022      4019      4017      4020      4021
      4019      4017      4020      4022      4020      4022      4024      4025
      4020      4022      4024      4026      4020      4022      4024      4027
      4021      4020      4022      4023      4021      4020      4022      4024
      4022      4024      4027      4028      4022      4024      4027      4029
      4022      4024      4027      4030      4023      4022      4024      4025
      4023      4022      4024      4026      4023      4022      4024      4027
      4024      4027      4030      4031      4024      4027      4030      4032
      4024      4027      4030      4033      4025      4024      4027      4028
      4025      4024      4027      4029      4025      4024      4027      4030
      4026      4024      4027      4028      4026      4024      4027      4029
      4026      4024      4027      4030      4027      4030      4033      4034
      4027      4030      4033      4035      4027      4030      4033      4036
      4028      4027      4030      4031      4028      4027      4030      4032
      4028      4027      4030      4033      4029      4027      4030      4031
      4029      4027      4030      4032      4029      4027      4030      4033
      4030      4033      4036      4037      4030      4033      4036      4038
      4030      4033      4036      4039      4031      4030      4033      4034
      4031      4030      4033      4035      4031      4030      4033      4036
      4032      4030      4033      4034      4032      4030      4033      4035
      4032      4030      4033      4036      4034      4033      4036      4037
      4034      4033      4036      4038      4034      4033      4036      4039
      4035      4033      4036      4037      4035      4033      4036      4038
      4035      4033      4036      4039      4040      4043      4046      4047
      4040      4043      4046      4048      4040      4043      4046      4049
      4041      4040      4043      4044      4041      4040      4043      4045
      4041      4040      4043      4046      4042      4040      4043      4044
      4042      4040      4043      4045      4042      4040      4043      4046
      4043      4046      4049      4050      4043      4046      4049      4051
      4043      4046      4049      4052      4044      4043      4046      4047
      4044      4043      4046      4048      4044      4043      4046      4049
      4045      4043      4046      4047      4045      4043      4046      4048
      4045      4043      4046      4049      4046      4049      4052      4053
      4046      4049      4052      4054      4046      4049      4052      4055
      4047      4046      4049      4050      4047      4046      4049      4051
      4047      4046      4049      4052      4048      4046      4049      4050
      4048      4046      4049      4051      4048      4046      4049      4052
      4049      4052      4055      4056      4049      4052      4055      4057
      4049      4052      4055      4058      4050      4049      4052      4053
      4050      4049      4052      4054      4050      4049      4052      4055
      4051      4049      4052      4053      4051      4049      4052      4054
      4051      4049      4052      4055      4052      4055      4058      4059
      4052      4055      4058      4060      4052      4055      4058      4061
      4053      4052      4055      4056      4053      4052      4055      4057
      4053      4052      4055      4058      4054      4052      4055      4056
      4054      4052      4055      4057      4054      4052      4055      4058
      4055      4058      4061      4062      4055      4058      4061      4063
      4055      4058      4061      4064      4056      4055      4058      4059
      4056      4055      4058      4060      4056      4055      4058      4061
      4057      4055      4058      4059      4057      4055      4058      4060
      4057      4055      4058      4061      4058      4061      4064      4065
      4058      4061      4064      4066      4058      4061      4064      4067
      4059      4058      4061      4062      4059      4058      4061      4063
      4059      4058      4061      4064      4060      4058      4061      4062
      4060      4058      4061      4063      4060      4058      4061      4064
      4061      4064      4067      4068      4061      4064      4067      4069
      4061      4064      4067      4070      4062      4061      4064      4065
      4062      4061      4064      4066      4062      4061      4064      4067
      4063      4061      4064      4065      4063      4061      4064      4066
      4063      4061      4064      4067      4064      4067      4070      4071
      4064      4067      4070      4072      4064      4067      4070      4073
      4065      4064      4067      4068      4065      4064      4067      4069
      4065      4064      4067      4070      4066      4064      4067      4068
      4066      4064      4067      4069      4066      4064      4067      4070
      4067      4070      4073      4074      4067      4070      4073      4075
      4067      4070      4073      4076      4068      4067      4070      4071
      4068      4067      4070      4072      4068      4067      4070      4073
      4069      4067      4070      4071      4069      4067      4070      4072
      4069      4067      4070      4073      4070      4073      4076      4077
      4070      4073      4076      4078      4070      4073      4076      4079
      4071      4070      4073      4074      4071      4070      4073      4075
      4071      4070      4073      4076      4072      4070      4073      4074
      4072      4070      4073      4075      4072      4070      4073      4076
      4073      4076      4079      4080      4073      4076      4079      4081
      4073      4076      4079      4082      4074      4073      4076      4077
      4074      4073      4076      4078      4074      4073      4076      4079
      4075      4073      4076      4077      4075      4073      4076      4078
      4075      4073      4076      4079      4076      4079      4082      4083
      4076      4079      4082      4084      4076      4079      4082      4085
      4077      4076      4079      4080      4077      4076      4079      4081
      4077      4076      4079      4082      4078      4076      4079      4080
      4078      4076      4079      4081      4078      4076      4079      4082
      4079      4082      4085      4086      4079      4082      4085      4087
      4079      4082      4085      4088      4080      4079      4082      4083
      4080      4079      4082      4084      4080      4079      4082      4085
      4081      4079      4082      4083      4081      4079      4082      4084
      4081      4079      4082      4085      4083      4082      4085      4086
      4083      4082      4085      4087      4083      4082      4085      4088
      4084      4082      4085      4086      4084      4082      4085      4087
      4084      4082      4085      4088      9363      9367      9370      9371
      9363      9367      9370      9401      9363      9409      9406      9401
      9363      9409      9406      9407      9363      9409      9406      9408
      9364      9363      9365      9366      9364      9363      9367      9368
      9364      9363      9367      9369      9364      9363      9367      9370
      9364      9363      9409      9406      9364      9363      9409      9410
      9364      9363      9409      9411      9365      9363      9367      9368
      9365      9363      9367      9369      9365      9363      9367      9370
      9365      9363      9409      9406      9365      9363      9409      9410
      9365      9363      9409      9411      9366      9365      9363      9367
      9366      9365      9363      9409      9367      9363      9409      9406
      9367      9363      9409      9410      9367      9363      9409      9411
      9367      9370      9371      9372      9367      9370      9371      9373
      9367      9370      9401      9399      9367      9370      9401      9402
      9367      9370      9401      9406      9368      9367      9363      9409
      9368      9367      9370      9371      9368      9367      9370      9401
      9369      9367      9363      9409      9369      9367      9370      9371
      9369      9367      9370      9401      9370      9367      9363      9409
      9370      9371      9373      9374      9370      9371      9373      9375
      9370      9371      9373      9376      9370      9401      9399      9376
      9370      9401      9399      9396      9370      9401      9399      9400
      9370      9401      9402      9403      9370      9401      9402      9404
      9370      9401      9402      9405      9370      9401      9406      9407
      9370      9401      9406      9408      9370      9401      9406      9409
      9371      9370      9401      9399      9371      9370      9401      9402
      9371      9370      9401      9406      9371      9373      9376      9377
      9371      9373      9376      9378      9371      9373      9376      9399
      9372      9371      9370      9401      9372      9371      9373      9374
      9372      9371      9373      9375      9372      9371      9373      9376
      9373      9371      9370      9401      9373      9376      9378      9379
      9373      9376      9378      9380      9373      9376      9378      9388
      9373      9376      9399      9396      9373      9376      9399      9400
      9373      9376      9399      9401      9374      9373      9376      9377
      9374      9373      9376      9378      9374      9373      9376      9399
      9375      9373      9376      9377      9375      9373      9376      9378
      9375      9373      9376      9399      9376      9378      9380      9381
      9376      9378      9380      9382      9376      9378      9380      9383
      9376      9378      9388      9386      9376      9378      9388      9389
      9376      9378      9388      9393      9376      9399      9396      9393
      9376      9399      9396      9397      9376      9399      9396      9398
      9376      9399      9401      9402      9376      9399      9401      9406
      9377      9376      9378      9379      9377      9376      9378      9380
      9377      9376      9378      9388      9377      9376      9399      9396
      9377      9376      9399      9400      9377      9376      9399      9401
      9378      9376      9399      9396      9378      9376      9399      9400
      9378      9376      9399      9401      9378      9380      9383      9384
      9378      9380      9383      9385      9378      9380      9383      9386
      9378      9388      9386      9383      9378      9388      9386      9387
      9378      9388      9386      9412      9378      9388      9389      9390
      9378      9388      9389      9391      9378      9388      9389      9392
      9378      9388      9393      9394      9378      9388      9393      9395
      9378      9388      9393      9396      9379      9378      9376      9399
      9379      9378      9380      9381      9379      9378      9380      9382
      9379      9378      9380      9383      9379      9378      9388      9386
      9379      9378      9388      9389      9379      9378      9388      9393
      9380      9378      9376      9399      9380      9378      9388      9386
      9380      9378      9388      9389      9380      9378      9388      9393
      9380      9383      9386      9387      9380      9383      9386      9388
      9380      9383      9386      9412      9381      9380      9378      9388
      9381      9380      9383      9384      9381      9380      9383      9385
      9381      9380      9383      9386      9382      9380      9378      9388
      9382      9380      9383      9384      9382      9380      9383      9385
      9382      9380      9383      9386      9383      9380      9378      9388
      9383      9386      9388      9389      9383      9386      9388      9393
      9383      9386      9412      9413      9383      9386      9412      9414
      9383      9386      9412      9418      9384      9383      9386      9387
      9384      9383      9386      9388      9384      9383      9386      9412
      9385      9383      9386      9387      9385      9383      9386      9388
      9385      9383      9386      9412      9386      9388      9389      9390
      9386      9388      9389      9391      9386      9388      9389      9392
      9386      9388      9393      9394      9386      9388      9393      9395
      9386      9388      9393      9396      9386      9412      9414      9415
      9386      9412      9414      9416      9386      9412      9414      9417
      9386      9412      9418      9419      9386      9412      9418      9420
      9386      9412      9418      9421      9387      9386      9388      9389
      9387      9386      9388      9393      9387      9386      9412      9413
      9387      9386      9412      9414      9387      9386      9412      9418
      9388      9378      9376      9399      9388      9386      9412      9413
      9388      9386      9412      9414      9388      9386      9412      9418
      9388      9393      9396      9397      9388      9393      9396      9398
      9388      9393      9396      9399      9389      9388      9386      9412
      9389      9388      9393      9394      9389      9388      9393      9395
      9389      9388      9393      9396      9390      9389      9388      9393
      9391      9389      9388      9393      9392      9389      9388      9393
      9393      9388      9386      9412      9393      9396      9399      9400
      9393      9396      9399      9401      9394      9393      9396      9397
      9394      9393      9396      9398      9394      9393      9396      9399
      9395      9393      9396      9397      9395      9393      9396      9398
      9395      9393      9396      9399      9396      9399      9401      9402
      9396      9399      9401      9406      9397      9396      9399      9400
      9397      9396      9399      9401      9398      9396      9399      9400
      9398      9396      9399      9401      9399      9401      9402      9403
      9399      9401      9402      9404      9399      9401      9402      9405
      9399      9401      9406      9407      9399      9401      9406      9408
      9399      9401      9406      9409      9400      9399      9401      9402
      9400      9399      9401      9406      9401      9406      9409      9410
      9401      9406      9409      9411      9402      9401      9406      9407
      9402      9401      9406      9408      9402      9401      9406      9409
      9403      9402      9401      9406      9404      9402      9401      9406
      9405      9402      9401      9406      9407      9406      9409      9410
      9407      9406      9409      9411      9408      9406      9409      9410
      9408      9406      9409      9411      9412      9418      9421      9422
      9412      9418      9421      9423      9412      9418      9421      9424
      9413      9412      9414      9415      9413      9412      9414      9416
      9413      9412      9414      9417      9413      9412      9418      9419
      9413      9412      9418      9420      9413      9412      9418      9421
      9414      9412      9418      9419      9414      9412      9418      9420
      9414      9412      9418      9421      9415      9414      9412      9418
      9416      9414      9412      9418      9417      9414      9412      9418
      9418      9421      9424      9425      9418      9421      9424      9426
      9418      9421      9424      9427      9419      9418      9421      9422
      9419      9418      9421      9423      9419      9418      9421      9424
      9420      9418      9421      9422      9420      9418      9421      9423
      9420      9418      9421      9424      9421      9424      9427      9428
      9421      9424      9427      9429      9421      9424      9427      9433
      9422      9421      9424      9425      9422      9421      9424      9426
      9422      9421      9424      9427      9423      9421      9424      9425
      9423      9421      9424      9426      9423      9421      9424      9427
      9424      9427      9429      9430      9424      9427      9429      9431
      9424      9427      9429      9432      9424      9427      9433      9434
      9424      9427      9433      9435      9424      9427      9433      9436
      9425      9424      9427      9428      9425      9424      9427      9429
      9425      9424      9427      9433      9426      9424      9427      9428
      9426      9424      9427      9429      9426      9424      9427      9433
      9428      9427      9429      9430      9428      9427      9429      9431
      9428      9427      9429      9432      9428      9427      9433      9434
      9428      9427      9433      9435      9428      9427      9433      9436
      9429      9427      9433      9434      9429      9427      9433      9435
      9429      9427      9433      9436      9430      9429      9427      9433
      9431      9429      9427      9433      9432      9429      9427      9433
      1863      1867      1869      1870      1863      1867      1869      1871
      1863      1867      1872      1873      1863      1867      1872      1874
      1863      1867      1872      1878      1864      1863      1867      1868
      1864      1863      1867      1869      1864      1863      1867      1872
      1865      1863      1867      1868      1865      1863      1867      1869
      1865      1863      1867      1872      1866      1863      1867      1868
      1866      1863      1867      1869      1866      1863      1867      1872
      1867      1872      1878      1875      1868      1867      1869      1870
      1868      1867      1869      1871      1868      1867      1872      1873
      1868      1867      1872      1874      1868      1867      1872      1878
      1869      1867      1872      1873      1869      1867      1872      1874
      1869      1867      1872      1878      1870      1869      1867      1872
      1871      1869      1867      1872      1872      1878      1875      1876
      1872      1878      1875      1877      1872      1878      1875      1879
      1873      1872      1878      1875      1874      1872      1878      1875
      1875      1879      1880      1881      1875      1879      1880      1882
      1875      1879      1880      1883      1876      1875      1879      1880
      1877      1875      1879      1880      1878      1875      1879      1880
      1879      1880      1883      1884      1879      1880      1883      1885
      1879      1880      1883      1891      1880      1883      1885      1886
      1880      1883      1891      1892      1880      1883      1891      1893
      1880      1883      1891      1894      1881      1880      1883      1884
      1881      1880      1883      1885      1881      1880      1883      1891
      1882      1880      1883      1884      1882      1880      1883      1885
      1882      1880      1883      1891      1883      1885      1886      1887
      1883      1885      1886      1888      1883      1891      1894      1895
      1884      1883      1885      1886      1884      1883      1891      1892
      1884      1883      1891      1893      1884      1883      1891      1894
      1885      1883      1891      1892      1885      1883      1891      1893
      1885      1883      1891      1894      1885      1886      1888      1889
      1885      1886      1888      1890      1885      1886      1888      1900
      1886      1885      1883      1891      1886      1888      1900      1901
      1886      1888      1900      1902      1886      1888      1900      1903
      1887      1886      1888      1889      1887      1886      1888      1890
      1887      1886      1888      1900      1888      1900      1903      1904
      1888      1900      1903      1905      1888      1900      1903      1906
      1889      1888      1900      1901      1889      1888      1900      1902
      1889      1888      1900      1903      1890      1888      1900      1901
      1890      1888      1900      1902      1890      1888      1900      1903
      1891      1894      1895      1896      1891      1894      1895      1897
      1892      1891      1894      1895      1893      1891      1894      1895
      1894      1895      1897      1898      1894      1895      1897      1899
      1894      1895      1897      1947      1895      1897      1947      1948
      1895      1897      1947      1949      1895      1897      1947      1950
      1896      1895      1897      1898      1896      1895      1897      1899
      1896      1895      1897      1947      1897      1947      1950      1951
      1897      1947      1950      1952      1897      1947      1950      1953
      1898      1897      1947      1948      1898      1897      1947      1949
      1898      1897      1947      1950      1899      1897      1947      1948
      1899      1897      1947      1949      1899      1897      1947      1950
      1900      1903      1906      1907      1900      1903      1906      1908
      1901      1900      1903      1904      1901      1900      1903      1905
      1901      1900      1903      1906      1902      1900      1903      1904
      1902      1900      1903      1905      1902      1900      1903      1906
      1903      1906      1908      1909      1903      1906      1908      1910
      1904      1903      1906      1907      1904      1903      1906      1908
      1905      1903      1906      1907      1905      1903      1906      1908
      1906      1908      1910      1911      1906      1908      1910      1912
      1906      1908      1910      1913      1907      1906      1908      1909
      1907      1906      1908      1910      1908      1910      1913      1914
      1908      1910      1913      1915      1909      1908      1910      1911
      1909      1908      1910      1912      1909      1908      1910      1913
      1910      1913      1915      1916      1910      1913      1915      1917
      1911      1910      1913      1914      1911      1910      1913      1915
      1912      1910      1913      1914      1912      1910      1913      1915
      1913      1915      1917      1918      1913      1915      1917      1919
      1913      1915      1917      1920      1914      1913      1915      1916
      1914      1913      1915      1917      1915      1917      1920      1921
      1915      1917      1920      1922      1916      1915      1917      1918
      1916      1915      1917      1919      1916      1915      1917      1920
      1917      1920      1922      1923      1917      1920      1922      1924
      1918      1917      1920      1921      1918      1917      1920      1922
      1919      1917      1920      1921      1919      1917      1920      1922
      1920      1922      1924      1925      1920      1922      1924      1926
      1920      1922      1924      1927      1921      1920      1922      1923
      1921      1920      1922      1924      1922      1924      1927      1928
      1922      1924      1927      1929      1923      1922      1924      1925
      1923      1922      1924      1926      1923      1922      1924      1927
      1924      1927      1929      1930      1924      1927      1929      1931
      1925      1924      1927      1928      1925      1924      1927      1929
      1926      1924      1927      1928      1926      1924      1927      1929
      1927      1929      1931      1932      1927      1929      1931      1933
      1927      1929      1931      1934      1928      1927      1929      1930
      1928      1927      1929      1931      1929      1931      1934      1935
      1929      1931      1934      1936      1929      1931      1934      1937
      1930      1929      1931      1932      1930      1929      1931      1933
      1930      1929      1931      1934      1931      1934      1937      1938
      1931      1934      1937      1939      1931      1934      1937      1940
      1932      1931      1934      1935      1932      1931      1934      1936
      1932      1931      1934      1937      1933      1931      1934      1935
      1933      1931      1934      1936      1933      1931      1934      1937
      1934      1937      1940      1941      1934      1937      1940      1942
      1934      1937      1940      1943      1935      1934      1937      1938
      1935      1934      1937      1939      1935      1934      1937      1940
      1936      1934      1937      1938      1936      1934      1937      1939
      1936      1934      1937      1940      1937      1940      1943      1944
      1937      1940      1943      1945      1937      1940      1943      1946
      1938      1937      1940      1941      1938      1937      1940      1942
      1938      1937      1940      1943      1939      1937      1940      1941
      1939      1937      1940      1942      1939      1937      1940      1943
      1941      1940      1943      1944      1941      1940      1943      1945
      1941      1940      1943      1946      1942      1940      1943      1944
      1942      1940      1943      1945      1942      1940      1943      1946
      1947      1950      1953      1954      1947      1950      1953      1955
      1947      1950      1953      1956      1948      1947      1950      1951
      1948      1947      1950      1952      1948      1947      1950      1953
      1949      1947      1950      1951      1949      1947      1950      1952
      1949      1947      1950      1953      1950      1953      1956      1957
      1950      1953      1956      1958      1950      1953      1956      1959
      1951      1950      1953      1954      1951      1950      1953      1955
      1951      1950      1953      1956      1952      1950      1953      1954
      1952      1950      1953      1955      1952      1950      1953      1956
      1953      1956      1959      1960      1953      1956      1959      1961
      1953      1956      1959      1962      1954      1953      1956      1957
      1954      1953      1956      1958      1954      1953      1956      1959
      1955      1953      1956      1957      1955      1953      1956      1958
      1955      1953      1956      1959      1956      1959      1962      1963
      1956      1959      1962      1964      1956      1959      1962      1965
      1957      1956      1959      1960      1957      1956      1959      1961
      1957      1956      1959      1962      1958      1956      1959      1960
      1958      1956      1959      1961      1958      1956      1959      1962
      1959      1962      1965      1966      1959      1962      1965      1967
      1959      1962      1965      1968      1960      1959      1962      1963
      1960      1959      1962      1964      1960      1959      1962      1965
      1961      1959      1962      1963      1961      1959      1962      1964
      1961      1959      1962      1965      1962      1965      1968      1969
      1962      1965      1968      1970      1962      1965      1968      1971
      1963      1962      1965      1966      1963      1962      1965      1967
      1963      1962      1965      1968      1964      1962      1965      1966
      1964      1962      1965      1967      1964      1962      1965      1968
      1965      1968      1971      1972      1965      1968      1971      1973
      1965      1968      1971      1974      1966      1965      1968      1969
      1966      1965      1968      1970      1966      1965      1968      1971
      1967      1965      1968      1969      1967      1965      1968      1970
      1967      1965      1968      1971      1968      1971      1974      1975
      1968      1971      1974      1976      1968      1971      1974      1977
      1969      1968      1971      1972      1969      1968      1971      1973
      1969      1968      1971      1974      1970      1968      1971      1972
      1970      1968      1971      1973      1970      1968      1971      1974
      1971      1974      1977      1978      1971      1974      1977      1979
      1971      1974      1977      1980      1972      1971      1974      1975
      1972      1971      1974      1976      1972      1971      1974      1977
      1973      1971      1974      1975      1973      1971      1974      1976
      1973      1971      1974      1977      1974      1977      1980      1981
      1974      1977      1980      1982      1974      1977      1980      1983
      1975      1974      1977      1978      1975      1974      1977      1979
      1975      1974      1977      1980      1976      1974      1977      1978
      1976      1974      1977      1979      1976      1974      1977      1980
      1977      1980      1983      1984      1977      1980      1983      1985
      1977      1980      1983      1986      1978      1977      1980      1981
      1978      1977      1980      1982      1978      1977      1980      1983
      1979      1977      1980      1981      1979      1977      1980      1982
      1979      1977      1980      1983      1980      1983      1986      1987
      1980      1983      1986      1988      1980      1983      1986      1989
      1981      1980      1983      1984      1981      1980      1983      1985
      1981      1980      1983      1986      1982      1980      1983      1984
      1982      1980      1983      1985      1982      1980      1983      1986
      1983      1986      1989      1990      1983      1986      1989      1991
      1983      1986      1989      1992      1984      1983      1986      1987
      1984      1983      1986      1988      1984      1983      1986      1989
      1985      1983      1986      1987      1985      1983      1986      1988
      1985      1983      1986      1989      1986      1989      1992      1993
      1986      1989      1992      1994      1986      1989      1992      1995
      1987      1986      1989      1990      1987      1986      1989      1991
      1987      1986      1989      1992      1988      1986      1989      1990
      1988      1986      1989      1991      1988      1986      1989      1992
      1990      1989      1992      1993      1990      1989      1992      1994
      1990      1989      1992      1995      1991      1989      1992      1993
      1991      1989      1992      1994      1991      1989      1992      1995
      4089      4090      4105      4106      4089      4090      4105      4107
      4089      4090      4105      4111      4090      4089      4093      4094
      4090      4089      4093      4095      4090      4089      4093      4096
      4090      4089      4097      4098      4090      4089      4097      4099
      4090      4089      4097      4100      4090      4089      4101      4102
      4090      4089      4101      4103      4090      4089      4101      4104
      4090      4105      4111      4108      4091      4090      4089      4093
      4091      4090      4089      4097      4091      4090      4089      4101
      4091      4090      4105      4106      4091      4090      4105      4107
      4091      4090      4105      4111      4092      4090      4089      4093
      4092      4090      4089      4097      4092      4090      4089      4101
      4092      4090      4105      4106      4092      4090      4105      4107
      4092      4090      4105      4111      4093      4089      4090      4105
      4093      4089      4097      4098      4093      4089      4097      4099
      4093      4089      4097      4100      4093      4089      4101      4102
      4093      4089      4101      4103      4093      4089      4101      4104
      4094      4093      4089      4097      4094      4093      4089      4101
      4095      4093      4089      4097      4095      4093      4089      4101
      4096      4093      4089      4097      4096      4093      4089      4101
      4097      4089      4090      4105      4097      4089      4101      4102
      4097      4089      4101      4103      4097      4089      4101      4104
      4098      4097      4089      4101      4099      4097      4089      4101
      4100      4097      4089      4101      4101      4089      4090      4105
      4105      4111      4108      4109      4105      4111      4108      4110
      4105      4111      4108      4112      4106      4105      4111      4108
      4107      4105      4111      4108      4108      4112      4113      4114
      4108      4112      4113      4115      4108      4112      4113      4116
      4109      4108      4112      4113      4110      4108      4112      4113
      4111      4108      4112      4113      4112      4113      4116      4117
      4112      4113      4116      4118      4112      4113      4116      4124
      4113      4116      4118      4119      4113      4116      4124      4125
      4113      4116      4124      4126      4113      4116      4124      4127
      4114      4113      4116      4117      4114      4113      4116      4118
      4114      4113      4116      4124      4115      4113      4116      4117
      4115      4113      4116      4118      4115      4113      4116      4124
      4116      4118      4119      4120      4116      4118      4119      4121
      4116      4124      4127      4128      4117      4116      4118      4119
      4117      4116      4124      4125      4117      4116      4124      4126
      4117      4116      4124      4127      4118      4116      4124      4125
      4118      4116      4124      4126      4118      4116      4124      4127
      4118      4119      4121      4122      4118      4119      4121      4123
      4118      4119      4121      4133      4119      4118      4116      4124
      4119      4121      4133      4134      4119      4121      4133      4135
      4119      4121      4133      4136      4120      4119      4121      4122
      4120      4119      4121      4123      4120      4119      4121      4133
      4121      4133      4136      4137      4121      4133      4136      4138
      4121      4133      4136      4139      4122      4121      4133      4134
      4122      4121      4133      4135      4122      4121      4133      4136
      4123      4121      4133      4134      4123      4121      4133      4135
      4123      4121      4133      4136      4124      4127      4128      4129
      4124      4127      4128      4130      4125      4124      4127      4128
      4126      4124      4127      4128      4127      4128      4130      4131
      4127      4128      4130      4132      4127      4128      4130      4180
      4128      4130      4180      4181      4128      4130      4180      4182
      4128      4130      4180      4183      4129      4128      4130      4131
      4129      4128      4130      4132      4129      4128      4130      4180
      4130      4180      4183      4184      4130      4180      4183      4185
      4130      4180      4183      4186      4131      4130      4180      4181
      4131      4130      4180      4182      4131      4130      4180      4183
      4132      4130      4180      4181      4132      4130      4180      4182
      4132      4130      4180      4183      4133      4136      4139      4140
      4133      4136      4139      4141      4134      4133      4136      4137
      4134      4133      4136      4138      4134      4133      4136      4139
      4135      4133      4136      4137      4135      4133      4136      4138
      4135      4133      4136      4139      4136      4139      4141      4142
      4136      4139      4141      4143      4137      4136      4139      4140
      4137      4136      4139      4141      4138      4136      4139      4140
      4138      4136      4139      4141      4139      4141      4143      4144
      4139      4141      4143      4145      4139      4141      4143      4146
      4140      4139      4141      4142      4140      4139      4141      4143
      4141      4143      4146      4147      4141      4143      4146      4148
      4142      4141      4143      4144      4142      4141      4143      4145
      4142      4141      4143      4146      4143      4146      4148      4149
      4143      4146      4148      4150      4144      4143      4146      4147
      4144      4143      4146      4148      4145      4143      4146      4147
      4145      4143      4146      4148      4146      4148      4150      4151
      4146      4148      4150      4152      4146      4148      4150      4153
      4147      4146      4148      4149      4147      4146      4148      4150
      4148      4150      4153      4154      4148      4150      4153      4155
      4149      4148      4150      4151      4149      4148      4150      4152
      4149      4148      4150      4153      4150      4153      4155      4156
      4150      4153      4155      4157      4151      4150      4153      4154
      4151      4150      4153      4155      4152      4150      4153      4154
      4152      4150      4153      4155      4153      4155      4157      4158
      4153      4155      4157      4159      4153      4155      4157      4160
      4154      4153      4155      4156      4154      4153      4155      4157
      4155      4157      4160      4161      4155      4157      4160      4162
      4156      4155      4157      4158      4156      4155      4157      4159
      4156      4155      4157      4160      4157      4160      4162      4163
      4157      4160      4162      4164      4158      4157      4160      4161
      4158      4157      4160      4162      4159      4157      4160      4161
      4159      4157      4160      4162      4160      4162      4164      4165
      4160      4162      4164      4166      4160      4162      4164      4167
      4161      4160      4162      4163      4161      4160      4162      4164
      4162      4164      4167      4168      4162      4164      4167      4169
      4162      4164      4167      4170      4163      4162      4164      4165
      4163      4162      4164      4166      4163      4162      4164      4167
      4164      4167      4170      4171      4164      4167      4170      4172
      4164      4167      4170      4173      4165      4164      4167      4168
      4165      4164      4167      4169      4165      4164      4167      4170
      4166      4164      4167      4168      4166      4164      4167      4169
      4166      4164      4167      4170      4167      4170      4173      4174
      4167      4170      4173      4175      4167      4170      4173      4176
      4168      4167      4170      4171      4168      4167      4170      4172
      4168      4167      4170      4173      4169      4167      4170      4171
      4169      4167      4170      4172      4169      4167      4170      4173
      4170      4173      4176      4177      4170      4173      4176      4178
      4170      4173      4176      4179      4171      4170      4173      4174
      4171      4170      4173      4175      4171      4170      4173      4176
      4172      4170      4173      4174      4172      4170      4173      4175
      4172      4170      4173      4176      4174      4173      4176      4177
      4174      4173      4176      4178      4174      4173      4176      4179
      4175      4173      4176      4177      4175      4173      4176      4178
      4175      4173      4176      4179      4180      4183      4186      4187
      4180      4183      4186      4188      4180      4183      4186      4189
      4181      4180      4183      4184      4181      4180      4183      4185
      4181      4180      4183      4186      4182      4180      4183      4184
      4182      4180      4183      4185      4182      4180      4183      4186
      4183      4186      4189      4190      4183      4186      4189      4191
      4183      4186      4189      4192      4184      4183      4186      4187
      4184      4183      4186      4188      4184      4183      4186      4189
      4185      4183      4186      4187      4185      4183      4186      4188
      4185      4183      4186      4189      4186      4189      4192      4193
      4186      4189      4192      4194      4186      4189      4192      4195
      4187      4186      4189      4190      4187      4186      4189      4191
      4187      4186      4189      4192      4188      4186      4189      4190
      4188      4186      4189      4191      4188      4186      4189      4192
      4189      4192      4195      4196      4189      4192      4195      4197
      4189      4192      4195      4198      4190      4189      4192      4193
      4190      4189      4192      4194      4190      4189      4192      4195
      4191      4189      4192      4193      4191      4189      4192      4194
      4191      4189      4192      4195      4192      4195      4198      4199
      4192      4195      4198      4200      4192      4195      4198      4201
      4193      4192      4195      4196      4193      4192      4195      4197
      4193      4192      4195      4198      4194      4192      4195      4196
      4194      4192      4195      4197      4194      4192      4195      4198
      4195      4198      4201      4202      4195      4198      4201      4203
      4195      4198      4201      4204      4196      4195      4198      4199
      4196      4195      4198      4200      4196      4195      4198      4201
      4197      4195      4198      4199      4197      4195      4198      4200
      4197      4195      4198      4201      4198      4201      4204      4205
      4198      4201      4204      4206      4198      4201      4204      4207
      4199      4198      4201      4202      4199      4198      4201      4203
      4199      4198      4201      4204      4200      4198      4201      4202
      4200      4198      4201      4203      4200      4198      4201      4204
      4201      4204      4207      4208      4201      4204      4207      4209
      4201      4204      4207      4210      4202      4201      4204      4205
      4202      4201      4204      4206      4202      4201      4204      4207
      4203      4201      4204      4205      4203      4201      4204      4206
      4203      4201      4204      4207      4204      4207      4210      4211
      4204      4207      4210      4212      4204      4207      4210      4213
      4205      4204      4207      4208      4205      4204      4207      4209
      4205      4204      4207      4210      4206      4204      4207      4208
      4206      4204      4207      4209      4206      4204      4207      4210
      4207      4210      4213      4214      4207      4210      4213      4215
      4207      4210      4213      4216      4208      4207      4210      4211
      4208      4207      4210      4212      4208      4207      4210      4213
      4209      4207      4210      4211      4209      4207      4210      4212
      4209      4207      4210      4213      4210      4213      4216      4217
      4210      4213      4216      4218      4210      4213      4216      4219
      4211      4210      4213      4214      4211      4210      4213      4215
      4211      4210      4213      4216      4212      4210      4213      4214
      4212      4210      4213      4215      4212      4210      4213      4216
      4213      4216      4219      4220      4213      4216      4219      4221
      4213      4216      4219      4222      4214      4213      4216      4217
      4214      4213      4216      4218      4214      4213      4216      4219
      4215      4213      4216      4217      4215      4213      4216      4218
      4215      4213      4216      4219      4216      4219      4222      4223
      4216      4219      4222      4224      4216      4219      4222      4225
      4217      4216      4219      4220      4217      4216      4219      4221
      4217      4216      4219      4222      4218      4216      4219      4220
      4218      4216      4219      4221      4218      4216      4219      4222
      4219      4222      4225      4226      4219      4222      4225      4227
      4219      4222      4225      4228      4220      4219      4222      4223
      4220      4219      4222      4224      4220      4219      4222      4225
      4221      4219      4222      4223      4221      4219      4222      4224
      4221      4219      4222      4225      4223      4222      4225      4226
      4223      4222      4225      4227      4223      4222      4225      4228
      4224      4222      4225      4226      4224      4222      4225      4227
      4224      4222      4225      4228     22045     22058     22061     22062
     22045     22058     22061     22063     22045     22058     22061     22067
     22046     22045     22050     22051     22046     22045     22050     22052
     22046     22045     22050     22053     22046     22045     22054     22055
     22046     22045     22054     22056     22046     22045     22054     22057
     22046     22045     22058     22059     22046     22045     22058     22060
     22046     22045     22058     22061     22047     22046     22045     22050
     22047     22046     22045     22054     22047     22046     22045     22058
     22048     22046     22045     22050     22048     22046     22045     22054
     22048     22046     22045     22058     22049     22046     22045     22050
     22049     22046     22045     22054     22049     22046     22045     22058
     22050     22045     22054     22055     22050     22045     22054     22056
     22050     22045     22054     22057     22050     22045     22058     22059
     22050     22045     22058     22060     22050     22045     22058     22061
     22051     22050     22045     22054     22051     22050     22045     22058
     22052     22050     22045     22054     22052     22050     22045     22058
     22053     22050     22045     22054     22053     22050     22045     22058
     22054     22045     22058     22059     22054     22045     22058     22060
     22054     22045     22058     22061     22055     22054     22045     22058
     22056     22054     22045     22058     22057     22054     22045     22058
     22058     22061     22067     22064     22059     22058     22061     22062
     22059     22058     22061     22063     22059     22058     22061     22067
     22060     22058     22061     22062     22060     22058     22061     22063
     22060     22058     22061     22067     22061     22067     22064     22065
     22061     22067     22064     22066     22061     22067     22064     22068
     22062     22061     22067     22064     22063     22061     22067     22064
     22064     22068     22069     22070     22064     22068     22069     22071
     22064     22068     22069     22072     22065     22064     22068     22069
     22066     22064     22068     22069     22067     22064     22068     22069
     22068     22069     22072     22073     22068     22069     22072     22074
     22068     22069     22072     22080     22069     22072     22074     22075
     22069     22072     22080     22081     22069     22072     22080     22082
     22069     22072     22080     22083     22070     22069     22072     22073
     22070     22069     22072     22074     22070     22069     22072     22080
     22071     22069     22072     22073     22071     22069     22072     22074
     22071     22069     22072     22080     22072     22074     22075     22076
     22072     22074     22075     22077     22072     22080     22083     22084
     22073     22072     22074     22075     22073     22072     22080     22081
     22073     22072     22080     22082     22073     22072     22080     22083
     22074     22072     22080     22081     22074     22072     22080     22082
     22074     22072     22080     22083     22074     22075     22077     22078
     22074     22075     22077     22079     22074     22075     22077     22089
     22075     22074     22072     22080     22075     22077     22089     22090
     22075     22077     22089     22091     22075     22077     22089     22092
     22076     22075     22077     22078     22076     22075     22077     22079
     22076     22075     22077     22089     22077     22089     22092     22093
     22077     22089     22092     22094     22077     22089     22092     22095
     22078     22077     22089     22090     22078     22077     22089     22091
     22078     22077     22089     22092     22079     22077     22089     22090
     22079     22077     22089     22091     22079     22077     22089     22092
     22080     22083     22084     22085     22080     22083     22084     22086
     22081     22080     22083     22084     22082     22080     22083     22084
     22083     22084     22086     22087     22083     22084     22086     22088
     22083     22084     22086     22134     22084     22086     22134     22135
     22084     22086     22134     22136     22084     22086     22134     22137
     22085     22084     22086     22087     22085     22084     22086     22088
     22085     22084     22086     22134     22086     22134     22137     22138
     22086     22134     22137     22139     22086     22134     22137     22140
     22087     22086     22134     22135     22087     22086     22134     22136
     22087     22086     22134     22137     22088     22086     22134     22135
     22088     22086     22134     22136     22088     22086     22134     22137
     22089     22092     22095     22096     22089     22092     22095     22097
     22089     22092     22095     22098     22090     22089     22092     22093
     22090     22089     22092     22094     22090     22089     22092     22095
     22091     22089     22092     22093     22091     22089     22092     22094
     22091     22089     22092     22095     22092     22095     22098     22099
     22092     22095     22098     22100     22092     22095     22098     22101
     22093     22092     22095     22096     22093     22092     22095     22097
     22093     22092     22095     22098     22094     22092     22095     22096
     22094     22092     22095     22097     22094     22092     22095     22098
     22095     22098     22101     22102     22095     22098     22101     22103
     22095     22098     22101     22104     22096     22095     22098     22099
     22096     22095     22098     22100     22096     22095     22098     22101
     22097     22095     22098     22099     22097     22095     22098     22100
     22097     22095     22098     22101     22098     22101     22104     22105
     22098     22101     22104     22106     22098     22101     22104     22107
     22099     22098     22101     22102     22099     22098     22101     22103
     22099     22098     22101     22104     22100     22098     22101     22102
     22100     22098     22101     22103     22100     22098     22101     22104
     22101     22104     22107     22108     22101     22104     22107     22109
     22102     22101     22104     22105     22102     22101     22104     22106
     22102     22101     22104     22107     22103     22101     22104     22105
     22103     22101     22104     22106     22103     22101     22104     22107
     22104     22107     22109     22110     22104     22107     22109     22111
     22105     22104     22107     22108     22105     22104     22107     22109
     22106     22104     22107     22108     22106     22104     22107     22109
     22107     22109     22111     22112     22107     22109     22111     22113
     22107     22109     22111     22114     22108     22107     22109     22110
     22108     22107     22109     22111     22109     22111     22114     22115
     22109     22111     22114     22116     22110     22109     22111     22112
     22110     22109     22111     22113     22110     22109     22111     22114
     22111     22114     22116     22117     22111     22114     22116     22118
     22112     22111     22114     22115     22112     22111     22114     22116
     22113     22111     22114     22115     22113     22111     22114     22116
     22114     22116     22118     22119     22114     22116     22118     22120
     22114     22116     22118     22121     22115     22114     22116     22117
     22115     22114     22116     22118     22116     22118     22121     22122
     22116     22118     22121     22123     22116     22118     22121     22124
     22117     22116     22118     22119     22117     22116     22118     22120
     22117     22116     22118     22121     22118     22121     22124     22125
     22118     22121     22124     22126     22118     22121     22124     22127
     22119     22118     22121     22122     22119     22118     22121     22123
     22119     22118     22121     22124     22120     22118     22121     22122
     22120     22118     22121     22123     22120     22118     22121     22124
     22121     22124     22127     22128     22121     22124     22127     22129
     22121     22124     22127     22130     22122     22121     22124     22125
     22122     22121     22124     22126     22122     22121     22124     22127
     22123     22121     22124     22125     22123     22121     22124     22126
     22123     22121     22124     22127     22124     22127     22130     22131
     22124     22127     22130     22132     22124     22127     22130     22133
     22125     22124     22127     22128     22125     22124     22127     22129
     22125     22124     22127     22130     22126     22124     22127     22128
     22126     22124     22127     22129     22126     22124     22127     22130
     22128     22127     22130     22131     22128     22127     22130     22132
     22128     22127     22130     22133     22129     22127     22130     22131
     22129     22127     22130     22132     22129     22127     22130     22133
     22134     22137     22140     22141     22134     22137     22140     22142
     22134     22137     22140     22143     22135     22134     22137     22138
     22135     22134     22137     22139     22135     22134     22137     22140
     22136     22134     22137     22138     22136     22134     22137     22139
     22136     22134     22137     22140     22137     22140     22143     22144
     22137     22140     22143     22145     22137     22140     22143     22146
     22138     22137     22140     22141     22138     22137     22140     22142
     22138     22137     22140     22143     22139     22137     22140     22141
     22139     22137     22140     22142     22139     22137     22140     22143
     22140     22143     22146     22147     22140     22143     22146     22148
     22140     22143     22146     22149     22141     22140     22143     22144
     22141     22140     22143     22145     22141     22140     22143     22146
     22142     22140     22143     22144     22142     22140     22143     22145
     22142     22140     22143     22146     22143     22146     22149     22150
     22143     22146     22149     22151     22143     22146     22149     22152
     22144     22143     22146     22147     22144     22143     22146     22148
     22144     22143     22146     22149     22145     22143     22146     22147
     22145     22143     22146     22148     22145     22143     22146     22149
     22146     22149     22152     22153     22146     22149     22152     22154
     22146     22149     22152     22155     22147     22146     22149     22150
     22147     22146     22149     22151     22147     22146     22149     22152
     22148     22146     22149     22150     22148     22146     22149     22151
     22148     22146     22149     22152     22149     22152     22155     22156
     22149     22152     22155     22157     22149     22152     22155     22158
     22150     22149     22152     22153     22150     22149     22152     22154
     22150     22149     22152     22155     22151     22149     22152     22153
     22151     22149     22152     22154     22151     22149     22152     22155
     22152     22155     22158     22159     22152     22155     22158     22160
     22152     22155     22158     22161     22153     22152     22155     22156
     22153     22152     22155     22157     22153     22152     22155     22158
     22154     22152     22155     22156     22154     22152     22155     22157
     22154     22152     22155     22158     22155     22158     22161     22162
     22155     22158     22161     22163     22155     22158     22161     22164
     22156     22155     22158     22159     22156     22155     22158     22160
     22156     22155     22158     22161     22157     22155     22158     22159
     22157     22155     22158     22160     22157     22155     22158     22161
     22158     22161     22164     22165     22158     22161     22164     22166
     22158     22161     22164     22167     22159     22158     22161     22162
     22159     22158     22161     22163     22159     22158     22161     22164
     22160     22158     22161     22162     22160     22158     22161     22163
     22160     22158     22161     22164     22161     22164     22167     22168
     22161     22164     22167     22169     22161     22164     22167     22170
     22162     22161     22164     22165     22162     22161     22164     22166
     22162     22161     22164     22167     22163     22161     22164     22165
     22163     22161     22164     22166     22163     22161     22164     22167
     22164     22167     22170     22171     22164     22167     22170     22172
     22164     22167     22170     22173     22165     22164     22167     22168
     22165     22164     22167     22169     22165     22164     22167     22170
     22166     22164     22167     22168     22166     22164     22167     22169
     22166     22164     22167     22170     22167     22170     22173     22174
     22167     22170     22173     22175     22167     22170     22173     22176
     22168     22167     22170     22171     22168     22167     22170     22172
     22168     22167     22170     22173     22169     22167     22170     22171
     22169     22167     22170     22172     22169     22167     22170     22173
     22170     22173     22176     22177     22170     22173     22176     22178
     22170     22173     22176     22179     22171     22170     22173     22174
     22171     22170     22173     22175     22171     22170     22173     22176
     22172     22170     22173     22174     22172     22170     22173     22175
     22172     22170     22173     22176     22173     22176     22179     22180
     22173     22176     22179     22181     22173     22176     22179     22182
     22174     22173     22176     22177     22174     22173     22176     22178
     22174     22173     22176     22179     22175     22173     22176     22177
     22175     22173     22176     22178     22175     22173     22176     22179
     22177     22176     22179     22180     22177     22176     22179     22181
     22177     22176     22179     22182     22178     22176     22179     22180
     22178     22176     22179     22181     22178     22176     22179     22182
      9437      9441      9444      9445      9437      9441      9444      9475
      9437      9483      9480      9475      9437      9483      9480      9481
      9437      9483      9480      9482      9438      9437      9439      9440
      9438      9437      9441      9442      9438      9437      9441      9443
      9438      9437      9441      9444      9438      9437      9483      9480
      9438      9437      9483      9484      9438      9437      9483      9485
      9439      9437      9441      9442      9439      9437      9441      9443
      9439      9437      9441      9444      9439      9437      9483      9480
      9439      9437      9483      9484      9439      9437      9483      9485
      9440      9439      9437      9441      9440      9439      9437      9483
      9441      9437      9483      9480      9441      9437      9483      9484
      9441      9437      9483      9485      9441      9444      9445      9446
      9441      9444      9445      9447      9441      9444      9475      9473
      9441      9444      9475      9476      9441      9444      9475      9480
      9442      9441      9437      9483      9442      9441      9444      9445
      9442      9441      9444      9475      9443      9441      9437      9483
      9443      9441      9444      9445      9443      9441      9444      9475
      9444      9441      9437      9483      9444      9445      9447      9448
      9444      9445      9447      9449      9444      9445      9447      9450
      9444      9475      9473      9450      9444      9475      9473      9470
      9444      9475      9473      9474      9444      9475      9476      9477
      9444      9475      9476      9478      9444      9475      9476      9479
      9444      9475      9480      9481      9444      9475      9480      9482
      9444      9475      9480      9483      9445      9444      9475      9473
      9445      9444      9475      9476      9445      9444      9475      9480
      9445      9447      9450      9451      9445      9447      9450      9452
      9445      9447      9450      9473      9446      9445      9444      9475
      9446      9445      9447      9448      9446      9445      9447      9449
      9446      9445      9447      9450      9447      9445      9444      9475
      9447      9450      9452      9453      9447      9450      9452      9454
      9447      9450      9452      9462      9447      9450      9473      9470
      9447      9450      9473      9474      9447      9450      9473      9475
      9448      9447      9450      9451      9448      9447      9450      9452
      9448      9447      9450      9473      9449      9447      9450      9451
      9449      9447      9450      9452      9449      9447      9450      9473
      9450      9452      9454      9455      9450      9452      9454      9456
      9450      9452      9454      9457      9450      9452      9462      9460
      9450      9452      9462      9463      9450      9452      9462      9467
      9450      9473      9470      9467      9450      9473      9470      9471
      9450      9473      9470      9472      9450      9473      9475      9476
      9450      9473      9475      9480      9451      9450      9452      9453
      9451      9450      9452      9454      9451      9450      9452      9462
      9451      9450      9473      9470      9451      9450      9473      9474
      9451      9450      9473      9475      9452      9450      9473      9470
      9452      9450      9473      9474      9452      9450      9473      9475
      9452      9454      9457      9458      9452      9454      9457      9459
      9452      9454      9457      9460      9452      9462      9460      9457
      9452      9462      9460      9461      9452      9462      9460      9486
      9452      9462      9463      9464      9452      9462      9463      9465
      9452      9462      9463      9466      9452      9462      9467      9468
      9452      9462      9467      9469      9452      9462      9467      9470
      9453      9452      9450      9473      9453      9452      9454      9455
      9453      9452      9454      9456      9453      9452      9454      9457
      9453      9452      9462      9460      9453      9452      9462      9463
      9453      9452      9462      9467      9454      9452      9450      9473
      9454      9452      9462      9460      9454      9452      9462      9463
      9454      9452      9462      9467      9454      9457      9460      9461
      9454      9457      9460      9462      9454      9457      9460      9486
      9455      9454      9452      9462      9455      9454      9457      9458
      9455      9454      9457      9459      9455      9454      9457      9460
      9456      9454      9452      9462      9456      9454      9457      9458
      9456      9454      9457      9459      9456      9454      9457      9460
      9457      9454      9452      9462      9457      9460      9462      9463
      9457      9460      9462      9467      9457      9460      9486      9487
      9457      9460      9486      9488      9457      9460      9486      9492
      9458      9457      9460      9461      9458      9457      9460      9462
      9458      9457      9460      9486      9459      9457      9460      9461
      9459      9457      9460      9462      9459      9457      9460      9486
      9460      9462      9463      9464      9460      9462      9463      9465
      9460      9462      9463      9466      9460      9462      9467      9468
      9460      9462      9467      9469      9460      9462      9467      9470
      9460      9486      9488      9489      9460      9486      9488      9490
      9460      9486      9488      9491      9460      9486      9492      9493
      9460      9486      9492      9494      9460      9486      9492      9495
      9461      9460      9462      9463      9461      9460      9462      9467
      9461      9460      9486      9487      9461      9460      9486      9488
      9461      9460      9486      9492      9462      9452      9450      9473
      9462      9460      9486      9487      9462      9460      9486      9488
      9462      9460      9486      9492      9462      9467      9470      9471
      9462      9467      9470      9472      9462      9467      9470      9473
      9463      9462      9460      9486      9463      9462      9467      9468
      9463      9462      9467      9469      9463      9462      9467      9470
      9464      9463      9462      9467      9465      9463      9462      9467
      9466      9463      9462      9467      9467      9462      9460      9486
      9467      9470      9473      9474      9467      9470      9473      9475
      9468      9467      9470      9471      9468      9467      9470      9472
      9468      9467      9470      9473      9469      9467      9470      9471
      9469      9467      9470      9472      9469      9467      9470      9473
      9470      9473      9475      9476      9470      9473      9475      9480
      9471      9470      9473      9474      9471      9470      9473      9475
      9472      9470      9473      9474      9472      9470      9473      9475
      9473      9475      9476      9477      9473      9475      9476      9478
      9473      9475      9476      9479      9473      9475      9480      9481
      9473      9475      9480      9482      9473      9475      9480      9483
      9474      9473      9475      9476      9474      9473      9475      9480
      9475      9480      9483      9484      9475      9480      9483      9485
      9476      9475      9480      9481      9476      9475      9480      9482
      9476      9475      9480      9483      9477      9476      9475      9480
      9478      9476      9475      9480      9479      9476      9475      9480
      9481      9480      9483      9484      9481      9480      9483      9485
      9482      9480      9483      9484      9482      9480      9483      9485
      9486      9492      9495      9496      9486      9492      9495      9497
      9486      9492      9495      9498      9487      9486      9488      9489
      9487      9486      9488      9490      9487      9486      9488      9491
      9487      9486      9492      9493      9487      9486      9492      9494
      9487      9486      9492      9495      9488      9486      9492      9493
      9488      9486      9492      9494      9488      9486      9492      9495
      9489      9488      9486      9492      9490      9488      9486      9492
      9491      9488      9486      9492      9492      9495      9498      9499
      9492      9495      9498      9500      9492      9495      9498      9501
      9493      9492      9495      9496      9493      9492      9495      9497
      9493      9492      9495      9498      9494      9492      9495      9496
      9494      9492      9495      9497      9494      9492      9495      9498
      9495      9498      9501      9502      9495      9498      9501      9503
      9495      9498      9501      9507      9496      9495      9498      9499
      9496      9495      9498      9500      9496      9495      9498      9501
      9497      9495      9498      9499      9497      9495      9498      9500
      9497      9495      9498      9501      9498      9501      9503      9504
      9498      9501      9503      9505      9498      9501      9503      9506
      9498      9501      9507      9508      9498      9501      9507      9509
      9498      9501      9507      9510      9499      9498      9501      9502
      9499      9498      9501      9503      9499      9498      9501      9507
      9500      9498      9501      9502      9500      9498      9501      9503
      9500      9498      9501      9507      9502      9501      9503      9504
      9502      9501      9503      9505      9502      9501      9503      9506
      9502      9501      9507      9508      9502      9501      9507      9509
      9502      9501      9507      9510      9503      9501      9507      9508
      9503      9501      9507      9509      9503      9501      9507      9510
      9504      9503      9501      9507      9505      9503      9501      9507
      9506      9503      9501      9507      9511      9515      9518      9519
      9511      9515      9518      9549      9511      9557      9554      9549
      9511      9557      9554      9555      9511      9557      9554      9556
      9512      9511      9513      9514      9512      9511      9515      9516
      9512      9511      9515      9517      9512      9511      9515      9518
      9512      9511      9557      9554      9512      9511      9557      9558
      9512      9511      9557      9559      9513      9511      9515      9516
      9513      9511      9515      9517      9513      9511      9515      9518
      9513      9511      9557      9554      9513      9511      9557      9558
      9513      9511      9557      9559      9514      9513      9511      9515
      9514      9513      9511      9557      9515      9511      9557      9554
      9515      9511      9557      9558      9515      9511      9557      9559
      9515      9518      9519      9520      9515      9518      9519      9521
      9515      9518      9549      9547      9515      9518      9549      9550
      9515      9518      9549      9554      9516      9515      9511      9557
      9516      9515      9518      9519      9516      9515      9518      9549
      9517      9515      9511      9557      9517      9515      9518      9519
      9517      9515      9518      9549      9518      9515      9511      9557
      9518      9519      9521      9522      9518      9519      9521      9523
      9518      9519      9521      9524      9518      9549      9547      9524
      9518      9549      9547      9544      9518      9549      9547      9548
      9518      9549      9550      9551      9518      9549      9550      9552
      9518      9549      9550      9553      9518      9549      9554      9555
      9518      9549      9554      9556      9518      9549      9554      9557
      9519      9518      9549      9547      9519      9518      9549      9550
      9519      9518      9549      9554      9519      9521      9524      9525
      9519      9521      9524      9526      9519      9521      9524      9547
      9520      9519      9518      9549      9520      9519      9521      9522
      9520      9519      9521      9523      9520      9519      9521      9524
      9521      9519      9518      9549      9521      9524      9526      9527
      9521      9524      9526      9528      9521      9524      9526      9536
      9521      9524      9547      9544      9521      9524      9547      9548
      9521      9524      9547      9549      9522      9521      9524      9525
      9522      9521      9524      9526      9522      9521      9524      9547
      9523      9521      9524      9525      9523      9521      9524      9526
      9523      9521      9524      9547      9524      9526      9528      9529
      9524      9526      9528      9530      9524      9526      9528      9531
      9524      9526      9536      9534      9524      9526      9536      9537
      9524      9526      9536      9541      9524      9547      9544      9541
      9524      9547      9544      9545      9524      9547      9544      9546
      9524      9547      9549      9550      9524      9547      9549      9554
      9525      9524      9526      9527      9525      9524      9526      9528
      9525      9524      9526      9536      9525      9524      9547      9544
      9525      9524      9547      9548      9525      9524      9547      9549
      9526      9524      9547      9544      9526      9524      9547      9548
      9526      9524      9547      9549      9526      9528      9531      9532
      9526      9528      9531      9533      9526      9528      9531      9534
      9526      9536      9534      9531      9526      9536      9534      9535
      9526      9536      9534      9560      9526      9536      9537      9538
      9526      9536      9537      9539      9526      9536      9537      9540
      9526      9536      9541      9542      9526      9536      9541      9543
      9526      9536      9541      9544      9527      9526      9524      9547
      9527      9526      9528      9529      9527      9526      9528      9530
      9527      9526      9528      9531      9527      9526      9536      9534
      9527      9526      9536      9537      9527      9526      9536      9541
      9528      9526      9524      9547      9528      9526      9536      9534
      9528      9526      9536      9537      9528      9526      9536      9541
      9528      9531      9534      9535      9528      9531      9534      9536
      9528      9531      9534      9560      9529      9528      9526      9536
      9529      9528      9531      9532      9529      9528      9531      9533
      9529      9528      9531      9534      9530      9528      9526      9536
      9530      9528      9531      9532      9530      9528      9531      9533
      9530      9528      9531      9534      9531      9528      9526      9536
      9531      9534      9536      9537      9531      9534      9536      9541
      9531      9534      9560      9561      9531      9534      9560      9562
      9531      9534      9560      9566      9532      9531      9534      9535
      9532      9531      9534      9536      9532      9531      9534      9560
      9533      9531      9534      9535      9533      9531      9534      9536
      9533      9531      9534      9560      9534      9536      9537      9538
      9534      9536      9537      9539      9534      9536      9537      9540
      9534      9536      9541      9542      9534      9536      9541      9543
      9534      9536      9541      9544      9534      9560      9562      9563
      9534      9560      9562      9564      9534      9560      9562      9565
      9534      9560      9566      9567      9534      9560      9566      9568
      9534      9560      9566      9569      9535      9534      9536      9537
      9535      9534      9536      9541      9535      9534      9560      9561
      9535      9534      9560      9562      9535      9534      9560      9566
      9536      9526      9524      9547      9536      9534      9560      9561
      9536      9534      9560      9562      9536      9534      9560      9566
      9536      9541      9544      9545      9536      9541      9544      9546
      9536      9541      9544      9547      9537      9536      9534      9560
      9537      9536      9541      9542      9537      9536      9541      9543
      9537      9536      9541      9544      9538      9537      9536      9541
      9539      9537      9536      9541      9540      9537      9536      9541
      9541      9536      9534      9560      9541      9544      9547      9548
      9541      9544      9547      9549      9542      9541      9544      9545
      9542      9541      9544      9546      9542      9541      9544      9547
      9543      9541      9544      9545      9543      9541      9544      9546
      9543      9541      9544      9547      9544      9547      9549      9550
      9544      9547      9549      9554      9545      9544      9547      9548
      9545      9544      9547      9549      9546      9544      9547      9548
      9546      9544      9547      9549      9547      9549      9550      9551
      9547      9549      9550      9552      9547      9549      9550      9553
      9547      9549      9554      9555      9547      9549      9554      9556
      9547      9549      9554      9557      9548      9547      9549      9550
      9548      9547      9549      9554      9549      9554      9557      9558
      9549      9554      9557      9559      9550      9549      9554      9555
      9550      9549      9554      9556      9550      9549      9554      9557
      9551      9550      9549      9554      9552      9550      9549      9554
      9553      9550      9549      9554      9555      9554      9557      9558
      9555      9554      9557      9559      9556      9554      9557      9558
      9556      9554      9557      9559      9560      9566      9569      9570
      9560      9566      9569      9571      9560      9566      9569      9572
      9561      9560      9562      9563      9561      9560      9562      9564
      9561      9560      9562      9565      9561      9560      9566      9567
      9561      9560      9566      9568      9561      9560      9566      9569
      9562      9560      9566      9567      9562      9560      9566      9568
      9562      9560      9566      9569      9563      9562      9560      9566
      9564      9562      9560      9566      9565      9562      9560      9566
      9566      9569      9572      9573      9566      9569      9572      9574
      9566      9569      9572      9575      9567      9566      9569      9570
      9567      9566      9569      9571      9567      9566      9569      9572
      9568      9566      9569      9570      9568      9566      9569      9571
      9568      9566      9569      9572      9569      9572      9575      9576
      9569      9572      9575      9577      9569      9572      9575      9581
      9570      9569      9572      9573      9570      9569      9572      9574
      9570      9569      9572      9575      9571      9569      9572      9573
      9571      9569      9572      9574      9571      9569      9572      9575
      9572      9575      9577      9578      9572      9575      9577      9579
      9572      9575      9577      9580      9572      9575      9581      9582
      9572      9575      9581      9583      9572      9575      9581      9584
      9573      9572      9575      9576      9573      9572      9575      9577
      9573      9572      9575      9581      9574      9572      9575      9576
      9574      9572      9575      9577      9574      9572      9575      9581
      9576      9575      9577      9578      9576      9575      9577      9579
      9576      9575      9577      9580      9576      9575      9581      9582
      9576      9575      9581      9583      9576      9575      9581      9584
      9577      9575      9581      9582      9577      9575      9581      9583
      9577      9575      9581      9584      9578      9577      9575      9581
      9579      9577      9575      9581      9580      9577      9575      9581
      5307      5308      5323      5324      5307      5308      5323      5325
      5307      5308      5323      5329      5308      5307      5311      5312
      5308      5307      5311      5313      5308      5307      5311      5314
      5308      5307      5315      5316      5308      5307      5315      5317
      5308      5307      5315      5318      5308      5307      5319      5320
      5308      5307      5319      5321      5308      5307      5319      5322
      5308      5323      5329      5326      5309      5308      5307      5311
      5309      5308      5307      5315      5309      5308      5307      5319
      5309      5308      5323      5324      5309      5308      5323      5325
      5309      5308      5323      5329      5310      5308      5307      5311
      5310      5308      5307      5315      5310      5308      5307      5319
      5310      5308      5323      5324      5310      5308      5323      5325
      5310      5308      5323      5329      5311      5307      5308      5323
      5311      5307      5315      5316      5311      5307      5315      5317
      5311      5307      5315      5318      5311      5307      5319      5320
      5311      5307      5319      5321      5311      5307      5319      5322
      5312      5311      5307      5315      5312      5311      5307      5319
      5313      5311      5307      5315      5313      5311      5307      5319
      5314      5311      5307      5315      5314      5311      5307      5319
      5315      5307      5308      5323      5315      5307      5319      5320
      5315      5307      5319      5321      5315      5307      5319      5322
      5316      5315      5307      5319      5317      5315      5307      5319
      5318      5315      5307      5319      5319      5307      5308      5323
      5323      5329      5326      5327      5323      5329      5326      5328
      5323      5329      5326      5330      5324      5323      5329      5326
      5325      5323      5329      5326      5326      5330      5331      5332
      5326      5330      5331      5333      5326      5330      5331      5334
      5327      5326      5330      5331      5328      5326      5330      5331
      5329      5326      5330      5331      5330      5331      5334      5335
      5330      5331      5334      5336      5330      5331      5334      5342
      5331      5334      5336      5337      5331      5334      5342      5343
      5331      5334      5342      5344      5331      5334      5342      5345
      5332      5331      5334      5335      5332      5331      5334      5336
      5332      5331      5334      5342      5333      5331      5334      5335
      5333      5331      5334      5336      5333      5331      5334      5342
      5334      5336      5337      5338      5334      5336      5337      5339
      5334      5342      5345      5346      5335      5334      5336      5337
      5335      5334      5342      5343      5335      5334      5342      5344
      5335      5334      5342      5345      5336      5334      5342      5343
      5336      5334      5342      5344      5336      5334      5342      5345
      5336      5337      5339      5340      5336      5337      5339      5341
      5336      5337      5339      5351      5337      5336      5334      5342
      5337      5339      5351      5352      5337      5339      5351      5353
      5337      5339      5351      5354      5338      5337      5339      5340
      5338      5337      5339      5341      5338      5337      5339      5351
      5339      5351      5354      5355      5339      5351      5354      5356
      5339      5351      5354      5357      5340      5339      5351      5352
      5340      5339      5351      5353      5340      5339      5351      5354
      5341      5339      5351      5352      5341      5339      5351      5353
      5341      5339      5351      5354      5342      5345      5346      5347
      5342      5345      5346      5348      5343      5342      5345      5346
      5344      5342      5345      5346      5345      5346      5348      5349
      5345      5346      5348      5350      5345      5346      5348      5398
      5346      5348      5398      5399      5346      5348      5398      5400
      5346      5348      5398      5401      5347      5346      5348      5349
      5347      5346      5348      5350      5347      5346      5348      5398
      5348      5398      5401      5402      5348      5398      5401      5403
      5348      5398      5401      5404      5349      5348      5398      5399
      5349      5348      5398      5400      5349      5348      5398      5401
      5350      5348      5398      5399      5350      5348      5398      5400
      5350      5348      5398      5401      5351      5354      5357      5358
      5351      5354      5357      5359      5351      5354      5357      5360
      5352      5351      5354      5355      5352      5351      5354      5356
      5352      5351      5354      5357      5353      5351      5354      5355
      5353      5351      5354      5356      5353      5351      5354      5357
      5354      5357      5360      5361      5354      5357      5360      5362
      5354      5357      5360      5363      5355      5354      5357      5358
      5355      5354      5357      5359      5355      5354      5357      5360
      5356      5354      5357      5358      5356      5354      5357      5359
      5356      5354      5357      5360      5357      5360      5363      5364
      5357      5360      5363      5365      5357      5360      5363      5366
      5358      5357      5360      5361      5358      5357      5360      5362
      5358      5357      5360      5363      5359      5357      5360      5361
      5359      5357      5360      5362      5359      5357      5360      5363
      5360      5363      5366      5367      5360      5363      5366      5368
      5360      5363      5366      5369      5361      5360      5363      5364
      5361      5360      5363      5365      5361      5360      5363      5366
      5362      5360      5363      5364      5362      5360      5363      5365
      5362      5360      5363      5366      5363      5366      5369      5370
      5363      5366      5369      5371      5364      5363      5366      5367
      5364      5363      5366      5368      5364      5363      5366      5369
      5365      5363      5366      5367      5365      5363      5366      5368
      5365      5363      5366      5369      5366      5369      5371      5372
      5366      5369      5371      5373      5367      5366      5369      5370
      5367      5366      5369      5371      5368      5366      5369      5370
      5368      5366      5369      5371      5369      5371      5373      5374
      5369      5371      5373      5375      5369      5371      5373      5376
      5370      5369      5371      5372      5370      5369      5371      5373
      5371      5373      5376      5377      5371      5373      5376      5378
      5371      5373      5376      5379      5372      5371      5373      5374
      5372      5371      5373      5375      5372      5371      5373      5376
      5373      5376      5379      5380      5373      5376      5379      5381
      5373      5376      5379      5382      5374      5373      5376      5377
      5374      5373      5376      5378      5374      5373      5376      5379
      5375      5373      5376      5377      5375      5373      5376      5378
      5375      5373      5376      5379      5376      5379      5382      5383
      5376      5379      5382      5384      5376      5379      5382      5385
      5377      5376      5379      5380      5377      5376      5379      5381
      5377      5376      5379      5382      5378      5376      5379      5380
      5378      5376      5379      5381      5378      5376      5379      5382
      5379      5382      5385      5386      5379      5382      5385      5387
      5379      5382      5385      5388      5380      5379      5382      5383
      5380      5379      5382      5384      5380      5379      5382      5385
      5381      5379      5382      5383      5381      5379      5382      5384
      5381      5379      5382      5385      5382      5385      5388      5389
      5382      5385      5388      5390      5382      5385      5388      5391
      5383      5382      5385      5386      5383      5382      5385      5387
      5383      5382      5385      5388      5384      5382      5385      5386
      5384      5382      5385      5387      5384      5382      5385      5388
      5385      5388      5391      5392      5385      5388      5391      5393
      5385      5388      5391      5394      5386      5385      5388      5389
      5386      5385      5388      5390      5386      5385      5388      5391
      5387      5385      5388      5389      5387      5385      5388      5390
      5387      5385      5388      5391      5388      5391      5394      5395
      5388      5391      5394      5396      5388      5391      5394      5397
      5389      5388      5391      5392      5389      5388      5391      5393
      5389      5388      5391      5394      5390      5388      5391      5392
      5390      5388      5391      5393      5390      5388      5391      5394
      5392      5391      5394      5395      5392      5391      5394      5396
      5392      5391      5394      5397      5393      5391      5394      5395
      5393      5391      5394      5396      5393      5391      5394      5397
      5398      5401      5404      5405      5398      5401      5404      5406
      5398      5401      5404      5407      5399      5398      5401      5402
      5399      5398      5401      5403      5399      5398      5401      5404
      5400      5398      5401      5402      5400      5398      5401      5403
      5400      5398      5401      5404      5401      5404      5407      5408
      5401      5404      5407      5409      5401      5404      5407      5410
      5402      5401      5404      5405      5402      5401      5404      5406
      5402      5401      5404      5407      5403      5401      5404      5405
      5403      5401      5404      5406      5403      5401      5404      5407
      5404      5407      5410      5411      5404      5407      5410      5412
      5404      5407      5410      5413      5405      5404      5407      5408
      5405      5404      5407      5409      5405      5404      5407      5410
      5406      5404      5407      5408      5406      5404      5407      5409
      5406      5404      5407      5410      5407      5410      5413      5414
      5407      5410      5413      5415      5407      5410      5413      5416
      5408      5407      5410      5411      5408      5407      5410      5412
      5408      5407      5410      5413      5409      5407      5410      5411
      5409      5407      5410      5412      5409      5407      5410      5413
      5410      5413      5416      5417      5410      5413      5416      5418
      5410      5413      5416      5419      5411      5410      5413      5414
      5411      5410      5413      5415      5411      5410      5413      5416
      5412      5410      5413      5414      5412      5410      5413      5415
      5412      5410      5413      5416      5413      5416      5419      5420
      5413      5416      5419      5421      5413      5416      5419      5422
      5414      5413      5416      5417      5414      5413      5416      5418
      5414      5413      5416      5419      5415      5413      5416      5417
      5415      5413      5416      5418      5415      5413      5416      5419
      5416      5419      5422      5423      5416      5419      5422      5424
      5416      5419      5422      5425      5417      5416      5419      5420
      5417      5416      5419      5421      5417      5416      5419      5422
      5418      5416      5419      5420      5418      5416      5419      5421
      5418      5416      5419      5422      5419      5422      5425      5426
      5419      5422      5425      5427      5419      5422      5425      5428
      5420      5419      5422      5423      5420      5419      5422      5424
      5420      5419      5422      5425      5421      5419      5422      5423
      5421      5419      5422      5424      5421      5419      5422      5425
      5422      5425      5428      5429      5422      5425      5428      5430
      5422      5425      5428      5431      5423      5422      5425      5426
      5423      5422      5425      5427      5423      5422      5425      5428
      5424      5422      5425      5426      5424      5422      5425      5427
      5424      5422      5425      5428      5425      5428      5431      5432
      5425      5428      5431      5433      5425      5428      5431      5434
      5426      5425      5428      5429      5426      5425      5428      5430
      5426      5425      5428      5431      5427      5425      5428      5429
      5427      5425      5428      5430      5427      5425      5428      5431
      5428      5431      5434      5435      5428      5431      5434      5436
      5428      5431      5434      5437      5429      5428      5431      5432
      5429      5428      5431      5433      5429      5428      5431      5434
      5430      5428      5431      5432      5430      5428      5431      5433
      5430      5428      5431      5434      5431      5434      5437      5438
      5431      5434      5437      5439      5431      5434      5437      5440
      5432      5431      5434      5435      5432      5431      5434      5436
      5432      5431      5434      5437      5433      5431      5434      5435
      5433      5431      5434      5436      5433      5431      5434      5437
      5435      5434      5437      5438      5435      5434      5437      5439
      5435      5434      5437      5440      5436      5434      5437      5438
      5436      5434      5437      5439      5436      5434      5437      5440
     17838     17842     17845     17846     17838     17842     17845     17847
     17838     17842     17845     17851     17839     17838     17842     17843
     17839     17838     17842     17844     17839     17838     17842     17845
     17840     17838     17842     17843     17840     17838     17842     17844
     17840     17838     17842     17845     17841     17838     17842     17843
     17841     17838     17842     17844     17841     17838     17842     17845
     17842     17845     17851     17848     17843     17842     17845     17846
     17843     17842     17845     17847     17843     17842     17845     17851
     17844     17842     17845     17846     17844     17842     17845     17847
     17844     17842     17845     17851     17845     17851     17848     17849
     17845     17851     17848     17850     17845     17851     17848     17852
     17846     17845     17851     17848     17847     17845     17851     17848
     17848     17852     17853     17854     17848     17852     17853     17855
     17848     17852     17853     17856     17849     17848     17852     17853
     17850     17848     17852     17853     17851     17848     17852     17853
     17852     17853     17856     17857     17852     17853     17856     17858
     17852     17853     17856     17864     17853     17856     17858     17859
     17853     17856     17864     17865     17853     17856     17864     17866
     17853     17856     17864     17867     17854     17853     17856     17857
     17854     17853     17856     17858     17854     17853     17856     17864
     17855     17853     17856     17857     17855     17853     17856     17858
     17855     17853     17856     17864     17856     17858     17859     17860
     17856     17858     17859     17861     17856     17864     17867     17868
     17857     17856     17858     17859     17857     17856     17864     17865
     17857     17856     17864     17866     17857     17856     17864     17867
     17858     17856     17864     17865     17858     17856     17864     17866
     17858     17856     17864     17867     17858     17859     17861     17862
     17858     17859     17861     17863     17858     17859     17861     17873
     17859     17858     17856     17864     17859     17861     17873     17874
     17859     17861     17873     17875     17859     17861     17873     17876
     17860     17859     17861     17862     17860     17859     17861     17863
     17860     17859     17861     17873     17861     17873     17876     17877
     17861     17873     17876     17878     17861     17873     17876     17879
     17862     17861     17873     17874     17862     17861     17873     17875
     17862     17861     17873     17876     17863     17861     17873     17874
     17863     17861     17873     17875     17863     17861     17873     17876
     17864     17867     17868     17869     17864     17867     17868     17870
     17865     17864     17867     17868     17866     17864     17867     17868
     17867     17868     17870     17871     17867     17868     17870     17872
     17867     17868     17870     17920     17868     17870     17920     17921
     17868     17870     17920     17922     17868     17870     17920     17923
     17869     17868     17870     17871     17869     17868     17870     17872
     17869     17868     17870     17920     17870     17920     17923     17924
     17870     17920     17923     17925     17870     17920     17923     17926
     17871     17870     17920     17921     17871     17870     17920     17922
     17871     17870     17920     17923     17872     17870     17920     17921
     17872     17870     17920     17922     17872     17870     17920     17923
     17873     17876     17879     17880     17873     17876     17879     17881
     17874     17873     17876     17877     17874     17873     17876     17878
     17874     17873     17876     17879     17875     17873     17876     17877
     17875     17873     17876     17878     17875     17873     17876     17879
     17876     17879     17881     17882     17876     17879     17881     17883
     17877     17876     17879     17880     17877     17876     17879     17881
     17878     17876     17879     17880     17878     17876     17879     17881
     17879     17881     17883     17884     17879     17881     17883     17885
     17879     17881     17883     17886     17880     17879     17881     17882
     17880     17879     17881     17883     17881     17883     17886     17887
     17881     17883     17886     17888     17882     17881     17883     17884
     17882     17881     17883     17885     17882     17881     17883     17886
     17883     17886     17888     17889     17883     17886     17888     17890
     17884     17883     17886     17887     17884     17883     17886     17888
     17885     17883     17886     17887     17885     17883     17886     17888
     17886     17888     17890     17891     17886     17888     17890     17892
     17886     17888     17890     17893     17887     17886     17888     17889
     17887     17886     17888     17890     17888     17890     17893     17894
     17888     17890     17893     17895     17889     17888     17890     17891
     17889     17888     17890     17892     17889     17888     17890     17893
     17890     17893     17895     17896     17890     17893     17895     17897
     17891     17890     17893     17894     17891     17890     17893     17895
     17892     17890     17893     17894     17892     17890     17893     17895
     17893     17895     17897     17898     17893     17895     17897     17899
     17893     17895     17897     17900     17894     17893     17895     17896
     17894     17893     17895     17897     17895     17897     17900     17901
     17895     17897     17900     17902     17896     17895     17897     17898
     17896     17895     17897     17899     17896     17895     17897     17900
     17897     17900     17902     17903     17897     17900     17902     17904
     17898     17897     17900     17901     17898     17897     17900     17902
     17899     17897     17900     17901     17899     17897     17900     17902
     17900     17902     17904     17905     17900     17902     17904     17906
     17900     17902     17904     17907     17901     17900     17902     17903
     17901     17900     17902     17904     17902     17904     17907     17908
     17902     17904     17907     17909     17902     17904     17907     17910
     17903     17902     17904     17905     17903     17902     17904     17906
     17903     17902     17904     17907     17904     17907     17910     17911
     17904     17907     17910     17912     17904     17907     17910     17913
     17905     17904     17907     17908     17905     17904     17907     17909
     17905     17904     17907     17910     17906     17904     17907     17908
     17906     17904     17907     17909     17906     17904     17907     17910
     17907     17910     17913     17914     17907     17910     17913     17915
     17907     17910     17913     17916     17908     17907     17910     17911
     17908     17907     17910     17912     17908     17907     17910     17913
     17909     17907     17910     17911     17909     17907     17910     17912
     17909     17907     17910     17913     17910     17913     17916     17917
     17910     17913     17916     17918     17910     17913     17916     17919
     17911     17910     17913     17914     17911     17910     17913     17915
     17911     17910     17913     17916     17912     17910     17913     17914
     17912     17910     17913     17915     17912     17910     17913     17916
     17914     17913     17916     17917     17914     17913     17916     17918
     17914     17913     17916     17919     17915     17913     17916     17917
     17915     17913     17916     17918     17915     17913     17916     17919
     17920     17923     17926     17927     17920     17923     17926     17928
     17920     17923     17926     17929     17921     17920     17923     17924
     17921     17920     17923     17925     17921     17920     17923     17926
     17922     17920     17923     17924     17922     17920     17923     17925
     17922     17920     17923     17926     17923     17926     17929     17930
     17923     17926     17929     17931     17923     17926     17929     17932
     17924     17923     17926     17927     17924     17923     17926     17928
     17924     17923     17926     17929     17925     17923     17926     17927
     17925     17923     17926     17928     17925     17923     17926     17929
     17926     17929     17932     17933     17926     17929     17932     17934
     17926     17929     17932     17935     17927     17926     17929     17930
     17927     17926     17929     17931     17927     17926     17929     17932
     17928     17926     17929     17930     17928     17926     17929     17931
     17928     17926     17929     17932     17929     17932     17935     17936
     17929     17932     17935     17937     17929     17932     17935     17938
     17930     17929     17932     17933     17930     17929     17932     17934
     17930     17929     17932     17935     17931     17929     17932     17933
     17931     17929     17932     17934     17931     17929     17932     17935
     17932     17935     17938     17939     17932     17935     17938     17940
     17932     17935     17938     17941     17933     17932     17935     17936
     17933     17932     17935     17937     17933     17932     17935     17938
     17934     17932     17935     17936     17934     17932     17935     17937
     17934     17932     17935     17938     17935     17938     17941     17942
     17935     17938     17941     17943     17935     17938     17941     17944
     17936     17935     17938     17939     17936     17935     17938     17940
     17936     17935     17938     17941     17937     17935     17938     17939
     17937     17935     17938     17940     17937     17935     17938     17941
     17938     17941     17944     17945     17938     17941     17944     17946
     17938     17941     17944     17947     17939     17938     17941     17942
     17939     17938     17941     17943     17939     17938     17941     17944
     17940     17938     17941     17942     17940     17938     17941     17943
     17940     17938     17941     17944     17941     17944     17947     17948
     17941     17944     17947     17949     17941     17944     17947     17950
     17942     17941     17944     17945     17942     17941     17944     17946
     17942     17941     17944     17947     17943     17941     17944     17945
     17943     17941     17944     17946     17943     17941     17944     17947
     17944     17947     17950     17951     17944     17947     17950     17952
     17944     17947     17950     17953     17945     17944     17947     17948
     17945     17944     17947     17949     17945     17944     17947     17950
     17946     17944     17947     17948     17946     17944     17947     17949
     17946     17944     17947     17950     17947     17950     17953     17954
     17947     17950     17953     17955     17947     17950     17953     17956
     17948     17947     17950     17951     17948     17947     17950     17952
     17948     17947     17950     17953     17949     17947     17950     17951
     17949     17947     17950     17952     17949     17947     17950     17953
     17950     17953     17956     17957     17950     17953     17956     17958
     17950     17953     17956     17959     17951     17950     17953     17954
     17951     17950     17953     17955     17951     17950     17953     17956
     17952     17950     17953     17954     17952     17950     17953     17955
     17952     17950     17953     17956     17953     17956     17959     17960
     17953     17956     17959     17961     17953     17956     17959     17962
     17954     17953     17956     17957     17954     17953     17956     17958
     17954     17953     17956     17959     17955     17953     17956     17957
     17955     17953     17956     17958     17955     17953     17956     17959
     17956     17959     17962     17963     17956     17959     17962     17964
     17956     17959     17962     17965     17957     17956     17959     17960
     17957     17956     17959     17961     17957     17956     17959     17962
     17958     17956     17959     17960     17958     17956     17959     17961
     17958     17956     17959     17962     17959     17962     17965     17966
     17959     17962     17965     17967     17959     17962     17965     17968
     17960     17959     17962     17963     17960     17959     17962     17964
     17960     17959     17962     17965     17961     17959     17962     17963
     17961     17959     17962     17964     17961     17959     17962     17965
     17963     17962     17965     17966     17963     17962     17965     17967
     17963     17962     17965     17968     17964     17962     17965     17966
     17964     17962     17965     17967     17964     17962     17965     17968
      4229      4230      4245      4246      4229      4230      4245      4247
      4229      4230      4245      4251      4230      4229      4233      4234
      4230      4229      4233      4235      4230      4229      4233      4236
      4230      4229      4237      4238      4230      4229      4237      4239
      4230      4229      4237      4240      4230      4229      4241      4242
      4230      4229      4241      4243      4230      4229      4241      4244
      4230      4245      4251      4248      4231      4230      4229      4233
      4231      4230      4229      4237      4231      4230      4229      4241
      4231      4230      4245      4246      4231      4230      4245      4247
      4231      4230      4245      4251      4232      4230      4229      4233
      4232      4230      4229      4237      4232      4230      4229      4241
      4232      4230      4245      4246      4232      4230      4245      4247
      4232      4230      4245      4251      4233      4229      4230      4245
      4233      4229      4237      4238      4233      4229      4237      4239
      4233      4229      4237      4240      4233      4229      4241      4242
      4233      4229      4241      4243      4233      4229      4241      4244
      4234      4233      4229      4237      4234      4233      4229      4241
      4235      4233      4229      4237      4235      4233      4229      4241
      4236      4233      4229      4237      4236      4233      4229      4241
      4237      4229      4230      4245      4237      4229      4241      4242
      4237      4229      4241      4243      4237      4229      4241      4244
      4238      4237      4229      4241      4239      4237      4229      4241
      4240      4237      4229      4241      4241      4229      4230      4245
      4245      4251      4248      4249      4245      4251      4248      4250
      4245      4251      4248      4252      4246      4245      4251      4248
      4247      4245      4251      4248      4248      4252      4253      4254
      4248      4252      4253      4255      4248      4252      4253      4256
      4249      4248      4252      4253      4250      4248      4252      4253
      4251      4248      4252      4253      4252      4253      4256      4257
      4252      4253      4256      4258      4252      4253      4256      4264
      4253      4256      4258      4259      4253      4256      4264      4265
      4253      4256      4264      4266      4253      4256      4264      4267
      4254      4253      4256      4257      4254      4253      4256      4258
      4254      4253      4256      4264      4255      4253      4256      4257
      4255      4253      4256      4258      4255      4253      4256      4264
      4256      4258      4259      4260      4256      4258      4259      4261
      4256      4264      4267      4268      4257      4256      4258      4259
      4257      4256      4264      4265      4257      4256      4264      4266
      4257      4256      4264      4267      4258      4256      4264      4265
      4258      4256      4264      4266      4258      4256      4264      4267
      4258      4259      4261      4262      4258      4259      4261      4263
      4258      4259      4261      4273      4259      4258      4256      4264
      4259      4261      4273      4274      4259      4261      4273      4275
      4259      4261      4273      4276      4260      4259      4261      4262
      4260      4259      4261      4263      4260      4259      4261      4273
      4261      4273      4276      4277      4261      4273      4276      4278
      4261      4273      4276      4279      4262      4261      4273      4274
      4262      4261      4273      4275      4262      4261      4273      4276
      4263      4261      4273      4274      4263      4261      4273      4275
      4263      4261      4273      4276      4264      4267      4268      4269
      4264      4267      4268      4270      4265      4264      4267      4268
      4266      4264      4267      4268      4267      4268      4270      4271
      4267      4268      4270      4272      4267      4268      4270      4320
      4268      4270      4320      4321      4268      4270      4320      4322
      4268      4270      4320      4323      4269      4268      4270      4271
      4269      4268      4270      4272      4269      4268      4270      4320
      4270      4320      4323      4324      4270      4320      4323      4325
      4270      4320      4323      4326      4271      4270      4320      4321
      4271      4270      4320      4322      4271      4270      4320      4323
      4272      4270      4320      4321      4272      4270      4320      4322
      4272      4270      4320      4323      4273      4276      4279      4280
      4273      4276      4279      4281      4274      4273      4276      4277
      4274      4273      4276      4278      4274      4273      4276      4279
      4275      4273      4276      4277      4275      4273      4276      4278
      4275      4273      4276      4279      4276      4279      4281      4282
      4276      4279      4281      4283      4277      4276      4279      4280
      4277      4276      4279      4281      4278      4276      4279      4280
      4278      4276      4279      4281      4279      4281      4283      4284
      4279      4281      4283      4285      4279      4281      4283      4286
      4280      4279      4281      4282      4280      4279      4281      4283
      4281      4283      4286      4287      4281      4283      4286      4288
      4282      4281      4283      4284      4282      4281      4283      4285
      4282      4281      4283      4286      4283      4286      4288      4289
      4283      4286      4288      4290      4284      4283      4286      4287
      4284      4283      4286      4288      4285      4283      4286      4287
      4285      4283      4286      4288      4286      4288      4290      4291
      4286      4288      4290      4292      4286      4288      4290      4293
      4287      4286      4288      4289      4287      4286      4288      4290
      4288      4290      4293      4294      4288      4290      4293      4295
      4289      4288      4290      4291      4289      4288      4290      4292
      4289      4288      4290      4293      4290      4293      4295      4296
      4290      4293      4295      4297      4291      4290      4293      4294
      4291      4290      4293      4295      4292      4290      4293      4294
      4292      4290      4293      4295      4293      4295      4297      4298
      4293      4295      4297      4299      4293      4295      4297      4300
      4294      4293      4295      4296      4294      4293      4295      4297
      4295      4297      4300      4301      4295      4297      4300      4302
      4296      4295      4297      4298      4296      4295      4297      4299
      4296      4295      4297      4300      4297      4300      4302      4303
      4297      4300      4302      4304      4298      4297      4300      4301
      4298      4297      4300      4302      4299      4297      4300      4301
      4299      4297      4300      4302      4300      4302      4304      4305
      4300      4302      4304      4306      4300      4302      4304      4307
      4301      4300      4302      4303      4301      4300      4302      4304
      4302      4304      4307      4308      4302      4304      4307      4309
      4302      4304      4307      4310      4303      4302      4304      4305
      4303      4302      4304      4306      4303      4302      4304      4307
      4304      4307      4310      4311      4304      4307      4310      4312
      4304      4307      4310      4313      4305      4304      4307      4308
      4305      4304      4307      4309      4305      4304      4307      4310
      4306      4304      4307      4308      4306      4304      4307      4309
      4306      4304      4307      4310      4307      4310      4313      4314
      4307      4310      4313      4315      4307      4310      4313      4316
      4308      4307      4310      4311      4308      4307      4310      4312
      4308      4307      4310      4313      4309      4307      4310      4311
      4309      4307      4310      4312      4309      4307      4310      4313
      4310      4313      4316      4317      4310      4313      4316      4318
      4310      4313      4316      4319      4311      4310      4313      4314
      4311      4310      4313      4315      4311      4310      4313      4316
      4312      4310      4313      4314      4312      4310      4313      4315
      4312      4310      4313      4316      4314      4313      4316      4317
      4314      4313      4316      4318      4314      4313      4316      4319
      4315      4313      4316      4317      4315      4313      4316      4318
      4315      4313      4316      4319      4320      4323      4326      4327
      4320      4323      4326      4328      4320      4323      4326      4329
      4321      4320      4323      4324      4321      4320      4323      4325
      4321      4320      4323      4326      4322      4320      4323      4324
      4322      4320      4323      4325      4322      4320      4323      4326
      4323      4326      4329      4330      4323      4326      4329      4331
      4323      4326      4329      4332      4324      4323      4326      4327
      4324      4323      4326      4328      4324      4323      4326      4329
      4325      4323      4326      4327      4325      4323      4326      4328
      4325      4323      4326      4329      4326      4329      4332      4333
      4326      4329      4332      4334      4326      4329      4332      4335
      4327      4326      4329      4330      4327      4326      4329      4331
      4327      4326      4329      4332      4328      4326      4329      4330
      4328      4326      4329      4331      4328      4326      4329      4332
      4329      4332      4335      4336      4329      4332      4335      4337
      4329      4332      4335      4338      4330      4329      4332      4333
      4330      4329      4332      4334      4330      4329      4332      4335
      4331      4329      4332      4333      4331      4329      4332      4334
      4331      4329      4332      4335      4332      4335      4338      4339
      4332      4335      4338      4340      4332      4335      4338      4341
      4333      4332      4335      4336      4333      4332      4335      4337
      4333      4332      4335      4338      4334      4332      4335      4336
      4334      4332      4335      4337      4334      4332      4335      4338
      4335      4338      4341      4342      4335      4338      4341      4343
      4335      4338      4341      4344      4336      4335      4338      4339
      4336      4335      4338      4340      4336      4335      4338      4341
      4337      4335      4338      4339      4337      4335      4338      4340
      4337      4335      4338      4341      4338      4341      4344      4345
      4338      4341      4344      4346      4338      4341      4344      4347
      4339      4338      4341      4342      4339      4338      4341      4343
      4339      4338      4341      4344      4340      4338      4341      4342
      4340      4338      4341      4343      4340      4338      4341      4344
      4341      4344      4347      4348      4341      4344      4347      4349
      4341      4344      4347      4350      4342      4341      4344      4345
      4342      4341      4344      4346      4342      4341      4344      4347
      4343      4341      4344      4345      4343      4341      4344      4346
      4343      4341      4344      4347      4344      4347      4350      4351
      4344      4347      4350      4352      4344      4347      4350      4353
      4345      4344      4347      4348      4345      4344      4347      4349
      4345      4344      4347      4350      4346      4344      4347      4348
      4346      4344      4347      4349      4346      4344      4347      4350
      4347      4350      4353      4354      4347      4350      4353      4355
      4347      4350      4353      4356      4348      4347      4350      4351
      4348      4347      4350      4352      4348      4347      4350      4353
      4349      4347      4350      4351      4349      4347      4350      4352
      4349      4347      4350      4353      4350      4353      4356      4357
      4350      4353      4356      4358      4350      4353      4356      4359
      4351      4350      4353      4354      4351      4350      4353      4355
      4351      4350      4353      4356      4352      4350      4353      4354
      4352      4350      4353      4355      4352      4350      4353      4356
      4353      4356      4359      4360      4353      4356      4359      4361
      4353      4356      4359      4362      4354      4353      4356      4357
      4354      4353      4356      4358      4354      4353      4356      4359
      4355      4353      4356      4357      4355      4353      4356      4358
      4355      4353      4356      4359      4356      4359      4362      4363
      4356      4359      4362      4364      4356      4359      4362      4365
      4357      4356      4359      4360      4357      4356      4359      4361
      4357      4356      4359      4362      4358      4356      4359      4360
      4358      4356      4359      4361      4358      4356      4359      4362
      4359      4362      4365      4366      4359      4362      4365      4367
      4359      4362      4365      4368      4360      4359      4362      4363
      4360      4359      4362      4364      4360      4359      4362      4365
      4361      4359      4362      4363      4361      4359      4362      4364
      4361      4359      4362      4365      4363      4362      4365      4366
      4363      4362      4365      4367      4363      4362      4365      4368
      4364      4362      4365      4366      4364      4362      4365      4367
      4364      4362      4365      4368     22183     22196     22199     22200
     22183     22196     22199     22201     22183     22196     22199     22205
     22184     22183     22188     22189     22184     22183     22188     22190
     22184     22183     22188     22191     22184     22183     22192     22193
     22184     22183     22192     22194     22184     22183     22192     22195
     22184     22183     22196     22197     22184     22183     22196     22198
     22184     22183     22196     22199     22185     22184     22183     22188
     22185     22184     22183     22192     22185     22184     22183     22196
     22186     22184     22183     22188     22186     22184     22183     22192
     22186     22184     22183     22196     22187     22184     22183     22188
     22187     22184     22183     22192     22187     22184     22183     22196
     22188     22183     22192     22193     22188     22183     22192     22194
     22188     22183     22192     22195     22188     22183     22196     22197
     22188     22183     22196     22198     22188     22183     22196     22199
     22189     22188     22183     22192     22189     22188     22183     22196
     22190     22188     22183     22192     22190     22188     22183     22196
     22191     22188     22183     22192     22191     22188     22183     22196
     22192     22183     22196     22197     22192     22183     22196     22198
     22192     22183     22196     22199     22193     22192     22183     22196
     22194     22192     22183     22196     22195     22192     22183     22196
     22196     22199     22205     22202     22197     22196     22199     22200
     22197     22196     22199     22201     22197     22196     22199     22205
     22198     22196     22199     22200     22198     22196     22199     22201
     22198     22196     22199     22205     22199     22205     22202     22203
     22199     22205     22202     22204     22199     22205     22202     22206
     22200     22199     22205     22202     22201     22199     22205     22202
     22202     22206     22207     22208     22202     22206     22207     22209
     22202     22206     22207     22210     22203     22202     22206     22207
     22204     22202     22206     22207     22205     22202     22206     22207
     22206     22207     22210     22211     22206     22207     22210     22212
     22206     22207     22210     22218     22207     22210     22212     22213
     22207     22210     22218     22219     22207     22210     22218     22220
     22207     22210     22218     22221     22208     22207     22210     22211
     22208     22207     22210     22212     22208     22207     22210     22218
     22209     22207     22210     22211     22209     22207     22210     22212
     22209     22207     22210     22218     22210     22212     22213     22214
     22210     22212     22213     22215     22210     22218     22221     22222
     22211     22210     22212     22213     22211     22210     22218     22219
     22211     22210     22218     22220     22211     22210     22218     22221
     22212     22210     22218     22219     22212     22210     22218     22220
     22212     22210     22218     22221     22212     22213     22215     22216
     22212     22213     22215     22217     22212     22213     22215     22227
     22213     22212     22210     22218     22213     22215     22227     22228
     22213     22215     22227     22229     22213     22215     22227     22230
     22214     22213     22215     22216     22214     22213     22215     22217
     22214     22213     22215     22227     22215     22227     22230     22231
     22215     22227     22230     22232     22215     22227     22230     22233
     22216     22215     22227     22228     22216     22215     22227     22229
     22216     22215     22227     22230     22217     22215     22227     22228
     22217     22215     22227     22229     22217     22215     22227     22230
     22218     22221     22222     22223     22218     22221     22222     22224
     22219     22218     22221     22222     22220     22218     22221     22222
     22221     22222     22224     22225     22221     22222     22224     22226
     22221     22222     22224     22272     22222     22224     22272     22273
     22222     22224     22272     22274     22222     22224     22272     22275
     22223     22222     22224     22225     22223     22222     22224     22226
     22223     22222     22224     22272     22224     22272     22275     22276
     22224     22272     22275     22277     22224     22272     22275     22278
     22225     22224     22272     22273     22225     22224     22272     22274
     22225     22224     22272     22275     22226     22224     22272     22273
     22226     22224     22272     22274     22226     22224     22272     22275
     22227     22230     22233     22234     22227     22230     22233     22235
     22227     22230     22233     22236     22228     22227     22230     22231
     22228     22227     22230     22232     22228     22227     22230     22233
     22229     22227     22230     22231     22229     22227     22230     22232
     22229     22227     22230     22233     22230     22233     22236     22237
     22230     22233     22236     22238     22230     22233     22236     22239
     22231     22230     22233     22234     22231     22230     22233     22235
     22231     22230     22233     22236     22232     22230     22233     22234
     22232     22230     22233     22235     22232     22230     22233     22236
     22233     22236     22239     22240     22233     22236     22239     22241
     22233     22236     22239     22242     22234     22233     22236     22237
     22234     22233     22236     22238     22234     22233     22236     22239
     22235     22233     22236     22237     22235     22233     22236     22238
     22235     22233     22236     22239     22236     22239     22242     22243
     22236     22239     22242     22244     22236     22239     22242     22245
     22237     22236     22239     22240     22237     22236     22239     22241
     22237     22236     22239     22242     22238     22236     22239     22240
     22238     22236     22239     22241     22238     22236     22239     22242
     22239     22242     22245     22246     22239     22242     22245     22247
     22240     22239     22242     22243     22240     22239     22242     22244
     22240     22239     22242     22245     22241     22239     22242     22243
     22241     22239     22242     22244     22241     22239     22242     22245
     22242     22245     22247     22248     22242     22245     22247     22249
     22243     22242     22245     22246     22243     22242     22245     22247
     22244     22242     22245     22246     22244     22242     22245     22247
     22245     22247     22249     22250     22245     22247     22249     22251
     22245     22247     22249     22252     22246     22245     22247     22248
     22246     22245     22247     22249     22247     22249     22252     22253
     22247     22249     22252     22254     22248     22247     22249     22250
     22248     22247     22249     22251     22248     22247     22249     22252
     22249     22252     22254     22255     22249     22252     22254     22256
     22250     22249     22252     22253     22250     22249     22252     22254
     22251     22249     22252     22253     22251     22249     22252     22254
     22252     22254     22256     22257     22252     22254     22256     22258
     22252     22254     22256     22259     22253     22252     22254     22255
     22253     22252     22254     22256     22254     22256     22259     22260
     22254     22256     22259     22261     22254     22256     22259     22262
     22255     22254     22256     22257     22255     22254     22256     22258
     22255     22254     22256     22259     22256     22259     22262     22263
     22256     22259     22262     22264     22256     22259     22262     22265
     22257     22256     22259     22260     22257     22256     22259     22261
     22257     22256     22259     22262     22258     22256     22259     22260
     22258     22256     22259     22261     22258     22256     22259     22262
     22259     22262     22265     22266     22259     22262     22265     22267
     22259     22262     22265     22268     22260     22259     22262     22263
     22260     22259     22262     22264     22260     22259     22262     22265
     22261     22259     22262     22263     22261     22259     22262     22264
     22261     22259     22262     22265     22262     22265     22268     22269
     22262     22265     22268     22270     22262     22265     22268     22271
     22263     22262     22265     22266     22263     22262     22265     22267
     22263     22262     22265     22268     22264     22262     22265     22266
     22264     22262     22265     22267     22264     22262     22265     22268
     22266     22265     22268     22269     22266     22265     22268     22270
     22266     22265     22268     22271     22267     22265     22268     22269
     22267     22265     22268     22270     22267     22265     22268     22271
     22272     22275     22278     22279     22272     22275     22278     22280
     22272     22275     22278     22281     22273     22272     22275     22276
     22273     22272     22275     22277     22273     22272     22275     22278
     22274     22272     22275     22276     22274     22272     22275     22277
     22274     22272     22275     22278     22275     22278     22281     22282
     22275     22278     22281     22283     22275     22278     22281     22284
     22276     22275     22278     22279     22276     22275     22278     22280
     22276     22275     22278     22281     22277     22275     22278     22279
     22277     22275     22278     22280     22277     22275     22278     22281
     22278     22281     22284     22285     22278     22281     22284     22286
     22278     22281     22284     22287     22279     22278     22281     22282
     22279     22278     22281     22283     22279     22278     22281     22284
     22280     22278     22281     22282     22280     22278     22281     22283
     22280     22278     22281     22284     22281     22284     22287     22288
     22281     22284     22287     22289     22281     22284     22287     22290
     22282     22281     22284     22285     22282     22281     22284     22286
     22282     22281     22284     22287     22283     22281     22284     22285
     22283     22281     22284     22286     22283     22281     22284     22287
     22284     22287     22290     22291     22284     22287     22290     22292
     22284     22287     22290     22293     22285     22284     22287     22288
     22285     22284     22287     22289     22285     22284     22287     22290
     22286     22284     22287     22288     22286     22284     22287     22289
     22286     22284     22287     22290     22287     22290     22293     22294
     22287     22290     22293     22295     22287     22290     22293     22296
     22288     22287     22290     22291     22288     22287     22290     22292
     22288     22287     22290     22293     22289     22287     22290     22291
     22289     22287     22290     22292     22289     22287     22290     22293
     22290     22293     22296     22297     22290     22293     22296     22298
     22290     22293     22296     22299     22291     22290     22293     22294
     22291     22290     22293     22295     22291     22290     22293     22296
     22292     22290     22293     22294     22292     22290     22293     22295
     22292     22290     22293     22296     22293     22296     22299     22300
     22293     22296     22299     22301     22293     22296     22299     22302
     22294     22293     22296     22297     22294     22293     22296     22298
     22294     22293     22296     22299     22295     22293     22296     22297
     22295     22293     22296     22298     22295     22293     22296     22299
     22296     22299     22302     22303     22296     22299     22302     22304
     22296     22299     22302     22305     22297     22296     22299     22300
     22297     22296     22299     22301     22297     22296     22299     22302
     22298     22296     22299     22300     22298     22296     22299     22301
     22298     22296     22299     22302     22299     22302     22305     22306
     22299     22302     22305     22307     22299     22302     22305     22308
     22300     22299     22302     22303     22300     22299     22302     22304
     22300     22299     22302     22305     22301     22299     22302     22303
     22301     22299     22302     22304     22301     22299     22302     22305
     22302     22305     22308     22309     22302     22305     22308     22310
     22302     22305     22308     22311     22303     22302     22305     22306
     22303     22302     22305     22307     22303     22302     22305     22308
     22304     22302     22305     22306     22304     22302     22305     22307
     22304     22302     22305     22308     22305     22308     22311     22312
     22305     22308     22311     22313     22305     22308     22311     22314
     22306     22305     22308     22309     22306     22305     22308     22310
     22306     22305     22308     22311     22307     22305     22308     22309
     22307     22305     22308     22310     22307     22305     22308     22311
     22308     22311     22314     22315     22308     22311     22314     22316
     22308     22311     22314     22317     22309     22308     22311     22312
     22309     22308     22311     22313     22309     22308     22311     22314
     22310     22308     22311     22312     22310     22308     22311     22313
     22310     22308     22311     22314     22311     22314     22317     22318
     22311     22314     22317     22319     22311     22314     22317     22320
     22312     22311     22314     22315     22312     22311     22314     22316
     22312     22311     22314     22317     22313     22311     22314     22315
     22313     22311     22314     22316     22313     22311     22314     22317
     22315     22314     22317     22318     22315     22314     22317     22319
     22315     22314     22317     22320     22316     22314     22317     22318
     22316     22314     22317     22319     22316     22314     22317     22320
      1996      2000      2002      2003      1996      2000      2002      2004
      1996      2000      2005      2006      1996      2000      2005      2007
      1996      2000      2005      2011      1997      1996      2000      2001
      1997      1996      2000      2002      1997      1996      2000      2005
      1998      1996      2000      2001      1998      1996      2000      2002
      1998      1996      2000      2005      1999      1996      2000      2001
      1999      1996      2000      2002      1999      1996      2000      2005
      2000      2005      2011      2008      2001      2000      2002      2003
      2001      2000      2002      2004      2001      2000      2005      2006
      2001      2000      2005      2007      2001      2000      2005      2011
      2002      2000      2005      2006      2002      2000      2005      2007
      2002      2000      2005      2011      2003      2002      2000      2005
      2004      2002      2000      2005      2005      2011      2008      2009
      2005      2011      2008      2010      2005      2011      2008      2012
      2006      2005      2011      2008      2007      2005      2011      2008
      2008      2012      2013      2014      2008      2012      2013      2015
      2008      2012      2013      2016      2009      2008      2012      2013
      2010      2008      2012      2013      2011      2008      2012      2013
      2012      2013      2016      2017      2012      2013      2016      2018
      2012      2013      2016      2024      2013      2016      2018      2019
      2013      2016      2024      2025      2013      2016      2024      2026
      2013      2016      2024      2027      2014      2013      2016      2017
      2014      2013      2016      2018      2014      2013      2016      2024
      2015      2013      2016      2017      2015      2013      2016      2018
      2015      2013      2016      2024      2016      2018      2019      2020
      2016      2018      2019      2021      2016      2024      2027      2028
      2017      2016      2018      2019      2017      2016      2024      2025
      2017      2016      2024      2026      2017      2016      2024      2027
      2018      2016      2024      2025      2018      2016      2024      2026
      2018      2016      2024      2027      2018      2019      2021      2022
      2018      2019      2021      2023      2018      2019      2021      2033
      2019      2018      2016      2024      2019      2021      2033      2034
      2019      2021      2033      2035      2019      2021      2033      2036
      2020      2019      2021      2022      2020      2019      2021      2023
      2020      2019      2021      2033      2021      2033      2036      2037
      2021      2033      2036      2038      2021      2033      2036      2039
      2022      2021      2033      2034      2022      2021      2033      2035
      2022      2021      2033      2036      2023      2021      2033      2034
      2023      2021      2033      2035      2023      2021      2033      2036
      2024      2027      2028      2029      2024      2027      2028      2030
      2025      2024      2027      2028      2026      2024      2027      2028
      2027      2028      2030      2031      2027      2028      2030      2032
      2027      2028      2030      2080      2028      2030      2080      2081
      2028      2030      2080      2082      2028      2030      2080      2083
      2029      2028      2030      2031      2029      2028      2030      2032
      2029      2028      2030      2080      2030      2080      2083      2084
      2030      2080      2083      2085      2030      2080      2083      2086
      2031      2030      2080      2081      2031      2030      2080      2082
      2031      2030      2080      2083      2032      2030      2080      2081
      2032      2030      2080      2082      2032      2030      2080      2083
      2033      2036      2039      2040      2033      2036      2039      2041
      2034      2033      2036      2037      2034      2033      2036      2038
      2034      2033      2036      2039      2035      2033      2036      2037
      2035      2033      2036      2038      2035      2033      2036      2039
      2036      2039      2041      2042      2036      2039      2041      2043
      2037      2036      2039      2040      2037      2036      2039      2041
      2038      2036      2039      2040      2038      2036      2039      2041
      2039      2041      2043      2044      2039      2041      2043      2045
      2039      2041      2043      2046      2040      2039      2041      2042
      2040      2039      2041      2043      2041      2043      2046      2047
      2041      2043      2046      2048      2042      2041      2043      2044
      2042      2041      2043      2045      2042      2041      2043      2046
      2043      2046      2048      2049      2043      2046      2048      2050
      2044      2043      2046      2047      2044      2043      2046      2048
      2045      2043      2046      2047      2045      2043      2046      2048
      2046      2048      2050      2051      2046      2048      2050      2052
      2046      2048      2050      2053      2047      2046      2048      2049
      2047      2046      2048      2050      2048      2050      2053      2054
      2048      2050      2053      2055      2049      2048      2050      2051
      2049      2048      2050      2052      2049      2048      2050      2053
      2050      2053      2055      2056      2050      2053      2055      2057
      2051      2050      2053      2054      2051      2050      2053      2055
      2052      2050      2053      2054      2052      2050      2053      2055
      2053      2055      2057      2058      2053      2055      2057      2059
      2053      2055      2057      2060      2054      2053      2055      2056
      2054      2053      2055      2057      2055      2057      2060      2061
      2055      2057      2060      2062      2056      2055      2057      2058
      2056      2055      2057      2059      2056      2055      2057      2060
      2057      2060      2062      2063      2057      2060      2062      2064
      2058      2057      2060      2061      2058      2057      2060      2062
      2059      2057      2060      2061      2059      2057      2060      2062
      2060      2062      2064      2065      2060      2062      2064      2066
      2060      2062      2064      2067      2061      2060      2062      2063
      2061      2060      2062      2064      2062      2064      2067      2068
      2062      2064      2067      2069      2062      2064      2067      2070
      2063      2062      2064      2065      2063      2062      2064      2066
      2063      2062      2064      2067      2064      2067      2070      2071
      2064      2067      2070      2072      2064      2067      2070      2073
      2065      2064      2067      2068      2065      2064      2067      2069
      2065      2064      2067      2070      2066      2064      2067      2068
      2066      2064      2067      2069      2066      2064      2067      2070
      2067      2070      2073      2074      2067      2070      2073      2075
      2067      2070      2073      2076      2068      2067      2070      2071
      2068      2067      2070      2072      2068      2067      2070      2073
      2069      2067      2070      2071      2069      2067      2070      2072
      2069      2067      2070      2073      2070      2073      2076      2077
      2070      2073      2076      2078      2070      2073      2076      2079
      2071      2070      2073      2074      2071      2070      2073      2075
      2071      2070      2073      2076      2072      2070      2073      2074
      2072      2070      2073      2075      2072      2070      2073      2076
      2074      2073      2076      2077      2074      2073      2076      2078
      2074      2073      2076      2079      2075      2073      2076      2077
      2075      2073      2076      2078      2075      2073      2076      2079
      2080      2083      2086      2087      2080      2083      2086      2088
      2080      2083      2086      2089      2081      2080      2083      2084
      2081      2080      2083      2085      2081      2080      2083      2086
      2082      2080      2083      2084      2082      2080      2083      2085
      2082      2080      2083      2086      2083      2086      2089      2090
      2083      2086      2089      2091      2083      2086      2089      2092
      2084      2083      2086      2087      2084      2083      2086      2088
      2084      2083      2086      2089      2085      2083      2086      2087
      2085      2083      2086      2088      2085      2083      2086      2089
      2086      2089      2092      2093      2086      2089      2092      2094
      2086      2089      2092      2095      2087      2086      2089      2090
      2087      2086      2089      2091      2087      2086      2089      2092
      2088      2086      2089      2090      2088      2086      2089      2091
      2088      2086      2089      2092      2089      2092      2095      2096
      2089      2092      2095      2097      2089      2092      2095      2098
      2090      2089      2092      2093      2090      2089      2092      2094
      2090      2089      2092      2095      2091      2089      2092      2093
      2091      2089      2092      2094      2091      2089      2092      2095
      2092      2095      2098      2099      2092      2095      2098      2100
      2092      2095      2098      2101      2093      2092      2095      2096
      2093      2092      2095      2097      2093      2092      2095      2098
      2094      2092      2095      2096      2094      2092      2095      2097
      2094      2092      2095      2098      2095      2098      2101      2102
      2095      2098      2101      2103      2095      2098      2101      2104
      2096      2095      2098      2099      2096      2095      2098      2100
      2096      2095      2098      2101      2097      2095      2098      2099
      2097      2095      2098      2100      2097      2095      2098      2101
      2098      2101      2104      2105      2098      2101      2104      2106
      2098      2101      2104      2107      2099      2098      2101      2102
      2099      2098      2101      2103      2099      2098      2101      2104
      2100      2098      2101      2102      2100      2098      2101      2103
      2100      2098      2101      2104      2101      2104      2107      2108
      2101      2104      2107      2109      2101      2104      2107      2110
      2102      2101      2104      2105      2102      2101      2104      2106
      2102      2101      2104      2107      2103      2101      2104      2105
      2103      2101      2104      2106      2103      2101      2104      2107
      2104      2107      2110      2111      2104      2107      2110      2112
      2104      2107      2110      2113      2105      2104      2107      2108
      2105      2104      2107      2109      2105      2104      2107      2110
      2106      2104      2107      2108      2106      2104      2107      2109
      2106      2104      2107      2110      2107      2110      2113      2114
      2107      2110      2113      2115      2107      2110      2113      2116
      2108      2107      2110      2111      2108      2107      2110      2112
      2108      2107      2110      2113      2109      2107      2110      2111
      2109      2107      2110      2112      2109      2107      2110      2113
      2110      2113      2116      2117      2110      2113      2116      2118
      2110      2113      2116      2119      2111      2110      2113      2114
      2111      2110      2113      2115      2111      2110      2113      2116
      2112      2110      2113      2114      2112      2110      2113      2115
      2112      2110      2113      2116      2113      2116      2119      2120
      2113      2116      2119      2121      2113      2116      2119      2122
      2114      2113      2116      2117      2114      2113      2116      2118
      2114      2113      2116      2119      2115      2113      2116      2117
      2115      2113      2116      2118      2115      2113      2116      2119
      2116      2119      2122      2123      2116      2119      2122      2124
      2116      2119      2122      2125      2117      2116      2119      2120
      2117      2116      2119      2121      2117      2116      2119      2122
      2118      2116      2119      2120      2118      2116      2119      2121
      2118      2116      2119      2122      2119      2122      2125      2126
      2119      2122      2125      2127      2119      2122      2125      2128
      2120      2119      2122      2123      2120      2119      2122      2124
      2120      2119      2122      2125      2121      2119      2122      2123
      2121      2119      2122      2124      2121      2119      2122      2125
      2123      2122      2125      2126      2123      2122      2125      2127
      2123      2122      2125      2128      2124      2122      2125      2126
      2124      2122      2125      2127      2124      2122      2125      2128

       272 !NIMPHI: impropers
        24        23        26        25        33        32        35        34
      2159      2158      2161      2160      2168      2167      2170      2169
      4399      4398      4401      4400      4408      4407      4410      4409
      9664      9666      9612      9665      9612      9664      9614      9613
     14322     14321     14324     14323     14331     14330     14333     14332
      2299      2298      2301      2300      2308      2307      2310      2309
     17990     17989     17992     17991     17999     17998     18001     18000
      9795      9797      9743      9796      9743      9795      9745      9744
      4533      4532      4535      4534      4542      4541      4544      4543
       157       156       159       158       166       165       168       167
      9926      9928      9874      9927      9874      9926      9876      9875
     19574     19573     19576     19575     19583     19582     19585     19584
     14453     14452     14455     14454     14462     14461     14464     14463
     14584     14583     14586     14585     14593     14592     14595     14594
     20143     20142     20145     20144     20152     20151     20154     20153
     10057     10059     10005     10058     10005     10057     10007     10006
     14715     14714     14717     14716     14724     14723     14726     14725
     18121     18120     18123     18122     18130     18129     18132     18131
     20281     20280     20283     20282     20290     20289     20292     20291
     10188     10190     10136     10189     10136     10188     10138     10137
     10319     10321     10267     10320     10267     10319     10269     10268
       290       289       292       291       299       298       301       300
     20419     20418     20421     20420     20428     20427     20430     20429
     18252     18251     18254     18253     18261     18260     18263     18262
     19717     19716     19719     19718     19726     19725     19728     19727
     10450     10452     10398     10451     10398     10450     10400     10399
     14846     14845     14848     14847     14855     14854     14857     14856
     18383     18382     18385     18384     18392     18391     18394     18393
     20557     20556     20559     20558     20566     20565     20568     20567
     18514     18513     18516     18515     18523     18522     18525     18524
      4667      4666      4669      4668      4676      4675      4678      4677
     10581     10583     10529     10582     10529     10581     10531     10530
     10712     10714     10660     10713     10660     10712     10662     10661
     14977     14976     14979     14978     14986     14985     14988     14987
       423       422       425       424       432       431       434       433
     15108     15107     15110     15109     15117     15116     15119     15118
     15239     15238     15241     15240     15248     15247     15250     15249
     10843     10845     10791     10844     10791     10843     10793     10792
     20695     20694     20697     20696     20704     20703     20706     20705
      2439      2438      2441      2440      2448      2447      2450      2449
     15370     15369     15372     15371     15379     15378     15381     15380
     15501     15500     15503     15502     15510     15509     15512     15511
     10974     10976     10922     10975     10922     10974     10924     10923
       556       555       558       557       565       564       567       566
     11105     11107     11053     11106     11053     11105     11055     11054
     15632     15631     15634     15633     15641     15640     15643     15642
      2579      2578      2581      2580      2588      2587      2590      2589
     11236     11238     11184     11237     11184     11236     11186     11185
     11367     11369     11315     11368     11315     11367     11317     11316
     11498     11500     11446     11499     11446     11498     11448     11447
      2719      2718      2721      2720      2728      2727      2730      2729
       689       688       691       690       698       697       700       699
     11629     11631     11577     11630     11577     11629     11579     11578
     15763     15762     15765     15764     15772     15771     15774     15773
     15894     15893     15896     15895     15903     15902     15905     15904
      2859      2858      2861      2860      2868      2867      2870      2869
       822       821       824       823       831       830       833       832
     11760     11762     11708     11761     11708     11760     11710     11709
       955       954       957       956       964       963       966       965
      2999      2998      3001      3000      3008      3007      3010      3009
     20833     20832     20835     20834     20842     20841     20844     20843
     20971     20970     20973     20972     20980     20979     20982     20981
      4801      4800      4803      4802      4810      4809      4812      4811
     18645     18644     18647     18646     18654     18653     18656     18655
     16025     16024     16027     16026     16034     16033     16036     16035
     21109     21108     21111     21110     21118     21117     21120     21119
      3139      3138      3141      3140      3148      3147      3150      3149
     11891     11893     11839     11892     11839     11891     11841     11840
     16156     16155     16158     16157     16165     16164     16167     16166
     16287     16286     16289     16288     16296     16295     16298     16297
     16418     16417     16420     16419     16427     16426     16429     16428
      1088      1087      1090      1089      1097      1096      1099      1098
     12022     12024     11970     12023     11970     12022     11972     11971
      4935      4934      4937      4936      4944      4943      4946      4945
      3279      3278      3281      3280      3288      3287      3290      3289
     21247     21246     21249     21248     21256     21255     21258     21257
     16549     16548     16551     16550     16558     16557     16560     16559
     18776     18775     18778     18777     18785     18784     18787     18786
     21385     21384     21387     21386     21394     21393     21396     21395
     12153     12155     12101     12154     12101     12153     12103     12102
     12284     12286     12232     12285     12232     12284     12234     12233
     12415     12417     12363     12416     12363     12415     12365     12364
     12546     12548     12494     12547     12494     12546     12496     12495
     12677     12679     12625     12678     12625     12677     12627     12626
      3419      3418      3421      3420      3428      3427      3430      3429
     16680     16679     16682     16681     16689     16688     16691     16690
     21523     21522     21525     21524     21532     21531     21534     21533
     19860     19859     19862     19861     19869     19868     19871     19870
     16811     16810     16813     16812     16820     16819     16822     16821
     21661     21660     21663     21662     21670     21669     21672     21671
     12808     12810     12756     12809     12756     12808     12758     12757
     12939     12941     12887     12940     12887     12939     12889     12888
     13070     13072     13018     13071     13018     13070     13020     13019
      5069      5068      5071      5070      5078      5077      5080      5079
      1221      1220      1223      1222      1230      1229      1232      1231
     16942     16941     16944     16943     16951     16950     16953     16952
      5203      5202      5205      5204      5212      5211      5214      5213
     18907     18906     18909     18908     18916     18915     18918     18917
     13201     13203     13149     13202     13149     13201     13151     13150
      1354      1353      1356      1355      1363      1362      1365      1364
     13332     13334     13280     13333     13280     13332     13282     13281
     21799     21798     21801     21800     21808     21807     21810     21809
     19038     19037     19040     19039     19047     19046     19049     19048
     13463     13465     13411     13464     13411     13463     13413     13412
     17073     17072     17075     17074     17082     17081     17084     17083
     17204     17203     17206     17205     17213     17212     17215     17214
     19169     19168     19171     19170     19178     19177     19180     19179
     20003     20002     20005     20004     20012     20011     20014     20013
     13594     13596     13542     13595     13542     13594     13544     13543
     13725     13727     13673     13726     13673     13725     13675     13674
      3559      3558      3561      3560      3568      3567      3570      3569
     17335     17334     17337     17336     17344     17343     17346     17345
     17466     17465     17468     17467     17475     17474     17477     17476
     13856     13858     13804     13857     13804     13856     13806     13805
     21937     21936     21939     21938     21946     21945     21948     21947
      3699      3698      3701      3700      3708      3707      3710      3709
      1487      1486      1489      1488      1496      1495      1498      1497
     19300     19299     19302     19301     19309     19308     19311     19310
      1620      1619      1622      1621      1629      1628      1631      1630
     13987     13989     13935     13988     13935     13987     13937     13936
      3839      3838      3841      3840      3848      3847      3850      3849
     17597     17596     17599     17598     17606     17605     17608     17607
     14118     14120     14066     14119     14066     14118     14068     14067
     17728     17727     17730     17729     17737     17736     17739     17738
     14249     14251     14197     14250     14197     14249     14199     14198
      1753      1752      1755      1754      1762      1761      1764      1763
     19431     19430     19433     19432     19440     19439     19442     19441
      3979      3978      3981      3980      3988      3987      3990      3989
      1886      1885      1888      1887      1895      1894      1897      1896
      4119      4118      4121      4120      4128      4127      4130      4129
     22075     22074     22077     22076     22084     22083     22086     22085
      5337      5336      5339      5338      5346      5345      5348      5347
     17859     17858     17861     17860     17868     17867     17870     17869
      4259      4258      4261      4260      4268      4267      4270      4269
     22213     22212     22215     22214     22222     22221     22224     22223
      2019      2018      2021      2020      2028      2027      2030      2029

         0 !NDON: donors


         0 !NACC: acceptors


         0 !NNB

         0         0         0         0         0         0         0         0
         0         0         0         0         0         0         0         0
         0         0         0         0         0         0         0         0
         0         0         0         0         0         0         0         0
         0         0         0         0         0         0         0         0
         0         0         0         0         0         0         0         0
         0         0         0         0         0         0         0         0
         0         0         0         0         0         0         0         0
         0         0         0         0         0         0         0         0
         0         0         0         0         0         0         0         0
         0         0         0         0         0         0         0         0
         0         0         0         0         0         0         0         0
         0         0         0         0         0         0         0         0
         0         0         0         0         0         0         0         0
         0         0         0         0         0         0         0         0
         0         0         0         0         0         0         0         0
         0         0         0         0         0         0         0         0
         0         0         0         0         0         0         0         0
         0         0         0         0         0         0         0         0
         0         0         0         0         0         0         0         0
         0         0         0         0         0         0         0         0
         0         0         0         0         0         0         0         0
         0         0         0         0         0         0         0         0
         0         0         0         0         0         0         0         0
         0         0         0         0         0         0         0         0
         0         0         0         0         0         0         0         0
         0         0         0         0         0         0         0         0
         0         0         0         0         0         0         0         0
         0         0         0         0         0         0         0         0
         0         0         0         0         0         0         0         0
         0         0         0         0         0         0         0         0
         0         0         0         0         0         0         0         0
         0         0         0         0         0         0         0         0
         0         0         0         0         0         0         0         0
         0         0         0         0         0         0         0         0
         0         0         0         0         0         0         0         0
         0         0         0         0         0         0         0         0
         0         0         0         0         0         0         0         0
         0         0         0         0         0         0         0         0
         0         0         0         0         0         0         0         0
         0         0         0         0         0         0         0         0
         0         0         0         0         0         0         0         0
         0         0         0         0         0         0         0         0
         0         0         0         0         0         0         0         0
         0         0         0         0         0         0         0         0
         0         0         0         0         0         0         0         0
         0         0         0         0         0         0         0         0
         0         0         0         0         0         0         0         0
         0         0         0         0         0         0         0         0
         0         0         0         0         0         0         0         0
         0         0         0         0         0         0         0         0
         0         0         0         0         0         0         0         0
         0         0         0         0         0         0         0         0
         0         0         0         0         0         0         0         0
         0         0         0         0         0         0         0         0
         0         0         0         0         0         0         0         0
         0         0         0         0         0         0         0         0
         0         0         0         0         0         0         0         0
         0         0         0         0         0         0         0         0
         0         0         0         0         0         0         0         0
         0         0         0         0         0         0         0         0
         0         0         0         0         0         0         0         0
         0         0         0         0         0         0         0         0
         0         0         0         0         0         0         0         0
         0         0         0         0         0         0         0         0
         0         0         0         0         0         0         0         0
         0         0         0         0         0         0         0         0
         0         0         0         0         0         0         0         0
         0         0         0         0         0         0         0         0
         0         0         0         0         0         0         0         0
         0         0         0         0         0         0         0         0
         0         0         0         0         0         0         0         0
         0         0         0         0         0         0         0         0
         0         0         0         0         0         0         0         0
         0         0         0         0         0         0         0         0
         0         0         0         0         0         0         0         0
         0         0         0         0         0         0         0         0
         0         0         0         0         0         0         0         0
         0         0         0         0         0         0         0         0
         0         0         0         0         0         0         0         0
         0         0         0         0         0         0         0         0
         0         0         0         0         0         0         0         0
         0         0         0         0         0         0         0         0
         0         0         0         0         0         0         0         0
         0         0         0         0         0         0         0         0
         0         0         0         0         0         0         0         0
         0         0         0         0         0         0         0         0
         0         0         0         0         0         0         0         0
         0         0         0         0         0         0         0         0
         0         0         0         0         0         0         0         0
         0         0         0         0         0         0         0         0
         0         0         0         0         0         0         0         0
         0         0         0         0         0         0         0         0
         0         0         0         0         0         0         0         0
         0         0         0         0         0         0         0         0
         0         0         0         0         0         0         0         0
         0         0         0         0         0         0         0         0
         0         0         0         0         0         0         0         0
         0         0         0         0         0         0         0         0
         0         0         0         0         0         0         0         0
         0         0         0         0         0         0         0         0
         0         0         0         0         0         0         0         0
         0         0         0         0         0         0         0         0
         0         0         0         0         0         0         0         0
         0         0         0         0         0         0         0         0
         0         0         0         0         0         0         0         0
         0         0         0         0         0         0         0         0
         0         0         0         0         0         0         0         0
         0         0         0         0         0         0         0         0
         0         0         0         0         0         0         0         0
         0         0         0         0         0         0         0         0
         0         0         0         0         0         0         0         0
         0         0         0         0         0         0         0         0
         0         0         0         0         0         0         0         0
         0         0         0         0         0         0         0         0
         0         0         0         0         0         0         0         0
         0         0         0         0         0         0         0         0
         0         0         0         0         0         0         0         0
         0         0         0         0         0         0         0         0
         0         0         0         0         0         0         0         0
         0         0         0         0         0         0         0         0
         0         0         0         0         0         0         0         0
         0         0         0         0         0         0         0         0
         0         0         0         0         0         0         0         0
         0         0         0         0         0         0         0         0
         0         0         0         0         0         0         0         0
         0         0         0         0         0         0         0         0
         0         0         0         0         0         0         0         0
         0         0         0         0         0         0         0         0
         0         0         0         0         0         0         0         0
         0         0         0         0         0         0         0         0
         0         0         0         0         0         0         0         0
         0         0         0         0         0         0         0         0
         0         0         0         0         0         0         0         0
         0         0         0         0         0         0         0         0
         0         0         0         0         0         0         0         0
         0         0         0         0         0         0         0         0
         0         0         0         0         0         0         0         0
         0         0         0         0         0         0         0         0
         0         0         0         0         0         0         0         0
         0         0         0         0         0         0         0         0
         0         0         0         0         0         0         0         0
         0         0         0         0         0         0         0         0
         0         0         0         0         0         0         0         0
         0         0         0         0         0         0         0         0
         0         0         0         0         0         0         0         0
         0         0         0         0         0         0         0         0
         0         0         0         0         0         0         0         0
         0         0         0         0         0         0         0         0
         0         0         0         0         0         0         0         0
         0         0         0         0         0         0         0         0
         0         0         0         0         0         0         0         0
         0         0         0         0         0         0         0         0
         0         0         0         0         0         0         0         0
         0         0         0         0         0         0         0         0
         0         0         0         0         0         0         0         0
         0         0         0         0         0         0         0         0
         0         0         0         0         0         0         0         0
         0         0         0         0         0         0         0         0
         0         0         0         0         0         0         0         0
         0         0         0         0         0         0         0         0
         0         0         0         0         0         0         0         0
         0         0         0         0         0         0         0         0
         0         0         0         0         0         0         0         0
         0         0         0         0         0         0         0         0
         0         0         0         0         0         0         0         0
         0         0         0         0         0         0         0         0
         0         0         0         0         0         0         0         0
         0         0         0         0         0         0         0         0
         0         0         0         0         0         0         0         0
         0         0         0         0         0         0         0         0
         0         0         0         0         0         0         0         0
         0         0         0         0         0         0         0         0
         0         0         0         0         0         0         0         0
         0         0         0         0         0         0         0         0
         0         0         0         0         0         0         0         0
         0         0         0         0         0         0         0         0
         0         0         0         0         0         0         0         0
         0         0         0         0         0         0         0         0
         0         0         0         0         0         0         0         0
         0         0         0         0         0         0         0         0
         0         0         0         0         0         0         0         0
         0         0         0         0         0         0         0         0
         0         0         0         0         0         0         0         0
         0         0         0         0         0         0         0         0
         0         0         0         0         0         0         0         0
         0         0         0         0         0         0         0         0
         0         0         0         0         0         0         0         0
         0         0         0         0         0         0         0         0
         0         0         0         0         0         0         0         0
         0         0         0         0         0         0         0         0
         0         0         0         0         0         0         0         0
         0         0         0         0         0         0         0         0
         0         0         0         0         0         0         0         0
         0         0         0         0         0         0         0         0
         0         0         0         0         0         0         0         0
         0         0         0         0         0         0         0         0
         0         0         0         0         0         0         0         0
         0         0         0         0         0         0         0         0
         0         0         0         0         0         0         0         0
         0         0         0         0         0         0         0         0
         0         0         0         0         0         0         0         0
         0         0         0         0         0         0         0         0
         0         0         0         0         0         0         0         0
         0         0         0         0         0         0         0         0
         0         0         0         0         0         0         0         0
         0         0         0         0         0         0         0         0
         0         0         0         0         0         0         0         0
         0         0         0         0         0         0         0         0
         0         0         0         0         0         0         0         0
         0         0         0         0         0         0         0         0
         0         0         0         0         0         0         0         0
         0         0         0         0         0         0         0         0
         0         0         0         0         0         0         0         0
         0         0         0         0         0         0         0         0
         0         0         0         0         0         0         0         0
         0         0         0         0         0         0         0         0
         0         0         0         0         0         0         0         0
         0         0         0         0         0         0         0         0
         0         0         0         0         0         0         0         0
         0         0         0         0         0         0         0         0
         0         0         0         0         0         0         0         0
         0         0         0         0         0         0         0         0
         0         0         0         0         0         0         0         0
         0         0         0         0         0         0         0         0
         0         0         0         0         0         0         0         0
         0         0         0         0         0         0         0         0
         0         0         0         0         0         0         0         0
         0         0         0         0         0         0         0         0
         0         0         0         0         0         0         0         0
         0         0         0         0         0         0         0         0
         0         0         0         0         0         0         0         0
         0         0         0         0         0         0         0         0
         0         0         0         0         0         0         0         0
         0         0         0         0         0         0         0         0
         0         0         0         0         0         0         0         0
         0         0         0         0         0         0         0         0
         0         0         0         0         0         0         0         0
         0         0         0         0         0         0         0         0
         0         0         0         0         0         0         0         0
         0         0         0         0         0         0         0         0
         0         0         0         0         0         0         0         0
         0         0         0         0         0         0         0         0
         0         0         0         0         0         0         0         0
         0         0         0         0         0         0         0         0
         0         0         0         0         0         0         0         0
         0         0         0         0         0         0         0         0
         0         0         0         0         0         0         0         0
         0         0         0         0         0         0         0         0
         0         0         0         0         0         0         0         0
         0         0         0         0         0         0         0         0
         0         0         0         0         0         0         0         0
         0         0         0         0         0         0         0         0
         0         0         0         0         0         0         0         0
         0         0         0         0         0         0         0         0
         0         0         0         0         0         0         0         0
         0         0         0         0         0         0         0         0
         0         0         0         0         0         0         0         0
         0         0         0         0         0         0         0         0
         0         0         0         0         0         0         0         0
         0         0         0         0         0         0         0         0
         0         0         0         0         0         0         0         0
         0         0         0         0         0         0         0         0
         0         0         0         0         0         0         0         0
         0         0         0         0         0         0         0         0
         0         0         0         0         0         0         0         0
         0         0         0         0         0         0         0         0
         0         0         0         0         0         0         0         0
         0         0         0         0         0         0         0         0
         0         0         0         0         0         0         0         0
         0         0         0         0         0         0         0         0
         0         0         0         0         0         0         0         0
         0         0         0         0         0         0         0         0
         0         0         0         0         0         0         0         0
         0         0         0         0         0         0         0         0
         0         0         0         0         0         0         0         0
         0         0         0         0         0         0         0         0
         0         0         0         0         0         0         0         0
         0         0         0         0         0         0         0         0
         0         0         0         0         0         0         0         0
         0         0         0         0         0         0         0         0
         0         0         0         0         0         0         0         0
         0         0         0         0         0         0         0         0
         0         0         0         0         0         0         0         0
         0         0         0         0         0         0         0         0
         0         0         0         0         0         0         0         0
         0         0         0         0         0         0         0         0
         0         0         0         0         0         0         0         0
         0         0         0         0         0         0         0         0
         0         0         0         0         0         0         0         0
         0         0         0         0         0         0         0         0
         0         0         0         0         0         0         0         0
         0         0         0         0         0         0         0         0
         0         0         0         0         0         0         0         0
         0         0         0         0         0         0         0         0
         0         0         0         0         0         0         0         0
         0         0         0         0         0         0         0         0
         0         0         0         0         0         0         0         0
         0         0         0         0         0         0         0         0
         0         0         0         0         0         0         0         0
         0         0         0         0         0         0         0         0
         0         0         0         0         0         0         0         0
         0         0         0         0         0         0         0         0
         0         0         0         0         0         0         0         0
         0         0         0         0         0         0         0         0
         0         0         0         0         0         0         0         0
         0         0         0         0         0         0         0         0
         0         0         0         0         0         0         0         0
         0         0         0         0         0         0         0         0
         0         0         0         0         0         0         0         0
         0         0         0         0         0         0         0         0
         0         0         0         0         0         0         0         0
         0         0         0         0         0         0         0         0
         0         0         0         0         0         0         0         0
         0         0         0         0         0         0         0         0
         0         0         0         0         0         0         0         0
         0         0         0         0         0         0         0         0
         0         0         0         0         0         0         0         0
         0         0         0         0         0         0         0         0
         0         0         0         0         0         0         0         0
         0         0         0         0         0         0         0         0
         0         0         0         0         0         0         0         0
         0         0         0         0         0         0         0         0
         0         0         0         0         0         0         0         0
         0         0         0         0         0         0         0         0
         0         0         0         0         0         0         0         0
         0         0         0         0         0         0         0         0
         0         0         0         0         0         0         0         0
         0         0         0         0         0         0         0         0
         0         0         0         0         0         0         0         0
         0         0         0         0         0         0         0         0
         0         0         0         0         0         0         0         0
         0         0         0         0         0         0         0         0
         0         0         0         0         0         0         0         0
         0         0         0         0         0         0         0         0
         0         0         0         0         0         0         0         0
         0         0         0         0         0         0         0         0
         0         0         0         0         0         0         0         0
         0         0         0         0         0         0         0         0
         0         0         0         0         0         0         0         0
         0         0         0         0         0         0         0         0
         0         0         0         0         0         0         0         0
         0         0         0         0         0         0         0         0
         0         0         0         0         0         0         0         0
         0         0         0         0         0         0         0         0
         0         0         0         0         0         0         0         0
         0         0         0         0         0         0         0         0
         0         0         0         0         0         0         0         0
         0         0         0         0         0         0         0         0
         0         0         0         0         0         0         0         0
         0         0         0         0         0         0         0         0
         0         0         0         0         0         0         0         0
         0         0         0         0         0         0         0         0
         0         0         0         0         0         0         0         0
         0         0         0         0         0         0         0         0
         0         0         0         0         0         0         0         0
         0         0         0         0         0         0         0         0
         0         0         0         0         0         0         0         0
         0         0         0         0         0         0         0         0
         0         0         0         0         0         0         0         0
         0         0         0         0         0         0         0         0
         0         0         0         0         0         0         0         0
         0         0         0         0         0         0         0         0
         0         0         0         0         0         0         0         0
         0         0         0         0         0         0         0         0
         0         0         0         0         0         0         0         0
         0         0         0         0         0         0         0         0
         0         0         0         0         0         0         0         0
         0         0         0         0         0         0         0         0
         0         0         0         0         0         0         0         0
         0         0         0         0         0         0         0         0
         0         0         0         0         0         0         0         0
         0         0         0         0         0         0         0         0
         0         0         0         0         0         0         0         0
         0         0         0         0         0         0         0         0
         0         0         0         0         0         0         0         0
         0         0         0         0         0         0         0         0
         0         0         0         0         0         0         0         0
         0         0         0         0         0         0         0         0
         0         0         0         0         0         0         0         0
         0         0         0         0         0         0         0         0
         0         0         0         0         0         0         0         0
         0         0         0         0         0         0         0         0
         0         0         0         0         0         0         0         0
         0         0         0         0         0         0         0         0
         0         0         0         0         0         0         0         0
         0         0         0         0         0         0         0         0
         0         0         0         0         0         0         0         0
         0         0         0         0         0         0         0         0
         0         0         0         0         0         0         0         0
         0         0         0         0         0         0         0         0
         0         0         0         0         0         0         0         0
         0         0         0         0         0         0         0         0
         0         0         0         0         0         0         0         0
         0         0         0         0         0         0         0         0
         0         0         0         0         0         0         0         0
         0         0         0         0         0         0         0         0
         0         0         0         0         0         0         0         0
         0         0         0         0         0         0         0         0
         0         0         0         0         0         0         0         0
         0         0         0         0         0         0         0         0
         0         0         0         0         0         0         0         0
         0         0         0         0         0         0         0         0
         0         0         0         0         0         0         0         0
         0         0         0         0         0         0         0         0
         0         0         0         0         0         0         0         0
         0         0         0         0         0         0         0         0
         0         0         0         0         0         0         0         0
         0         0         0         0         0         0         0         0
         0         0         0         0         0         0         0         0
         0         0         0         0         0         0         0         0
         0         0         0         0         0         0         0         0
         0         0         0         0         0         0         0         0
         0         0         0         0         0         0         0         0
         0         0         0         0         0         0         0         0
         0         0         0         0         0         0         0         0
         0         0         0         0         0         0         0         0
         0         0         0         0         0         0         0         0
         0         0         0         0         0         0         0         0
         0         0         0         0         0         0         0         0
         0         0         0         0         0         0         0         0
         0         0         0         0         0         0         0         0
         0         0         0         0         0         0         0         0
         0         0         0         0         0         0         0         0
         0         0         0         0         0         0         0         0
         0         0         0         0         0         0         0         0
         0         0         0         0         0         0         0         0
         0         0         0         0         0         0         0         0
         0         0         0         0         0         0         0         0
         0         0         0         0         0         0         0         0
         0         0         0         0         0         0         0         0
         0         0         0         0         0         0         0         0
         0         0         0         0         0         0         0         0
         0         0         0         0         0         0         0         0
         0         0         0         0         0         0         0         0
         0         0         0         0         0         0         0         0
         0         0         0         0         0         0         0         0
         0         0         0         0         0         0         0         0
         0         0         0         0         0         0         0         0
         0         0         0         0         0         0         0         0
         0         0         0         0         0         0         0         0
         0         0         0         0         0         0         0         0
         0         0         0         0         0         0         0         0
         0         0         0         0         0         0         0         0
         0         0         0         0         0         0         0         0
         0         0         0         0         0         0         0         0
         0         0         0         0         0         0         0         0
         0         0         0         0         0         0         0         0
         0         0         0         0         0         0         0         0
         0         0         0         0         0         0         0         0
         0         0         0         0         0         0         0         0
         0         0         0         0         0         0         0         0
         0         0         0         0         0         0         0         0
         0         0         0         0         0         0         0         0
         0         0         0         0         0         0         0         0
         0         0         0         0         0         0         0         0
         0         0         0         0         0         0         0         0
         0         0         0         0         0         0         0         0
         0         0         0         0         0         0         0         0
         0         0         0         0         0         0         0         0
         0         0         0         0         0         0         0         0
         0         0         0         0         0         0         0         0
         0         0         0         0         0         0         0         0
         0         0         0         0         0         0         0         0
         0         0         0         0         0         0         0         0
         0         0         0         0         0         0         0         0
         0         0         0         0         0         0         0         0
         0         0         0         0         0         0         0         0
         0         0         0         0         0         0         0         0
         0         0         0         0         0         0         0         0
         0         0         0         0         0         0         0         0
         0         0         0         0         0         0         0         0
         0         0         0         0         0         0         0         0
         0         0         0         0         0         0         0         0
         0         0         0         0         0         0         0         0
         0         0         0         0         0         0         0         0
         0         0         0         0         0         0         0         0
         0         0         0         0         0         0         0         0
         0         0         0         0         0         0         0         0
         0         0         0         0         0         0         0         0
         0         0         0         0         0         0         0         0
         0         0         0         0         0         0         0         0
         0         0         0         0         0         0         0         0
         0         0         0         0         0         0         0         0
         0         0         0         0         0         0         0         0
         0         0         0         0         0         0         0         0
         0         0         0         0         0         0         0         0
         0         0         0         0         0         0         0         0
         0         0         0         0         0         0         0         0
         0         0         0         0         0         0         0         0
         0         0         0         0         0         0         0         0
         0         0         0         0         0         0         0         0
         0         0         0         0         0         0         0         0
         0         0         0         0         0         0         0         0
         0         0         0         0         0         0         0         0
         0         0         0         0         0         0         0         0
         0         0         0         0         0         0         0         0
         0         0         0         0         0         0         0         0
         0         0         0         0         0         0         0         0
         0         0         0         0         0         0         0         0
         0         0         0         0         0         0         0         0
         0         0         0         0         0         0         0         0
         0         0         0         0         0         0         0         0
         0         0         0         0         0         0         0         0
         0         0         0         0         0         0         0         0
         0         0         0         0         0         0         0         0
         0         0         0         0         0         0         0         0
         0         0         0         0         0         0         0         0
         0         0         0         0         0         0         0         0
         0         0         0         0         0         0         0         0
         0         0         0         0         0         0         0         0
         0         0         0         0         0         0         0         0
         0         0         0         0         0         0         0         0
         0         0         0         0         0         0         0         0
         0         0         0         0         0         0         0         0
         0         0         0         0         0         0         0         0
         0         0         0         0         0         0         0         0
         0         0         0         0         0         0         0         0
         0         0         0         0         0         0         0         0
         0         0         0         0         0         0         0         0
         0         0         0         0         0         0         0         0
         0         0         0         0         0         0         0         0
         0         0         0         0         0         0         0         0
         0         0         0         0         0         0         0         0
         0         0         0         0         0         0         0         0
         0         0         0         0         0         0         0         0
         0         0         0         0         0         0         0         0
         0         0         0         0         0         0         0         0
         0         0         0         0         0         0         0         0
         0         0         0         0         0         0         0         0
         0         0         0         0         0         0         0         0
         0         0         0         0         0         0         0         0
         0         0         0         0         0         0         0         0
         0         0         0         0         0         0         0         0
         0         0         0         0         0         0         0         0
         0         0         0         0         0         0         0         0
         0         0         0         0         0         0         0         0
         0         0         0         0         0         0         0         0
         0         0         0         0         0         0         0         0
         0         0         0         0         0         0         0         0
         0         0         0         0         0         0         0         0
         0         0         0         0         0         0         0         0
         0         0         0         0         0         0         0         0
         0         0         0         0         0         0         0         0
         0         0         0         0         0         0         0         0
         0         0         0         0         0         0         0         0
         0         0         0         0         0         0         0         0
         0         0         0         0         0         0         0         0
         0         0         0         0         0         0         0         0
         0         0         0         0         0         0         0         0
         0         0         0         0         0         0         0         0
         0         0         0         0         0         0         0         0
         0         0         0         0         0         0         0         0
         0         0         0         0         0         0         0         0
         0         0         0         0         0         0         0         0
         0         0         0         0         0         0         0         0
         0         0         0         0         0         0         0         0
         0         0         0         0         0         0         0         0
         0         0         0         0         0         0         0         0
         0         0         0         0         0         0         0         0
         0         0         0         0         0         0         0         0
         0         0         0         0         0         0         0         0
         0         0         0         0         0         0         0         0
         0         0         0         0         0         0         0         0
         0         0         0         0         0         0         0         0
         0         0         0         0         0         0         0         0
         0         0         0         0         0         0         0         0
         0         0         0         0         0         0         0         0
         0         0         0         0         0         0         0         0
         0         0         0         0         0         0         0         0
         0         0         0         0         0         0         0         0
         0         0         0         0         0         0         0         0
         0         0         0         0         0         0         0         0
         0         0         0         0         0         0         0         0
         0         0         0         0         0         0         0         0
         0         0         0         0         0         0         0         0
         0         0         0         0         0         0         0         0
         0         0         0         0         0         0         0         0
         0         0         0         0         0         0         0         0
         0         0         0         0         0         0         0         0
         0         0         0         0         0         0         0         0
         0         0         0         0         0         0         0         0
         0         0         0         0         0         0         0         0
         0         0         0         0         0         0         0         0
         0         0         0         0         0         0         0         0
         0         0         0         0         0         0         0         0
         0         0         0         0         0         0         0         0
         0         0         0         0         0         0         0         0
         0         0         0         0         0         0         0         0
         0         0         0         0         0         0         0         0
         0         0         0         0         0         0         0         0
         0         0         0         0         0         0         0         0
         0         0         0         0         0         0         0         0
         0         0         0         0         0         0         0         0
         0         0         0         0         0         0         0         0
         0         0         0         0         0         0         0         0
         0         0         0         0         0         0         0         0
         0         0         0         0         0         0         0         0
         0         0         0         0         0         0         0         0
         0         0         0         0         0         0         0         0
         0         0         0         0         0         0         0         0
         0         0         0         0         0         0         0         0
         0         0         0         0         0         0         0         0
         0         0         0         0         0         0         0         0
         0         0         0         0         0         0         0         0
         0         0         0         0         0         0         0         0
         0         0         0         0         0         0         0         0
         0         0         0         0         0         0         0         0
         0         0         0         0         0         0         0         0
         0         0         0         0         0         0         0         0
         0         0         0         0         0         0         0         0
         0         0         0         0         0         0         0         0
         0         0         0         0         0         0         0         0
         0         0         0         0         0         0         0         0
         0         0         0         0         0         0         0         0
         0         0         0         0         0         0         0         0
         0         0         0         0         0         0         0         0
         0         0         0         0         0         0         0         0
         0         0         0         0         0         0         0         0
         0         0         0         0         0         0         0         0
         0         0         0         0         0         0         0         0
         0         0         0         0         0         0         0         0
         0         0         0         0         0         0         0         0
         0         0         0         0         0         0         0         0
         0         0         0         0         0         0         0         0
         0         0         0         0         0         0         0         0
         0         0         0         0         0         0         0         0
         0         0         0         0         0         0         0         0
         0         0         0         0         0         0         0         0
         0         0         0         0         0         0         0         0
         0         0         0         0         0         0         0         0
         0         0         0         0         0         0         0         0
         0         0         0         0         0         0         0         0
         0         0         0         0         0         0         0         0
         0         0         0         0         0         0         0         0
         0         0         0         0         0         0         0         0
         0         0         0         0         0         0         0         0
         0         0         0         0         0         0         0         0
         0         0         0         0         0         0         0         0
         0         0         0         0         0         0         0         0
         0         0         0         0         0         0         0         0
         0         0         0         0         0         0         0         0
         0         0         0         0         0         0         0         0
         0         0         0         0         0         0         0         0
         0         0         0         0         0         0         0         0
         0         0         0         0         0         0         0         0
         0         0         0         0         0         0         0         0
         0         0         0         0         0         0         0         0
         0         0         0         0         0         0         0         0
         0         0         0         0         0         0         0         0
         0         0         0         0         0         0         0         0
         0         0         0         0         0         0         0         0
         0         0         0         0         0         0         0         0
         0         0         0         0         0         0         0         0
         0         0         0         0         0         0         0         0
         0         0         0         0         0         0         0         0
         0         0         0         0         0         0         0         0
         0         0         0         0         0         0         0         0
         0         0         0         0         0         0         0         0
         0         0         0         0         0         0         0         0
         0         0         0         0         0         0         0         0
         0         0         0         0         0         0         0         0
         0         0         0         0         0         0         0         0
         0         0         0         0         0         0         0         0
         0         0         0         0         0         0         0         0
         0         0         0         0         0         0         0         0
         0         0         0         0         0         0         0         0
         0         0         0         0         0         0         0         0
         0         0         0         0         0         0         0         0
         0         0         0         0         0         0         0         0
         0         0         0         0         0         0         0         0
         0         0         0         0         0         0         0         0
         0         0         0         0         0         0         0         0
         0         0         0         0         0         0         0         0
         0         0         0         0         0         0         0         0
         0         0         0         0         0         0         0         0
         0         0         0         0         0         0         0         0
         0         0         0         0         0         0         0         0
         0         0         0         0         0         0         0         0
         0         0         0         0         0         0         0         0
         0         0         0         0         0         0         0         0
         0         0         0         0         0         0         0         0
         0         0         0         0         0         0         0         0
         0         0         0         0         0         0         0         0
         0         0         0         0         0         0         0         0
         0         0         0         0         0         0         0         0
         0         0         0         0         0         0         0         0
         0         0         0         0         0         0         0         0
         0         0         0         0         0         0         0         0
         0         0         0         0         0         0         0         0
         0         0         0         0         0         0         0         0
         0         0         0         0         0         0         0         0
         0         0         0         0         0         0         0         0
         0         0         0         0         0         0         0         0
         0         0         0         0         0         0         0         0
         0         0         0         0         0         0         0         0
         0         0         0         0         0         0         0         0
         0         0         0         0         0         0         0         0
         0         0         0         0         0         0         0         0
         0         0         0         0         0         0         0         0
         0         0         0         0         0         0         0         0
         0         0         0         0         0         0         0         0
         0         0         0         0         0         0         0         0
         0         0         0         0         0         0         0         0
         0         0         0         0         0         0         0         0
         0         0         0         0         0         0         0         0
         0         0         0         0         0         0         0         0
         0         0         0         0         0         0         0         0
         0         0         0         0         0         0         0         0
         0         0         0         0         0         0         0         0
         0         0         0         0         0         0         0         0
         0         0         0         0         0         0         0         0
         0         0         0         0         0         0         0         0
         0         0         0         0         0         0         0         0
         0         0         0         0         0         0         0         0
         0         0         0         0         0         0         0         0
         0         0         0         0         0         0         0         0
         0         0         0         0         0         0         0         0
         0         0         0         0         0         0         0         0
         0         0         0         0         0         0         0         0
         0         0         0         0         0         0         0         0
         0         0         0         0         0         0         0         0
         0         0         0         0         0         0         0         0
         0         0         0         0         0         0         0         0
         0         0         0         0         0         0         0         0
         0         0         0         0         0         0         0         0
         0         0         0         0         0         0         0         0
         0         0         0         0         0         0         0         0
         0         0         0         0         0         0         0         0
         0         0         0         0         0         0         0         0
         0         0         0         0         0         0         0         0
         0         0         0         0         0         0         0         0
         0         0         0         0         0         0         0         0
         0         0         0         0         0         0         0         0
         0         0         0         0         0         0         0         0
         0         0         0         0         0         0         0         0
         0         0         0         0         0         0         0         0
         0         0         0         0         0         0         0         0
         0         0         0         0         0         0         0         0
         0         0         0         0         0         0         0         0
         0         0         0         0         0         0         0         0
         0         0         0         0         0         0         0         0
         0         0         0         0         0         0         0         0
         0         0         0         0         0         0         0         0
         0         0         0         0         0         0         0         0
         0         0         0         0         0         0         0         0
         0         0         0         0         0         0         0         0
         0         0         0         0         0         0         0         0
         0         0         0         0         0         0         0         0
         0         0         0         0         0         0         0         0
         0         0         0         0         0         0         0         0
         0         0         0         0         0         0         0         0
         0         0         0         0         0         0         0         0
         0         0         0         0         0         0         0         0
         0         0         0         0         0         0         0         0
         0         0         0         0         0         0         0         0
         0         0         0         0         0         0         0         0
         0         0         0         0         0         0         0         0
         0         0         0         0         0         0         0         0
         0         0         0         0         0         0         0         0
         0         0         0         0         0         0         0         0
         0         0         0         0         0         0         0         0
         0         0         0         0         0         0         0         0
         0         0         0         0         0         0         0         0
         0         0         0         0         0         0         0         0
         0         0         0         0         0         0         0         0
         0         0         0         0         0         0         0         0
         0         0         0         0         0         0         0         0
         0         0         0         0         0         0         0         0
         0         0         0         0         0         0         0         0
         0         0         0         0         0         0         0         0
         0         0         0         0         0         0         0         0
         0         0         0         0         0         0         0         0
         0         0         0         0         0         0         0         0
         0         0         0         0         0         0         0         0
         0         0         0         0         0         0         0         0
         0         0         0         0         0         0         0         0
         0         0         0         0         0         0         0         0
         0         0         0         0         0         0         0         0
         0         0         0         0         0         0         0         0
         0         0         0         0         0         0         0         0
         0         0         0         0         0         0         0         0
         0         0         0         0         0         0         0         0
         0         0         0         0         0         0         0         0
         0         0         0         0         0         0         0         0
         0         0         0         0         0         0         0         0
         0         0         0         0         0         0         0         0
         0         0         0         0         0         0         0         0
         0         0         0         0         0         0         0         0
         0         0         0         0         0         0         0         0
         0         0         0         0         0         0         0         0
         0         0         0         0         0         0         0         0
         0         0         0         0         0         0         0         0
         0         0         0         0         0         0         0         0
         0         0         0         0         0         0         0         0
         0         0         0         0         0         0         0         0
         0         0         0         0         0         0         0         0
         0         0         0         0         0         0         0         0
         0         0         0         0         0         0         0         0
         0         0         0         0         0         0         0         0
         0         0         0         0         0         0         0         0
         0         0         0         0         0         0         0         0
         0         0         0         0         0         0         0         0
         0         0         0         0         0         0         0         0
         0         0         0         0         0         0         0         0
         0         0         0         0         0         0         0         0
         0         0         0         0         0         0         0         0
         0         0         0         0         0         0         0         0
         0         0         0         0         0         0         0         0
         0         0         0         0         0         0         0         0
         0         0         0         0         0         0         0         0
         0         0         0         0         0         0         0         0
         0         0         0         0         0         0         0         0
         0         0         0         0         0         0         0         0
         0         0         0         0         0         0         0         0
         0         0         0         0         0         0         0         0
         0         0         0         0         0         0         0         0
         0         0         0         0         0         0         0         0
         0         0         0         0         0         0         0         0
         0         0         0         0         0         0         0         0
         0         0         0         0         0         0         0         0
         0         0         0         0         0         0         0         0
         0         0         0         0         0         0         0         0
         0         0         0         0         0         0         0         0
         0         0         0         0         0         0         0         0
         0         0         0         0         0         0         0         0
         0         0         0         0         0         0         0         0
         0         0         0         0         0         0         0         0
         0         0         0         0         0         0         0         0
         0         0         0         0         0         0         0         0
         0         0         0         0         0         0         0         0
         0         0         0         0         0         0         0         0
         0         0         0         0         0         0         0         0
         0         0         0         0         0         0         0         0
         0         0         0         0         0         0         0         0
         0         0         0         0         0         0         0         0
         0         0         0         0         0         0         0         0
         0         0         0         0         0         0         0         0
         0         0         0         0         0         0         0         0
         0         0         0         0         0         0         0         0
         0         0         0         0         0         0         0         0
         0         0         0         0         0         0         0         0
         0         0         0         0         0         0         0         0
         0         0         0         0         0         0         0         0
         0         0         0         0         0         0         0         0
         0         0         0         0         0         0         0         0
         0         0         0         0         0         0         0         0
         0         0         0         0         0         0         0         0
         0         0         0         0         0         0         0         0
         0         0         0         0         0         0         0         0
         0         0         0         0         0         0         0         0
         0         0         0         0         0         0         0         0
         0         0         0         0         0         0         0         0
         0         0         0         0         0         0         0         0
         0         0         0         0         0         0         0         0
         0         0         0         0         0         0         0         0
         0         0         0         0         0         0         0         0
         0         0         0         0         0         0         0         0
         0         0         0         0         0         0         0         0
         0         0         0         0         0         0         0         0
         0         0         0         0         0         0         0         0
         0         0         0         0         0         0         0         0
         0         0         0         0         0         0         0         0
         0         0         0         0         0         0         0         0
         0         0         0         0         0         0         0         0
         0         0         0         0         0         0         0         0
         0         0         0         0         0         0         0         0
         0         0         0         0         0         0         0         0
         0         0         0         0         0         0         0         0
         0         0         0         0         0         0         0         0
         0         0         0         0         0         0         0         0
         0         0         0         0         0         0         0         0
         0         0         0         0         0         0         0         0
         0         0         0         0         0         0         0         0
         0         0         0         0         0         0         0         0
         0         0         0         0         0         0         0         0
         0         0         0         0         0         0         0         0
         0         0         0         0         0         0         0         0
         0         0         0         0         0         0         0         0
         0         0         0         0         0         0         0         0
         0         0         0         0         0         0         0         0
         0         0         0         0         0         0         0         0
         0         0         0         0         0         0         0         0
         0         0         0         0         0         0         0         0
         0         0         0         0         0         0         0         0
         0         0         0         0         0         0         0         0
         0         0         0         0         0         0         0         0
         0         0         0         0         0         0         0         0
         0         0         0         0         0         0         0         0
         0         0         0         0         0         0         0         0
         0         0         0         0         0         0         0         0
         0         0         0         0         0         0         0         0
         0         0         0         0         0         0         0         0
         0         0         0         0         0         0         0         0
         0         0         0         0         0         0         0         0
         0         0         0         0         0         0         0         0
         0         0         0         0         0         0         0         0
         0         0         0         0         0         0         0         0
         0         0         0         0         0         0         0         0
         0         0         0         0         0         0         0         0
         0         0         0         0         0         0         0         0
         0         0         0         0         0         0         0         0
         0         0         0         0         0         0         0         0
         0         0         0         0         0         0         0         0
         0         0         0         0         0         0         0         0
         0         0         0         0         0         0         0         0
         0         0         0         0         0         0         0         0
         0         0         0         0         0         0         0         0
         0         0         0         0         0         0         0         0
         0         0         0         0         0         0         0         0
         0         0         0         0         0         0         0         0
         0         0         0         0         0         0         0         0
         0         0         0         0         0         0         0         0
         0         0         0         0         0         0         0         0
         0         0         0         0         0         0         0         0
         0         0         0         0         0         0         0         0
         0         0         0         0         0         0         0         0
         0         0         0         0         0         0         0         0
         0         0         0         0         0         0         0         0
         0         0         0         0         0         0         0         0
         0         0         0         0         0         0         0         0
         0         0         0         0         0         0         0         0
         0         0         0         0         0         0         0         0
         0         0         0         0         0         0         0         0
         0         0         0         0         0         0         0         0
         0         0         0         0         0         0         0         0
         0         0         0         0         0         0         0         0
         0         0         0         0         0         0         0         0
         0         0         0         0         0         0         0         0
         0         0         0         0         0         0         0         0
         0         0         0         0         0         0         0         0
         0         0         0         0         0         0         0         0
         0         0         0         0         0         0         0         0
         0         0         0         0         0         0         0         0
         0         0         0         0         0         0         0         0
         0         0         0         0         0         0         0         0
         0         0         0         0         0         0         0         0
         0         0         0         0         0         0         0         0
         0         0         0         0         0         0         0         0
         0         0         0         0         0         0         0         0
         0         0         0         0         0         0         0         0
         0         0         0         0         0         0         0         0
         0         0         0         0         0         0         0         0
         0         0         0         0         0         0         0         0
         0         0         0         0         0         0         0         0
         0         0         0         0         0         0         0         0
         0         0         0         0         0         0         0         0
         0         0         0         0         0         0         0         0
         0         0         0         0         0         0         0         0
         0         0         0         0         0         0         0         0
         0         0         0         0         0         0         0         0
         0         0         0         0         0         0         0         0
         0         0         0         0         0         0         0         0
         0         0         0         0         0         0         0         0
         0         0         0         0         0         0         0         0
         0         0         0         0         0         0         0         0
         0         0         0         0         0         0         0         0
         0         0         0         0         0         0         0         0
         0         0         0         0         0         0         0         0
         0         0         0         0         0         0         0         0
         0         0         0         0         0         0         0         0
         0         0         0         0         0         0         0         0
         0         0         0         0         0         0         0         0
         0         0         0         0         0         0         0         0
         0         0         0         0         0         0         0         0
         0         0         0         0         0         0         0         0
         0         0         0         0         0         0         0         0
         0         0         0         0         0         0         0         0
         0         0         0         0         0         0         0         0
         0         0         0         0         0         0         0         0
         0         0         0         0         0         0         0         0
         0         0         0         0         0         0         0         0
         0         0         0         0         0         0         0         0
         0         0         0         0         0         0         0         0
         0         0         0         0         0         0         0         0
         0         0         0         0         0         0         0         0
         0         0         0         0         0         0         0         0
         0         0         0         0         0         0         0         0
         0         0         0         0         0         0         0         0
         0         0         0         0         0         0         0         0
         0         0         0         0         0         0         0         0
         0         0         0         0         0         0         0         0
         0         0         0         0         0         0         0         0
         0         0         0         0         0         0         0         0
         0         0         0         0         0         0         0         0
         0         0         0         0         0         0         0         0
         0         0         0         0         0         0         0         0
         0         0         0         0         0         0         0         0
         0         0         0         0         0         0         0         0
         0         0         0         0         0         0         0         0
         0         0         0         0         0         0         0         0
         0         0         0         0         0         0         0         0
         0         0         0         0         0         0         0         0
         0         0         0         0         0         0         0         0
         0         0         0         0         0         0         0         0
         0         0         0         0         0         0         0         0
         0         0         0         0         0         0         0         0
         0         0         0         0         0         0         0         0
         0         0         0         0         0         0         0         0
         0         0         0         0         0         0         0         0
         0         0         0         0         0         0         0         0
         0         0         0         0         0         0         0         0
         0         0         0         0         0         0         0         0
         0         0         0         0         0         0         0         0
         0         0         0         0         0         0         0         0
         0         0         0         0         0         0         0         0
         0         0         0         0         0         0         0         0
         0         0         0         0         0         0         0         0
         0         0         0         0         0         0         0         0
         0         0         0         0         0         0         0         0
         0         0         0         0         0         0         0         0
         0         0         0         0         0         0         0         0
         0         0         0         0         0         0         0         0
         0         0         0         0         0         0         0         0
         0         0         0         0         0         0         0         0
         0         0         0         0         0         0         0         0
         0         0         0         0         0         0         0         0
         0         0         0         0         0         0         0         0
         0         0         0         0         0         0         0         0
         0         0         0         0         0         0         0         0
         0         0         0         0         0         0         0         0
         0         0         0         0         0         0         0         0
         0         0         0         0         0         0         0         0
         0         0         0         0         0         0         0         0
         0         0         0         0         0         0         0         0
         0         0         0         0         0         0         0         0
         0         0         0         0         0         0         0         0
         0         0         0         0         0         0         0         0
         0         0         0         0         0         0         0         0
         0         0         0         0         0         0         0         0
         0         0         0         0         0         0         0         0
         0         0         0         0         0         0         0         0
         0         0         0         0         0         0         0         0
         0         0         0         0         0         0         0         0
         0         0         0         0         0         0         0         0
         0         0         0         0         0         0         0         0
         0         0         0         0         0         0         0         0
         0         0         0         0         0         0         0         0
         0         0         0         0         0         0         0         0
         0         0         0         0         0         0         0         0
         0         0         0         0         0         0         0         0
         0         0         0         0         0         0         0         0
         0         0         0         0         0         0         0         0
         0         0         0         0         0         0         0         0
         0         0         0         0         0         0         0         0
         0         0         0         0         0         0         0         0
         0         0         0         0         0         0         0         0
         0         0         0         0         0         0         0         0
         0         0         0         0         0         0         0         0
         0         0         0         0         0         0         0         0
         0         0         0         0         0         0         0         0
         0         0         0         0         0         0         0         0
         0         0         0         0         0         0         0         0
         0         0         0         0         0         0         0         0
         0         0         0         0         0         0         0         0
         0         0         0         0         0         0         0         0
         0         0         0         0         0         0         0         0
         0         0         0         0         0         0         0         0
         0         0         0         0         0         0         0         0
         0         0         0         0         0         0         0         0
         0         0         0         0         0         0         0         0
         0         0         0         0         0         0         0         0
         0         0         0         0         0         0         0         0
         0         0         0         0         0         0         0         0
         0         0         0         0         0         0         0         0
         0         0         0         0         0         0         0         0
         0         0         0         0         0         0         0         0
         0         0         0         0         0         0         0         0
         0         0         0         0         0         0         0         0
         0         0         0         0         0         0         0         0
         0         0         0         0         0         0         0         0
         0         0         0         0         0         0         0         0
         0         0         0         0         0         0         0         0
         0         0         0         0         0         0         0         0
         0         0         0         0         0         0         0         0
         0         0         0         0         0         0         0         0
         0         0         0         0         0         0         0         0
         0         0         0         0         0         0         0         0
         0         0         0         0         0         0         0         0
         0         0         0         0         0         0         0         0
         0         0         0         0         0         0         0         0
         0         0         0         0         0         0         0         0
         0         0         0         0         0         0         0         0
         0         0         0         0         0         0         0         0
         0         0         0         0         0         0         0         0
         0         0         0         0         0         0         0         0
         0         0         0         0         0         0         0         0
         0         0         0         0         0         0         0         0
         0         0         0         0         0         0         0         0
         0         0         0         0         0         0         0         0
         0         0         0         0         0         0         0         0
         0         0         0         0         0         0         0         0
         0         0         0         0         0         0         0         0
         0         0         0         0         0         0         0         0
         0         0         0         0         0         0         0         0
         0         0         0         0         0         0         0         0
         0         0         0         0         0         0         0         0
         0         0         0         0         0         0         0         0
         0         0         0         0         0         0         0         0
         0         0         0         0         0         0         0         0
         0         0         0         0         0         0         0         0
         0         0         0         0         0         0         0         0
         0         0         0         0         0         0         0         0
         0         0         0         0         0         0         0         0
         0         0         0         0         0         0         0         0
         0         0         0         0         0         0         0         0
         0         0         0         0         0         0         0         0
         0         0         0         0         0         0         0         0
         0         0         0         0         0         0         0         0
         0         0         0         0         0         0         0         0
         0         0         0         0         0         0         0         0
         0         0         0         0         0         0         0         0
         0         0         0         0         0         0         0         0
         0         0         0         0         0         0         0         0
         0         0         0         0         0         0         0         0
         0         0         0         0         0         0         0         0
         0         0         0         0         0         0         0         0
         0         0         0         0         0         0         0         0
         0         0         0         0         0         0         0         0
         0         0         0         0         0         0         0         0
         0         0         0         0         0         0         0         0
         0         0         0         0         0         0         0         0
         0         0         0         0         0         0         0         0
         0         0         0         0         0         0         0         0
         0         0         0         0         0         0         0         0
         0         0         0         0         0         0         0         0
         0         0         0         0         0         0         0         0
         0         0         0         0         0         0         0         0
         0         0         0         0         0         0         0         0
         0         0         0         0         0         0         0         0
         0         0         0         0         0         0         0         0
         0         0         0         0         0         0         0         0
         0         0         0         0         0         0         0         0
         0         0         0         0         0         0         0         0
         0         0         0         0         0         0         0         0
         0         0         0         0         0         0         0         0
         0         0         0         0         0         0         0         0
         0         0         0         0         0         0         0         0
         0         0         0         0         0         0         0         0
         0         0         0         0         0         0         0         0
         0         0         0         0         0         0         0         0
         0         0         0         0         0         0         0         0
         0         0         0         0         0         0         0         0
         0         0         0         0         0         0         0         0
         0         0         0         0         0         0         0         0
         0         0         0         0         0         0         0         0
         0         0         0         0         0         0         0         0
         0         0         0         0         0         0         0         0
         0         0         0         0         0         0         0         0
         0         0         0         0         0         0         0         0
         0         0         0         0         0         0         0         0
         0         0         0         0         0         0         0         0
         0         0         0         0         0         0         0         0
         0         0         0         0         0         0         0         0
         0         0         0         0         0         0         0         0
         0         0         0         0         0         0         0         0
         0         0         0         0         0         0         0         0
         0         0         0         0         0         0         0         0
         0         0         0         0         0         0         0         0
         0         0         0         0         0         0         0         0
         0         0         0         0         0         0         0         0
         0         0         0         0         0         0         0         0
         0         0         0         0         0         0         0         0
         0         0         0         0         0         0         0         0
         0         0         0         0         0         0         0         0
         0         0         0         0         0         0         0         0
         0         0         0         0         0         0         0         0
         0         0         0         0         0         0         0         0
         0         0         0         0         0         0         0         0
         0         0         0         0         0         0         0         0
         0         0         0         0         0         0         0         0
         0         0         0         0         0         0         0         0
         0         0         0         0         0         0         0         0
         0         0         0         0         0         0         0         0
         0         0         0         0         0         0         0         0
         0         0         0         0         0         0         0         0
         0         0         0         0         0         0         0         0
         0         0         0         0         0         0         0         0
         0         0         0         0         0         0         0         0
         0         0         0         0         0         0         0         0
         0         0         0         0         0         0         0         0
         0         0         0         0         0         0         0         0
         0         0         0         0         0         0         0         0
         0         0         0         0         0         0         0         0
         0         0         0         0         0         0         0         0
         0         0         0         0         0         0         0         0
         0         0         0         0         0         0         0         0
         0         0         0         0         0         0         0         0
         0         0         0         0         0         0         0         0
         0         0         0         0         0         0         0         0
         0         0         0         0         0         0         0         0
         0         0         0         0         0         0         0         0
         0         0         0         0         0         0         0         0
         0         0         0         0         0         0         0         0
         0         0         0         0         0         0         0         0
         0         0         0         0         0         0         0         0
         0         0         0         0         0         0         0         0
         0         0         0         0         0         0         0         0
         0         0         0         0         0         0         0         0
         0         0         0         0         0         0         0         0
         0         0         0         0         0         0         0         0
         0         0         0         0         0         0         0         0
         0         0         0         0         0         0         0         0
         0         0         0         0         0         0         0         0
         0         0         0         0         0         0         0         0
         0         0         0         0         0         0         0         0
         0         0         0         0         0         0         0         0
         0         0         0         0         0         0         0         0
         0         0         0         0         0         0         0         0
         0         0         0         0         0         0         0         0
         0         0         0         0         0         0         0         0
         0         0         0         0         0         0         0         0
         0         0         0         0         0         0         0         0
         0         0         0         0         0         0         0         0
         0         0         0         0         0         0         0         0
         0         0         0         0         0         0         0         0
         0         0         0         0         0         0         0         0
         0         0         0         0         0         0         0         0
         0         0         0         0         0         0         0         0
         0         0         0         0         0         0         0         0
         0         0         0         0         0         0         0         0
         0         0         0         0         0         0         0         0
         0         0         0         0         0         0         0         0
         0         0         0         0         0         0         0         0
         0         0         0         0         0         0         0         0
         0         0         0         0         0         0         0         0
         0         0         0         0         0         0         0         0
         0         0         0         0         0         0         0         0
         0         0         0         0         0         0         0         0
         0         0         0         0         0         0         0         0
         0         0         0         0         0         0         0         0
         0         0         0         0         0         0         0         0
         0         0         0         0         0         0         0         0
         0         0         0         0         0         0         0         0
         0         0         0         0         0         0         0         0
         0         0         0         0         0         0         0         0
         0         0         0         0         0         0         0         0
         0         0         0         0         0         0         0         0
         0         0         0         0         0         0         0         0
         0         0         0         0         0         0         0         0
         0         0         0         0         0         0         0         0
         0         0         0         0         0         0         0         0
         0         0         0         0         0         0         0         0
         0         0         0         0         0         0         0         0
         0         0         0         0         0         0         0         0
         0         0         0         0         0         0         0         0
         0         0         0         0         0         0         0         0
         0         0         0         0         0         0         0         0
         0         0         0         0         0         0         0         0
         0         0         0         0         0         0         0         0
         0         0         0         0         0         0         0         0
         0         0         0         0         0         0         0         0
         0         0         0         0         0         0         0         0
         0         0         0         0         0         0         0         0
         0         0         0         0         0         0         0         0
         0         0         0         0         0         0         0         0
         0         0         0         0         0         0         0         0
         0         0         0         0         0         0         0         0
         0         0         0         0         0         0         0         0
         0         0         0         0         0         0         0         0
         0         0         0         0         0         0         0         0
         0         0         0         0         0         0         0         0
         0         0         0         0         0         0         0         0
         0         0         0         0         0         0         0         0
         0         0         0         0         0         0         0         0
         0         0         0         0         0         0         0         0
         0         0         0         0         0         0         0         0
         0         0         0         0         0         0         0         0
         0         0         0         0         0         0         0         0
         0         0         0         0         0         0         0         0
         0         0         0         0         0         0         0         0
         0         0         0         0         0         0         0         0
         0         0         0         0         0         0         0         0
         0         0         0         0         0         0         0         0
         0         0         0         0         0         0         0         0
         0         0         0         0         0         0         0         0
         0         0         0         0         0         0         0         0
         0         0         0         0         0         0         0         0
         0         0         0         0         0         0         0         0
         0         0         0         0         0         0         0         0
         0         0         0         0         0         0         0         0
         0         0         0         0         0         0         0         0
         0         0         0         0         0         0         0         0
         0         0         0         0         0         0         0         0
         0         0         0         0         0         0         0         0
         0         0         0         0         0         0         0         0
         0         0         0         0         0         0         0         0
         0         0         0         0         0         0         0         0
         0         0         0         0         0         0         0         0
         0         0         0         0         0         0         0         0
         0         0         0         0         0         0         0         0
         0         0         0         0         0         0         0         0
         0         0         0         0         0         0         0         0
         0         0         0         0         0         0         0         0
         0         0         0         0         0         0         0         0
         0         0         0         0         0         0         0         0
         0         0         0         0         0         0         0         0
         0         0         0         0         0         0         0         0
         0         0         0         0         0         0         0         0
         0         0         0         0         0         0         0         0
         0         0         0         0         0         0         0         0
         0         0         0         0         0         0         0         0
         0         0         0         0         0         0         0         0
         0         0         0         0         0         0         0         0
         0         0         0         0         0         0         0         0
         0         0         0         0         0         0         0         0
         0         0         0         0         0         0         0         0
         0         0         0         0         0         0         0         0
         0         0         0         0         0         0         0         0
         0         0         0         0         0         0         0         0
         0         0         0         0         0         0         0         0
         0         0         0         0         0         0         0         0
         0         0         0         0         0         0         0         0
         0         0         0         0         0         0         0         0
         0         0         0         0         0         0         0         0
         0         0         0         0         0         0         0         0
         0         0         0         0         0         0         0         0
         0         0         0         0         0         0         0         0
         0         0         0         0         0         0         0         0
         0         0         0         0         0         0         0         0
         0         0         0         0         0         0         0         0
         0         0         0         0         0         0         0         0
         0         0         0         0         0         0         0         0
         0         0         0         0         0         0         0         0
         0         0         0         0         0         0         0         0
         0         0         0         0         0         0         0         0
         0         0         0         0         0         0         0         0
         0         0         0         0         0         0         0         0
         0         0         0         0         0         0         0         0
         0         0         0         0         0         0         0         0
         0         0         0         0         0         0         0         0
         0         0         0         0         0         0         0         0
         0         0         0         0         0         0         0         0
         0         0         0         0         0         0         0         0
         0         0         0         0         0         0         0         0
         0         0         0         0         0         0         0         0
         0         0         0         0         0         0         0         0
         0         0         0         0         0         0         0         0
         0         0         0         0         0         0         0         0
         0         0         0         0         0         0         0         0
         0         0         0         0         0         0         0         0
         0         0         0         0         0         0         0         0
         0         0         0         0         0         0         0         0
         0         0         0         0         0         0         0         0
         0         0         0         0         0         0         0         0
         0         0         0         0         0         0         0         0
         0         0         0         0         0         0         0         0
         0         0         0         0         0         0         0         0
         0         0         0         0         0         0         0         0
         0         0         0         0         0         0         0         0
         0         0         0         0         0         0         0         0
         0         0         0         0         0         0         0         0
         0         0         0         0         0         0         0         0
         0         0         0         0         0         0         0         0
         0         0         0         0         0         0         0         0
         0         0         0         0         0         0         0         0
         0         0         0         0         0         0         0         0
         0         0         0         0         0         0         0         0
         0         0         0         0         0         0         0         0
         0         0         0         0         0         0         0         0
         0         0         0         0         0         0         0         0
         0         0         0         0         0         0         0         0
         0         0         0         0         0         0         0         0
         0         0         0         0         0         0         0         0
         0         0         0         0         0         0         0         0
         0         0         0         0         0         0         0         0
         0         0         0         0         0         0         0         0
         0         0         0         0         0         0         0         0
         0         0         0         0         0         0         0         0
         0         0         0         0         0         0         0         0
         0         0         0         0         0         0         0         0
         0         0         0         0         0         0         0         0
         0         0         0         0         0         0         0         0
         0         0         0         0         0         0         0         0
         0         0         0         0         0         0         0         0
         0         0         0         0         0         0         0         0
         0         0         0         0         0         0         0         0
         0         0         0         0         0         0         0         0
         0         0         0         0         0         0         0         0
         0         0         0         0         0         0         0         0
         0         0         0         0         0         0         0         0
         0         0         0         0         0         0         0         0
         0         0         0         0         0         0         0         0
         0         0         0         0         0         0         0         0
         0         0         0         0         0         0         0         0
         0         0         0         0         0         0         0         0
         0         0         0         0         0         0         0         0
         0         0         0         0         0         0         0         0
         0         0         0         0         0         0         0         0
         0         0         0         0         0         0         0         0
         0         0         0         0         0         0         0         0
         0         0         0         0         0         0         0         0
         0         0         0         0         0         0         0         0
         0         0         0         0         0         0         0         0
         0         0         0         0         0         0         0         0
         0         0         0         0         0         0         0         0
         0         0         0         0         0         0         0         0
         0         0         0         0         0         0         0         0
         0         0         0         0         0         0         0         0
         0         0         0         0         0         0         0         0
         0         0         0         0         0         0         0         0
         0         0         0         0         0         0         0         0
         0         0         0         0         0         0         0         0
         0         0         0         0         0         0         0         0
         0         0         0         0         0         0         0         0
         0         0         0         0         0         0         0         0
         0         0         0         0         0         0         0         0
         0         0         0         0         0         0         0         0
         0         0         0         0         0         0         0         0
         0         0         0         0         0         0         0         0
         0         0         0         0         0         0         0         0
         0         0         0         0         0         0         0         0
         0         0         0         0         0         0         0         0
         0         0         0         0         0         0         0         0
         0         0         0         0         0         0         0         0
         0         0         0         0         0         0         0         0
         0         0         0         0         0         0         0         0
         0         0         0         0         0         0         0         0
         0         0         0         0         0         0         0         0
         0         0         0         0         0         0         0         0
         0         0         0         0         0         0         0         0
         0         0         0         0         0         0         0         0
         0         0         0         0         0         0         0         0
         0         0         0         0         0         0         0         0
         0         0         0         0         0         0         0         0
         0         0         0         0         0         0         0         0
         0         0         0         0         0         0         0         0
         0         0         0         0         0         0         0         0
         0         0         0         0         0         0         0         0
         0         0         0         0         0         0         0         0
         0         0         0         0         0         0         0         0
         0         0         0         0         0         0         0         0
         0         0         0         0         0         0         0         0
         0         0         0         0         0         0         0         0
         0         0         0         0         0         0         0         0
         0         0         0         0         0         0         0         0
         0         0         0         0         0         0         0         0
         0         0         0         0         0         0         0         0
         0         0         0         0         0         0         0         0
         0         0         0         0         0         0         0         0
         0         0         0         0         0         0         0         0
         0         0         0         0         0         0         0         0
         0         0         0         0         0         0         0         0
         0         0         0         0         0         0         0         0
         0         0         0         0         0         0         0         0
         0         0         0         0         0         0         0         0
         0         0         0         0         0         0         0         0
         0         0         0         0         0         0         0         0
         0         0         0         0         0         0         0         0
         0         0         0         0         0         0         0         0
         0         0         0         0         0         0         0         0
         0         0         0         0         0         0         0         0
         0         0         0         0         0         0         0         0
         0         0         0         0         0         0         0         0
         0         0         0         0         0         0         0         0
         0         0         0         0         0         0         0         0
         0         0         0         0         0         0         0         0
         0         0         0         0         0         0         0         0
         0         0         0         0         0         0         0         0
         0         0         0         0         0         0         0         0
         0         0         0         0         0         0         0         0
         0         0         0         0         0         0         0         0
         0         0         0         0         0         0         0         0
         0         0         0         0         0         0         0         0
         0         0         0         0         0         0         0         0
         0         0         0         0         0         0         0         0
         0         0         0         0         0         0         0         0
         0         0         0         0         0         0         0         0
         0         0         0         0         0         0         0         0
         0         0         0         0         0         0         0         0
         0         0         0         0         0         0         0         0
         0         0         0         0         0         0         0         0
         0         0         0         0         0         0         0         0
         0         0         0         0         0         0         0         0
         0         0         0         0         0         0         0         0
         0         0         0         0         0         0         0         0
         0         0         0         0         0         0         0         0
         0         0         0         0         0         0         0         0
         0         0         0         0         0         0         0         0
         0         0         0         0         0         0         0         0
         0         0         0         0         0         0         0         0
         0         0         0         0         0         0         0         0
         0         0         0         0         0         0         0         0
         0         0         0         0         0         0         0         0
         0         0         0         0         0         0         0         0
         0         0         0         0         0         0         0         0
         0         0         0         0         0         0         0         0
         0         0         0         0         0         0         0         0
         0         0         0         0         0         0         0         0
         0         0         0         0         0         0         0         0
         0         0         0         0         0         0         0         0
         0         0         0         0         0         0         0         0
         0         0         0         0         0         0         0         0
         0         0         0         0         0         0         0         0
         0         0         0         0         0         0         0         0
         0         0         0         0         0         0         0         0
         0         0         0         0         0         0         0         0
         0         0         0         0         0         0         0         0
         0         0         0         0         0         0         0         0
         0         0         0         0         0         0         0         0
         0         0         0         0         0         0         0         0
         0         0         0         0         0         0         0         0
         0         0         0         0         0         0         0         0
         0         0         0         0         0         0         0         0
         0         0         0         0         0         0         0         0
         0         0         0         0         0         0         0         0
         0         0         0         0         0         0         0         0
         0         0         0         0         0         0         0         0
         0         0         0         0         0         0         0         0
         0         0         0         0         0         0         0         0
         0         0         0         0         0         0         0         0
         0         0         0         0         0         0         0         0
         0         0         0         0         0         0         0         0
         0         0         0         0         0         0         0         0
         0         0         0         0         0         0         0         0
         0         0         0         0         0         0         0         0
         0         0         0         0         0         0         0         0
         0         0         0         0         0         0         0         0
         0         0         0         0         0         0         0         0
         0         0         0         0         0         0         0         0
         0         0         0         0         0         0         0         0
         0         0         0         0         0         0         0         0
         0         0         0         0         0         0         0         0
         0         0         0         0         0         0         0         0
         0         0         0         0         0         0         0         0
         0         0         0         0         0         0         0         0
         0         0         0         0         0         0         0         0
         0         0         0         0         0         0         0         0
         0         0         0         0         0         0         0         0
         0         0         0         0         0         0         0         0
         0         0         0         0         0         0         0         0
         0         0         0         0         0         0         0         0
         0         0         0         0         0         0         0         0
         0         0         0         0         0         0         0         0
         0         0         0         0         0         0         0         0
         0         0         0         0         0         0         0         0
         0         0         0         0         0         0         0         0
         0         0         0         0         0         0         0         0
         0         0         0         0         0         0         0         0
         0         0         0         0         0         0         0         0
         0         0         0         0         0         0         0         0
         0         0         0         0         0         0         0         0
         0         0         0         0         0         0         0         0
         0         0         0         0         0         0         0         0
         0         0         0         0         0         0         0         0
         0         0         0         0         0         0         0         0
         0         0         0         0         0         0         0         0
         0         0         0         0         0         0         0         0
         0         0         0         0         0         0         0         0
         0         0         0         0         0         0         0         0
         0         0         0         0         0         0         0         0
         0         0         0         0         0         0         0         0
         0         0         0         0         0         0         0         0
         0         0         0         0         0         0         0         0
         0         0         0         0         0         0         0         0
         0         0         0         0         0         0         0         0
         0         0         0         0         0         0         0         0
         0         0         0         0         0         0         0         0
         0         0         0         0         0         0         0         0
         0         0         0         0         0         0         0         0
         0         0         0         0         0         0         0         0
         0         0         0         0         0         0         0         0
         0         0         0         0         0         0         0         0
         0         0         0         0         0         0         0         0
         0         0         0         0         0         0         0         0
         0         0         0         0         0         0         0         0
         0         0         0         0         0         0         0         0
         0         0         0         0         0         0         0         0
         0         0         0         0         0         0         0         0
         0         0         0         0         0         0         0         0
         0         0         0         0         0         0         0         0
         0         0         0         0         0         0         0         0
         0         0         0         0         0         0         0         0
         0         0         0         0         0         0         0         0
         0         0         0         0         0         0         0         0
         0         0         0         0         0         0         0         0
         0         0         0         0         0         0         0         0
         0         0         0         0         0         0         0         0
         0         0         0         0         0         0         0         0
         0         0         0         0         0         0         0         0
         0         0         0         0         0         0         0         0
         0         0         0         0         0         0         0         0
         0         0         0         0         0         0         0         0
         0         0         0         0         0         0         0         0
         0         0         0         0         0         0         0         0
         0         0         0         0         0         0         0         0
         0         0         0         0         0         0         0         0
         0         0         0         0         0         0         0         0
         0         0         0         0         0         0         0         0
         0         0         0         0         0         0         0         0
         0         0         0         0         0         0         0         0
         0         0         0         0         0         0         0         0
         0         0         0         0         0         0         0         0
         0         0         0         0         0         0         0         0
         0         0         0         0         0         0         0         0
         0         0         0         0         0         0         0         0
         0         0         0         0         0         0         0         0
         0         0         0         0         0         0         0         0
         0         0         0         0         0         0         0         0
         0         0         0         0         0         0         0         0
         0         0         0         0         0         0         0         0
         0         0         0         0         0         0         0         0
         0         0         0         0         0         0         0         0
         0         0         0         0         0         0         0         0
         0         0         0         0         0         0         0         0
         0         0         0         0         0         0         0         0
         0         0         0         0         0         0         0         0
         0         0         0         0         0         0         0         0
         0         0         0         0         0         0         0         0
         0         0         0         0         0         0         0         0
         0         0         0         0         0         0         0         0
         0         0         0         0         0         0         0         0
         0         0         0         0         0         0         0         0
         0         0         0         0         0         0         0         0
         0         0         0         0         0         0         0         0
         0         0         0         0         0         0         0         0
         0         0         0         0         0         0         0         0
         0         0         0         0         0         0         0         0
         0         0         0         0         0         0         0         0
         0         0         0         0         0         0         0         0
         0         0         0         0         0         0         0         0
         0         0         0         0         0         0         0         0
         0         0         0         0         0         0         0         0
         0         0         0         0         0         0         0         0
         0         0         0         0         0         0         0         0
         0         0         0         0         0         0         0         0
         0         0         0         0         0         0         0         0
         0         0         0         0         0         0         0         0
         0         0         0         0         0         0         0         0
         0         0         0         0         0         0         0         0
         0         0         0         0         0         0         0         0
         0         0         0         0         0         0         0         0
         0         0         0         0         0         0         0         0
         0         0         0         0         0         0         0         0
         0         0         0         0         0         0         0         0
         0         0         0         0         0         0         0         0
         0         0         0         0         0         0         0         0
         0         0         0         0         0         0         0         0
         0         0         0         0         0         0         0         0
         0         0         0         0         0         0         0         0
         0         0         0         0         0         0         0         0
         0         0         0         0         0         0         0         0
         0         0         0         0         0         0         0         0
         0         0         0         0         0         0         0         0
         0         0         0         0         0         0         0         0
         0         0         0         0         0         0         0         0
         0         0         0         0         0         0         0         0
         0         0         0         0         0         0         0         0
         0         0         0         0         0         0         0         0
         0         0         0         0         0         0         0         0
         0         0         0         0         0         0         0         0
         0         0         0         0         0         0         0         0
         0         0         0         0         0         0         0         0
         0         0         0         0         0         0         0         0
         0         0         0         0         0         0         0         0
         0         0         0         0         0         0         0         0
         0         0         0         0         0         0         0         0
         0         0         0         0         0         0         0         0
         0         0         0         0         0         0         0         0
         0         0         0         0         0         0         0         0
         0         0         0         0         0         0         0         0
         0         0         0         0         0         0         0         0
         0         0         0         0         0         0         0         0
         0         0         0         0         0         0         0         0
         0         0         0         0         0         0         0         0
         0         0         0         0         0         0         0         0
         0         0         0         0         0         0         0         0
         0         0         0         0         0         0         0         0
         0         0         0         0         0         0         0         0
         0         0         0         0         0         0         0         0
         0         0         0         0         0         0         0         0
         0         0         0         0         0         0         0         0
         0         0         0         0         0         0         0         0
         0         0         0         0         0         0         0         0
         0         0         0         0         0         0         0         0
         0         0         0         0         0         0         0         0
         0         0         0         0         0         0         0         0
         0         0         0         0         0         0         0         0
         0         0         0         0         0         0         0         0
         0         0         0         0         0         0         0         0
         0         0         0         0         0         0         0         0
         0         0         0         0         0         0         0         0
         0         0         0         0         0         0         0         0
         0         0         0         0         0         0         0         0
         0         0         0         0         0         0         0         0
         0         0         0         0         0         0         0         0
         0         0         0         0         0         0         0         0
         0         0         0         0         0         0         0         0
         0         0         0         0         0         0         0         0
         0         0         0         0         0         0         0         0
         0         0         0         0         0         0         0         0
         0         0         0         0         0         0         0         0
         0         0         0         0         0         0         0         0
         0         0         0         0         0         0         0         0
         0         0         0         0         0         0         0         0
         0         0         0         0         0         0         0         0
         0         0         0         0         0         0         0         0
         0         0         0         0         0         0         0         0
         0         0         0         0         0         0         0         0
         0         0         0         0         0         0         0         0
         0         0         0         0         0         0         0         0
         0         0         0         0         0         0         0         0
         0         0         0         0         0         0         0         0
         0         0         0         0         0         0         0         0
         0         0         0         0         0         0         0         0
         0         0         0         0         0         0         0         0
         0         0         0         0         0         0         0         0
         0         0         0         0         0         0         0         0
         0         0         0         0         0         0         0         0
         0         0         0         0         0         0         0         0
         0         0         0         0         0         0         0         0
         0         0         0         0         0         0         0         0
         0         0         0         0         0         0         0         0
         0         0         0         0         0         0         0         0
         0         0         0         0         0         0         0         0
         0         0         0         0         0         0         0         0
         0         0         0         0         0         0         0         0
         0         0         0         0         0         0         0         0
         0         0         0         0         0         0         0         0
         0         0         0         0         0         0         0         0
         0         0         0         0         0         0         0         0
         0         0         0         0         0         0         0         0
         0         0         0         0         0         0         0         0
         0         0         0         0         0         0         0         0
         0         0         0         0         0         0         0         0
         0         0         0         0         0         0         0         0
         0         0         0         0         0         0         0         0
         0         0         0         0         0         0         0         0
         0         0         0         0         0         0         0         0
         0         0         0         0         0         0         0         0
         0         0         0         0         0         0         0         0
         0         0         0         0         0         0         0         0
         0         0         0         0         0         0         0         0
         0         0         0         0         0         0         0         0
         0         0         0         0         0         0         0         0
         0         0         0         0         0         0         0         0
         0         0         0         0         0         0         0         0
         0         0         0         0         0         0         0         0
         0         0         0         0         0         0         0         0
         0         0         0         0         0         0         0         0
         0         0         0         0         0         0         0         0
         0         0         0         0         0         0         0         0
         0         0         0         0         0         0         0         0
         0         0         0         0         0         0         0         0
         0         0         0         0         0         0         0         0
         0         0         0         0         0         0         0         0
         0         0         0         0         0         0         0         0
         0         0         0         0         0         0         0         0
         0         0         0         0         0         0         0         0
         0         0         0         0         0         0         0         0
         0         0         0         0         0         0         0         0
         0         0         0         0         0         0         0         0
         0         0         0         0         0         0         0         0
         0         0         0         0         0         0         0         0
         0         0         0         0         0         0         0         0
         0         0         0         0         0         0         0         0
         0         0         0         0         0         0         0         0
         0         0         0         0         0         0         0         0
         0         0         0         0         0         0         0         0
         0         0         0         0         0         0         0         0
         0         0         0         0         0         0         0         0
         0         0         0         0         0         0         0         0
         0         0         0         0         0         0         0         0
         0         0         0         0         0         0         0         0
         0         0         0         0         0         0         0         0
         0         0         0         0         0         0         0         0
         0         0         0         0         0         0         0         0
         0         0         0         0         0         0         0         0
         0         0         0         0         0         0         0         0
         0         0         0         0         0         0         0         0
         0         0         0         0         0         0         0         0
         0         0         0         0         0         0         0         0
         0         0         0         0         0         0         0         0
         0         0         0         0         0         0         0         0
         0         0         0         0         0         0         0         0
         0         0         0         0         0         0         0         0
         0         0         0         0         0         0         0         0
         0         0         0         0         0         0         0         0
         0         0         0         0         0         0         0         0
         0         0         0         0         0         0         0         0
         0         0         0         0         0         0         0         0
         0         0         0         0         0         0         0         0
         0         0         0         0         0         0         0         0
         0         0         0         0         0         0         0         0
         0         0         0         0         0         0         0         0
         0         0         0         0         0         0         0         0
         0         0         0         0         0         0         0         0
         0         0         0         0         0         0         0         0
         0         0         0         0         0         0         0         0
         0         0         0         0         0         0         0         0
         0         0         0         0         0         0         0         0
         0         0         0         0         0         0         0         0
         0         0         0         0         0         0         0         0
         0         0         0         0         0         0         0         0
         0         0         0         0         0         0         0         0
         0         0         0         0         0         0         0         0
         0         0         0         0         0         0         0         0
         0         0         0         0         0         0         0         0
         0         0         0         0         0         0         0         0
         0         0         0         0         0         0         0         0
         0         0         0         0         0         0         0         0
         0         0         0         0         0         0         0         0
         0         0         0         0         0         0         0         0
         0         0         0         0         0         0         0         0
         0         0         0         0         0         0         0         0
         0         0         0         0         0         0         0         0
         0         0         0         0         0         0         0         0
         0         0         0         0         0         0         0         0
         0         0         0         0         0         0         0         0
         0         0         0         0         0         0         0         0
         0         0         0         0         0         0         0         0
         0         0         0         0         0         0         0         0
         0         0         0         0         0         0         0         0
         0         0         0         0         0         0         0         0
         0         0         0         0         0         0         0         0
         0         0         0         0         0         0         0         0
         0         0         0         0         0         0         0         0
         0         0         0         0         0         0         0         0
         0         0         0         0         0         0         0         0
         0         0         0         0         0         0         0         0
         0         0         0         0         0         0         0         0
         0         0         0         0         0         0         0         0
         0         0         0         0         0         0         0         0
         0         0         0         0         0         0         0         0
         0         0         0         0         0         0         0         0
         0         0         0         0         0         0         0         0
         0         0         0         0         0         0         0         0
         0         0         0         0         0         0         0         0
         0         0         0         0         0         0         0         0
         0         0         0         0         0         0         0         0
         0         0         0         0         0         0         0         0
         0         0         0         0         0         0         0         0
         0         0         0         0         0         0         0         0
         0         0         0         0         0         0         0         0
         0         0         0         0         0         0         0         0
         0         0         0         0         0         0         0         0
         0         0         0         0         0         0         0         0
         0         0         0         0         0         0         0         0
         0         0         0         0         0         0         0         0
         0         0         0         0         0         0         0         0
         0         0         0         0         0         0         0         0
         0         0         0         0         0         0         0         0
         0         0         0         0         0         0         0         0
         0         0         0         0         0         0         0         0
         0         0         0         0         0         0         0         0
         0         0         0         0         0         0         0         0
         0         0         0         0         0         0         0         0
         0         0         0         0         0         0         0         0
         0         0         0         0         0         0         0         0
         0         0         0         0         0         0         0         0
         0         0         0         0         0         0         0         0
         0         0         0         0         0         0         0         0
         0         0         0         0         0         0         0         0
         0         0         0         0         0         0         0         0
         0         0         0         0         0         0         0         0
         0         0         0         0         0         0         0         0
         0         0         0         0         0         0         0         0
         0         0         0         0         0         0         0         0
         0         0         0         0         0         0         0         0
         0         0         0         0         0         0         0         0
         0         0         0         0         0         0         0         0
         0         0         0         0         0         0         0         0
         0         0         0         0         0         0         0         0
         0         0         0         0         0         0         0         0
         0         0         0         0         0         0         0         0
         0         0         0         0         0         0         0         0
         0         0         0         0         0         0         0         0
         0         0         0         0         0         0         0         0
         0         0         0         0         0         0         0         0
         0         0         0         0         0         0         0         0
         0         0         0         0         0         0         0         0
         0         0         0         0         0         0         0         0
         0         0         0         0         0         0         0         0
         0         0         0         0         0         0         0         0
         0         0         0         0         0         0         0         0
         0         0         0         0         0         0         0         0
         0         0         0         0         0         0         0         0
         0         0         0         0         0         0         0         0
         0         0         0         0         0         0         0         0
         0         0         0         0         0         0         0         0
         0         0         0         0         0         0         0         0
         0         0         0         0         0         0         0         0
         0         0         0         0         0         0         0         0
         0         0         0         0         0         0         0         0
         0         0         0         0         0         0         0         0
         0         0         0         0         0         0         0         0
         0         0         0         0         0         0         0         0
         0         0         0         0         0         0         0         0
         0         0         0         0         0         0         0         0
         0         0         0         0         0         0         0         0
         0         0         0         0         0         0         0         0
         0         0         0         0         0         0         0         0
         0         0         0         0         0         0         0         0
         0         0         0         0         0         0         0         0
         0         0         0         0         0         0         0         0
         0         0         0         0         0         0         0         0
         0         0         0         0         0         0         0         0
         0         0         0         0         0         0         0         0
         0         0         0         0         0         0         0         0
         0         0         0         0         0         0         0         0
         0         0         0         0         0         0         0         0
         0         0         0         0         0         0         0         0
         0         0         0         0         0         0         0         0
         0         0         0         0         0         0         0         0
         0         0         0         0         0         0         0         0
         0         0         0         0         0         0         0         0
         0         0         0         0         0         0         0         0
         0         0         0         0         0         0         0         0
         0         0         0         0         0         0         0         0
         0         0         0         0         0         0         0         0
         0         0         0         0         0         0         0         0
         0         0         0         0         0         0         0         0
         0         0         0         0         0         0         0         0
         0         0         0         0         0         0         0         0
         0         0         0         0         0         0         0         0
         0         0         0         0         0         0         0         0
         0         0         0         0         0         0         0         0
         0         0         0         0         0         0         0         0
         0         0         0         0         0         0         0         0
         0         0         0         0         0         0         0         0
         0         0         0         0         0         0         0         0
         0         0         0         0         0         0         0         0
         0         0         0         0         0         0         0         0
         0         0         0         0         0         0         0         0
         0         0         0         0         0         0         0         0
         0         0         0         0         0         0         0         0
         0         0         0         0         0         0         0         0
         0         0         0         0         0         0         0         0
         0         0         0         0         0         0         0         0
         0         0         0         0         0         0         0         0
         0         0         0         0         0         0         0         0
         0         0         0         0         0         0         0         0
         0         0         0         0         0         0         0         0
         0         0         0         0         0         0         0         0
         0         0         0         0         0         0         0         0
         0         0         0         0         0         0         0         0
         0         0         0         0         0         0         0         0
         0         0         0         0         0         0         0         0
         0         0         0         0         0         0         0         0
         0         0         0         0         0         0         0         0
         0         0         0         0         0         0         0         0
         0         0         0         0         0         0         0         0
         0         0         0         0         0         0         0         0
         0         0         0         0         0         0         0         0
         0         0         0         0         0         0         0         0
         0         0         0         0         0         0         0         0
         0         0         0         0         0         0         0         0
         0         0         0         0         0         0         0         0
         0         0         0         0         0         0         0         0
         0         0         0         0         0         0         0         0
         0         0         0         0         0         0         0         0
         0         0         0         0         0         0         0         0
         0         0         0         0         0         0         0         0
         0         0         0         0         0         0         0         0
         0         0         0         0         0         0         0         0
         0         0         0         0         0         0         0         0
         0         0         0         0         0         0         0         0
         0         0         0         0         0         0         0         0
         0         0         0         0         0         0         0         0
         0         0         0         0         0         0         0         0
         0         0         0         0         0         0         0         0
         0         0         0         0         0         0         0         0
         0         0         0         0         0         0         0         0
         0         0         0         0         0         0         0         0
         0         0         0         0         0         0         0         0
         0         0         0         0         0         0         0         0
         0         0         0         0         0         0         0         0
         0         0         0         0         0         0         0         0
         0         0         0         0         0         0         0         0
         0         0         0         0         0         0         0         0
         0         0         0         0         0         0         0         0
         0         0         0         0         0         0         0         0
         0         0         0         0         0         0         0         0
         0         0         0         0         0         0         0         0
         0         0         0         0         0         0         0         0
         0         0         0         0         0         0         0         0
         0         0         0         0         0         0         0         0
         0         0         0         0         0         0         0         0
         0         0         0         0         0         0         0         0
         0         0         0         0         0         0         0         0
         0         0         0         0         0         0         0         0
         0         0         0         0         0         0         0         0
         0         0         0         0         0         0         0         0
         0         0         0         0         0         0         0         0
         0         0         0         0         0         0         0         0
         0         0         0         0         0         0         0         0
         0         0         0         0         0         0         0         0
         0         0         0         0         0         0         0         0
         0         0         0         0         0         0         0         0
         0         0         0         0         0         0         0         0
         0         0         0         0         0         0         0         0
         0         0         0         0         0         0         0         0
         0         0         0         0         0         0         0         0
         0         0         0         0         0         0         0         0
         0         0         0         0         0         0         0         0
         0         0         0         0         0         0         0         0
         0         0         0         0         0         0         0         0
         0         0         0         0         0         0         0         0
         0         0         0         0         0         0         0         0
         0         0         0         0         0         0         0         0
         0         0         0         0         0         0         0         0
         0         0         0         0         0         0         0         0
         0         0         0         0         0         0         0         0
         0         0         0         0         0         0         0         0
         0         0         0         0         0         0         0         0
         0         0         0         0         0         0         0         0
         0         0         0         0         0         0         0         0
         0         0         0         0         0         0         0         0
         0         0         0         0         0         0         0         0
         0         0         0         0         0         0         0         0
         0         0         0         0         0         0         0         0
         0         0         0         0         0         0         0         0
         0         0         0         0         0         0         0         0
         0         0         0         0         0         0         0         0
         0         0         0         0         0         0         0         0
         0         0         0         0         0         0         0         0
         0         0         0         0         0         0         0         0
         0         0         0         0         0         0         0         0
         0         0         0         0         0         0         0         0
         0         0         0         0         0         0         0         0
         0         0         0         0         0         0         0         0
         0         0         0         0         0         0         0         0
         0         0         0         0         0         0         0         0
         0         0         0         0         0         0         0         0
         0         0         0         0         0         0         0         0
         0         0         0         0         0         0         0         0
         0         0         0         0         0         0         0         0
         0         0         0         0         0         0         0         0
         0         0         0         0         0         0         0         0
         0         0         0         0         0         0         0         0
         0         0         0         0         0         0         0         0
         0         0         0         0         0         0         0         0
         0         0         0         0         0         0         0         0
         0         0         0         0         0         0         0         0
         0         0         0         0         0         0         0         0
         0         0         0         0         0         0         0         0
         0         0         0         0         0         0         0         0
         0         0         0         0         0         0         0         0
         0         0         0         0         0         0         0         0
         0         0         0         0         0         0         0         0
         0         0         0         0         0         0         0         0
         0         0         0         0         0         0         0         0
         0         0         0         0         0         0         0         0
         0         0         0         0         0         0         0         0
         0         0         0         0         0         0         0         0
         0         0         0         0         0         0         0         0
         0         0         0         0         0         0         0         0
         0         0         0         0         0         0         0         0
         0         0         0         0         0         0         0         0
         0         0         0         0         0         0         0         0
         0         0         0         0         0         0         0         0
         0         0         0         0         0         0         0         0
         0         0         0         0         0         0         0         0
         0         0         0         0         0         0         0         0
         0         0         0         0         0         0         0         0
         0         0         0         0         0         0         0         0
         0         0         0         0         0         0         0         0
         0         0         0         0         0         0         0         0
         0         0         0         0         0         0         0         0
         0         0         0         0         0         0         0         0
         0         0         0         0         0         0         0         0
         0         0         0         0         0         0         0         0
         0         0         0         0         0         0         0         0
         0         0         0         0         0         0         0         0
         0         0         0         0         0         0         0         0
         0         0         0         0         0         0         0         0
         0         0         0         0         0         0         0         0
         0         0         0         0         0         0         0         0
         0         0         0         0         0         0         0         0
         0         0         0         0         0         0         0         0
         0         0         0         0         0         0         0         0
         0         0         0         0         0         0         0         0
         0         0         0         0         0         0         0         0
         0         0         0         0         0         0         0         0
         0         0         0         0         0         0         0         0
         0         0         0         0         0         0         0         0
         0         0         0         0         0         0         0         0
         0         0         0         0         0         0         0         0
         0         0         0         0         0         0         0         0
         0         0         0         0         0         0         0         0
         0         0         0         0         0         0         0         0
         0         0         0         0         0         0         0         0
         0         0         0         0         0         0         0         0
         0         0         0         0         0         0         0         0
         0         0         0         0         0         0         0         0
         0         0         0         0         0         0         0         0
         0         0         0         0         0         0         0         0
         0         0         0         0         0         0         0         0
         0         0         0         0         0         0         0         0
         0         0         0         0         0         0         0         0
         0         0         0         0         0         0         0         0
         0         0         0         0         0         0         0         0
         0         0         0         0         0         0         0         0
         0         0         0         0         0         0         0         0
         0         0         0         0         0         0         0         0
         0         0         0         0         0         0         0         0
         0         0         0         0         0         0         0         0
         0         0         0         0         0         0         0         0
         0         0         0         0         0         0         0         0
         0         0         0         0         0         0         0         0
         0         0         0         0         0         0         0         0
         0         0         0         0         0         0         0         0
         0         0         0         0         0         0         0         0
         0         0         0         0         0         0         0         0
         0         0         0         0         0         0         0         0
         0         0         0         0         0         0         0         0
         0         0         0         0         0         0         0         0
         0         0         0         0         0         0         0         0
         0         0         0         0         0         0         0         0
         0         0         0         0         0         0         0         0
         0         0         0         0         0         0         0         0
         0         0         0         0         0         0         0         0
         0         0         0         0         0         0         0         0
         0         0         0         0         0         0         0         0
         0         0         0         0         0         0         0         0
         0         0         0         0         0         0         0         0
         0         0         0         0         0         0         0         0
         0         0         0         0         0         0         0         0
         0         0         0         0         0         0         0         0
         0         0         0         0         0         0         0         0
         0         0         0         0         0         0         0         0
         0         0         0         0         0         0         0         0
         0         0         0         0         0         0         0         0
         0         0         0         0         0         0         0         0
         0         0         0         0         0         0         0         0
         0         0         0         0         0         0         0         0
         0         0         0         0         0         0         0         0
         0         0         0         0         0         0         0         0
         0         0         0         0         0         0         0         0
         0         0         0         0         0         0         0         0
         0         0         0         0         0         0         0         0
         0         0         0         0         0         0         0         0
         0         0         0         0         0         0         0         0
         0         0         0         0         0         0         0         0
         0         0         0         0         0         0         0         0
         0         0         0         0         0         0         0         0
         0         0         0         0         0         0         0         0
         0         0         0         0         0         0         0         0
         0         0         0         0         0         0         0         0
         0         0         0         0         0         0         0         0
         0         0         0         0         0         0         0         0
         0         0         0         0         0         0         0         0
         0         0         0         0         0         0         0         0
         0         0         0         0         0         0         0         0
         0         0         0         0         0         0         0         0
         0         0         0         0         0         0         0         0
         0         0         0         0         0         0         0         0
         0         0         0         0         0         0         0         0
         0         0         0         0         0         0         0         0
         0         0         0         0         0         0         0         0
         0         0         0         0         0         0         0         0
         0         0         0         0         0         0         0         0
         0         0         0         0         0         0         0         0
         0         0         0         0         0         0         0         0
         0         0         0         0         0         0         0         0
         0         0         0         0         0         0         0         0
         0         0         0         0         0         0         0         0
         0         0         0         0         0         0         0         0
         0         0         0         0         0         0         0         0
         0         0         0         0         0         0         0         0
         0         0         0         0         0         0         0         0
         0         0         0         0         0         0         0         0
         0         0         0         0         0         0         0         0
         0         0         0         0         0         0         0         0
         0         0         0         0         0         0         0         0
         0         0         0         0         0         0         0         0
         0         0         0         0         0         0         0         0
         0         0         0         0         0         0         0         0
         0         0         0         0         0         0         0         0
         0         0         0         0         0         0         0         0
         0         0         0         0         0         0         0         0
         0         0         0         0         0         0         0         0
         0         0         0         0         0         0         0         0
         0         0         0         0         0         0         0         0
         0         0         0         0         0         0         0         0
         0         0         0         0         0         0         0         0
         0         0         0         0         0         0         0         0
         0         0         0         0         0         0         0         0
         0         0         0         0         0         0         0         0
         0         0         0         0         0         0         0         0
         0         0         0         0         0         0         0         0
         0         0         0         0         0         0         0         0
         0         0         0         0         0         0         0         0
         0         0         0         0         0         0         0         0
         0         0         0         0         0         0         0         0
         0         0         0         0         0         0         0         0
         0         0         0         0         0         0         0         0
         0         0         0         0         0         0         0         0
         0         0         0         0         0         0         0         0
         0         0         0         0         0         0         0         0
         0         0         0         0         0         0         0         0
         0         0         0         0         0         0         0         0
         0         0         0         0         0         0         0         0
         0         0         0         0         0         0         0         0
         0         0         0         0         0         0         0         0
         0         0         0         0         0         0         0         0
         0         0         0         0         0         0         0         0
         0         0         0         0         0         0         0         0
         0         0         0         0         0         0         0         0
         0         0         0         0         0         0         0         0
         0         0         0         0         0         0         0         0
         0         0         0         0         0         0         0         0
         0         0         0         0         0         0         0         0
         0         0         0         0         0         0         0         0
         0         0         0         0         0         0         0         0
         0         0         0         0         0         0         0         0
         0         0         0         0         0         0         0         0
         0         0         0         0         0         0         0         0
         0         0         0         0         0         0         0         0
         0         0         0         0         0         0         0         0
         0         0         0         0         0         0         0         0
         0         0         0         0         0         0         0         0
         0         0         0         0         0         0         0         0
         0         0         0         0         0         0         0         0
         0         0         0         0         0         0         0         0
         0         0         0         0         0         0         0         0
         0         0         0         0         0         0         0         0
         0         0         0         0         0         0         0         0
         0         0         0         0         0         0         0         0
         0         0         0         0         0         0         0         0
         0         0         0         0         0         0         0         0
         0         0         0         0         0         0         0         0
         0         0         0         0         0         0         0         0
         0         0         0         0         0         0         0         0
         0         0         0         0         0         0         0         0
         0         0         0         0         0         0         0         0
         0         0         0         0         0         0         0         0
         0         0         0         0         0         0         0         0
         0         0         0         0         0         0         0         0
         0         0         0         0         0         0         0         0
         0         0         0         0         0         0         0         0
         0         0         0         0         0         0         0         0
         0         0         0         0         0         0         0         0
         0         0         0         0         0         0         0         0
         0         0         0         0         0         0         0         0
         0         0         0         0         0         0         0         0
         0         0         0         0         0         0         0         0
         0         0         0         0         0         0         0         0
         0         0         0         0         0         0         0         0
         0         0         0         0         0         0         0         0
         0         0         0         0         0         0         0         0
         0         0         0         0         0         0         0         0
         0         0         0         0         0         0         0         0
         0         0         0         0         0         0         0         0
         0         0         0         0         0         0         0         0
         0         0         0         0         0         0         0         0
         0         0         0         0         0         0         0         0
         0         0         0         0         0         0         0         0
         0         0         0         0         0         0         0         0
         0         0         0         0         0         0         0         0
         0         0         0         0         0         0         0         0
         0         0         0         0         0         0         0         0
         0         0         0         0         0         0         0         0
         0         0         0         0         0         0         0         0
         0         0         0         0         0         0         0         0
         0         0         0         0         0         0         0         0
         0         0         0         0         0         0         0         0
         0         0         0         0         0         0         0         0
         0         0         0         0         0         0         0         0
         0         0         0         0         0         0         0         0
         0         0         0         0         0         0         0         0
         0         0         0         0         0         0         0         0
         0         0         0         0         0         0         0         0
         0         0         0         0         0         0         0         0
         0         0         0         0         0         0         0         0
         0         0         0         0         0         0         0         0
         0         0         0         0         0         0         0         0
         0         0         0         0         0         0         0         0
         0         0         0         0         0         0         0         0
         0         0         0         0         0         0         0         0
         0         0         0         0         0         0         0         0
         0         0         0         0         0         0         0         0
         0         0         0         0         0         0         0         0
         0         0         0         0         0         0         0         0
         0         0         0         0         0         0         0         0
         0         0         0         0         0         0         0         0
         0         0         0         0         0         0         0         0
         0         0         0         0         0         0         0         0
         0         0         0         0         0         0         0         0
         0         0         0         0         0         0         0         0
         0         0         0         0         0         0         0         0
         0         0         0         0         0         0         0         0
         0         0         0         0         0         0         0         0
         0         0         0         0         0         0         0         0
         0         0         0         0         0         0         0         0
         0         0         0         0         0         0         0         0
         0         0         0         0         0         0         0         0
         0         0         0         0         0         0         0         0
         0         0         0         0         0         0         0         0
         0         0         0         0         0         0         0         0
         0         0         0         0         0         0         0         0
         0         0         0         0         0         0         0         0
         0         0         0         0         0         0         0         0
         0         0         0         0         0         0         0         0
         0         0         0         0         0         0         0         0
         0         0         0         0         0         0         0         0
         0         0         0         0         0         0         0         0
         0         0         0         0         0         0         0         0
         0         0         0         0         0         0         0         0
         0         0         0         0         0         0         0         0
         0         0         0         0         0         0         0         0
         0         0         0         0         0         0         0         0
         0         0         0         0         0         0         0         0
         0         0         0         0         0         0         0         0
         0         0         0         0         0         0         0         0
         0         0         0         0         0         0         0         0
         0         0         0         0         0         0         0         0
         0         0         0         0         0         0         0         0
         0         0         0         0         0         0         0         0
         0         0         0         0         0         0         0         0
         0         0         0         0         0         0         0         0
         0         0         0         0         0         0         0         0
         0         0         0         0         0         0         0         0
         0         0         0         0         0         0         0         0
         0         0         0         0         0         0         0         0
         0         0         0         0         0         0         0         0
         0         0         0         0         0         0         0         0
         0         0         0         0         0         0         0         0
         0         0         0         0         0         0         0         0
         0         0         0         0         0         0         0         0
         0         0         0         0         0         0         0         0
         0         0         0         0         0         0         0         0
         0         0         0         0         0         0         0         0
         0         0         0         0         0         0         0         0
         0         0         0         0         0         0         0         0
         0         0         0         0         0         0         0         0
         0         0         0         0         0         0         0         0
         0         0         0         0         0         0         0         0
         0         0         0         0         0         0         0         0
         0         0         0         0         0         0         0         0
         0         0         0         0         0         0         0         0
         0         0         0         0         0         0         0         0
         0         0         0         0         0         0         0         0
         0         0         0         0         0         0         0         0
         0         0         0         0         0         0         0         0
         0         0         0         0         0         0         0         0
         0         0         0         0         0         0         0         0
         0         0         0         0         0         0         0         0
         0         0         0         0         0         0         0         0
         0         0         0         0         0         0         0         0
         0         0         0         0         0         0         0         0
         0         0         0         0         0         0         0         0
         0         0         0         0         0         0         0         0
         0         0         0         0         0         0         0         0
         0         0         0         0         0         0         0         0
         0         0         0         0         0         0         0         0
         0         0         0         0         0         0         0         0
         0         0         0         0         0         0         0         0
         0         0         0         0         0         0         0         0
         0         0         0         0         0         0         0         0
         0         0         0         0         0         0         0         0
         0         0         0         0         0         0         0         0
         0         0         0         0         0         0         0         0
         0         0         0         0         0         0         0         0
         0         0         0         0         0         0         0         0
         0         0         0         0         0         0         0         0
         0         0         0         0         0         0         0         0
         0         0         0         0         0         0         0         0
         0         0         0         0         0         0         0         0
         0         0         0         0         0         0         0         0
         0         0         0         0         0         0         0         0
         0         0         0         0         0         0         0         0
         0         0         0         0         0         0         0         0
         0         0         0         0         0         0         0         0
         0         0         0         0         0         0         0         0
         0         0         0         0         0         0         0         0
         0         0         0         0         0         0         0         0
         0         0         0         0         0         0         0         0
         0         0         0         0         0         0         0         0
         0         0         0         0         0         0         0         0
         0         0         0         0         0         0         0         0
         0         0         0         0         0         0         0         0
         0         0         0         0         0         0         0         0
         0         0         0         0         0         0         0         0
         0         0         0         0         0         0         0         0
         0         0         0         0         0         0         0         0
         0         0         0         0         0         0         0         0
         0         0         0         0         0         0         0         0
         0         0         0         0         0         0         0         0
         0         0         0         0         0         0         0         0
         0         0         0         0         0         0         0         0
         0         0         0         0         0         0         0         0
         0         0         0         0         0         0         0         0
         0         0         0         0         0         0         0         0
         0         0         0         0         0         0         0         0
         0         0         0         0         0         0         0         0
         0         0         0         0         0         0         0         0
         0         0         0         0         0         0         0         0
         0         0         0         0         0         0         0         0
         0         0         0         0         0         0         0         0
         0         0         0         0         0         0         0         0
         0         0         0         0         0         0         0         0
         0         0         0         0         0         0         0         0
         0         0         0         0         0         0         0         0
         0         0         0         0         0         0         0         0
         0         0         0         0         0         0         0         0
         0         0         0         0         0         0         0         0
         0         0         0         0         0         0         0         0
         0         0         0         0         0         0         0         0
         0         0         0         0         0         0         0         0
         0         0         0         0         0         0         0         0
         0         0         0         0         0         0         0         0
         0         0         0         0         0         0         0         0
         0         0         0         0         0         0         0         0
         0         0         0         0         0         0         0         0
         0         0         0         0         0         0         0         0
         0         0         0         0         0         0         0         0
         0         0         0         0         0         0         0         0
         0         0         0         0         0         0         0         0
         0         0         0         0         0         0         0         0
         0         0         0         0         0         0         0         0
         0         0         0         0         0         0         0         0
         0         0         0         0         0         0         0         0
         0         0         0         0         0         0         0         0
         0         0         0         0         0         0         0         0
         0         0         0         0         0         0         0         0
         0         0         0         0         0         0         0         0
         0         0         0         0         0         0         0         0
         0         0         0         0         0         0         0         0
         0         0         0         0         0         0         0         0
         0         0         0         0         0         0         0         0
         0         0         0         0         0         0         0         0
         0         0         0         0         0         0         0         0
         0         0         0         0         0         0         0         0
         0         0         0         0         0         0         0         0
         0         0         0         0         0         0         0         0
         0         0         0         0         0         0         0         0
         0         0         0         0         0         0         0         0
         0         0         0         0         0         0         0         0
         0         0         0         0         0         0         0         0
         0         0         0         0         0         0         0         0
         0         0         0         0         0         0         0         0
         0         0         0         0         0         0         0         0
         0         0         0         0         0         0         0         0
         0         0         0         0         0         0         0         0
         0         0         0         0         0         0         0         0
         0         0         0         0         0         0         0         0
         0         0         0         0         0         0         0         0
         0         0         0         0         0         0         0         0
         0         0         0         0         0         0         0         0
         0         0         0         0         0         0         0         0
         0         0         0         0         0         0         0         0
         0         0         0         0         0         0         0         0
         0         0         0         0         0         0         0         0
         0         0         0         0         0         0         0         0
         0         0         0         0         0         0         0         0
         0         0         0         0         0         0         0         0
         0         0         0         0         0         0         0         0
         0         0         0         0         0         0         0         0
         0         0         0         0         0         0         0         0
         0         0         0         0         0         0         0         0
         0         0         0         0         0         0         0         0
         0         0         0         0         0         0         0         0
         0         0         0         0         0         0         0         0
         0         0         0         0         0         0         0         0
         0         0         0         0         0         0         0         0
         0         0         0         0         0         0         0         0
         0         0         0         0         0         0         0         0
         0         0         0         0         0         0         0         0
         0         0         0         0         0         0         0         0
         0         0         0         0         0         0         0         0
         0         0         0         0         0         0         0         0
         0         0         0         0         0         0         0         0
         0         0         0         0         0         0         0         0
         0         0         0         0         0         0         0         0
         0         0         0         0         0         0         0         0
         0         0         0         0         0         0         0         0
         0         0         0         0         0         0         0         0
         0         0         0         0         0         0         0         0
         0         0         0         0         0         0         0         0
         0         0         0         0         0         0         0         0
         0         0         0         0         0         0         0         0
         0         0         0         0         0         0         0         0
         0         0         0         0         0         0         0         0
         0         0         0         0         0         0         0         0
         0         0         0         0         0         0         0         0
         0         0         0         0         0         0         0         0
         0         0         0         0         0         0         0         0
         0         0         0         0         0         0         0         0
         0         0         0         0         0         0         0         0
         0         0         0         0         0         0         0         0
         0         0         0         0         0         0         0         0
         0         0         0         0         0         0         0         0
         0         0         0         0         0         0         0         0
         0         0         0         0         0         0         0         0
         0         0         0         0         0         0         0         0
         0         0         0         0         0         0         0         0
         0         0         0         0         0         0         0         0
         0         0         0         0         0         0         0         0
         0         0         0         0         0         0         0         0
         0         0         0         0         0         0         0         0
         0         0         0         0         0         0         0         0
         0         0         0         0         0         0         0         0
         0         0         0         0         0         0         0         0
         0         0         0         0         0         0         0         0
         0         0         0         0         0         0         0         0
         0         0         0         0         0         0         0         0
         0         0         0         0         0         0         0         0
         0         0         0         0         0         0         0         0
         0         0         0         0         0         0         0         0
         0         0         0         0         0         0         0         0
         0         0         0         0         0         0         0         0
         0         0         0         0         0         0         0         0
         0         0         0         0         0         0         0         0
         0         0         0         0         0         0         0         0
         0         0         0         0         0         0         0         0
         0         0         0         0         0         0         0         0
         0         0         0         0         0         0         0         0
         0         0         0         0         0         0         0         0
         0         0         0         0         0         0         0         0
         0         0         0         0         0         0         0         0
         0         0         0         0         0         0         0         0
         0         0         0         0         0         0         0         0
         0         0         0         0         0         0         0         0
         0         0         0         0         0         0         0         0
         0         0         0         0         0         0         0         0
         0         0         0         0         0         0         0         0
         0         0         0         0         0         0         0         0
         0         0         0         0         0         0         0         0
         0         0         0         0         0         0         0         0
         0         0         0         0         0         0         0         0
         0         0         0         0         0         0         0         0
         0         0         0         0         0         0         0         0
         0         0         0         0         0         0         0         0
         0         0         0         0         0         0         0         0
         0         0         0         0         0         0         0         0
         0         0         0         0         0         0         0         0
         0         0         0         0         0         0         0         0
         0         0         0         0         0         0         0         0
         0         0         0         0         0         0         0         0
         0         0         0         0         0         0         0         0
         0         0         0         0         0         0         0         0
         0         0         0         0         0         0         0         0
         0         0         0         0         0         0         0         0
         0         0         0         0         0         0         0         0
         0         0         0         0         0         0         0         0
         0         0         0         0         0         0         0         0
         0         0         0         0         0         0         0         0
         0         0         0         0         0         0         0         0
         0         0         0         0         0         0         0         0
         0         0         0         0         0         0         0         0
         0         0         0         0         0         0         0         0
         0         0         0         0         0         0         0         0
         0         0         0         0         0         0         0         0
         0         0         0         0         0         0         0         0
         0         0         0         0         0         0         0         0
         0         0         0         0         0         0         0         0
         0         0         0         0         0         0         0         0
         0         0         0         0         0         0         0         0
         0         0         0         0         0         0         0         0
         0         0         0         0         0         0         0         0
         0         0         0         0         0         0         0         0
         0         0         0         0         0         0         0         0
         0         0         0         0         0         0         0         0
         0         0         0         0         0         0         0         0
         0         0         0         0         0         0         0         0
         0         0         0         0         0         0         0         0
         0         0         0         0         0         0         0         0
         0         0         0         0         0         0         0         0
         0         0         0         0         0         0         0         0
         0         0         0         0         0         0         0         0
         0         0         0         0         0         0         0         0
         0         0         0         0         0         0         0         0
         0         0         0         0         0         0         0         0
         0         0         0         0         0         0         0         0
         0         0         0         0         0         0         0         0
         0         0         0         0         0         0         0         0
         0         0         0         0         0         0         0         0
         0         0         0         0         0         0         0         0
         0         0         0         0         0         0         0         0
         0         0         0         0         0         0         0         0
         0         0         0         0         0         0         0         0
         0         0         0         0         0         0         0         0
         0         0         0         0         0         0         0         0
         0         0         0         0         0         0         0         0
         0         0         0         0         0         0         0         0
         0         0         0         0         0         0         0         0
         0         0         0         0         0         0         0         0
         0         0         0         0         0         0         0         0
         0         0         0         0         0         0         0         0
         0         0         0         0         0         0         0         0
         0         0         0         0         0         0         0         0
         0         0         0         0         0         0         0         0
         0         0         0         0         0         0         0         0
         0         0         0         0         0         0         0         0
         0         0         0         0         0         0         0         0
         0         0         0         0         0         0         0         0
         0         0         0         0         0         0         0         0
         0         0         0         0         0         0         0         0
         0         0         0         0         0         0         0         0
         0         0         0         0         0         0         0         0
         0         0         0         0         0         0         0         0
         0         0         0         0         0         0         0         0
         0         0         0         0         0         0         0         0
         0         0         0         0         0         0         0         0
         0         0         0         0         0         0         0         0
         0         0         0         0         0         0         0         0
         0         0         0         0         0         0         0         0
         0         0         0         0         0         0         0         0
         0         0         0         0         0         0         0         0
         0         0         0         0         0         0         0         0
         0         0         0         0         0         0         0         0
         0         0         0         0         0         0         0         0
         0         0         0         0         0         0         0         0
         0         0         0         0         0         0         0         0
         0         0         0         0         0         0         0         0
         0         0         0         0         0         0         0         0
         0         0         0         0         0         0         0         0
         0         0         0         0         0         0         0         0
         0         0         0         0         0         0         0         0
         0         0         0         0         0         0         0         0
         0         0         0         0         0         0         0         0
         0         0         0         0         0         0         0         0
         0         0         0         0         0         0         0         0
         0         0         0         0         0         0         0         0
         0         0         0         0         0         0         0         0
         0         0         0         0         0         0         0         0
         0         0         0         0         0         0         0         0
         0         0         0         0         0         0         0         0
         0         0         0         0         0         0         0         0
         0         0         0         0         0         0         0         0
         0         0         0         0         0         0         0         0
         0         0         0         0         0         0         0         0
         0         0         0         0         0         0         0         0
         0         0         0         0         0         0         0         0
         0         0         0         0         0         0         0         0
         0         0         0         0         0         0         0         0
         0         0         0         0         0         0         0         0
         0         0         0         0         0         0         0         0
         0         0         0         0         0         0         0         0
         0         0         0         0         0         0         0         0
         0         0         0         0         0         0         0         0
         0         0         0         0         0         0         0         0
         0         0         0         0         0         0         0         0
         0         0         0         0         0         0         0         0
         0         0         0         0         0         0         0         0
         0         0         0         0         0         0         0         0
         0         0         0         0         0         0         0         0
         0         0         0         0         0         0         0         0
         0         0         0         0         0         0         0         0
         0         0         0         0         0         0         0         0
         0         0         0         0         0         0         0         0
         0         0         0         0         0         0         0         0
         0         0         0         0         0         0         0         0
         0         0         0         0         0         0         0         0
         0         0         0         0         0         0         0         0
         0         0         0         0         0         0         0         0
         0         0         0         0         0         0         0         0
         0         0         0         0         0         0         0         0
         0         0         0         0         0         0         0         0
         0         0         0         0         0         0         0         0
         0         0         0         0         0         0         0         0
         0         0         0         0         0         0         0         0
         0         0         0         0         0         0         0         0
         0         0         0         0         0         0         0         0
         0         0         0         0         0         0         0         0
         0         0         0         0         0         0         0         0
         0         0         0         0         0         0         0         0
         0         0         0         0         0         0         0         0
         0         0         0         0         0         0         0         0
         0         0         0         0         0         0         0         0
         0         0         0         0         0         0         0         0
         0         0         0         0         0         0         0         0
         0         0         0         0         0         0         0         0
         0         0         0         0         0         0         0         0
         0         0         0         0         0         0         0         0
         0         0         0         0         0         0         0         0
         0         0         0         0         0         0         0         0
         0         0         0         0         0         0         0         0
         0         0         0         0         0         0         0         0
         0         0         0         0         0         0         0         0
         0         0         0         0         0         0         0         0
         0         0         0         0         0         0         0         0
         0         0         0         0         0         0         0         0
         0         0         0         0         0         0         0         0
         0         0         0         0         0         0         0         0
         0         0         0         0         0         0         0         0
         0         0         0         0         0         0         0         0
         0         0         0         0         0         0         0         0
         0         0         0         0         0         0         0         0
         0         0         0         0         0         0         0         0
         0         0         0         0         0         0         0         0
         0         0         0         0         0         0         0         0
         0         0         0         0         0         0         0         0
         0         0         0         0         0         0         0         0
         0         0         0         0         0         0         0         0
         0         0         0         0         0         0         0         0
         0         0         0         0         0         0         0         0
         0         0         0         0         0         0         0         0
         0         0         0         0         0         0         0         0
         0         0         0         0         0         0         0         0
         0         0         0         0         0         0         0         0
         0         0         0         0         0         0         0         0
         0         0         0         0         0         0         0         0
         0         0         0         0         0         0         0         0
         0         0         0         0         0         0         0         0
         0         0         0         0         0         0         0         0
         0         0         0         0         0         0         0         0
         0         0         0         0         0         0         0         0
         0         0         0         0         0         0         0         0
         0         0         0         0         0         0         0         0
         0         0         0         0         0         0         0         0
         0         0         0         0         0         0         0         0
         0         0         0         0         0         0         0         0
         0         0         0         0         0         0         0         0
         0         0         0         0         0         0         0         0
         0         0         0         0         0         0         0         0
         0         0         0         0         0         0         0         0
         0         0         0         0         0         0         0         0
         0         0         0         0         0         0         0         0
         0         0         0         0         0         0         0         0
         0         0         0         0         0         0         0         0
         0         0         0         0         0         0         0         0
         0         0         0         0         0         0         0         0
         0         0         0         0         0         0         0         0
         0         0         0         0         0         0         0         0
         0         0         0         0         0         0         0         0
         0         0         0         0         0         0         0         0
         0         0         0         0         0         0         0         0
         0         0         0         0         0         0         0         0
         0         0         0         0         0         0         0         0
         0         0         0         0         0         0         0         0
         0         0         0         0         0         0         0         0
         0         0         0         0         0         0         0         0
         0         0         0         0         0         0         0         0
         0         0         0         0         0         0         0         0
         0         0         0         0         0         0         0         0
         0         0         0         0         0         0         0         0
         0         0         0         0         0         0         0         0
         0         0         0         0         0         0         0         0
         0         0         0         0         0         0         0         0
         0         0         0         0         0         0         0         0
         0         0         0         0         0         0         0         0
         0         0         0         0         0         0         0         0
         0         0         0         0         0         0         0         0
         0         0         0         0         0         0         0         0
         0         0         0         0         0         0         0         0
         0         0         0         0         0         0         0         0
         0         0         0         0         0         0         0         0
         0         0         0         0         0         0         0         0
         0         0         0         0         0         0         0         0
         0         0         0         0         0         0         0         0
         0         0         0         0         0         0         0         0
         0         0         0         0         0         0         0         0
         0         0         0         0         0         0         0         0
         0         0         0         0         0         0         0         0
         0         0         0         0         0         0         0         0
         0         0         0         0         0         0         0         0
         0         0         0         0         0         0         0         0
         0         0         0         0         0         0         0         0
         0         0         0         0         0         0         0         0
         0         0         0         0         0         0         0         0
         0         0         0         0         0         0         0         0
         0         0         0         0         0         0         0         0
         0         0         0         0         0         0         0         0
         0         0         0         0         0         0         0         0
         0         0         0         0         0         0         0         0
         0         0         0         0         0         0         0         0
         0         0         0         0         0         0         0         0
         0         0         0         0         0         0         0         0
         0         0         0         0         0         0         0         0
         0         0         0         0         0         0         0         0
         0         0         0         0         0         0         0         0
         0         0         0         0         0         0         0         0
         0         0         0         0         0         0         0         0
         0         0         0         0         0         0         0         0
         0         0         0         0         0         0         0         0
         0         0         0         0         0         0         0         0
         0         0         0         0         0         0         0         0
         0         0         0         0         0         0         0         0
         0         0         0         0         0         0         0         0
         0         0         0         0         0         0         0         0
         0         0         0         0         0         0         0         0
         0         0         0         0         0         0         0         0
         0         0         0         0         0         0         0         0
         0         0         0         0         0         0         0         0
         0         0         0         0         0         0         0         0
         0         0         0         0         0         0         0         0
         0         0         0         0         0         0         0         0
         0         0         0         0         0         0         0         0
         0         0         0         0         0         0         0         0
         0         0         0         0         0         0         0         0
         0         0         0         0         0         0         0         0
         0         0         0         0         0         0         0         0
         0         0         0         0         0         0         0         0
         0         0         0         0         0         0         0         0
         0         0         0         0         0         0         0         0
         0         0         0         0         0         0         0         0
         0         0         0         0         0         0         0         0
         0         0         0         0         0         0         0         0
         0         0         0         0         0         0         0         0
         0         0         0         0         0         0         0         0
         0         0         0         0         0         0         0         0
         0         0         0         0         0         0         0         0
         0         0         0         0         0         0         0         0
         0         0         0         0         0         0         0         0
         0         0         0         0         0         0         0         0
         0         0         0         0         0         0         0         0
         0         0         0         0         0         0         0         0
         0         0         0         0         0         0         0         0
         0         0         0         0         0         0         0         0
         0         0         0         0         0         0         0         0
         0         0         0         0         0         0         0         0
         0         0         0         0         0         0         0         0
         0         0         0         0         0         0         0         0
         0         0         0         0         0         0         0         0
         0         0         0         0         0         0         0         0
         0         0         0         0         0         0         0         0
         0         0         0         0         0         0         0         0
         0         0         0         0         0         0         0         0
         0         0         0         0         0         0         0         0
         0         0         0         0         0         0         0         0
         0         0         0         0         0         0         0         0
         0         0         0         0         0         0         0         0
         0         0         0         0         0         0         0         0
         0         0         0         0         0         0         0         0
         0         0         0         0         0         0         0         0
         0         0         0         0         0         0         0         0
         0         0         0         0         0         0         0         0
         0         0         0         0         0         0         0         0
         0         0         0         0         0         0         0         0
         0         0         0         0         0         0         0         0
         0         0         0         0         0         0         0         0
         0         0         0         0         0         0         0         0
         0         0         0         0         0         0         0         0
         0         0         0         0         0         0         0         0
         0         0         0         0         0         0         0         0
         0         0         0         0         0         0         0         0
         0         0         0         0         0         0         0         0
         0         0         0         0         0         0         0         0
         0         0         0         0         0         0         0         0
         0         0         0         0         0         0         0         0
         0         0         0         0         0         0         0         0
         0         0         0         0         0         0         0         0
         0         0         0         0         0         0         0         0
         0         0         0         0         0         0         0         0
         0         0         0         0         0         0         0         0
         0         0         0         0         0         0         0         0
         0         0         0         0         0         0         0         0
         0         0         0         0         0         0         0         0
         0         0         0         0         0         0         0         0
         0         0         0         0         0         0         0         0
         0         0         0         0         0         0         0         0
         0         0         0         0         0         0         0         0
         0         0         0         0         0         0         0         0
         0         0         0         0         0         0         0         0
         0         0         0         0         0         0         0         0
         0         0         0         0         0         0         0         0
         0         0         0         0         0         0         0         0
         0         0         0         0         0         0         0         0
         0         0         0         0         0         0         0         0
         0         0         0         0         0         0         0         0
         0         0         0         0         0         0         0         0
         0         0         0         0         0         0         0         0
         0         0         0         0         0         0         0         0
         0         0         0         0         0         0         0         0
         0         0         0         0         0         0         0         0
         0         0         0         0         0         0         0         0
         0         0         0         0         0         0         0         0
         0         0         0         0         0         0         0         0
         0         0         0         0         0         0         0         0
         0         0         0         0         0         0         0         0
         0         0         0         0         0         0         0         0
         0         0         0         0         0         0         0         0
         0         0         0         0         0         0         0         0
         0         0         0         0         0         0         0         0
         0         0         0         0         0         0         0         0
         0         0         0         0         0         0         0         0
         0         0         0         0         0         0         0         0
         0         0         0         0         0         0         0         0
         0         0         0         0         0         0         0         0
         0         0         0         0         0         0         0         0
         0         0         0         0         0         0         0         0
         0         0         0         0         0         0         0         0
         0         0         0         0         0         0         0         0
         0         0         0         0         0         0         0         0
         0         0         0         0         0         0         0         0
         0         0         0         0         0         0         0         0
         0         0         0         0         0         0         0         0
         0         0         0         0         0         0         0         0
         0         0         0         0         0         0         0         0
         0         0         0         0         0         0         0         0
         0         0         0         0         0         0         0         0
         0         0         0         0         0         0         0         0
         0         0         0         0         0         0         0         0
         0         0         0         0         0         0         0         0
         0         0         0         0         0         0         0         0
         0         0         0         0         0         0         0         0
         0         0         0         0         0         0         0         0
         0         0         0         0         0         0         0         0
         0         0         0         0         0         0         0         0
         0         0         0         0         0         0         0         0
         0         0         0         0         0         0         0         0
         0         0         0         0         0         0         0         0
         0         0         0         0         0         0         0         0
         0         0         0         0         0         0         0         0
         0         0         0         0         0         0         0         0
         0         0         0         0         0         0         0         0
         0         0         0         0         0         0         0         0
         0         0         0         0         0         0         0         0
         0         0         0         0         0         0         0         0
         0         0         0         0         0         0         0         0
         0         0         0         0         0         0         0         0
         0         0         0         0         0         0         0         0
         0         0         0         0         0         0         0         0
         0         0         0         0         0         0         0         0
         0         0         0         0         0         0         0         0
         0         0         0         0         0         0         0         0
         0         0         0         0         0         0         0         0
         0         0         0         0         0         0         0         0
         0         0         0         0         0         0         0         0
         0         0         0         0         0         0         0         0
         0         0         0         0         0         0         0         0
         0         0         0         0         0         0         0         0
         0         0         0         0         0         0         0         0
         0         0         0         0         0         0         0         0
         0         0         0         0         0         0         0         0
         0         0         0         0         0         0         0         0
         0         0         0         0         0         0         0         0
         0         0         0         0         0         0         0         0
         0         0         0         0         0         0         0         0
         0         0         0         0         0         0         0         0
         0         0         0         0         0         0         0         0
         0         0         0         0         0         0         0         0
         0         0         0         0         0         0         0         0
         0         0         0         0         0         0         0         0
         0         0         0         0         0         0         0         0
         0         0         0         0         0         0         0         0
         0         0         0         0         0         0         0         0
         0         0         0         0         0         0         0         0
         0         0         0         0         0         0         0         0
         0         0         0         0         0         0         0         0
         0         0         0         0         0         0         0         0
         0         0         0         0         0         0         0         0
         0         0         0         0         0         0         0         0
         0         0         0         0         0         0         0         0
         0         0         0         0         0         0         0         0
         0         0         0         0         0         0         0         0
         0         0         0         0         0         0         0         0
         0         0         0         0         0         0         0         0
         0         0         0         0         0         0         0         0
         0         0         0         0         0         0         0         0
         0         0         0         0         0         0         0         0
         0         0         0         0         0         0         0         0
         0         0         0         0         0         0         0         0
         0         0         0         0         0         0         0         0
         0         0         0         0         0         0         0         0
         0         0         0         0         0         0         0         0
         0         0         0         0         0         0         0         0
         0         0         0         0         0         0         0         0
         0         0         0         0         0         0         0         0
         0         0         0         0         0         0         0         0
         0         0         0         0         0         0         0         0
         0         0         0         0         0         0         0         0
         0         0         0         0         0         0         0         0
         0         0         0         0         0         0         0         0
         0         0         0         0         0         0         0         0
         0         0         0         0         0         0         0         0
         0         0         0         0         0         0         0         0
         0         0         0         0         0         0         0         0
         0         0         0         0         0         0         0         0
         0         0         0         0         0         0         0         0
         0         0         0         0         0         0         0         0
         0         0         0         0         0         0         0         0
         0         0         0         0         0         0         0         0
         0         0         0         0         0         0         0         0
         0         0         0         0         0         0         0         0
         0         0         0         0         0         0         0         0
         0         0         0         0         0         0         0         0
         0         0         0         0         0         0         0         0
         0         0         0         0         0         0         0         0
         0         0         0         0         0         0         0         0
         0         0         0         0         0         0         0         0
         0         0         0         0         0         0         0         0
         0         0         0         0         0         0         0         0
         0         0         0         0         0         0         0         0
         0         0         0         0         0         0         0         0
         0         0         0         0         0         0         0         0
         0         0         0         0         0         0         0         0
         0         0         0         0         0         0         0         0
         0         0         0         0         0         0         0         0
         0         0         0         0         0         0         0         0
         0         0         0         0         0         0         0         0
         0         0         0         0         0         0         0         0
         0         0         0         0         0         0         0         0
         0         0         0         0         0         0         0         0
         0         0         0         0         0         0         0         0
         0         0         0         0         0         0         0         0
         0         0         0         0         0         0         0         0
         0         0         0         0         0         0         0         0
         0         0         0         0         0         0         0         0
         0         0         0         0         0         0         0         0
         0         0         0         0         0         0         0         0
         0         0         0         0         0         0         0         0
         0         0         0         0         0         0         0         0
         0         0         0         0         0         0         0         0
         0         0         0         0         0         0         0         0
         0         0         0         0         0         0         0         0
         0         0         0         0         0         0         0         0
         0         0         0         0         0         0         0         0
         0         0         0         0         0         0         0         0
         0         0         0         0         0         0         0         0
         0         0         0         0         0         0         0         0
         0         0         0         0         0         0         0         0
         0         0         0         0         0         0         0         0
         0         0         0         0         0         0         0         0
         0         0         0         0         0         0         0         0
         0         0         0         0         0         0         0         0
         0         0         0         0         0         0         0         0
         0         0         0         0         0         0         0         0
         0         0         0         0         0         0         0         0
         0         0         0         0         0         0         0         0
         0         0         0         0         0         0         0         0
         0         0         0         0         0         0         0         0
         0         0         0         0         0         0         0         0
         0         0         0         0         0         0         0         0
         0         0         0         0         0         0         0         0
         0         0         0         0         0         0         0         0
         0         0         0         0         0         0         0         0
         0         0         0         0         0         0         0         0
         0         0         0         0         0         0         0         0
         0         0         0         0         0         0         0         0
         0         0         0         0         0         0         0         0
         0         0         0         0         0         0         0         0
         0         0         0         0         0         0         0         0
         0         0         0         0         0         0         0         0
         0         0         0         0         0         0         0         0
         0         0         0         0         0         0         0         0
         0         0         0         0         0         0         0         0
         0         0         0         0         0         0         0         0
         0         0         0         0         0         0         0         0
         0         0         0         0         0         0         0         0
         0         0         0         0         0         0         0         0
         0         0         0         0         0         0         0         0
         0         0         0         0         0         0         0         0
         0         0         0         0         0         0         0         0
         0         0         0         0         0         0         0         0
         0         0         0         0         0         0         0         0
         0         0         0         0         0         0         0         0
         0         0         0         0         0         0         0         0
         0         0         0         0         0         0         0         0
         0         0         0         0         0         0         0         0
         0         0         0         0         0         0         0         0
         0         0         0         0         0         0         0         0
         0         0         0         0         0         0         0         0
         0         0         0         0         0         0         0         0
         0         0         0         0         0         0         0         0
         0         0         0         0         0         0         0         0
         0         0         0         0         0         0         0         0
         0         0         0         0         0         0         0         0
         0         0         0         0         0         0         0         0
         0         0         0         0         0         0         0         0
         0         0         0         0         0         0         0         0
         0         0         0         0         0         0         0         0
         0         0         0         0         0         0         0         0
         0         0         0         0         0         0         0         0
         0         0         0         0         0         0         0         0
         0         0         0         0         0         0         0         0
         0         0         0         0         0         0         0         0
         0         0         0         0         0         0         0         0
         0         0         0         0         0         0         0         0
         0         0         0         0         0         0         0         0
         0         0         0         0         0         0         0         0
         0         0         0         0         0         0         0         0
         0         0         0         0         0         0         0         0
         0         0         0         0         0         0         0         0
         0         0         0         0         0         0         0         0
         0         0         0         0         0         0         0         0
         0         0         0         0         0         0         0         0
         0         0         0         0         0         0         0         0
         0         0         0         0         0         0         0         0
         0         0         0         0         0         0         0         0
         0         0         0         0         0         0         0         0
         0         0         0         0         0         0         0         0
         0         0         0         0         0         0         0         0
         0         0         0         0         0         0         0         0
         0         0         0         0         0         0         0         0
         0         0         0         0         0         0         0         0
         0         0         0         0         0         0         0         0
         0         0         0         0         0         0         0         0
         0         0         0         0         0         0         0         0
         0         0         0         0         0         0         0         0
         0         0         0         0         0         0         0         0
         0         0         0         0         0         0         0         0
         0         0         0         0         0         0         0         0
         0         0         0         0         0         0         0         0
         0         0         0         0         0         0         0         0
         0         0         0         0         0         0         0         0
         0         0         0         0         0         0         0         0
         0         0         0         0         0         0         0         0
         0         0         0         0         0         0         0         0
         0         0         0         0         0         0         0         0
         0         0         0         0         0         0         0         0
         0         0         0         0         0         0         0         0
         0         0         0         0         0         0         0         0
         0         0         0         0         0         0         0         0
         0         0         0         0         0         0         0         0
         0         0         0         0         0         0         0         0
         0         0         0         0         0         0         0         0
         0         0         0         0         0         0         0         0
         0         0         0         0         0         0         0         0
         0         0         0         0         0         0         0         0
         0         0         0         0         0         0         0         0
         0         0         0         0         0         0         0         0
         0         0         0         0         0         0         0         0
         0         0         0         0         0         0         0         0
         0         0         0         0         0         0         0         0
         0         0         0         0         0         0         0         0
         0         0         0         0         0         0         0         0
         0         0         0         0         0         0         0         0
         0         0         0         0         0         0         0         0
         0         0         0         0         0         0         0         0
         0         0         0         0         0         0         0         0
         0         0         0         0         0         0         0         0
         0         0         0         0         0         0         0         0
         0         0         0         0         0         0         0         0
         0         0         0         0         0         0         0         0
         0         0         0         0         0         0         0         0
         0         0         0         0         0         0         0         0
         0         0         0         0         0         0         0         0
         0         0         0         0         0         0         0         0
         0         0         0         0         0         0         0         0
         0         0         0         0         0         0         0         0
         0         0         0         0         0         0         0         0
         0         0         0         0         0         0         0         0
         0         0         0         0         0         0         0         0
         0         0         0         0         0         0         0         0
         0         0         0         0         0         0         0         0
         0         0         0         0         0         0         0         0
         0         0         0         0         0         0         0         0
         0         0         0         0         0         0         0         0
         0         0         0         0         0         0         0         0
         0         0         0         0         0         0         0         0
         0         0         0         0         0         0         0         0
         0         0         0         0         0         0         0         0
         0         0         0         0         0         0         0         0
         0         0         0         0         0         0         0         0
         0         0         0         0         0         0         0         0
         0         0         0         0         0         0         0         0
         0         0         0         0         0         0         0         0
         0         0         0         0         0         0         0         0
         0         0         0         0         0         0         0         0
         0         0         0         0         0         0         0         0
         0         0         0         0         0         0         0         0
         0         0         0         0         0         0         0         0
         0         0         0         0         0         0         0         0
         0         0         0         0         0         0         0         0
         0         0         0         0         0         0         0         0
         0         0         0         0         0         0         0         0
         0         0         0         0         0         0         0         0
         0         0         0         0         0         0         0         0
         0         0         0         0         0         0         0         0
         0         0         0         0         0         0         0         0
         0         0         0         0         0         0         0         0
         0         0         0         0         0         0         0         0
         0         0         0         0         0         0         0         0
         0         0         0         0         0         0         0         0
         0         0         0         0         0         0         0         0
         0         0         0         0         0         0         0         0
         0         0         0         0         0         0         0         0
         0         0         0         0         0         0         0         0
         0         0         0         0         0         0         0         0
         0         0         0         0         0         0         0         0
         0         0         0         0         0         0         0         0
         0         0         0         0         0         0         0         0
         0         0         0         0         0         0         0         0
         0         0         0         0         0         0         0         0
         0         0         0         0         0         0         0         0
         0         0         0         0         0         0         0         0
         0         0         0         0         0         0         0         0
         0         0         0         0         0         0         0         0
         0         0         0         0         0         0         0         0
         0         0         0         0         0         0         0         0
         0         0         0         0         0         0         0         0
         0         0         0         0         0         0         0         0
         0         0         0         0         0         0         0         0
         0         0         0         0         0         0         0         0
         0         0         0         0         0         0         0         0
         0         0         0         0         0         0         0         0
         0         0         0         0         0         0         0         0
         0         0         0         0         0         0         0         0
         0         0         0         0         0         0         0         0
         0         0         0         0         0         0         0         0
         0         0         0         0         0         0         0         0
         0         0         0         0         0         0         0         0
         0         0         0         0         0         0         0         0
         0         0         0         0         0         0         0         0
         0         0         0         0         0         0         0         0
         0         0         0         0         0         0         0         0
         0         0         0         0         0         0         0         0
         0         0         0         0         0         0         0         0
         0         0         0         0         0         0         0         0
         0         0         0         0         0         0         0         0
         0         0         0         0         0         0         0         0
         0         0         0         0         0         0         0         0
         0         0         0         0         0         0         0         0
         0         0         0         0         0         0         0         0
         0         0         0         0         0         0         0         0
         0         0         0         0         0         0         0         0
         0         0         0         0         0         0         0         0
         0         0         0         0         0         0         0         0
         0         0         0         0         0         0         0         0
         0         0         0         0         0         0         0         0
         0         0         0         0         0         0         0         0
         0         0         0         0         0         0         0         0
         0         0         0         0         0         0         0         0
         0         0         0         0         0         0         0         0
         0         0         0         0         0         0         0         0
         0         0         0         0         0         0         0         0
         0         0         0         0         0         0         0         0
         0         0         0         0         0         0         0         0
         0         0         0         0         0         0         0         0
         0         0         0         0         0         0         0         0
         0         0         0         0         0         0         0         0
         0         0         0         0         0         0         0         0
         0         0         0         0         0         0         0         0
         0         0         0         0         0         0         0         0
         0         0         0         0         0         0         0         0
         0         0         0         0         0         0         0         0
         0         0         0         0         0         0         0         0
         0         0         0         0         0         0         0         0
         0         0         0         0         0         0         0         0
         0         0         0         0         0         0         0         0
         0         0         0         0         0         0         0         0
         0         0         0         0         0         0         0         0
         0         0         0         0         0         0         0         0
         0         0         0         0         0         0         0         0
         0         0         0         0         0         0         0         0
         0         0         0         0         0         0         0         0
         0         0         0         0         0         0         0         0
         0         0         0         0         0         0         0         0
         0         0         0         0         0         0         0         0
         0         0         0         0         0         0         0         0
         0         0         0         0         0         0         0         0
         0         0         0         0         0         0         0         0
         0         0         0         0         0         0         0         0
         0         0         0         0         0         0         0         0
         0         0         0         0         0         0         0         0
         0         0         0         0         0         0         0         0
         0         0         0         0         0         0         0         0
         0         0         0         0         0         0         0         0
         0         0         0         0         0         0         0         0
         0         0         0         0         0         0         0         0
         0         0         0         0         0         0         0         0
         0         0         0         0         0         0         0         0
         0         0         0         0         0         0         0         0
         0         0         0         0         0         0         0         0
         0         0         0         0         0         0         0         0
         0         0         0         0         0         0         0         0
         0         0         0         0         0         0         0         0
         0         0         0         0         0         0         0         0
         0         0         0         0         0         0         0         0
         0         0         0         0         0         0         0         0
         0         0         0         0         0         0         0         0
         0         0         0         0         0         0         0         0
         0         0         0         0         0         0         0         0
         0         0         0         0         0         0         0         0
         0         0         0         0         0         0         0         0
         0         0         0         0         0         0         0         0
         0         0         0         0         0         0         0         0
         0         0         0         0         0         0         0         0
         0         0         0         0         0         0         0         0
         0         0         0         0         0         0         0         0
         0         0         0         0         0         0         0         0
         0         0         0         0         0         0         0         0
         0         0         0         0         0         0         0         0
         0         0         0         0         0         0         0         0
         0         0         0         0         0         0         0         0
         0         0         0         0         0         0         0         0
         0         0         0         0         0         0         0         0
         0         0         0         0         0         0         0         0
         0         0         0         0         0         0         0         0
         0         0         0         0         0         0         0         0
         0         0         0         0         0         0         0         0
         0         0         0         0         0         0         0         0
         0         0         0         0         0         0         0         0
         0         0         0         0         0         0         0         0
         0         0         0         0         0         0         0         0
         0         0         0         0         0         0         0         0
         0         0         0         0         0         0         0         0
         0         0         0         0         0         0         0         0
         0         0         0         0         0         0         0         0
         0         0         0         0         0         0         0         0
         0         0         0         0         0         0         0         0
         0         0         0         0         0         0         0         0
         0         0         0         0         0         0         0         0
         0         0         0         0         0         0         0         0
         0         0         0         0         0         0         0         0
         0         0         0         0         0         0         0         0
         0         0         0         0         0         0         0         0
         0         0         0         0         0         0         0         0
         0         0         0         0         0         0         0         0
         0         0         0         0         0         0         0         0
         0         0         0         0         0         0         0         0
         0         0         0         0         0         0         0         0
         0         0         0         0         0         0         0         0
         0         0         0         0         0         0         0         0
         0         0         0         0         0         0         0         0
         0         0         0         0         0         0         0         0
         0         0         0         0         0         0         0         0
         0         0         0         0         0         0         0         0
         0         0         0         0         0         0         0         0
         0         0         0         0         0         0         0         0
         0         0         0         0         0         0         0         0
         0         0         0         0         0         0         0         0
         0         0         0         0         0         0         0         0
         0         0         0         0         0         0         0         0
         0         0         0         0         0         0         0         0
         0         0         0         0         0         0         0         0
         0         0         0         0         0         0         0         0
         0         0         0         0         0         0         0         0
         0         0         0         0         0         0         0         0
         0         0         0         0         0         0         0         0
         0         0         0         0         0         0         0         0
         0         0         0         0         0         0         0         0
         0         0         0         0         0         0         0         0
         0         0         0         0         0         0         0         0
         0         0         0         0         0         0         0         0
         0         0         0         0         0         0         0         0
         0         0         0         0         0         0         0         0
         0         0         0         0         0         0         0         0
         0         0         0         0         0         0         0         0
         0         0         0         0         0         0         0         0
         0         0         0         0         0         0         0         0
         0         0         0         0         0         0         0         0
         0         0         0         0         0         0         0         0
         0         0         0         0         0         0         0         0
         0         0         0         0         0         0         0         0
         0         0         0         0         0         0         0         0
         0         0         0         0         0         0         0         0
         0         0         0         0         0         0         0         0
         0         0         0         0         0         0         0         0
         0         0         0         0         0         0         0         0
         0         0         0         0         0         0         0         0
         0         0         0         0         0         0         0         0
         0         0         0         0         0         0         0         0
         0         0         0         0         0         0         0         0
         0         0         0         0         0         0         0         0
         0         0         0         0         0         0         0         0
         0         0         0         0         0         0         0         0
         0         0         0         0         0         0         0         0
         0         0         0         0         0         0         0         0
         0         0         0         0         0         0         0         0
         0         0         0         0         0         0         0         0
         0         0         0         0         0         0         0         0
         0         0         0         0         0         0         0         0
         0         0         0         0         0         0         0         0
         0         0         0         0         0         0         0         0
         0         0         0         0         0         0         0         0
         0         0         0         0         0         0         0         0
         0         0         0         0         0         0         0         0
         0         0         0         0         0         0         0         0
         0         0         0         0         0         0         0         0
         0         0         0         0         0         0         0         0
         0         0         0         0         0         0         0         0
         0         0         0         0         0         0         0         0
         0         0         0         0         0         0         0         0
         0         0         0         0         0         0         0         0
         0         0         0         0         0         0         0         0
         0         0         0         0         0         0         0         0
         0         0         0         0         0         0         0         0
         0         0         0         0         0         0         0         0
         0         0         0         0         0         0         0         0
         0         0         0         0         0         0         0         0
         0         0         0         0         0         0         0         0
         0         0         0         0         0         0         0         0
         0         0         0         0         0         0         0         0
         0         0         0         0         0         0         0         0
         0         0         0         0         0         0         0         0
         0         0         0         0         0         0         0         0
         0         0         0         0         0         0         0         0
         0         0         0         0         0         0         0         0
         0         0         0         0         0         0         0         0
         0         0         0         0         0         0         0         0
         0         0         0         0         0         0         0         0
         0         0         0         0         0         0         0         0
         0         0         0         0         0         0         0         0
         0         0         0         0         0         0         0         0
         0         0         0         0         0         0         0         0
         0         0         0         0         0         0         0         0
         0         0         0         0         0         0         0         0
         0         0         0         0         0         0         0         0
         0         0         0         0         0         0         0         0
         0         0         0         0         0         0         0         0
         0         0         0         0         0         0         0         0
         0         0         0         0         0         0         0         0
         0         0         0         0         0         0         0         0
         0         0         0         0         0         0         0         0
         0         0         0         0         0         0         0         0
         0         0         0         0         0         0         0         0
         0         0         0         0         0         0         0         0
         0         0         0         0         0         0         0         0
         0         0         0         0         0         0         0         0
         0         0         0         0         0         0         0         0
         0         0         0         0         0         0         0         0
         0         0         0         0         0         0         0         0
         0         0         0         0         0         0         0         0
         0         0         0         0         0         0         0         0
         0         0         0         0         0         0         0         0
         0         0         0         0         0         0         0         0
         0         0         0         0         0         0         0         0
         0         0         0         0         0         0         0         0
         0         0         0         0         0         0         0         0
         0         0         0         0         0         0         0         0
         0         0         0         0         0         0         0         0
         0         0         0         0         0         0         0         0
         0         0         0         0         0         0         0         0
         0         0         0         0         0         0         0         0
         0         0         0         0         0         0         0         0
         0         0         0         0         0         0         0         0
         0         0         0         0         0         0         0         0
         0         0         0         0         0         0         0         0
         0         0         0         0         0         0         0         0
         0         0         0         0         0         0         0         0
         0         0         0         0         0         0         0         0
         0         0         0         0         0         0         0         0
         0         0         0         0         0         0         0         0
         0         0         0         0         0         0         0         0
         0         0         0         0         0         0         0         0
         0         0         0         0         0         0         0         0
         0         0         0         0         0         0         0         0
         0         0         0         0         0         0         0         0
         0         0         0         0         0         0         0         0
         0         0         0         0         0         0         0         0
         0         0         0         0         0         0         0         0
         0         0         0         0         0         0         0         0
         0         0         0         0         0         0         0         0
         0         0         0         0         0         0         0         0
         0         0         0         0         0         0         0         0
         0         0         0         0         0         0         0         0
         0         0         0         0         0         0         0         0
         0         0         0         0         0         0         0         0
         0         0         0         0         0         0         0         0
         0         0         0         0         0         0         0         0
         0         0         0         0         0         0         0         0
         0         0         0         0         0         0         0         0
         0         0         0         0         0         0         0         0
         0         0         0         0         0         0         0         0
         0         0         0         0         0         0         0         0
         0         0         0         0         0         0         0         0
         0         0         0         0         0         0         0         0
         0         0         0         0         0         0         0         0
         0         0         0         0         0         0         0         0
         0         0         0         0         0         0         0         0
         0         0         0         0         0         0         0         0
         0         0         0         0         0         0         0         0
         0         0         0         0         0         0         0         0
         0         0         0         0         0         0         0         0
         0         0         0         0         0         0         0         0
         0         0         0         0         0         0         0         0
         0         0         0         0         0         0         0         0
         0         0         0         0         0         0         0         0
         0         0         0         0         0         0         0         0
         0         0         0         0         0         0         0         0
         0         0         0         0         0         0         0         0
         0         0         0         0         0         0         0         0
         0         0         0         0         0         0         0         0
         0         0         0         0         0         0         0         0
         0         0         0         0         0         0         0         0
         0         0         0         0         0         0         0         0
         0         0         0         0         0         0         0         0
         0         0         0         0         0         0         0         0
         0         0         0         0         0         0         0         0
         0         0         0         0         0         0         0         0
         0         0         0         0         0         0         0         0
         0         0         0         0         0         0         0         0
         0         0         0         0         0         0         0         0
         0         0         0         0         0         0         0         0
         0         0         0         0         0         0         0         0
         0         0         0         0         0         0         0         0
         0         0         0         0         0         0         0         0
         0         0         0         0         0         0         0         0
         0         0         0         0         0         0         0         0
         0         0         0         0         0         0         0         0
         0         0         0         0         0         0         0         0
         0         0         0         0         0         0         0         0
         0         0         0         0         0         0         0         0
         0         0         0         0         0         0         0         0
         0         0         0         0         0         0         0         0
         0         0         0         0         0         0         0         0
         0         0         0         0         0         0         0         0
         0         0         0         0         0         0         0         0
         0         0         0         0         0         0         0         0
         0         0         0         0         0         0         0         0
         0         0         0         0         0         0         0         0
         0         0         0         0         0         0         0         0
         0         0         0         0         0         0         0         0
         0         0         0         0         0         0         0         0
         0         0         0         0         0         0         0         0
         0         0         0         0         0         0         0         0
         0         0         0         0         0         0         0         0
         0         0         0         0         0         0         0         0
         0         0         0         0         0         0         0         0
         0         0         0         0         0         0         0         0
         0         0         0         0         0         0         0         0
         0         0         0         0         0         0         0         0
         0         0         0         0         0         0         0         0
         0         0         0         0         0         0         0         0
         0         0         0         0         0         0         0         0
         0         0         0         0         0         0         0         0
         0         0         0         0         0         0         0         0
         0         0         0         0         0         0         0         0
         0         0         0         0         0         0         0         0
         0         0         0         0         0         0         0         0
         0         0         0         0         0         0         0         0
         0         0         0         0         0         0         0         0
         0         0         0         0         0         0         0         0
         0         0         0         0         0         0         0         0
         0         0         0         0         0         0         0         0
         0         0         0         0         0         0         0         0
         0         0         0         0         0         0         0         0
         0         0         0         0         0         0         0         0
         0         0         0         0         0         0         0         0
         0         0         0         0         0         0         0         0
         0         0         0         0         0         0         0         0
         0         0         0         0         0         0         0         0
         0         0         0         0         0         0         0         0
         0         0         0         0         0         0         0         0
         0         0         0         0         0         0         0         0
         0         0         0         0         0         0         0         0
         0         0         0         0         0         0         0         0
         0         0         0         0         0         0         0         0
         0         0         0         0         0         0         0         0
         0         0         0         0         0         0         0         0
         0         0         0         0         0         0         0         0
         0         0         0         0         0         0         0         0
         0         0         0         0         0         0         0         0
         0         0         0         0         0         0         0         0
         0         0         0         0         0         0         0         0
         0         0         0         0         0         0         0         0
         0         0         0         0         0         0         0         0
         0         0         0         0         0         0         0         0
         0         0         0         0         0         0         0         0
         0         0         0         0         0         0         0         0
         0         0         0         0         0         0         0         0
         0         0         0         0         0         0         0         0
         0         0         0         0         0         0         0         0
         0         0         0         0         0         0         0         0
         0         0         0         0         0         0         0         0
         0         0         0         0         0         0         0         0
         0         0         0         0         0         0         0         0
         0         0         0         0         0         0         0         0
         0         0         0         0         0         0         0         0
         0         0         0         0         0         0         0         0
         0         0         0         0         0         0         0         0
         0         0         0         0         0         0         0         0
         0         0         0         0         0         0         0         0
         0         0         0         0         0         0         0         0
         0         0         0         0         0         0         0         0
         0         0         0         0         0         0         0         0
         0         0         0         0         0         0         0         0
         0         0         0         0         0         0         0         0
         0         0         0         0         0         0         0         0
         0         0         0         0         0         0         0         0
         0         0         0         0         0         0         0         0
         0         0         0         0         0         0         0         0
         0         0         0         0         0         0         0         0
         0         0         0         0         0         0         0         0
         0         0         0         0         0         0         0         0
         0         0         0         0         0         0         0         0
         0         0         0         0         0         0         0         0
         0         0         0         0         0         0         0         0
         0         0         0         0         0         0         0         0
         0         0         0         0         0         0         0         0
         0         0         0         0         0         0         0         0
         0         0         0         0         0         0         0         0
         0         0         0         0         0         0         0         0
         0         0         0         0         0         0         0         0
         0         0         0         0         0         0         0         0
         0         0         0         0         0         0         0         0
         0         0         0         0         0         0         0         0
         0         0         0         0         0         0         0         0
         0         0         0         0         0         0         0         0
         0         0         0         0         0         0         0         0
         0         0         0         0         0         0         0         0
         0         0         0         0         0         0         0         0
         0         0         0         0         0         0         0         0
         0         0         0         0         0         0         0         0
         0         0         0         0         0         0         0         0
         0         0         0         0         0         0         0         0
         0         0         0         0         0         0         0         0
         0         0         0         0         0         0         0         0
         0         0         0         0         0         0         0         0
         0         0         0         0         0         0         0         0
         0         0         0         0         0         0         0         0
         0         0         0         0         0         0         0         0
         0         0         0         0         0         0         0         0
         0         0         0         0         0         0         0         0
         0         0         0         0         0         0         0         0
         0         0         0         0         0         0         0         0
         0         0         0         0         0         0         0         0
         0         0         0         0         0         0         0         0
         0         0         0         0         0         0         0         0
         0         0         0         0         0         0         0         0
         0         0         0         0         0         0         0         0
         0         0         0         0         0         0         0         0
         0         0         0         0         0         0         0         0
         0         0         0         0         0         0         0         0
         0         0         0         0         0         0         0         0
         0         0         0         0         0         0         0         0
         0         0         0         0         0         0         0         0
         0         0         0         0         0         0         0         0
         0         0         0         0         0         0         0         0
         0         0         0         0         0         0         0         0
         0         0         0         0         0         0         0         0
         0         0         0         0         0         0         0         0
         0         0         0         0         0         0         0         0
         0         0         0         0         0         0         0         0
         0         0         0         0         0         0         0         0
         0         0         0         0         0         0         0         0
         0         0         0         0         0         0         0         0
         0         0         0         0         0         0         0         0
         0         0         0         0         0         0         0         0
         0         0         0         0         0         0         0         0
         0         0         0         0         0         0         0         0
         0         0         0         0         0         0         0         0
         0         0         0         0         0         0         0         0
         0         0         0         0         0         0         0         0
         0         0         0         0         0         0         0         0
         0         0         0         0         0         0         0         0
         0         0         0         0         0         0         0         0
         0         0         0         0         0         0         0         0
         0         0         0         0         0         0         0         0
         0         0         0         0         0         0         0         0
         0         0         0         0         0         0         0         0
         0         0         0         0         0         0         0         0
         0         0         0         0         0         0         0         0
         0         0         0         0         0         0         0         0
         0         0         0         0         0         0         0         0
         0         0         0         0         0         0         0         0
         0         0         0         0         0         0         0         0
         0         0         0         0         0         0         0         0
         0         0         0         0         0         0         0         0
         0         0         0         0         0         0         0         0
         0         0         0         0         0         0         0         0
         0         0         0         0         0         0         0         0
         0         0         0         0         0         0         0         0
         0         0         0         0         0         0         0         0
         0         0         0         0         0         0         0         0
         0         0         0         0         0         0         0         0
         0         0         0         0         0         0         0         0
         0         0         0         0         0         0         0         0
         0         0         0         0         0         0         0         0
         0         0         0         0         0         0         0         0
         0         0         0         0         0         0         0         0
         0         0         0         0         0         0         0         0
         0         0         0         0         0         0         0         0
         0         0         0         0         0         0         0         0
         0         0         0         0         0         0         0         0
         0         0         0         0         0         0         0         0
         0         0         0         0         0         0         0         0
         0         0         0         0         0         0         0         0
         0         0         0         0         0         0         0         0
         0         0         0         0         0         0         0         0
         0         0         0         0         0         0         0         0
         0         0         0         0         0         0         0         0
         0         0         0         0         0         0         0         0
         0         0         0         0         0         0         0         0
         0         0         0         0         0         0         0         0
         0         0         0         0         0         0         0         0
         0         0         0         0         0         0         0         0
         0         0         0         0         0         0         0         0
         0         0         0         0         0         0         0         0
         0         0         0         0         0         0         0         0
         0         0         0         0         0         0         0         0
         0         0         0         0         0         0         0         0
         0         0         0         0         0         0         0         0
         0         0         0         0         0         0         0         0
         0         0         0         0         0         0         0         0
         0         0         0         0         0         0         0         0
         0         0         0         0         0         0         0         0
         0         0         0         0         0         0         0         0
         0         0         0         0         0         0         0         0
         0         0         0         0         0         0         0         0
         0         0         0         0         0         0         0         0
         0         0         0         0         0         0         0         0
         0         0         0         0         0         0         0         0
         0         0         0         0         0         0         0         0
         0         0         0         0         0         0         0         0
         0         0         0         0         0         0         0         0
         0         0         0         0         0         0         0         0
         0         0         0         0         0         0         0         0
         0         0         0         0         0         0         0         0
         0         0         0         0         0         0         0         0
         0         0         0         0         0         0         0         0
         0         0         0         0         0         0         0         0
         0         0         0         0         0         0         0         0
         0         0         0         0         0         0         0         0
         0         0         0         0         0         0         0         0
         0         0         0         0         0         0         0         0
         0         0         0         0         0         0         0         0
         0         0         0         0         0         0         0         0
         0         0         0         0         0         0         0         0
         0         0         0         0         0         0         0         0
         0         0         0         0         0         0         0         0
         0         0         0         0         0         0         0         0
         0         0         0         0         0         0         0         0
         0         0         0         0         0         0         0         0
         0         0         0         0         0         0         0         0
         0         0         0         0         0         0         0         0
         0         0         0         0         0         0         0         0
         0         0         0         0         0         0         0         0
         0         0         0         0         0         0         0         0
         0         0         0         0         0         0         0         0
         0         0         0         0         0         0         0         0
         0         0         0         0         0         0         0         0
         0         0         0         0         0         0         0         0
         0         0         0         0         0         0         0         0
         0         0         0         0         0         0         0         0
         0         0         0         0         0         0         0         0
         0         0         0         0         0         0         0         0
         0         0         0         0         0         0         0         0
         0         0         0         0         0         0         0         0
         0         0         0         0         0         0         0         0
         0         0         0         0         0         0         0         0
         0         0         0         0         0         0         0         0
         0         0         0         0         0         0         0         0
         0         0         0         0         0         0         0         0
         0         0         0         0         0         0         0         0
         0         0         0         0         0         0         0         0
         0         0         0         0         0         0         0         0
         0         0         0         0         0         0         0         0
         0         0         0         0         0         0         0         0
         0         0         0         0         0         0         0         0
         0         0         0         0         0         0         0         0
         0         0         0         0         0         0         0         0
         0         0         0         0         0         0         0         0
         0         0         0         0         0         0         0         0
         0         0         0         0         0         0         0         0
         0         0         0         0         0         0         0         0
         0         0         0         0         0         0         0         0
         0         0         0         0         0         0         0         0
         0         0         0         0         0         0         0         0
         0         0         0         0         0         0         0         0
         0         0         0         0         0         0         0         0
         0         0         0         0         0         0         0         0
         0         0         0         0         0         0         0         0
         0         0         0         0         0         0         0         0
         0         0         0         0         0         0         0         0
         0         0         0         0         0         0         0         0
         0         0         0         0         0         0         0         0
         0         0         0         0         0         0         0         0
         0         0         0         0         0         0         0         0
         0         0         0         0         0         0         0         0
         0         0         0         0         0         0         0         0
         0         0         0         0         0         0         0         0
         0         0         0         0         0         0         0         0
         0         0         0         0         0         0         0         0
         0         0         0         0         0         0         0         0
         0         0         0         0         0         0         0         0
         0         0         0         0         0         0         0         0
         0         0         0         0         0         0         0         0
         0         0         0         0         0         0         0         0
         0         0         0         0         0         0         0         0
         0         0         0         0         0         0         0         0
         0         0         0         0         0         0         0         0
         0         0         0         0         0         0         0         0
         0         0         0         0         0         0         0         0
         0         0         0         0         0         0         0         0
         0         0         0         0         0         0         0         0
         0         0         0         0         0         0         0         0
         0         0         0         0         0         0         0         0
         0         0         0         0         0         0         0         0
         0         0         0         0         0         0         0         0
         0         0         0         0         0         0         0         0
         0         0         0         0         0         0         0         0
         0         0         0         0         0         0         0         0
         0         0         0         0         0         0         0         0
         0         0         0         0         0         0         0         0
         0         0         0         0         0         0         0         0
         0         0         0         0         0         0         0         0
         0         0         0         0         0         0         0         0
         0         0         0         0         0         0         0         0
         0         0         0         0         0         0         0         0
         0         0         0         0         0         0         0         0
         0         0         0         0         0         0         0         0
         0         0         0         0         0         0         0         0
         0         0         0         0         0         0         0         0
         0         0         0         0         0         0         0         0
         0         0         0         0         0         0         0         0
         0         0         0         0         0         0         0         0
         0         0         0         0         0         0         0         0
         0         0         0         0         0         0         0         0
         0         0         0         0         0         0         0         0
         0         0         0         0         0         0         0         0
         0         0         0         0         0         0         0         0
         0         0         0         0         0         0         0         0
         0         0         0         0         0         0         0         0
         0         0         0         0         0         0         0         0
         0         0         0         0         0         0         0         0
         0         0         0         0         0         0         0         0
         0         0         0         0         0         0         0         0
         0         0         0         0         0         0         0         0
         0         0         0         0         0         0         0         0
         0         0         0         0         0         0         0         0
         0         0         0         0         0         0         0         0
         0         0         0         0         0         0         0         0
         0         0         0         0         0         0         0         0
         0         0         0         0         0         0         0         0
         0         0         0         0         0         0         0         0
         0         0         0         0         0         0         0         0
         0         0         0         0         0         0         0         0
         0         0         0         0         0         0         0         0
         0         0         0         0         0         0         0         0
         0         0         0         0         0         0         0         0
         0         0         0         0         0         0         0         0
         0         0         0         0         0         0         0         0
         0         0         0         0         0         0         0         0
         0         0         0         0         0         0         0         0
         0         0         0         0         0         0         0         0
         0         0         0         0         0         0         0         0
         0         0         0         0         0         0         0         0
         0         0         0         0         0         0         0         0
         0         0         0         0         0         0         0         0
         0         0         0         0         0         0         0         0
         0         0         0         0         0         0         0         0
         0         0         0         0         0         0         0         0
         0         0         0         0         0         0         0         0
         0         0         0         0         0         0         0         0
         0         0         0         0         0         0         0         0
         0         0         0         0         0         0         0         0
         0         0         0         0         0         0         0         0
         0         0         0         0         0         0         0         0
         0         0         0         0         0         0         0         0
         0         0         0         0         0         0         0         0
         0         0         0         0         0         0         0         0
         0         0         0         0         0         0         0         0
         0         0         0         0         0         0         0         0
         0         0         0         0         0         0         0         0
         0         0         0         0         0         0         0         0
         0         0         0         0         0         0         0         0
         0         0         0         0         0         0         0         0
         0         0         0         0         0         0         0         0
         0         0         0         0         0         0         0         0
         0         0         0         0         0         0         0         0
         0         0         0         0         0         0         0         0
         0         0         0         0         0         0         0         0
         0         0         0         0         0         0         0         0
         0         0         0         0         0         0         0         0
         0         0         0         0         0         0         0         0
         0         0         0         0         0         0         0         0
         0         0         0         0         0         0         0         0
         0         0         0         0         0         0         0         0
         0         0         0         0         0         0         0         0
         0         0         0         0         0         0         0         0
         0         0         0         0         0         0         0         0
         0         0         0         0         0         0         0         0
         0         0         0         0         0         0         0         0
         0         0         0         0         0         0         0         0
         0         0         0         0         0         0         0         0
         0         0         0         0         0         0         0         0
         0         0         0         0         0         0         0         0
         0         0         0         0         0         0         0         0
         0         0         0         0         0         0         0         0
         0         0         0         0         0         0         0         0
         0         0         0         0         0         0         0         0
         0         0         0         0         0         0         0         0
         0         0         0         0         0         0         0         0
         0         0         0         0         0         0         0         0
         0         0         0         0         0         0         0         0
         0         0         0         0         0         0         0         0
         0         0         0         0         0         0         0         0
         0         0         0         0         0         0         0         0
         0         0         0         0         0         0         0         0
         0         0         0         0         0         0         0         0
         0         0         0         0         0         0         0         0
         0         0         0         0         0         0         0         0
         0         0         0         0         0         0         0         0
         0         0         0         0         0         0         0         0
         0         0         0         0         0         0         0         0
         0         0         0         0         0         0         0         0
         0         0         0         0         0         0         0         0
         0         0         0         0         0         0         0         0
         0         0         0         0         0         0         0         0
         0         0         0         0         0         0         0         0
         0         0         0         0         0         0         0         0
         0         0         0         0         0         0         0         0
         0         0         0         0         0         0         0         0
         0         0         0         0         0         0         0         0
         0         0         0         0         0         0         0         0
         0         0         0         0         0         0         0         0
         0         0         0         0         0         0         0         0
         0         0         0         0         0         0         0         0
         0         0         0         0         0         0         0         0
         0         0         0         0         0         0         0         0
         0         0         0         0         0         0         0         0
         0         0         0         0         0         0         0         0
         0         0         0         0         0         0         0         0
         0         0         0         0         0         0         0         0
         0         0         0         0         0         0         0         0
         0         0         0         0         0         0         0         0
         0         0         0         0         0         0         0         0
         0         0         0         0         0         0         0         0
         0         0         0         0         0         0         0         0
         0         0         0         0         0         0         0         0
         0         0         0         0         0         0         0         0
         0         0         0         0         0         0         0         0
         0         0         0         0         0         0         0         0
         0         0         0         0         0         0         0         0
         0         0         0         0         0         0         0         0
         0         0         0         0         0         0         0         0
         0         0         0         0         0         0         0         0
         0         0         0         0         0         0         0         0
         0         0         0         0         0         0         0         0
         0         0         0         0         0         0         0         0
         0         0         0         0         0         0         0         0
         0         0         0         0         0         0         0         0
         0         0         0         0         0         0         0         0
         0         0         0         0         0         0         0         0
         0         0         0         0         0         0         0         0
         0         0         0         0         0         0         0         0
         0         0         0         0         0         0         0         0
         0         0         0         0         0         0         0         0
         0         0         0         0         0         0         0         0
         0         0         0         0         0         0         0         0
         0         0         0         0         0         0         0         0
         0         0         0         0         0         0         0         0
         0         0         0         0         0         0         0         0
         0         0         0         0         0         0         0         0
         0         0         0         0         0         0         0         0
         0         0         0         0         0         0         0         0
         0         0         0         0         0         0         0         0
         0         0         0         0         0         0         0         0
         0         0         0         0         0         0         0         0
         0         0         0         0         0         0         0         0
         0         0         0         0         0         0         0         0
         0         0         0         0         0         0         0         0
         0         0         0         0         0         0         0         0
         0         0         0         0         0         0         0         0
         0         0         0         0         0         0         0         0
         0         0         0         0         0         0         0         0
         0         0         0         0         0         0         0         0
         0         0         0         0         0         0         0         0
         0         0         0         0         0         0         0         0
         0         0         0         0         0         0         0         0
         0         0         0         0         0         0         0         0
         0         0         0         0         0         0         0         0
         0         0         0         0         0         0         0         0
         0         0         0         0         0         0         0         0
         0         0         0         0         0         0         0         0
         0         0         0         0         0         0         0         0
         0         0         0         0         0         0         0         0
         0         0         0         0         0         0         0         0
         0         0         0         0         0         0         0         0
         0         0         0         0         0         0         0         0
         0         0         0         0         0         0         0         0
         0         0         0         0         0         0         0         0
         0         0         0         0         0         0         0         0
         0         0         0         0         0         0         0         0
         0         0         0         0         0         0         0         0
         0         0         0         0         0         0         0         0
         0         0         0         0         0         0         0         0
         0         0         0         0         0         0         0         0
         0         0         0         0         0         0         0         0
         0         0         0         0         0         0         0         0
         0         0         0         0         0         0         0         0
         0         0         0         0         0         0         0         0
         0         0         0         0         0         0         0         0
         0         0         0         0         0         0         0         0
         0         0         0         0         0         0         0         0
         0         0         0         0         0         0         0         0
         0         0         0         0         0         0         0         0
         0         0         0         0         0         0         0         0
         0         0         0         0         0         0         0         0
         0         0         0         0         0         0         0         0
         0         0         0         0         0         0         0         0
         0         0         0         0         0         0         0         0
         0         0         0         0         0         0         0         0
         0         0         0         0         0         0         0         0
         0         0         0         0         0         0         0         0
         0         0         0         0         0         0         0         0
         0         0         0         0         0         0         0         0
         0         0         0         0         0         0         0         0
         0         0         0         0         0         0         0         0
         0         0         0         0         0         0         0         0
         0         0         0         0         0         0         0         0
         0         0         0         0         0         0         0         0
         0         0         0         0         0         0         0         0
         0         0         0         0         0         0         0         0
         0         0         0         0         0         0         0         0
         0         0         0         0         0         0         0         0
         0         0         0         0         0         0         0         0
         0         0         0         0         0         0         0         0
         0         0         0         0         0         0         0         0
         0         0         0         0         0         0         0         0
         0         0         0         0         0         0         0         0
         0         0         0         0         0         0         0         0
         0         0         0         0         0         0         0         0
         0         0         0         0         0         0         0         0
         0         0         0         0         0         0         0         0
         0         0         0         0         0         0         0         0
         0         0         0         0         0         0         0         0
         0         0         0         0         0         0         0         0
         0         0         0         0         0         0         0         0
         0         0         0         0         0         0         0         0
         0         0         0         0         0         0         0         0
         0         0         0         0         0         0         0         0
         0         0         0         0         0         0         0         0
         0         0         0         0         0         0         0         0
         0         0         0         0         0         0         0         0
         0         0         0         0         0         0         0         0
         0         0         0         0         0         0         0         0
         0         0         0         0         0         0         0         0
         0         0         0         0         0         0         0         0
         0         0         0         0         0         0         0         0
         0         0         0         0         0         0         0         0
         0         0         0         0         0         0         0         0
         0         0         0         0         0         0         0         0
         0         0         0         0         0         0         0         0
         0         0         0         0         0         0         0         0
         0         0         0         0         0         0         0         0
         0         0         0         0         0         0         0         0
         0         0         0         0         0         0         0         0
         0         0         0         0         0         0         0         0
         0         0         0         0         0         0         0         0
         0         0         0         0         0         0         0         0
         0         0         0         0         0         0         0         0
         0         0         0         0         0         0         0         0
         0         0         0         0         0         0         0         0
         0         0         0         0         0         0         0         0
         0         0         0         0         0         0         0         0
         0         0         0         0         0         0         0         0
         0         0         0         0         0         0         0         0
         0         0         0         0         0         0         0         0
         0         0         0         0         0         0         0         0
         0         0         0         0         0         0         0         0
         0         0         0         0         0         0         0         0
         0         0         0         0         0         0         0         0
         0         0         0         0         0         0         0         0
         0         0         0         0         0         0         0         0
         0         0         0         0         0         0         0         0
         0         0         0         0         0         0         0         0
         0         0         0         0         0         0         0         0
         0         0         0         0         0         0         0         0
         0         0         0         0         0         0         0         0
         0         0         0         0         0         0         0         0
         0         0         0         0         0         0         0         0
         0         0         0         0         0         0         0         0
         0         0         0         0         0         0         0         0
         0         0         0         0         0         0         0         0
         0         0         0         0         0         0         0         0
         0         0         0         0         0         0         0         0
         0         0         0         0         0         0         0         0
         0         0         0         0         0         0         0         0
         0         0         0         0         0         0         0         0
         0         0         0         0         0         0         0         0
         0         0         0         0         0         0         0         0
         0         0         0         0         0         0         0         0
         0         0         0         0         0         0         0         0
         0         0         0         0         0         0         0         0
         0         0         0         0         0         0         0         0
         0         0         0         0         0         0         0         0
         0         0         0         0         0         0         0         0
         0         0         0         0         0         0         0         0
         0         0         0         0         0         0         0         0
         0         0         0         0         0         0         0         0
         0         0         0         0         0         0         0         0
         0         0         0         0         0         0         0         0
         0         0         0         0         0         0         0         0
         0         0         0         0         0         0         0         0
         0         0         0         0         0         0         0         0
         0         0         0         0         0         0         0         0
         0         0         0         0         0         0         0         0
         0         0         0         0         0         0         0         0
         0         0         0         0         0         0         0         0
         0         0         0         0         0         0         0         0
         0         0         0         0         0         0         0         0
         0         0         0         0         0         0         0         0
         0         0         0         0         0         0         0         0
         0         0         0         0         0         0         0         0
         0         0         0         0         0         0         0         0
         0         0         0         0         0         0         0         0
         0         0         0         0         0         0         0         0
         0         0         0         0         0         0         0         0
         0         0         0         0         0         0         0         0
         0         0         0         0         0         0         0         0
         0         0         0         0         0         0         0         0
         0         0         0         0         0         0         0         0
         0         0         0         0         0         0         0         0
         0         0         0         0         0         0         0         0
         0         0         0         0         0         0         0         0
         0         0         0         0         0         0         0         0
         0         0         0         0         0         0         0         0
         0         0         0         0         0         0         0         0
         0         0         0         0         0         0         0         0
         0         0         0         0         0         0         0         0
         0         0         0         0         0         0         0         0
         0         0         0         0         0         0         0         0
         0         0         0         0         0         0         0         0
         0         0         0         0         0         0         0         0
         0         0         0         0         0         0         0         0
         0         0         0         0         0         0         0         0
         0         0         0         0         0         0         0         0
         0         0         0         0         0         0         0         0
         0         0         0         0         0         0         0         0
         0         0         0         0         0         0         0         0
         0         0         0         0         0         0         0         0
         0         0         0         0         0         0         0         0
         0         0         0         0         0         0         0         0
         0         0         0         0         0         0         0         0
         0         0         0         0         0         0         0         0
         0         0         0         0         0         0         0         0
         0         0         0         0         0         0         0         0
         0         0         0         0         0         0         0         0
         0         0         0         0         0         0         0         0
         0         0         0         0         0         0         0         0
         0         0         0         0         0         0         0         0
         0         0         0         0         0         0         0         0
         0         0         0         0         0         0         0         0
         0         0         0         0         0         0         0         0
         0         0         0         0         0         0         0         0
         0         0         0         0         0         0         0         0
         0         0         0         0         0         0         0         0
         0         0         0         0         0         0         0         0
         0         0         0         0         0         0         0         0
         0         0         0         0         0         0         0         0
         0         0         0         0         0         0         0         0
         0         0         0         0         0         0         0         0
         0         0         0         0         0         0         0         0
         0         0         0         0         0         0         0         0
         0         0         0         0         0         0         0         0
         0         0         0         0         0         0         0         0
         0         0         0         0         0         0         0         0
         0         0         0         0         0         0         0         0
         0         0         0         0         0         0         0         0
         0         0         0         0         0         0         0         0
         0         0         0         0         0         0         0         0
         0         0         0         0         0         0         0         0
         0         0         0         0         0         0         0         0
         0         0         0         0         0         0         0         0
         0         0         0         0         0         0         0         0
         0         0         0         0         0         0         0         0
         0         0         0         0         0         0         0         0
         0         0         0         0         0         0         0         0
         0         0         0         0         0         0         0         0
         0         0         0         0         0         0         0         0
         0         0         0         0         0         0         0         0
         0         0         0         0         0         0         0         0
         0         0         0         0         0         0         0         0
         0         0         0         0         0         0         0         0
         0         0         0         0         0         0         0         0
         0         0         0         0         0         0         0         0
         0         0         0         0         0         0         0         0
         0         0         0         0         0         0         0         0
         0         0         0         0         0         0         0         0
         0         0         0         0         0         0         0         0
         0         0         0         0         0         0         0         0
         0         0         0         0         0         0         0         0
         0         0         0         0         0         0         0         0
         0         0         0         0         0         0         0         0
         0         0         0         0         0         0         0         0
         0         0         0         0         0         0         0         0
         0         0         0         0         0         0         0         0
         0         0         0         0         0         0         0         0
         0         0         0         0         0         0         0         0
         0         0         0         0         0         0         0         0
         0         0         0         0         0         0         0         0
         0         0         0         0         0         0         0         0
         0         0         0         0         0         0         0         0
         0         0         0         0         0         0         0         0
         0         0         0         0         0         0         0         0
         0         0         0         0         0         0         0         0
         0         0         0         0         0         0         0         0
         0         0         0         0         0         0         0         0
         0         0         0         0         0         0         0         0
         0         0         0         0         0         0         0         0
         0         0         0         0         0         0         0         0
         0         0         0         0         0         0         0         0
         0         0         0         0         0         0         0         0
         0         0         0         0         0         0         0         0
         0         0         0         0         0         0         0         0
         0         0         0         0         0         0         0         0
         0         0         0         0         0         0         0         0
         0         0         0         0         0         0         0         0
         0         0         0         0         0         0         0         0
         0         0         0         0         0         0         0         0
         0         0         0         0         0         0         0         0
         0         0         0         0         0         0         0         0
         0         0         0         0         0         0         0         0
         0         0         0         0         0         0         0         0
         0         0         0         0         0         0         0         0
         0         0         0         0         0         0         0         0
         0         0         0         0         0         0         0         0
         0         0         0         0         0         0         0         0
         0         0         0         0         0         0         0         0
         0         0         0         0         0         0         0         0
         0         0         0         0         0         0         0         0
         0         0         0         0         0         0         0         0
         0         0         0         0         0         0         0         0
         0         0         0         0         0         0         0         0
         0         0         0         0         0         0         0         0
         0         0         0         0         0         0         0         0
         0         0         0         0         0         0         0         0
         0         0         0         0         0         0         0         0
         0         0         0         0         0         0         0         0
         0         0         0         0         0         0         0         0
         0         0         0         0         0         0         0         0
         0         0         0         0         0         0         0         0
         0         0         0         0         0         0         0         0
         0         0         0         0         0         0         0         0
         0         0         0         0         0         0         0         0
         0         0         0         0         0         0         0         0
         0         0         0         0         0         0         0         0
         0         0         0         0         0         0         0         0
         0         0         0         0         0         0         0         0
         0         0         0         0         0         0         0         0
         0         0         0         0         0         0         0         0
         0         0         0         0         0         0         0         0
         0         0         0         0         0         0         0         0
         0         0         0         0         0         0         0         0
         0         0         0         0         0         0         0         0
         0         0         0         0         0         0         0         0
         0         0         0         0         0         0         0         0
         0         0         0         0         0         0         0         0
         0         0         0         0         0         0         0         0
         0         0         0         0         0         0         0         0
         0         0         0         0         0         0         0         0
         0         0         0         0         0         0         0         0
         0         0         0         0         0         0         0         0
         0         0         0         0         0         0         0         0
         0         0         0         0         0         0         0         0
         0         0         0         0         0         0         0         0
         0         0         0         0         0         0         0         0
         0         0         0         0         0         0         0         0
         0         0         0         0         0         0         0         0
         0         0         0         0         0         0         0         0
         0         0         0         0         0         0         0         0
         0         0         0         0         0         0         0         0
         0         0         0         0         0         0         0         0
         0         0         0         0         0         0         0         0
         0         0         0         0         0         0         0         0
         0         0         0         0         0         0         0         0
         0         0         0         0         0         0         0         0
         0         0         0         0         0         0         0         0
         0         0         0         0         0         0         0         0
         0         0         0         0         0         0         0         0
         0         0         0         0         0         0         0         0
         0         0         0         0         0         0         0         0
         0         0         0         0         0         0         0         0
         0         0         0         0         0         0         0         0
         0         0         0         0         0         0         0         0
         0         0         0         0         0         0         0         0
         0         0         0         0         0         0         0         0
         0         0         0         0         0         0         0         0
         0         0         0         0         0         0         0         0
         0         0         0         0         0         0         0         0
         0         0         0         0         0         0         0         0
         0         0         0         0         0         0         0         0
         0         0         0         0         0         0         0         0
         0         0         0         0         0         0         0         0
         0         0         0         0         0         0         0         0
         0         0         0         0         0         0         0         0
         0         0         0         0         0         0         0         0
         0         0         0         0         0         0         0         0
         0         0         0         0         0         0         0         0
         0         0         0         0         0         0         0         0
         0         0         0         0         0         0         0         0
         0         0         0         0         0         0         0         0
         0         0         0         0         0         0         0         0
         0         0         0         0         0         0         0         0
         0         0         0         0         0         0         0         0
         0         0         0         0         0         0         0         0
         0         0         0         0         0         0         0         0
         0         0         0         0         0         0         0         0
         0         0         0         0         0         0         0         0
         0         0         0         0         0         0         0         0
         0         0         0         0         0         0         0         0
         0         0         0         0         0         0         0         0
         0         0         0         0         0         0         0         0
         0         0         0         0         0         0         0         0
         0         0         0         0         0         0         0         0
         0         0         0         0         0         0         0         0
         0         0         0         0         0         0         0         0
         0         0         0         0         0         0         0         0
         0         0         0         0         0         0         0         0
         0         0         0         0         0         0         0         0
         0         0         0         0         0         0         0         0
         0         0         0         0         0         0         0         0
         0         0         0         0         0         0         0         0
         0         0         0         0         0         0         0         0
         0         0         0         0         0         0         0         0
         0         0         0         0         0         0         0         0
         0         0         0         0         0         0         0         0
         0         0         0         0         0         0         0         0
         0         0         0         0         0         0         0         0
         0         0         0         0         0         0         0         0
         0         0         0         0         0         0         0         0
         0         0         0         0         0         0         0         0
         0         0         0         0         0         0         0         0
         0         0         0         0         0         0         0         0
         0         0         0         0         0         0         0         0
         0         0         0         0         0         0         0         0
         0         0         0         0         0         0         0         0
         0         0         0         0         0         0         0         0
         0         0         0         0         0         0         0         0
         0         0         0         0         0         0         0         0
         0         0         0         0         0         0         0         0
         0         0         0         0         0         0         0         0
         0         0         0         0         0         0         0         0
         0         0         0         0         0         0         0         0
         0         0         0         0         0         0         0         0
         0         0         0         0         0         0         0         0
         0         0         0         0         0         0         0         0
         0         0         0         0         0         0         0         0
         0         0         0         0         0         0         0         0
         0         0         0         0         0         0         0         0
         0         0         0         0         0         0         0         0
         0         0         0         0         0         0         0         0
         0         0         0         0         0         0         0         0
         0         0         0         0         0         0         0         0
         0         0         0         0         0         0         0         0
         0         0         0         0         0         0         0         0
         0         0         0         0         0         0         0         0
         0         0         0         0         0         0         0         0
         0         0         0         0         0         0         0         0
         0         0         0         0         0         0         0         0
         0         0         0         0         0         0         0         0
         0         0         0         0         0         0         0         0
         0         0         0         0         0         0         0         0
         0         0         0         0         0         0         0         0
         0         0         0         0         0         0         0         0
         0         0         0         0         0         0         0         0
         0         0         0         0         0         0         0         0
         0         0         0         0         0         0         0         0
         0         0         0         0         0         0         0         0
         0         0         0         0         0         0         0         0
         0         0         0         0         0         0         0         0
         0         0         0         0         0         0         0         0
         0         0         0         0         0         0         0         0
         0         0         0         0         0         0         0         0
         0         0         0         0         0         0         0         0
         0         0         0         0         0         0         0         0
         0         0         0         0         0         0         0         0
         0         0         0         0         0         0         0         0
         0         0         0         0         0         0         0         0
         0         0         0         0         0         0         0         0
         0         0         0         0         0         0         0         0
         0         0         0         0         0         0         0         0
         0         0         0         0         0         0         0         0
         0         0         0         0         0         0         0         0
         0         0         0         0         0         0         0         0
         0         0         0         0         0         0         0         0
         0         0         0         0         0         0         0         0
         0         0         0         0         0         0         0         0
         0         0         0         0         0         0         0         0
         0         0         0         0         0         0         0         0
         0         0         0         0         0         0         0         0
         0         0         0         0         0         0         0         0
         0         0         0         0         0         0         0         0
         0         0         0         0         0         0         0         0
         0         0         0         0         0         0         0         0
         0         0         0         0         0         0         0         0
         0         0         0         0         0         0         0         0
         0         0         0         0         0         0         0         0
         0         0         0         0         0         0         0         0
         0         0         0         0         0         0         0         0
         0         0         0         0         0         0         0         0
         0         0         0         0         0         0         0         0
         0         0         0         0         0         0         0         0
         0         0         0         0         0         0         0         0
         0         0         0         0         0         0         0         0
         0         0         0         0         0         0         0         0
         0         0         0         0         0         0         0         0
         0         0         0         0         0         0         0         0
         0         0         0         0         0         0         0         0
         0         0         0         0         0         0         0         0
         0         0         0         0         0         0         0         0
         0         0         0         0         0         0         0         0
         0         0         0         0         0         0         0         0
         0         0         0         0         0         0         0         0
         0         0         0         0         0         0         0         0
         0         0         0         0         0         0         0         0
         0         0         0         0         0         0         0         0
         0         0         0         0         0         0         0         0
         0         0         0         0         0         0         0         0
         0         0         0         0         0         0         0         0
         0         0         0         0         0         0         0         0
         0         0         0         0         0         0         0         0
         0         0         0         0         0         0         0         0
         0         0         0         0         0         0         0         0
         0         0         0         0         0         0         0         0
         0         0         0         0         0         0         0         0
         0         0         0         0         0         0         0         0
         0         0         0         0         0         0         0         0
         0         0         0         0         0         0         0         0
         0         0         0         0         0         0         0         0
         0         0         0         0         0         0         0         0
         0         0         0         0         0         0         0         0
         0         0         0         0         0         0         0         0
         0         0         0         0         0         0         0         0
         0         0         0         0         0         0         0         0
         0         0         0         0         0         0         0         0
         0         0         0         0         0         0         0         0
         0         0         0         0         0         0         0         0
         0         0         0         0         0         0         0         0
         0         0         0         0         0         0         0         0
         0         0         0         0         0         0         0         0
         0         0         0         0         0         0         0         0
         0         0         0         0         0         0         0         0
         0         0         0         0         0         0         0         0
         0         0         0         0         0         0         0         0
         0         0         0         0         0         0         0         0
         0         0         0         0         0         0         0         0
         0         0         0         0         0         0         0         0
         0         0         0         0         0         0         0         0
         0         0         0         0         0         0         0         0
         0         0         0         0         0         0         0         0
         0         0         0         0         0         0         0         0
         0         0         0         0         0         0         0         0
         0         0         0         0         0         0         0         0
         0         0         0         0         0         0         0         0
         0         0         0         0         0         0         0         0
         0         0         0         0         0         0         0         0
         0         0         0         0         0         0         0         0
         0         0         0         0         0         0         0         0
         0         0         0         0         0         0         0         0
         0         0         0         0         0         0         0         0
         0         0         0         0         0         0         0         0
         0         0         0         0         0         0         0         0
         0         0         0         0         0         0         0         0
         0         0         0         0         0         0         0         0
         0         0         0         0         0         0         0         0
         0         0         0         0         0         0         0         0
         0         0         0         0         0         0         0         0
         0         0         0         0         0         0         0         0
         0         0         0         0         0         0         0         0
         0         0         0         0         0         0         0         0
         0         0         0         0         0         0         0         0
         0         0         0         0         0         0         0         0
         0         0         0         0         0         0         0         0
         0         0         0         0         0         0         0         0
         0         0         0         0         0         0         0         0
         0         0         0         0         0         0         0         0
         0         0         0         0         0         0         0         0
         0         0         0         0         0         0         0         0
         0         0         0         0         0         0         0         0
         0         0         0         0         0         0         0         0
         0         0         0         0         0         0         0         0
         0         0         0         0         0         0         0         0
         0         0         0         0         0         0         0         0
         0         0         0         0         0         0         0         0
         0         0         0         0         0         0         0         0
         0         0         0         0         0         0         0         0
         0         0         0         0         0         0         0         0
         0         0         0         0         0         0         0         0
         0         0         0         0         0         0         0         0
         0         0         0         0         0         0         0         0
         0         0         0         0         0         0         0         0
         0         0         0         0         0         0         0         0
         0         0         0         0         0         0         0         0
         0         0         0         0         0         0         0         0
         0         0         0         0         0         0         0         0
         0         0         0         0         0         0         0         0
         0         0         0         0         0         0         0         0
         0         0         0         0         0         0         0         0
         0         0         0         0         0         0         0         0
         0         0         0         0         0         0         0         0
         0         0         0         0         0         0         0         0
         0         0         0         0         0         0         0         0
         0         0         0         0         0         0         0         0
         0         0         0         0         0         0         0         0
         0         0         0         0         0         0         0         0
         0         0         0         0         0         0         0         0
         0         0         0         0         0         0         0         0
         0         0         0         0         0         0         0         0
         0         0         0         0         0         0         0         0
         0         0         0         0         0         0         0         0
         0         0         0         0         0         0         0         0
         0         0         0         0         0         0         0         0
         0         0         0         0         0         0         0         0
         0         0         0         0         0         0         0         0
         0         0         0         0         0         0         0         0
         0         0         0         0         0         0         0         0
         0         0         0         0         0         0         0         0
         0         0         0         0         0         0         0         0
         0         0         0         0         0         0         0         0
         0         0         0         0         0         0         0         0
         0         0         0         0         0         0         0         0
         0         0         0         0         0         0         0         0
         0         0         0         0         0         0         0         0
         0         0         0         0         0         0         0         0
         0         0         0         0         0         0         0         0
         0         0         0         0         0         0         0         0
         0         0         0         0         0         0         0         0
         0         0         0         0         0         0         0         0
         0         0         0         0         0         0         0         0
         0         0         0         0         0         0         0         0
         0         0         0         0         0         0         0         0
         0         0         0         0         0         0         0         0
         0         0         0         0         0         0         0         0
         0         0         0         0         0         0         0         0
         0         0         0         0         0         0         0         0
         0         0         0         0         0         0         0         0
         0         0         0         0         0         0         0         0
         0         0         0         0         0         0         0         0
         0         0         0         0         0         0         0         0
         0         0         0         0         0         0         0         0
         0         0         0         0         0         0         0         0
         0         0         0         0         0         0         0         0
         0         0         0         0         0         0         0         0
         0         0         0         0         0         0         0         0
         0         0         0         0         0         0         0         0
         0         0         0         0         0         0         0         0
         0         0         0         0         0         0         0         0
         0         0         0         0         0         0         0         0
         0         0         0         0         0         0         0         0
         0         0         0         0         0         0         0         0
         0         0         0         0         0         0         0         0
         0         0         0         0         0         0         0         0
         0         0         0         0         0         0         0         0
         0         0         0         0         0         0         0         0
         0         0         0         0         0         0         0         0
         0         0         0         0         0         0         0         0
         0         0         0         0         0         0         0         0
         0         0         0         0         0         0         0         0
         0         0         0         0         0         0         0         0
         0         0         0         0         0         0         0         0
         0         0         0         0         0         0         0         0
         0         0         0         0         0         0         0         0
         0         0         0         0         0         0         0         0
         0         0         0         0         0         0         0         0
         0         0         0         0         0         0         0         0
         0         0         0         0         0         0         0         0
         0         0         0         0         0         0         0         0
         0         0         0         0         0         0         0         0
         0         0         0         0         0         0         0         0
         0         0         0         0         0         0         0         0
         0         0         0         0         0         0         0         0
         0         0         0         0         0         0         0         0
         0         0         0         0         0         0         0         0
         0         0         0         0         0         0         0         0
         0         0         0         0         0         0         0         0
         0         0         0         0         0         0         0         0
         0         0         0         0         0         0         0         0
         0         0         0         0         0         0         0         0
         0         0         0         0         0         0         0         0
         0         0         0         0         0         0         0         0
         0         0         0         0         0         0         0         0
         0         0         0         0         0         0         0         0
         0         0         0         0         0         0         0         0
         0         0         0         0         0         0         0         0
         0         0         0         0         0         0         0         0
         0         0         0         0         0         0         0         0
         0         0         0         0         0         0         0         0
         0         0         0         0         0         0         0         0
         0         0         0         0         0         0         0         0
         0         0         0         0         0         0         0         0
         0         0         0         0         0         0         0         0
         0         0         0         0         0         0         0         0
         0         0         0         0         0         0         0         0
         0         0         0         0         0         0         0         0
         0         0         0         0         0         0         0         0
         0         0         0         0         0         0         0         0
         0         0         0         0         0         0         0         0
         0         0         0         0         0         0         0         0
         0         0         0         0         0         0         0         0
         0         0         0         0         0         0         0         0
         0         0         0         0         0         0         0         0
         0         0         0         0         0         0         0         0
         0         0         0         0         0         0         0         0
         0         0         0         0         0         0         0         0
         0         0         0         0         0         0         0         0
         0         0         0         0         0         0         0         0
         0         0         0         0         0         0         0         0
         0         0         0         0         0         0         0         0
         0         0         0         0         0         0         0         0
         0         0         0         0         0         0         0         0
         0         0         0         0         0         0         0         0
         0         0         0         0         0         0         0         0
         0         0         0         0         0         0         0         0
         0         0         0         0         0         0         0         0
         0         0         0         0         0         0         0         0
         0         0         0         0         0         0         0         0
         0         0         0         0         0         0         0         0
         0         0         0         0         0         0         0         0
         0         0         0         0         0         0         0         0
         0         0         0         0         0         0         0         0
         0         0         0         0         0         0         0         0
         0         0         0         0         0         0         0         0
         0         0         0         0         0         0         0         0
         0         0         0         0         0         0         0         0
         0         0         0         0         0         0         0         0
         0         0         0         0         0         0         0         0
         0         0         0         0         0         0         0         0
         0         0         0         0         0         0         0         0
         0         0         0         0         0         0         0         0
         0         0         0         0         0         0         0         0
         0         0         0         0         0         0         0         0
         0         0         0         0         0         0         0         0
         0         0         0         0         0         0         0         0
         0         0         0         0         0         0         0         0
         0         0         0         0         0         0         0         0
         0         0         0         0         0         0         0         0
         0         0         0         0         0         0         0         0
         0         0         0         0         0         0         0         0
         0         0         0         0         0         0         0         0
         0         0         0         0         0         0         0         0
         0         0         0         0         0         0         0         0
         0         0         0         0         0         0         0         0
         0         0         0         0         0         0         0         0
         0         0         0         0         0         0         0         0
         0         0         0         0         0         0         0         0
         0         0         0         0         0         0         0         0
         0         0         0         0         0         0         0         0
         0         0         0         0         0         0         0         0
         0         0         0         0         0         0         0         0
         0         0         0         0         0         0         0         0
         0         0         0         0         0         0         0         0
         0         0         0         0         0         0         0         0
         0         0         0         0         0         0         0         0
         0         0         0         0         0         0         0         0
         0         0         0         0         0         0         0         0
         0         0         0         0         0         0         0         0
         0         0         0         0         0         0         0         0
         0         0         0         0         0         0         0         0
         0         0         0         0         0         0         0         0
         0         0         0         0         0         0         0         0
         0         0         0         0         0         0         0         0
         0         0         0         0         0         0         0         0
         0         0         0         0         0         0         0         0
         0         0         0         0         0         0         0         0
         0         0         0         0         0         0         0         0
         0         0         0         0         0         0         0         0
         0         0         0         0         0         0         0         0
         0         0         0         0         0         0         0         0
         0         0         0         0         0         0         0         0
         0         0         0         0         0         0         0         0
         0         0         0         0         0         0         0         0
         0         0         0         0         0         0         0         0
         0         0         0         0         0         0         0         0
         0         0         0         0         0         0         0         0
         0         0         0         0         0         0         0         0
         0         0         0         0         0         0         0         0
         0         0         0         0         0         0         0         0
         0         0         0         0         0         0         0         0
         0         0         0         0         0         0         0         0
         0         0         0         0         0         0         0         0
         0         0         0         0         0         0         0         0
         0         0         0         0         0         0         0         0
         0         0         0         0         0         0         0         0
         0         0         0         0         0         0         0         0
         0         0         0         0         0         0         0         0
         0         0         0         0         0         0         0         0
         0         0         0         0         0         0         0         0
         0         0         0         0         0         0         0         0
         0         0         0         0         0         0         0         0
         0         0         0         0         0         0         0         0
         0         0         0         0         0         0         0         0
         0         0         0         0         0         0         0         0
         0         0         0         0         0         0         0         0
         0         0         0         0         0         0         0         0
         0         0         0         0         0         0         0         0
         0         0         0         0         0         0         0         0
         0         0         0         0         0         0         0         0
         0         0         0         0         0         0         0         0
         0         0         0         0         0         0         0         0
         0         0         0         0         0         0         0         0
         0         0         0         0         0         0         0         0
         0         0         0         0         0         0         0         0
         0         0         0         0         0         0         0         0
         0         0         0         0         0         0         0         0
         0         0         0         0         0         0         0         0
         0         0         0         0         0         0         0         0
         0         0         0         0         0         0         0         0
         0         0         0         0         0         0         0         0
         0         0         0         0         0         0         0         0
         0         0         0         0         0         0         0         0
         0         0         0         0         0         0         0         0
         0         0         0         0         0         0         0         0
         0         0         0         0         0         0         0         0
         0         0         0         0         0         0         0         0
         0         0         0         0         0         0         0         0
         0         0         0         0         0         0         0         0
         0         0         0         0         0         0         0         0
         0         0         0         0         0         0         0         0
         0         0         0         0         0         0         0         0
         0         0         0         0         0         0         0         0
         0         0         0         0         0         0         0         0
         0         0         0         0         0         0         0         0
         0         0         0         0         0         0         0         0
         0         0         0         0         0         0         0         0
         0         0         0         0         0         0         0         0
         0         0         0         0         0         0         0         0
         0         0         0         0         0         0         0         0
         0         0         0         0         0         0         0         0
         0         0         0         0         0         0         0         0
         0         0         0         0         0         0         0         0
         0         0         0         0         0         0         0         0
         0         0         0         0         0         0         0         0
         0         0         0         0         0         0         0         0
         0         0         0         0         0         0         0         0
         0         0         0         0         0         0         0         0
         0         0         0         0         0         0         0         0
         0         0         0         0         0         0         0         0
         0         0         0         0         0         0         0         0
         0         0         0         0         0         0         0         0
         0         0         0         0         0         0         0         0
         0         0         0         0         0         0         0         0
         0         0         0         0         0         0         0         0
         0         0         0         0         0         0         0         0
         0         0         0         0         0         0         0         0
         0         0         0         0         0         0         0         0
         0         0         0         0         0         0         0         0
         0         0         0         0         0         0         0         0
         0         0         0         0         0         0         0         0
         0         0         0         0         0         0         0         0
         0         0         0         0         0         0         0         0
         0         0         0         0         0         0         0         0
         0         0         0         0         0         0         0         0
         0         0         0         0         0         0         0         0
         0         0         0         0         0         0         0         0
         0         0         0         0         0         0         0         0
         0         0         0         0         0         0         0         0
         0         0         0         0         0         0         0         0
         0         0         0         0         0         0         0         0
         0         0         0         0         0         0         0         0
         0         0         0         0         0         0         0         0
         0         0         0         0         0         0         0         0
         0         0         0         0         0         0         0         0
         0         0         0         0         0         0         0         0
         0         0         0         0         0         0         0         0
         0         0         0         0         0         0         0         0
         0         0         0         0         0         0         0         0
         0         0         0         0         0         0         0         0
         0         0         0         0         0         0         0         0
         0         0         0         0         0         0         0         0
         0         0         0         0         0         0         0         0
         0         0         0         0         0         0         0         0
         0         0         0         0         0         0         0         0
         0         0         0         0         0         0         0         0
         0         0         0         0         0         0         0         0
         0         0         0         0         0         0         0         0
         0         0         0         0         0         0         0         0
         0         0         0         0         0         0         0         0
         0         0         0         0         0         0         0         0
         0         0         0         0         0         0         0         0
         0         0         0         0         0         0         0         0
         0         0         0         0         0         0         0         0
         0         0         0         0         0         0         0         0
         0         0         0         0         0         0         0         0
         0         0         0         0         0         0         0         0
         0         0         0         0         0         0         0         0
         0         0         0         0         0         0         0         0
         0         0         0         0         0         0         0         0
         0         0         0         0         0         0         0         0
         0         0         0         0         0         0         0         0
         0         0         0         0         0         0         0         0
         0         0         0         0         0         0         0         0
         0         0         0         0         0         0         0         0
         0         0         0         0         0         0         0         0
         0         0         0         0         0         0         0         0
         0         0         0         0         0         0         0         0
         0         0         0         0         0         0         0         0
         0         0         0         0         0         0         0         0
         0         0         0         0         0         0         0         0
         0         0         0         0         0         0         0         0
         0         0         0         0         0         0         0         0
         0         0         0         0         0         0         0         0
         0         0         0         0         0         0         0         0
         0         0         0         0         0         0         0         0
         0         0         0         0         0         0         0         0
         0         0         0         0         0         0         0         0
         0         0         0         0         0         0         0         0
         0         0         0         0         0         0         0         0
         0         0         0         0         0         0         0         0
         0         0         0         0         0         0         0         0
         0         0         0         0         0         0         0         0
         0         0         0         0         0         0         0         0
         0         0         0         0         0         0         0         0
         0         0         0         0         0         0         0         0
         0         0         0         0         0         0         0         0
         0         0         0         0         0         0         0         0
         0         0         0         0         0         0         0         0
         0         0         0         0         0         0         0         0
         0         0         0         0         0         0         0         0
         0         0         0         0         0         0         0         0
         0         0         0         0         0         0         0         0
         0         0         0         0         0         0         0         0
         0         0         0         0         0         0         0         0
         0         0         0         0         0         0         0         0
         0         0         0         0         0         0         0         0
         0         0         0         0         0         0         0         0
         0         0         0         0         0         0         0         0
         0         0         0         0         0         0         0         0
         0         0         0         0         0         0         0         0
         0         0         0         0         0         0         0         0
         0         0         0         0         0         0         0         0
         0         0         0         0         0         0         0         0
         0         0         0         0         0         0         0         0
         0         0         0         0         0         0         0         0
         0         0         0         0         0         0         0         0
         0         0         0         0         0         0         0         0
         0         0         0         0         0         0         0         0
         0         0         0         0         0         0         0         0
         0         0         0         0         0         0         0         0
         0         0         0         0         0         0         0         0
         0         0         0         0         0         0         0         0
         0         0         0         0         0         0         0         0
         0         0         0         0         0         0         0         0
         0         0         0         0         0         0         0         0
         0         0         0         0         0         0         0         0
         0         0         0         0         0         0         0         0
         0         0         0         0         0         0         0         0
         0         0         0         0         0         0         0         0
         0         0         0         0         0         0         0         0
         0         0         0         0         0         0         0         0
         0         0         0         0         0         0         0         0
         0         0         0         0         0         0         0         0
         0         0         0         0         0         0         0         0
         0         0         0         0         0         0         0         0
         0         0         0         0         0         0         0         0
         0         0         0         0         0         0         0         0
         0         0         0         0         0         0         0         0
         0         0         0         0         0         0         0         0
         0         0         0         0         0         0         0         0
         0         0         0         0         0         0         0         0
         0         0         0         0         0         0         0         0
         0         0         0         0         0         0         0         0
         0         0         0         0         0         0         0         0
         0         0         0         0         0         0         0         0
         0         0         0         0         0         0         0         0
         0         0         0         0         0         0         0         0
         0         0         0         0         0         0         0         0
         0         0         0         0         0         0         0         0
         0         0         0         0         0         0         0         0
         0         0         0         0         0         0         0         0
         0         0         0         0         0         0         0         0
         0         0         0         0         0         0         0         0
         0         0         0         0         0         0         0         0
         0         0         0         0         0         0         0         0
         0         0         0         0         0         0         0         0
         0         0         0         0         0         0         0         0
         0         0         0         0         0         0         0         0
         0         0         0         0         0         0         0         0
         0         0         0         0         0         0         0         0
         0         0         0         0         0         0         0         0
         0         0         0         0         0         0         0         0
         0         0         0         0         0         0         0         0
         0         0         0         0         0         0         0         0
         0         0         0         0         0         0         0         0
         0         0         0         0         0         0         0         0
         0         0         0         0         0         0         0         0
         0         0         0         0         0         0         0         0
         0         0         0         0         0         0         0         0
         0         0         0         0         0         0         0         0
         0         0         0         0         0         0         0         0
         0         0         0         0         0         0         0         0
         0         0         0         0         0         0         0         0
         0         0         0         0         0         0         0         0
         0         0         0         0         0         0         0         0
         0         0         0         0         0         0         0         0
         0         0         0         0         0         0         0         0
         0         0         0         0         0         0         0         0
         0         0         0         0         0         0         0         0
         0         0         0         0         0         0         0         0
         0         0         0         0         0         0         0         0
         0         0         0         0         0         0         0         0
         0         0         0         0         0         0         0         0
         0         0         0         0         0         0         0         0
         0         0         0         0         0         0         0         0
         0         0         0         0         0         0         0         0
         0         0         0         0         0         0         0         0
         0         0         0         0         0         0         0         0
         0         0         0         0         0         0         0         0
         0         0         0         0         0         0         0         0
         0         0         0         0         0         0         0         0
         0         0         0         0         0         0         0         0
         0         0         0         0         0         0         0         0
         0         0         0         0         0         0         0         0
         0         0         0         0         0         0         0         0
         0         0         0         0         0         0         0         0
         0         0         0         0         0         0         0         0
         0         0         0         0         0         0         0         0
         0         0         0         0         0         0         0         0
         0         0         0         0         0         0         0         0
         0         0         0         0         0         0         0         0
         0         0         0         0         0         0         0         0
         0         0         0         0         0         0         0         0
         0         0         0         0         0         0         0         0
         0         0         0         0         0         0         0         0
         0         0         0         0         0         0         0         0
         0         0         0         0         0         0         0         0
         0         0         0         0         0         0         0         0
         0         0         0         0         0         0         0         0
         0         0         0         0         0         0         0         0
         0         0         0         0         0         0         0         0
         0         0         0         0         0         0         0         0
         0         0         0         0         0         0         0         0
         0         0         0         0         0         0         0         0
         0         0         0         0         0         0         0         0
         0         0         0         0         0         0         0         0
         0         0         0         0         0         0         0         0
         0         0         0         0         0         0         0         0
         0         0         0         0         0         0         0         0
         0         0         0         0         0         0         0         0
         0         0         0         0         0         0         0         0
         0         0         0         0         0         0         0         0
         0         0         0         0         0         0         0         0
         0         0         0         0         0         0         0         0
         0         0         0         0         0         0         0         0
         0         0         0         0         0         0         0         0
         0         0         0         0         0         0         0         0
         0         0         0         0         0         0         0         0
         0         0         0         0         0         0         0         0
         0         0         0         0         0         0         0         0
         0         0         0         0         0         0         0         0
         0         0         0         0         0         0         0         0
         0         0         0         0         0         0         0         0
         0         0         0         0         0         0         0         0
         0         0         0         0         0         0         0         0
         0         0         0         0         0         0         0         0
         0         0         0         0         0         0         0         0
         0         0         0         0         0         0         0         0
         0         0         0         0         0         0         0         0
         0         0         0         0         0         0         0         0
         0         0         0         0         0         0         0         0
         0         0         0         0         0         0         0         0
         0         0         0         0         0         0         0         0
         0         0         0         0         0         0         0         0
         0         0         0         0         0         0         0         0
         0         0         0         0         0         0         0         0
         0         0         0         0         0         0         0         0
         0         0         0         0         0         0         0         0
         0         0         0         0         0         0         0         0
         0         0         0         0         0         0         0         0
         0         0         0         0         0         0         0         0
         0         0         0         0         0         0         0         0
         0         0         0         0         0         0         0         0
         0         0         0         0         0         0         0         0
         0         0         0         0         0         0         0         0
         0         0         0         0         0         0         0         0
         0         0         0         0         0         0         0         0
         0         0         0         0         0         0         0         0
         0         0         0         0         0         0         0         0
         0         0         0         0         0         0         0         0
         0         0         0         0         0         0         0         0
         0         0         0         0         0         0         0         0
         0         0         0         0         0         0         0         0
         0         0         0         0         0         0         0         0
         0         0         0         0         0         0         0         0
         0         0         0         0         0         0         0         0
         0         0         0         0         0         0         0         0
         0         0         0         0         0         0         0         0
         0         0         0         0         0         0         0         0
         0         0         0         0         0         0         0         0
         0         0         0         0         0         0         0         0
         0         0         0         0         0         0         0         0
         0         0         0         0         0         0         0         0
         0         0         0         0         0         0         0         0
         0         0         0         0         0         0         0         0
         0         0         0         0         0         0         0         0
         0         0         0         0         0         0         0         0
         0         0         0         0         0         0         0         0
         0         0         0         0         0         0         0         0
         0         0         0         0         0         0         0         0
         0         0         0         0         0         0         0         0
         0         0         0         0         0         0         0         0
         0         0         0         0         0         0         0         0
         0         0         0         0         0         0         0         0
         0         0         0         0         0         0         0         0
         0         0         0         0         0         0         0         0
         0         0         0         0         0         0         0         0
         0         0         0         0         0         0         0         0
         0         0         0         0         0         0         0         0
         0         0         0         0         0         0         0         0
         0         0         0         0         0         0         0         0
         0         0         0         0         0         0         0         0
         0         0         0         0         0         0         0         0
         0         0         0         0         0         0         0         0
         0         0         0         0         0         0         0         0
         0         0         0         0         0         0         0         0
         0         0         0         0         0         0         0         0
         0         0         0         0         0         0         0         0
         0         0         0         0         0         0         0         0
         0         0         0         0         0         0         0         0
         0         0         0         0         0         0         0         0
         0         0         0         0         0         0         0         0
         0         0         0         0         0         0         0         0
         0         0         0         0         0         0         0         0
         0         0         0         0         0         0         0         0
         0         0         0         0         0         0         0         0
         0         0         0         0         0         0         0         0
         0         0         0         0         0         0         0         0
         0         0         0         0         0         0         0         0
         0         0         0         0         0         0         0         0
         0         0         0         0         0         0         0         0
         0         0         0         0         0         0         0         0
         0         0         0         0         0         0         0         0
         0         0         0         0         0         0         0         0
         0         0         0         0         0         0         0         0
         0         0         0         0         0         0         0         0
         0         0         0         0         0         0         0         0
         0         0         0         0         0         0         0         0
         0         0         0         0         0         0         0         0
         0         0         0         0         0         0         0         0
         0         0         0         0         0         0         0         0
         0         0         0         0         0         0         0         0
         0         0         0         0         0         0         0         0
         0         0         0         0         0         0         0         0
         0         0         0         0         0         0         0         0
         0         0         0         0         0         0         0         0
         0         0         0         0         0         0         0         0
         0         0         0         0         0         0         0         0
         0         0         0         0         0         0         0         0
         0         0         0         0         0         0         0         0
         0         0         0         0         0         0         0         0
         0         0         0         0         0         0         0         0
         0         0         0         0         0         0         0         0
         0         0         0         0         0         0         0         0
         0         0         0         0         0         0         0         0
         0         0         0         0         0         0         0         0
         0         0         0         0         0         0         0         0
         0         0         0         0         0         0         0         0
         0         0         0         0         0         0         0         0
         0         0         0         0         0         0         0         0
         0         0         0         0         0         0         0         0
         0         0         0         0         0         0         0         0
         0         0         0         0         0         0         0         0
         0         0         0         0         0         0         0         0
         0         0         0         0         0         0         0         0
         0         0         0         0         0         0         0         0
         0         0         0         0         0         0         0         0
         0         0         0         0         0         0         0         0
         0         0         0         0         0         0         0         0
         0         0         0         0         0         0         0         0
         0         0         0         0         0         0         0         0
         0         0         0         0         0         0         0         0
         0         0         0         0         0         0         0         0
         0         0         0         0         0         0         0         0
         0         0         0         0         0         0         0         0
         0         0         0         0         0         0         0         0
         0         0         0         0         0         0         0         0
         0         0         0         0         0         0         0         0
         0         0         0         0         0         0         0         0
         0         0         0         0         0         0         0         0
         0         0         0         0         0         0         0         0
         0         0         0         0         0         0         0         0
         0         0         0         0         0         0         0         0
         0         0         0         0         0         0         0         0
         0         0         0         0         0         0         0         0
         0         0         0         0         0         0         0         0
         0         0         0         0         0         0         0         0
         0         0         0         0         0         0         0         0
         0         0         0         0         0         0         0         0
         0         0         0         0         0         0         0         0
         0         0         0         0         0         0         0         0
         0         0         0         0         0         0         0         0
         0         0         0         0         0         0         0         0
         0         0         0         0         0         0         0         0
         0         0         0         0         0         0         0         0
         0         0         0         0         0         0         0         0
         0         0         0         0         0         0         0         0
         0         0         0         0         0         0         0         0
         0         0         0         0         0         0         0         0
         0         0         0         0         0         0         0         0
         0         0         0         0         0         0         0         0
         0         0         0         0         0         0         0         0
         0         0         0         0         0         0         0         0
         0         0         0         0         0         0         0         0
         0         0         0         0         0         0         0         0
         0         0         0         0         0         0         0         0
         0         0         0         0         0         0         0         0
         0         0         0         0         0         0         0         0
         0         0         0         0         0         0         0         0
         0         0         0         0         0         0         0         0
         0         0         0         0         0         0         0         0
         0         0         0         0         0         0         0         0
         0         0         0         0         0         0         0         0
         0         0         0         0         0         0         0         0
         0         0         0         0         0         0         0         0
         0         0         0         0         0         0         0         0
         0         0         0         0         0         0         0         0
         0         0         0         0         0         0         0         0
         0         0         0         0         0         0         0         0
         0         0         0         0         0         0         0         0
         0         0         0         0         0         0         0         0
         0         0         0         0         0         0         0         0
         0         0         0         0         0         0         0         0
         0         0         0         0         0         0         0         0
         0         0         0         0         0         0         0         0
         0         0         0         0         0         0         0         0
         0         0         0         0         0         0         0         0
         0         0         0         0         0         0         0         0
         0         0         0         0         0         0         0         0
         0         0         0         0         0         0         0         0
         0         0         0         0         0         0         0         0
         0         0         0         0         0         0         0         0
         0         0         0         0         0         0         0         0
         0         0         0         0         0         0         0         0
         0         0         0         0         0         0         0         0
         0         0         0         0         0         0         0         0
         0         0         0         0         0         0         0         0
         0         0         0         0         0         0         0         0
         0         0         0         0         0         0         0         0
         0         0         0         0         0         0         0         0
         0         0         0         0         0         0         0         0
         0         0         0         0         0         0         0         0
         0         0         0         0         0         0         0         0
         0         0         0         0         0         0         0         0
         0         0         0         0         0         0         0         0
         0         0         0         0         0         0         0         0
         0         0         0         0         0         0         0         0
         0         0         0         0         0         0         0         0
         0         0         0         0         0         0         0         0
         0         0         0         0         0         0         0         0
         0         0         0         0         0         0         0         0
         0         0         0         0         0         0         0         0
         0         0         0         0         0         0         0         0
         0         0         0         0         0         0         0         0
         0         0         0         0         0         0         0         0
         0         0         0         0         0         0         0         0
         0         0         0         0         0         0         0         0
         0         0         0         0         0         0         0         0
         0         0         0         0         0         0         0         0
         0         0         0         0         0         0         0         0
         0         0         0         0         0         0         0         0
         0         0         0         0         0         0         0         0
         0         0         0         0         0         0         0         0
         0         0         0         0         0         0         0         0
         0         0         0         0         0         0         0         0
         0         0         0         0         0         0         0         0
         0         0         0         0         0         0         0         0
         0         0         0         0         0         0         0         0
         0         0         0         0         0         0         0         0
         0         0         0         0         0         0         0         0
         0         0         0         0         0         0         0         0
         0         0         0         0         0         0         0         0
         0         0         0         0         0         0         0         0
         0         0         0         0         0         0         0         0
         0         0         0         0         0         0         0         0
         0         0         0         0         0         0         0         0
         0         0         0         0         0         0         0         0
         0         0         0         0         0         0         0         0
         0         0         0         0         0         0         0         0
         0         0         0         0         0         0         0         0
         0         0         0         0         0         0         0         0
         0         0         0         0         0         0         0         0
         0         0         0         0         0         0         0         0
         0         0         0         0         0         0         0         0
         0         0         0         0         0         0         0         0
         0         0         0         0         0         0         0         0
         0         0         0         0         0         0         0         0
         0         0         0         0         0         0         0         0
         0         0         0         0         0         0         0         0
         0         0         0         0         0         0         0         0
         0         0         0         0         0         0         0         0
         0         0         0         0         0         0         0         0
         0         0         0         0         0         0         0         0
         0         0         0         0         0         0         0         0
         0         0         0         0         0         0         0         0
         0         0         0         0         0         0         0         0
         0         0         0         0         0         0         0         0
         0         0         0         0         0         0         0         0
         0         0         0         0         0         0         0         0
         0         0         0         0         0         0         0         0
         0         0         0         0         0         0         0         0
         0         0         0         0         0         0         0         0
         0         0         0         0         0         0         0         0
         0         0         0         0         0         0         0         0
         0         0         0         0         0         0         0         0
         0         0         0         0         0         0         0         0
         0         0         0         0         0         0         0         0
         0         0         0         0         0         0         0         0
         0         0         0         0         0         0         0         0
         0         0         0         0         0         0         0         0
         0         0         0         0         0         0         0         0
         0         0         0         0         0         0         0         0
         0         0         0         0         0         0         0         0
         0         0         0         0         0         0         0         0
         0         0         0         0         0         0         0         0
         0         0         0         0         0         0         0         0
         0         0         0         0         0         0         0         0
         0         0         0         0         0         0         0         0
         0         0         0         0         0         0         0         0
         0         0         0         0         0         0         0         0
         0         0         0         0         0         0         0         0
         0         0         0         0         0         0         0         0
         0         0         0         0         0         0         0         0
         0         0         0         0         0         0         0         0
         0         0         0         0         0         0         0         0
         0         0         0         0         0         0         0         0
         0         0         0         0         0         0         0         0
         0         0         0         0         0         0         0         0
         0         0         0         0         0         0         0         0
         0         0         0         0         0         0         0         0
         0         0         0         0         0         0         0         0
         0         0         0         0         0         0         0         0
         0         0         0         0         0         0         0         0
         0         0         0         0         0         0         0         0
         0         0         0         0         0         0         0         0
         0         0         0         0         0         0         0         0
         0         0         0         0         0         0         0         0
         0         0         0         0         0         0         0         0
         0         0         0         0         0         0         0         0
         0         0         0         0         0         0         0         0
         0         0         0         0         0         0         0         0
         0         0         0         0         0         0         0         0
         0         0         0         0         0         0         0         0
         0         0         0         0         0         0         0         0
         0         0         0         0         0         0         0         0
         0         0         0         0         0         0         0         0
         0         0         0         0         0         0         0         0
         0         0         0         0         0         0         0         0
         0         0         0         0         0         0         0         0
         0         0         0         0         0         0         0         0
         0         0         0         0         0         0         0         0
         0         0         0         0         0         0         0         0
         0         0         0         0         0         0         0         0
         0         0         0         0         0         0         0         0
         0         0         0         0         0         0         0         0
         0         0         0         0         0         0         0         0
         0         0         0         0         0         0         0         0
         0         0         0         0         0         0         0         0
         0         0         0         0         0         0         0         0
         0         0         0         0         0         0         0         0
         0         0         0         0         0         0         0         0
         0         0         0         0         0         0         0         0
         0         0         0         0         0         0         0         0
         0         0         0         0         0         0         0         0
         0         0         0         0         0         0         0         0
         0         0         0         0         0         0         0         0
         0         0         0         0         0         0         0         0
         0         0         0         0         0         0         0         0
         0         0         0         0         0         0         0         0
         0         0         0         0         0         0         0         0
         0         0         0         0         0         0         0         0
         0         0         0         0         0         0         0         0
         0         0         0         0         0         0         0         0
         0         0         0         0         0         0         0         0
         0         0         0         0         0         0         0         0
         0         0         0         0         0         0         0         0
         0         0         0         0         0         0         0         0
         0         0         0         0         0         0         0         0
         0         0         0         0         0         0         0         0
         0         0         0         0         0         0         0         0
         0         0         0         0         0         0         0         0
         0         0         0         0         0         0         0         0
         0         0         0         0         0         0         0         0
         0         0         0         0         0         0         0         0
         0         0         0         0         0         0         0         0
         0         0         0         0         0         0         0         0
         0         0         0         0         0         0         0         0
         0         0         0         0         0         0         0         0
         0         0         0         0         0         0         0         0
         0         0         0         0         0         0         0         0
         0         0         0         0         0         0         0         0
         0         0         0         0         0         0         0         0
         0         0         0         0         0         0         0         0
         0         0         0         0         0         0         0         0
         0         0         0         0         0         0         0         0
         0         0         0         0         0         0         0         0
         0         0         0         0         0         0         0         0
         0         0         0         0         0         0         0         0
         0         0         0         0         0         0         0         0
         0         0         0         0         0         0         0         0
         0         0         0         0         0         0         0         0
         0         0         0         0         0         0         0         0
         0         0         0         0         0         0         0         0
         0         0         0         0         0         0         0         0
         0         0         0         0         0         0         0         0
         0         0         0         0         0         0         0         0
         0         0         0         0         0         0         0         0
         0         0         0         0         0         0         0         0
         0         0         0         0         0         0         0         0
         0         0         0         0         0         0         0         0
         0         0         0         0         0         0         0         0
         0         0         0         0         0         0         0         0
         0         0         0         0         0         0         0         0
         0         0         0         0         0         0         0         0
         0         0         0         0         0         0         0         0
         0         0         0         0         0         0         0         0
         0         0         0         0         0         0         0         0
         0         0         0         0         0         0         0         0
         0         0         0         0         0         0         0         0
         0         0         0         0         0         0         0         0
         0         0         0         0         0         0         0         0
         0         0         0         0         0         0         0         0
         0         0         0         0         0         0         0         0
         0         0         0         0         0         0         0         0
         0         0         0         0         0         0         0         0
         0         0         0         0         0         0         0         0
         0         0         0         0         0         0         0         0
         0         0         0         0         0         0         0         0
         0         0         0         0         0         0         0         0
         0         0         0         0         0         0         0         0
         0         0         0         0         0         0         0         0
         0         0         0         0         0         0         0         0
         0         0         0         0         0         0         0         0
         0         0         0         0         0         0         0         0
         0         0         0         0         0         0         0         0
         0         0         0         0         0         0         0         0
         0         0         0         0         0         0         0         0
         0         0         0         0         0         0         0         0
         0         0         0         0         0         0         0         0
         0         0         0         0         0         0         0         0
         0         0         0         0         0         0         0         0
         0         0         0         0         0         0         0         0
         0         0         0         0         0         0         0         0
         0         0         0         0         0         0         0         0
         0         0         0         0         0         0         0         0
         0         0         0         0         0         0         0         0
         0         0         0         0         0         0         0         0
         0         0         0         0         0         0         0         0
         0         0         0         0         0         0         0         0
         0         0         0         0         0         0         0         0
         0         0         0         0         0         0         0         0
         0         0         0         0         0         0         0         0
         0         0         0         0         0         0         0         0
         0         0         0         0         0         0         0         0
         0         0         0         0         0         0         0         0
         0         0         0         0         0         0         0         0
         0         0         0         0         0         0         0         0
         0         0         0         0         0         0         0         0
         0         0         0         0         0         0         0         0
         0         0         0         0         0         0         0         0
         0         0         0         0         0         0         0         0
         0         0         0         0         0         0         0         0
         0         0         0         0         0         0         0         0
         0         0         0         0         0         0         0         0
         0         0         0         0         0         0         0         0
         0         0         0         0         0         0         0         0
         0         0         0         0         0         0         0         0
         0         0         0         0         0         0         0         0
         0         0         0         0         0         0         0         0
         0         0         0         0         0         0         0         0
         0         0         0         0         0         0         0         0
         0         0         0         0         0         0         0         0
         0         0         0         0         0         0         0         0
         0         0         0         0         0         0         0         0
         0         0         0         0         0         0         0         0
         0         0         0         0         0         0         0         0
         0         0         0         0         0         0         0         0
         0         0         0         0         0         0         0         0
         0         0         0         0         0         0         0         0
         0         0         0         0         0         0         0         0
         0         0         0         0         0         0         0         0
         0         0         0         0         0         0         0         0
         0         0         0         0         0         0         0         0
         0         0         0         0         0         0         0         0
         0         0         0         0         0         0         0         0
         0         0         0         0         0         0         0         0
         0         0         0         0         0         0         0         0
         0         0         0         0         0         0         0         0
         0         0         0         0         0         0         0         0
         0         0         0         0         0         0         0         0
         0         0         0         0         0         0         0         0
         0         0         0         0         0         0         0         0
         0         0         0         0         0         0         0         0
         0         0         0         0         0         0         0         0
         0         0         0         0         0         0         0         0
         0         0         0         0         0         0         0         0
         0         0         0         0         0         0         0         0
         0         0         0         0         0         0         0         0
         0         0         0         0         0         0         0         0
         0         0         0         0         0         0         0         0
         0         0         0         0         0         0         0         0
         0         0         0         0         0         0         0         0
         0         0         0         0         0         0         0         0
         0         0         0         0         0         0         0         0
         0         0         0         0         0         0         0         0
         0         0         0         0         0         0         0         0
         0         0         0         0         0         0         0         0
         0         0         0         0         0         0         0         0
         0         0         0         0         0         0         0         0
         0         0         0         0         0         0         0         0
         0         0         0         0         0         0         0         0
         0         0         0         0         0         0         0         0
         0         0         0         0         0         0         0         0
         0         0         0         0         0         0         0         0
         0         0         0         0         0         0         0         0
         0         0         0         0         0         0         0         0
         0         0         0         0         0         0         0         0
         0         0         0         0         0         0         0         0
         0         0         0         0         0         0         0         0
         0         0         0         0         0         0         0         0
         0         0         0         0         0         0         0         0
         0         0         0         0         0         0         0         0
         0         0         0         0         0         0         0         0
         0         0         0         0         0         0         0         0
         0         0         0         0         0         0         0         0
         0         0         0         0         0         0         0         0
         0         0         0         0         0         0         0         0
         0         0         0         0         0         0         0         0
         0         0         0         0         0         0         0         0
         0         0         0         0         0         0         0         0
         0         0         0         0         0         0         0         0
         0         0         0         0         0         0         0         0
         0         0         0         0         0         0         0         0
         0         0         0         0         0         0         0         0
         0         0         0         0         0         0         0         0
         0         0         0         0         0         0         0         0
         0         0         0         0         0         0         0         0
         0         0         0         0         0         0         0         0
         0         0         0         0         0         0         0         0
         0         0         0         0         0         0         0         0
         0         0         0         0         0         0         0         0
         0         0         0         0         0         0         0         0
         0         0         0         0         0         0         0         0
         0         0         0         0         0         0         0         0
         0         0         0         0         0         0         0         0
         0         0         0         0         0         0         0         0
         0         0         0         0         0         0         0         0
         0         0         0         0         0         0         0         0
         0         0         0         0         0         0         0         0
         0         0         0         0         0         0         0         0
         0         0         0         0         0         0         0         0
         0         0         0         0         0         0         0         0
         0         0         0         0         0         0         0         0
         0         0         0         0         0         0         0         0
         0         0         0         0         0         0         0         0
         0         0         0         0         0         0         0         0
         0         0         0         0         0         0         0         0
         0         0         0         0         0         0         0         0
         0         0         0         0         0         0         0         0
         0         0         0         0         0         0         0         0
         0         0         0         0         0         0         0         0
         0         0         0         0         0         0         0         0
         0         0         0         0         0         0         0         0
         0         0         0         0         0         0         0         0
         0         0         0         0         0         0         0         0
         0         0         0         0         0         0         0         0
         0         0         0         0         0         0         0         0
         0         0         0         0         0         0         0         0
         0         0         0         0         0         0         0         0
         0         0         0         0         0         0         0         0
         0         0         0         0         0         0         0         0
         0         0         0         0         0         0         0         0
         0         0         0         0         0         0         0         0
         0         0         0         0         0         0         0         0
         0         0         0         0         0         0         0         0
         0         0         0         0         0         0         0         0
         0         0         0         0         0         0         0         0
         0         0         0         0         0         0         0         0
         0         0         0         0         0         0         0         0
         0         0         0         0         0         0         0         0
         0         0         0         0         0         0         0         0
         0         0         0         0         0         0         0         0
         0         0         0         0         0         0         0         0
         0         0         0         0         0         0         0         0
         0         0         0         0         0         0         0         0
         0         0         0         0         0         0         0         0
         0         0         0         0         0         0         0         0
         0         0         0         0         0         0         0         0
         0         0         0         0         0         0         0         0
         0         0         0         0         0         0         0         0
         0         0         0         0         0         0         0         0
         0         0         0         0         0         0         0         0
         0         0         0         0         0         0         0         0
         0         0         0         0         0         0         0         0
         0         0         0         0         0         0         0         0
         0         0         0         0         0         0         0         0
         0         0         0         0         0         0         0         0
         0         0         0         0         0         0         0         0
         0         0         0         0         0         0         0         0
         0         0         0         0         0         0         0         0
         0         0         0         0         0         0         0         0
         0         0         0         0         0         0         0         0
         0         0         0         0         0         0         0         0
         0         0         0         0         0         0         0         0
         0         0         0         0         0         0         0         0
         0         0         0         0         0         0         0         0
         0         0         0         0         0         0         0         0
         0         0         0         0         0         0         0         0
         0         0         0         0         0         0         0         0
         0         0         0         0         0         0         0         0
         0         0         0         0         0         0         0         0
         0         0         0         0         0         0         0         0
         0         0         0         0         0         0         0         0
         0         0         0         0         0         0         0         0
         0         0         0         0         0         0         0         0
         0         0         0         0         0         0         0         0
         0         0         0         0         0         0         0         0
         0         0         0         0         0         0         0         0
         0         0         0         0         0         0         0         0
         0         0         0         0         0         0         0         0
         0         0         0         0         0         0         0         0
         0         0         0         0         0         0         0         0
         0         0         0         0         0         0         0         0
         0         0         0         0         0         0         0         0
         0         0         0         0         0         0         0         0
         0         0         0         0         0         0         0         0
         0         0         0         0         0         0         0         0
         0         0         0         0         0         0         0         0
         0         0         0         0         0         0         0         0
         0         0         0         0         0         0         0         0
         0         0         0         0         0         0         0         0
         0         0         0         0         0         0         0         0
         0         0         0         0         0         0         0         0
         0         0         0         0         0         0         0         0
         0         0         0         0         0         0         0         0
         0         0         0         0         0         0         0         0
         0         0         0         0         0         0         0         0
         0         0         0         0         0         0         0         0
         0         0         0         0         0         0         0         0
         0         0         0         0         0         0         0         0
         0         0         0         0         0         0         0         0
         0         0         0         0         0         0         0         0
         0         0         0         0         0         0         0         0
         0         0         0         0         0         0         0         0
         0         0         0         0         0         0         0         0
         0         0         0         0         0         0         0         0
         0         0         0         0         0         0         0         0
         0         0         0         0         0         0         0         0
         0         0         0         0         0         0         0         0
         0         0         0         0         0         0         0         0
         0         0         0         0         0         0         0         0
         0         0         0         0         0         0         0         0
         0         0         0         0         0         0         0         0
         0         0         0         0         0         0         0         0
         0         0         0         0         0         0         0         0
         0         0         0         0         0         0         0         0
         0         0         0         0         0         0         0         0
         0         0         0         0         0         0         0         0
         0         0         0         0         0         0         0         0
         0         0         0         0         0         0         0         0
         0         0         0         0         0         0         0         0
         0         0         0         0         0         0         0         0
         0         0         0         0         0         0         0         0
         0         0         0         0         0         0         0         0
         0         0         0         0         0         0         0         0
         0         0         0         0         0         0         0         0
         0         0         0         0         0         0         0         0
         0         0         0         0         0         0         0         0
         0         0         0         0         0         0         0         0
         0         0         0         0         0         0         0         0
         0         0         0         0         0         0         0         0
         0         0         0         0         0         0         0         0
         0         0         0         0         0         0         0         0
         0         0         0         0         0         0         0         0
         0         0         0         0         0         0         0         0
         0         0         0         0         0         0         0         0
         0         0         0         0         0         0         0         0
         0         0         0         0         0         0         0         0
         0         0         0         0         0         0         0         0
         0         0         0         0         0         0         0         0
         0         0         0         0         0         0         0         0
         0         0         0         0         0         0         0         0
         0         0         0         0         0         0         0         0
         0         0         0         0         0         0         0         0
         0         0         0         0         0         0         0         0
         0         0         0         0         0         0         0         0
         0         0         0         0         0         0         0         0
         0         0         0         0         0         0         0         0
         0         0         0         0         0         0         0         0
         0         0         0         0         0         0         0         0
         0         0         0         0         0         0         0         0
         0         0         0         0         0         0         0         0
         0         0         0         0         0         0         0         0
         0         0         0         0         0         0         0         0
         0         0         0         0         0         0         0         0
         0         0         0         0         0         0         0         0
         0         0         0         0         0         0         0         0
         0         0         0         0         0         0         0         0
         0         0         0         0         0         0         0         0
         0         0         0         0         0         0         0         0
         0         0         0         0         0         0         0         0
         0         0         0         0         0         0         0         0
         0         0         0         0         0         0         0         0
         0         0         0         0         0         0         0         0
         0         0         0         0         0         0         0         0
         0         0         0         0         0         0         0         0
         0         0         0         0         0         0         0         0
         0         0         0         0         0         0         0         0
         0         0         0         0         0         0         0         0
         0         0         0         0         0         0         0         0
         0         0         0         0         0         0         0         0
         0         0         0         0         0         0         0         0
         0         0         0         0         0         0         0         0
         0         0         0         0         0         0         0         0
         0         0         0         0         0         0         0         0
         0         0         0         0         0         0         0         0
         0         0         0         0         0         0         0         0
         0         0         0         0         0         0         0         0
         0         0         0         0         0         0         0         0
         0         0         0         0         0         0         0         0
         0         0         0         0         0         0         0         0
         0         0         0         0         0         0         0         0
         0         0         0         0         0         0         0         0
         0         0         0         0         0         0         0         0
         0         0         0         0         0         0         0         0
         0         0         0         0         0         0         0         0
         0         0         0         0         0         0         0         0
         0         0         0         0         0         0         0         0
         0         0         0         0         0         0         0         0
         0         0         0         0         0         0         0         0
         0         0         0         0         0         0         0         0
         0         0         0         0         0         0         0         0
         0         0         0         0         0         0         0         0
         0         0         0         0         0         0         0         0
         0         0         0         0         0         0         0         0
         0         0         0         0         0         0         0         0
         0         0         0         0         0         0         0         0
         0         0         0         0         0         0         0         0
         0         0         0         0         0         0         0         0
         0         0         0         0         0         0         0         0
         0         0         0         0         0         0         0         0
         0         0         0         0         0         0         0         0
         0         0         0         0         0         0         0         0
         0         0         0         0         0         0         0         0
         0         0         0         0         0         0         0         0
         0         0         0         0         0         0         0         0
         0         0         0         0         0         0         0         0
         0         0         0         0         0         0         0         0
         0         0         0         0         0         0         0         0
         0         0         0         0         0         0         0         0
         0         0         0         0         0         0         0         0
         0         0         0         0         0         0         0         0
         0         0         0         0         0         0         0         0
         0         0         0         0         0         0         0         0
         0         0         0         0         0         0         0         0
         0         0         0         0         0         0         0         0
         0         0         0         0         0         0         0         0
         0         0         0         0         0         0         0         0
         0         0         0         0         0         0         0         0
         0         0         0         0         0         0         0         0
         0         0         0         0         0         0         0         0
         0         0         0         0         0         0         0         0
         0         0         0         0         0         0         0         0
         0         0         0         0         0         0         0         0
         0         0         0         0         0         0         0         0
         0         0         0         0         0         0         0         0
         0         0         0         0         0         0         0         0
         0         0         0         0         0         0         0         0
         0         0         0         0         0         0         0         0
         0         0         0         0         0         0         0         0
         0         0         0         0         0         0         0         0
         0         0         0         0         0         0         0         0
         0         0         0         0         0         0         0         0
         0         0         0         0         0         0         0         0
         0         0         0         0         0         0         0         0
         0         0         0         0         0         0         0         0
         0         0         0         0         0         0         0         0
         0         0         0         0         0         0         0         0
         0         0         0         0         0         0         0         0
         0         0         0         0         0         0         0         0
         0         0         0         0         0         0         0         0
         0         0         0         0         0         0         0         0
         0         0         0         0         0         0         0         0
         0         0         0         0         0         0         0         0
         0         0         0         0         0         0         0         0
         0         0         0         0         0         0         0         0
         0         0         0         0         0         0         0         0
         0         0         0         0         0         0         0         0
         0         0         0         0         0         0         0         0
         0         0         0         0         0         0         0         0
         0         0         0         0         0         0         0         0
         0         0         0         0         0         0         0         0
         0         0         0         0         0         0         0         0
         0         0         0         0         0         0         0         0
         0         0         0         0         0         0         0         0
         0         0         0         0         0         0         0         0
         0         0         0         0         0         0         0         0
         0         0         0         0         0         0         0         0
         0         0         0         0         0         0         0         0
         0         0         0         0         0         0         0         0
         0         0         0         0         0         0         0         0
         0         0         0         0         0         0         0         0
         0         0         0         0         0         0         0         0
         0         0         0         0         0         0         0         0
         0         0         0         0         0         0         0         0
         0         0         0         0         0         0         0         0
         0         0         0         0         0         0         0         0
         0         0         0         0         0         0         0         0
         0         0         0         0         0         0         0         0
         0         0         0         0         0         0         0         0
         0         0         0         0         0         0         0         0
         0         0         0         0         0         0         0         0
         0         0         0         0         0         0         0         0
         0         0         0         0         0         0         0         0
         0         0         0         0         0         0         0         0
         0         0         0         0         0         0         0         0
         0         0         0         0         0         0         0         0
         0         0         0         0         0         0         0         0
         0         0         0         0         0         0         0         0
         0         0         0         0         0         0         0         0
         0         0         0         0         0         0         0         0
         0         0         0         0         0         0         0         0
         0         0         0         0         0         0         0         0
         0         0         0         0         0         0         0         0
         0         0         0         0         0         0         0         0
         0         0         0         0         0         0         0         0
         0         0         0         0         0         0         0         0
         0         0         0         0         0         0         0         0
         0         0         0         0         0         0         0         0
         0         0         0         0         0         0         0         0
         0         0         0         0         0         0         0         0
         0         0         0         0         0         0         0         0
         0         0         0         0         0         0         0         0
         0         0         0         0         0         0         0         0
         0         0         0         0         0         0         0         0
         0         0         0         0         0         0         0         0
         0         0         0         0         0         0         0         0
         0         0         0         0         0         0         0         0
         0         0         0         0         0         0         0         0
         0         0         0         0         0         0         0         0
         0         0         0         0         0         0         0         0
         0         0         0         0         0         0         0         0
         0         0         0         0         0         0         0         0
         0         0         0         0         0         0         0         0
         0         0         0         0         0         0         0         0
         0         0         0         0         0         0         0         0
         0         0         0         0         0         0         0         0
         0         0         0         0         0         0         0         0
         0         0         0         0         0         0         0         0
         0         0         0         0         0         0         0         0
         0         0         0         0         0         0         0         0
         0         0         0         0         0         0         0         0
         0         0         0         0         0         0         0         0
         0         0         0         0         0         0         0         0
         0         0         0         0         0         0         0         0
         0         0         0         0         0         0         0         0
         0         0         0         0         0         0         0         0
         0         0         0         0         0         0         0         0
         0         0         0         0         0         0         0         0
         0         0         0         0         0         0         0         0
         0         0         0         0         0         0         0         0
         0         0         0         0         0         0         0         0
         0         0         0         0         0         0         0         0
         0         0         0         0         0         0         0         0
         0         0         0         0         0         0         0         0
         0         0         0         0         0         0         0         0
         0         0         0         0         0         0         0         0
         0         0         0         0         0         0         0         0
         0         0         0         0         0         0         0         0
         0         0         0         0         0         0         0         0
         0         0         0         0         0         0         0         0
         0         0         0         0         0         0         0         0
         0         0         0         0         0         0         0         0
         0         0         0         0         0         0         0         0
         0         0         0         0         0         0         0         0
         0         0         0         0         0         0         0         0
         0         0         0         0         0         0         0         0
         0         0         0         0         0         0         0         0
         0         0         0         0         0         0         0         0
         0         0         0         0         0         0         0         0
         0         0         0         0         0         0         0         0
         0         0         0         0         0         0         0         0
         0         0         0         0         0         0         0         0
         0         0         0         0         0         0         0         0
         0         0         0         0         0         0         0         0
         0         0         0         0         0         0         0         0
         0         0         0         0         0         0         0         0
         0         0         0         0         0         0         0         0
         0         0         0         0         0         0         0         0
         0         0         0         0         0         0         0         0
         0         0         0         0         0         0         0         0
         0         0         0         0         0         0         0         0
         0         0         0         0         0         0         0         0
         0         0         0         0         0         0         0         0
         0         0         0         0         0         0         0         0
         0         0         0         0         0         0         0         0
         0         0         0         0         0         0         0         0
         0         0         0         0         0         0         0         0
         0         0         0         0         0         0         0         0
         0         0         0         0         0         0         0         0
         0         0         0         0         0         0         0         0
         0         0         0         0         0         0         0         0
         0         0         0         0         0         0         0         0
         0         0         0         0         0         0         0         0
         0         0         0         0         0         0         0         0
         0         0         0         0         0         0         0         0
         0         0         0         0         0         0         0         0
         0         0         0         0         0         0         0         0
         0         0         0         0         0         0         0         0
         0         0         0         0         0         0         0         0
         0         0         0         0         0         0         0         0
         0         0         0         0         0         0         0         0
         0         0         0         0         0         0         0         0
         0         0         0         0         0         0         0         0
         0         0         0         0         0         0         0         0
         0         0         0         0         0         0         0         0
         0         0         0         0         0         0         0         0
         0         0         0         0         0         0         0         0
         0         0         0         0         0         0         0         0
         0         0         0         0         0         0         0         0
         0         0         0         0         0         0         0         0
         0         0         0         0         0         0         0         0
         0         0         0         0         0         0         0         0
         0         0         0         0         0         0         0         0
         0         0         0         0         0         0         0         0
         0         0         0         0         0         0         0         0
         0         0         0         0         0         0         0         0
         0         0         0         0         0         0         0         0
         0         0         0         0         0         0         0         0
         0         0         0         0         0         0         0         0
         0         0         0         0         0         0         0         0
         0         0         0         0         0         0         0         0
         0         0         0         0         0         0         0         0
         0         0         0         0         0         0         0         0
         0         0         0         0         0         0         0         0
         0         0         0         0         0         0         0         0
         0         0         0         0         0         0         0         0
         0         0         0         0         0         0         0         0
         0         0         0         0         0         0         0         0
         0         0         0         0         0         0         0         0
         0         0         0         0         0         0         0         0
         0         0         0         0         0         0         0         0
         0         0         0         0         0         0         0         0
         0         0         0         0         0         0         0         0
         0         0         0         0         0         0         0         0
         0         0         0         0         0         0         0         0
         0         0         0         0         0         0         0         0
         0         0         0         0         0         0         0         0
         0         0         0         0         0         0         0         0
         0         0         0         0         0         0         0         0
         0         0         0         0         0         0         0         0
         0         0         0         0         0         0         0         0
         0         0         0         0         0         0         0         0
         0         0         0         0         0         0         0         0
         0         0         0         0         0         0         0         0
         0         0         0         0         0         0         0         0
         0         0         0         0         0         0         0         0
         0         0         0         0         0         0         0         0
         0         0         0         0         0         0         0         0
         0         0         0         0         0         0         0         0
         0         0         0         0         0         0         0         0
         0         0         0         0         0         0         0         0
         0         0         0         0         0         0         0         0
         0         0         0         0         0         0         0         0
         0         0         0         0         0         0         0         0
         0         0         0         0         0         0         0         0
         0         0         0         0         0         0         0         0
         0         0         0         0         0         0         0         0
         0         0         0         0         0         0         0         0
         0         0         0         0         0         0         0         0
         0         0         0         0         0         0         0         0
         0         0         0         0         0         0         0         0
         0         0         0         0         0         0         0         0
         0         0         0         0         0         0         0         0
         0         0         0         0         0         0         0         0
         0         0         0         0         0         0         0         0
         0         0         0         0         0         0         0         0
         0         0         0         0         0         0         0         0
         0         0         0         0         0         0         0         0
         0         0         0         0         0         0         0         0
         0         0         0         0         0         0         0         0
         0         0         0         0         0         0         0         0
         0         0         0         0         0         0         0         0
         0         0         0         0         0         0         0         0
         0         0         0         0         0         0         0         0
         0         0         0         0         0         0         0         0
         0         0         0         0         0         0         0         0
         0         0         0         0         0         0         0         0
         0         0         0         0         0         0         0         0
         0         0         0         0         0         0         0         0
         0         0         0         0         0         0         0         0
         0         0         0         0         0         0         0         0
         0         0         0         0         0         0         0         0
         0         0         0         0         0         0         0         0
         0         0         0         0         0         0         0         0
         0         0         0         0         0         0         0         0
         0         0         0         0         0         0         0         0
         0         0         0         0         0         0         0         0
         0         0         0         0         0         0         0         0
         0         0         0         0         0         0         0         0
         0         0         0         0         0         0         0         0
         0         0         0         0         0         0         0         0
         0         0         0         0         0         0         0         0
         0         0         0         0         0         0         0         0
         0         0         0         0         0         0         0         0
         0         0         0         0         0         0         0         0
         0         0         0         0         0         0         0         0
         0         0         0         0         0         0         0         0
         0         0         0         0         0         0         0         0
         0         0         0         0         0         0         0         0
         0         0         0         0         0         0         0         0
         0         0         0         0         0         0         0         0
         0         0         0         0         0         0         0         0
         0         0         0         0         0         0         0         0
         0         0         0         0         0         0         0         0
         0         0         0         0         0         0         0         0
         0         0         0         0         0         0         0         0
         0         0         0         0         0         0         0         0
         0         0         0         0         0         0         0         0
         0         0         0         0         0         0         0         0
         0         0         0         0         0         0         0         0
         0         0         0         0         0         0         0         0
         0         0         0         0         0         0         0         0
         0         0         0         0         0         0         0         0
         0         0         0         0         0         0         0         0
         0         0         0         0         0         0         0         0
         0         0         0         0         0         0         0         0
         0         0         0         0         0         0         0         0
         0         0         0         0         0         0         0         0
         0         0         0         0         0         0         0         0
         0         0         0         0         0         0         0         0
         0         0         0         0         0         0         0         0
         0         0         0         0         0         0         0         0
         0         0         0         0         0         0         0         0
         0         0         0         0         0         0         0         0
         0         0         0         0         0         0         0         0
         0         0         0         0         0         0         0         0
         0         0         0         0         0         0         0         0
         0         0         0         0         0         0         0         0
         0         0         0         0         0         0         0         0
         0         0         0         0         0         0         0         0
         0         0         0         0         0         0         0         0
         0         0         0         0         0         0         0         0
         0         0         0         0         0         0         0         0
         0         0         0         0         0         0         0         0
         0         0         0         0         0         0         0         0
         0         0         0         0         0         0         0         0
         0         0         0         0         0         0         0         0
         0         0         0         0         0         0         0         0
         0         0         0         0         0         0         0         0
         0         0         0         0         0         0         0         0
         0         0         0         0         0         0         0         0
         0         0         0         0         0         0         0         0
         0         0         0         0         0         0         0         0
         0         0         0         0         0         0         0         0
         0         0         0         0         0         0         0         0
         0         0         0         0         0         0         0         0
         0         0         0         0         0         0         0         0
         0         0         0         0         0         0         0         0
         0         0         0         0         0         0         0         0
         0         0         0         0         0         0         0         0
         0         0         0         0         0         0         0         0
         0         0         0         0         0         0         0         0
         0         0         0         0         0         0         0         0
         0         0         0         0         0         0         0         0
         0         0         0         0         0         0         0         0
         0         0         0         0         0         0         0         0
         0         0         0         0         0         0         0         0
         0         0         0         0         0         0         0         0
         0         0         0         0         0         0         0         0
         0         0         0         0         0         0         0         0
         0         0         0         0         0         0         0         0
         0         0         0         0         0         0         0         0
         0         0         0         0         0         0         0         0
         0         0         0         0         0         0         0         0
         0         0         0         0         0         0         0         0
         0         0         0         0         0         0         0         0
         0         0         0         0         0         0         0         0
         0         0         0         0         0         0         0         0
         0         0         0         0         0         0         0         0
         0         0         0         0         0         0         0         0
         0         0         0         0         0         0         0         0
         0         0         0         0         0         0         0         0
         0         0         0         0         0         0         0         0
         0         0         0         0         0         0         0         0
         0         0         0         0         0         0         0         0
         0         0         0         0         0         0         0         0
         0         0         0         0         0         0         0         0
         0         0         0         0         0         0         0         0
         0         0         0         0         0         0         0         0
         0         0         0         0         0         0         0         0
         0         0         0         0         0         0         0         0
         0         0         0         0         0         0         0         0
         0         0         0         0         0         0         0         0
         0         0         0         0         0         0         0         0
         0         0         0         0         0         0         0         0
         0         0         0         0         0         0         0         0
         0         0         0         0         0         0         0         0
         0         0         0         0         0         0         0         0
         0         0         0         0         0         0         0         0
         0         0         0         0         0         0         0         0
         0         0         0         0         0         0         0         0
         0         0         0         0         0         0         0         0
         0         0         0         0         0         0         0         0
         0         0         0         0         0         0         0         0
         0         0         0         0         0         0         0         0
         0         0         0         0         0         0         0         0
         0         0         0         0         0         0         0         0
         0         0         0         0         0         0         0         0
         0         0         0         0         0         0         0         0
         0         0         0         0         0         0         0         0
         0         0         0         0         0         0         0         0
         0         0         0         0         0         0         0         0
         0         0         0         0         0         0         0         0
         0         0         0         0         0         0         0         0
         0         0         0         0         0         0         0         0
         0         0         0         0         0         0         0         0
         0         0         0         0         0         0         0         0
         0         0         0         0         0         0         0         0
         0         0         0         0         0         0         0         0
         0         0         0         0         0         0         0         0
         0         0         0         0         0         0         0         0
         0         0         0         0         0         0         0         0
         0         0         0         0         0         0         0         0
         0         0         0         0         0         0         0         0
         0         0         0         0         0         0         0         0
         0         0         0         0         0         0         0         0
         0         0         0         0         0         0         0         0
         0         0         0         0         0         0         0         0
         0         0         0         0         0         0         0         0
         0         0         0         0         0         0         0         0
         0         0         0         0         0         0         0         0
         0         0         0         0         0         0         0         0
         0         0         0         0         0         0         0         0
         0         0         0         0         0         0         0         0
         0         0         0         0         0         0         0         0
         0         0         0         0         0         0         0         0
         0         0         0         0         0         0         0         0
         0         0         0         0         0         0         0         0
         0         0         0         0         0         0         0         0
         0         0         0         0         0         0         0         0
         0         0         0         0         0         0         0         0
         0         0         0         0         0         0         0         0
         0         0         0         0         0         0         0         0
         0         0         0         0         0         0         0         0
         0         0         0         0         0         0         0         0
         0         0         0         0         0         0         0         0
         0         0         0         0         0         0         0         0
         0         0         0         0         0         0         0         0
         0         0         0         0         0         0         0         0
         0         0         0         0         0         0         0         0
         0         0         0         0         0         0         0         0
         0         0         0         0         0         0         0         0
         0         0         0         0         0         0         0         0
         0         0         0         0         0         0         0         0
         0         0         0         0         0         0         0         0
         0         0         0         0         0         0         0         0
         0         0         0         0         0         0         0         0
         0         0         0         0         0         0         0         0
         0         0         0         0         0         0         0         0
         0         0         0         0         0         0         0         0
         0         0         0         0         0         0         0         0
         0         0         0         0         0         0         0         0
         0         0         0         0         0         0         0         0
         0         0         0         0         0         0         0         0
         0         0         0         0         0         0         0         0
         0         0         0         0         0         0         0         0
         0         0         0         0         0         0         0         0
         0         0         0         0         0         0         0         0
         0         0         0         0         0         0         0         0
         0         0         0         0         0         0         0         0
         0         0         0         0         0         0         0         0
         0         0         0         0         0         0         0         0
         0         0         0         0         0         0         0         0
         0         0         0         0         0         0         0         0
         0         0         0         0         0         0         0         0
         0         0         0         0         0         0         0         0
         0         0         0         0         0         0         0         0
         0         0         0         0         0         0         0         0
         0         0         0         0         0         0         0         0
         0         0         0         0         0         0         0         0
         0         0         0         0         0         0         0         0
         0         0         0         0         0         0         0         0
         0         0         0         0         0         0         0         0
         0         0         0         0         0         0         0         0
         0         0         0         0         0         0         0         0
         0         0         0         0         0         0         0         0
         0         0         0         0         0         0         0         0
         0         0         0         0         0         0         0         0
         0         0         0         0         0         0         0         0
         0         0         0         0         0         0         0         0
         0         0         0         0         0         0         0         0
         0         0         0         0         0         0         0         0
         0         0         0         0         0         0         0         0
         0         0         0         0         0         0         0         0
         0         0         0         0         0         0         0         0
         0         0         0         0         0         0         0         0
         0         0         0         0         0         0         0         0
         0         0         0         0         0         0         0         0
         0         0         0         0         0         0         0         0
         0         0         0         0         0         0         0         0
         0         0         0         0         0         0         0         0
         0         0         0         0         0         0         0         0
         0         0         0         0         0         0         0         0
         0         0         0         0         0         0         0         0
         0         0         0         0         0         0         0         0
         0         0         0         0         0         0         0         0
         0         0         0         0         0         0         0         0
         0         0         0         0         0         0         0         0
         0         0         0         0         0         0         0         0
         0         0         0         0         0         0         0         0
         0         0         0         0         0         0         0         0
         0         0         0         0         0         0         0         0
         0         0         0         0         0         0         0         0
         0         0         0         0         0         0         0         0
         0         0         0         0         0         0         0         0
         0         0         0         0         0         0         0         0
         0         0         0         0         0         0         0         0
         0         0         0         0         0         0         0         0
         0         0         0         0         0         0         0         0
         0         0         0         0         0         0         0         0
         0         0         0         0         0         0         0         0
         0         0         0         0         0         0         0         0
         0         0         0         0         0         0         0         0
         0         0         0         0         0         0         0         0
         0         0         0         0         0         0         0         0
         0         0         0         0         0         0         0         0
         0         0         0         0         0         0         0         0
         0         0         0         0         0         0         0         0
         0         0         0         0         0         0         0         0
         0         0         0         0         0         0         0         0
         0         0         0         0         0         0         0         0
         0         0         0         0         0         0         0         0
         0         0         0         0         0         0         0         0
         0         0         0         0         0         0         0         0
         0         0         0         0         0         0         0         0
         0         0         0         0         0         0         0         0
         0         0         0         0         0         0         0         0
         0         0         0         0         0         0         0         0
         0         0         0         0         0         0         0         0
         0         0         0         0         0         0         0         0
         0         0         0         0         0         0         0         0
         0         0         0         0         0         0         0         0
         0         0         0         0         0         0         0         0
         0         0         0         0         0         0         0         0
         0         0         0         0         0         0         0         0
         0         0         0         0         0         0         0         0
         0         0         0         0         0         0         0         0
         0         0         0         0         0         0         0         0
         0         0         0         0         0         0         0         0
         0         0         0         0         0         0         0         0
         0         0         0         0         0         0         0         0
         0         0         0         0         0         0         0         0
         0         0         0         0         0         0         0         0
         0         0         0         0         0         0         0         0
         0         0         0         0         0         0         0         0
         0         0         0         0         0         0         0         0
         0         0         0         0         0         0         0         0
         0         0         0         0         0         0         0         0
         0         0         0         0         0         0         0         0
         0         0         0         0         0         0         0         0
         0         0         0         0         0         0         0         0
         0         0         0         0         0         0         0         0
         0         0         0         0         0         0         0         0
         0         0         0         0         0         0         0         0
         0         0         0         0         0         0         0         0
         0         0         0         0         0         0         0         0
         0         0         0         0         0         0         0         0
         0         0         0         0         0         0         0         0
         0         0         0         0         0         0         0         0
         0         0         0         0         0         0         0         0
         0         0         0         0         0         0         0         0
         0         0         0         0         0         0         0         0
         0         0         0         0         0         0         0         0
         0         0         0         0         0         0         0         0
         0         0         0         0         0         0         0         0
         0         0         0         0         0         0         0         0
         0         0         0         0         0         0         0         0
         0         0         0         0         0         0         0         0
         0         0         0         0         0         0         0         0
         0         0         0         0         0         0         0         0
         0         0         0         0         0         0         0         0
         0         0         0         0         0         0         0         0
         0         0         0         0         0         0         0         0
         0         0         0         0         0         0         0         0
         0         0         0         0         0         0         0         0
         0         0         0         0         0         0         0         0
         0         0         0         0         0         0         0         0
         0         0         0         0         0         0         0         0
         0         0         0         0         0         0         0         0
         0         0         0         0         0         0         0         0
         0         0         0         0         0         0         0         0
         0         0         0         0         0         0         0         0
         0         0         0         0         0         0         0         0
         0         0         0         0         0         0         0         0
         0         0         0         0         0         0         0         0
         0         0         0         0         0         0         0         0
         0         0         0         0         0         0         0         0
         0         0         0         0         0         0         0         0
         0         0         0         0         0         0         0         0
         0         0         0         0         0         0         0         0
         0         0         0         0         0         0         0         0
         0         0         0         0         0         0         0         0
         0         0         0         0         0         0         0         0
         0         0         0         0         0         0         0         0
         0         0         0         0         0         0         0         0
         0         0         0         0         0         0         0         0
         0         0         0         0         0         0         0         0
         0         0         0         0         0         0         0         0
         0         0         0         0         0         0         0         0
         0         0         0         0         0         0         0         0
         0         0         0         0         0         0         0         0
         0         0         0         0         0         0         0         0
         0         0         0         0         0         0         0         0
         0         0         0         0         0         0         0         0
         0         0         0         0         0         0         0         0
         0         0         0         0         0         0         0         0
         0         0         0         0         0         0         0         0
         0         0         0         0         0         0         0         0
         0         0         0         0         0         0         0         0
         0         0         0         0         0         0         0         0
         0         0         0         0         0         0         0         0
         0         0         0         0         0         0         0         0
         0         0         0         0         0         0         0         0
         0         0         0         0         0         0         0         0
         0         0         0         0         0         0         0         0
         0         0         0         0         0         0         0         0
         0         0         0         0         0         0         0         0
         0         0         0         0         0         0         0         0
         0         0         0         0         0         0         0         0
         0         0         0         0         0         0         0         0
         0         0         0         0         0         0         0         0
         0         0         0         0         0         0         0         0
         0         0         0         0         0         0         0         0
         0         0         0         0         0         0         0         0
         0         0         0         0         0         0         0         0
         0         0         0         0         0         0         0         0
         0         0         0         0         0         0         0         0
         0         0         0         0         0         0         0         0
         0         0         0         0         0         0         0         0
         0         0         0         0         0         0         0         0
         0         0         0         0         0         0         0         0
         0         0         0         0         0         0         0         0
         0         0         0         0         0         0         0         0
         0         0         0         0         0         0         0         0
         0         0         0         0         0         0         0         0
         0         0         0         0         0         0         0         0
         0         0         0         0         0         0         0         0
         0         0         0         0         0         0         0         0
         0         0         0         0         0         0         0         0
         0         0         0         0         0         0         0         0
         0         0         0         0         0         0         0         0
         0         0         0         0         0         0         0         0
         0         0         0         0         0         0         0         0
         0         0         0         0         0         0         0         0
         0         0         0         0         0         0         0         0
         0         0         0         0         0         0         0         0
         0         0         0         0         0         0         0         0
         0         0         0         0         0         0         0         0
         0         0         0         0         0         0         0         0
         0         0         0         0         0         0         0         0
         0         0         0         0         0         0         0         0
         0         0         0         0         0         0         0         0
         0         0         0         0         0         0         0         0
         0         0         0         0         0         0         0         0
         0         0         0         0         0         0         0         0
         0         0         0         0         0         0         0         0
         0         0         0         0         0         0         0         0
         0         0         0         0         0         0         0         0
         0         0         0         0         0         0         0         0
         0         0         0         0         0         0         0         0
         0         0         0         0         0         0         0         0
         0         0         0         0         0         0         0         0
         0         0         0         0         0         0         0         0
         0         0         0         0         0         0         0         0
         0         0         0         0         0         0         0         0
         0         0         0         0         0         0         0         0
         0         0         0         0         0         0         0         0
         0         0         0         0         0         0         0         0
         0         0         0         0         0         0         0         0
         0         0         0         0         0         0         0         0
         0         0         0         0         0         0         0         0
         0         0         0         0         0         0         0         0
         0         0         0         0         0         0         0         0
         0         0         0         0         0         0         0         0
         0         0         0         0         0         0         0         0
         0         0         0         0         0         0         0         0
         0         0         0         0         0         0         0         0
         0         0         0         0         0         0         0         0
         0         0         0         0         0         0         0         0
         0         0         0         0         0         0         0         0
         0         0         0         0         0         0         0         0
         0         0         0         0         0         0         0         0
         0         0         0         0         0         0         0         0
         0         0         0         0         0         0         0         0
         0         0         0         0         0         0         0         0
         0         0         0         0         0         0         0         0
         0         0         0         0         0         0         0         0
         0         0         0         0         0         0         0         0
         0         0         0         0         0         0         0         0
         0         0         0         0         0         0         0         0
         0         0         0         0         0         0         0         0
         0         0         0         0         0         0         0         0
         0         0         0         0         0         0         0         0
         0         0         0         0         0         0         0         0
         0         0         0         0         0         0         0         0
         0         0         0         0         0         0         0         0
         0         0         0         0         0         0         0         0
         0         0         0         0         0         0         0         0
         0         0         0         0         0         0         0         0
         0         0         0         0         0         0         0         0
         0         0         0         0         0         0         0         0
         0         0         0         0         0         0         0         0
         0         0         0         0         0         0         0         0
         0         0         0         0         0         0         0         0
         0         0         0         0         0         0         0         0
         0         0         0         0         0         0         0         0
         0         0         0         0         0         0         0         0
         0         0         0         0         0         0         0         0
         0         0         0         0         0         0         0         0
         0         0         0         0         0         0         0         0
         0         0         0         0         0         0         0         0
         0         0         0         0         0         0         0         0
         0         0         0         0         0         0         0         0
         0         0         0         0         0         0         0         0
         0         0         0         0         0         0         0         0
         0         0         0         0         0         0         0         0
         0         0         0         0         0         0         0         0
         0         0         0         0         0         0         0         0
         0         0         0         0         0         0         0         0
         0         0         0         0         0         0         0         0
         0         0         0         0         0         0         0         0
         0         0         0         0         0         0         0         0
         0         0         0         0         0         0         0         0
         0         0         0         0         0         0         0         0
         0         0         0         0         0         0         0         0
         0         0         0         0         0         0         0         0
         0         0         0         0         0         0         0         0
         0         0         0         0         0         0         0         0
         0         0         0         0         0         0         0         0
         0         0         0         0         0         0         0         0
         0         0         0         0         0         0         0         0
         0         0         0         0         0         0         0         0
         0         0         0         0         0         0         0         0
         0         0         0         0         0         0         0         0
         0         0         0         0         0         0         0         0
         0         0         0         0         0         0         0         0
         0         0         0         0         0         0         0         0
         0         0         0         0         0         0         0         0
         0         0         0         0         0         0         0         0
         0         0         0         0         0         0         0         0
         0         0         0         0         0         0         0         0
         0         0         0         0         0         0         0         0
         0         0         0         0         0         0         0         0
         0         0         0         0         0         0         0         0
         0         0         0         0         0         0         0         0
         0         0         0         0         0         0         0         0
         0         0         0         0         0         0         0         0
         0         0         0         0         0         0         0         0
         0         0         0         0         0         0         0         0
         0         0         0         0         0         0         0         0
         0         0         0         0         0         0         0         0
         0         0         0         0         0         0         0         0
         0         0         0         0         0         0         0         0
         0         0         0         0         0         0         0         0
         0         0         0         0         0         0         0         0
         0         0         0         0         0         0         0         0
         0         0         0         0         0         0         0         0
         0         0         0         0         0         0         0         0
         0         0         0         0         0         0         0         0
         0         0         0         0         0         0         0         0
         0         0         0         0         0         0         0         0
         0         0         0         0         0         0         0         0
         0         0         0         0         0         0         0         0
         0         0         0         0         0         0         0         0
         0         0         0         0         0         0         0         0
         0         0         0         0         0         0         0         0
         0         0         0         0         0         0         0         0
         0         0         0         0         0         0         0         0
         0         0         0         0         0         0         0         0
         0         0         0         0         0         0         0         0
         0         0         0         0         0         0         0         0
         0         0         0         0         0         0         0         0
         0         0         0         0         0         0         0         0
         0         0         0         0         0         0         0         0
         0         0         0         0         0         0         0         0
         0         0         0         0         0         0         0         0
         0         0         0         0         0         0         0         0
         0         0         0         0         0         0         0         0
         0         0         0         0         0         0         0         0
         0         0         0         0         0         0         0         0
         0         0         0         0         0         0         0         0
         0         0         0         0         0         0         0         0
         0         0         0         0         0         0         0         0
         0         0         0         0         0         0         0         0
         0         0         0         0         0         0         0         0
         0         0         0         0         0         0         0         0
         0         0         0         0         0         0         0         0
         0         0         0         0         0         0         0         0
         0         0         0         0         0         0         0         0
         0         0         0         0         0         0         0         0
         0         0         0         0         0         0         0         0
         0         0         0         0         0         0         0         0
         0         0         0         0         0         0         0         0
         0         0         0         0         0         0         0         0
         0         0         0         0         0         0         0         0
         0         0         0         0         0         0         0         0
         0         0         0         0         0         0         0         0
         0         0         0         0         0         0         0         0
         0         0         0         0         0         0         0         0
         0         0         0         0         0         0         0         0
         0         0         0         0         0         0         0         0
         0         0         0         0         0         0         0         0
         0         0         0         0         0         0         0         0
         0         0         0         0         0         0         0         0
         0         0         0         0         0         0         0         0
         0         0         0         0         0         0         0         0
         0         0         0         0         0         0         0         0
         0         0         0         0         0         0         0         0
         0         0         0         0         0         0         0         0
         0         0         0         0         0         0         0         0
         0         0         0         0         0         0         0         0
         0         0         0         0         0         0         0         0
         0         0         0         0         0         0         0         0
         0         0         0         0         0         0         0         0
         0         0         0         0         0         0         0         0
         0         0         0         0         0         0         0         0
         0         0         0         0         0         0         0         0
         0         0         0         0         0         0         0         0
         0         0         0         0         0         0         0         0
         0         0         0         0         0         0         0         0
         0         0         0         0         0         0         0         0
         0         0         0         0         0         0         0         0
         0         0         0         0         0         0         0         0
         0         0         0         0         0         0         0         0
         0         0         0         0         0         0         0         0
         0         0         0         0         0         0         0         0
         0         0         0         0         0         0         0         0
         0         0         0         0         0         0         0         0
         0         0         0         0         0         0         0         0
         0         0         0         0         0         0         0         0
         0         0         0         0         0         0         0         0
         0         0         0         0         0         0         0         0
         0         0         0         0         0         0         0         0
         0         0         0         0         0         0         0         0
         0         0         0         0         0         0         0         0
         0         0         0         0         0         0         0         0
         0         0         0         0         0         0         0         0
         0         0         0         0         0         0         0         0
         0         0         0         0         0         0         0         0
         0         0         0         0         0         0         0         0
         0         0         0         0         0         0         0         0
         0         0         0         0         0         0         0         0
         0         0         0         0         0         0         0         0
         0         0         0         0         0         0         0         0
         0         0         0         0         0         0         0         0
         0         0         0         0         0         0         0         0
         0         0         0         0         0         0         0         0
         0         0         0         0         0         0         0         0
         0         0         0         0         0         0         0         0
         0         0         0         0         0         0         0         0
         0         0         0         0         0         0         0         0
         0         0         0         0         0         0         0         0
         0         0         0         0         0         0         0         0
         0         0         0         0         0         0         0         0
         0         0         0         0         0         0         0         0
         0         0         0         0         0         0         0         0
         0         0         0         0         0         0         0         0
         0         0         0         0         0         0         0         0
         0         0         0         0         0         0         0         0
         0         0         0         0         0         0         0         0
         0         0         0         0         0         0         0         0
         0         0         0         0         0         0         0         0
         0         0         0         0         0         0         0         0
         0         0         0         0         0         0         0         0
         0         0         0         0         0         0         0         0
         0         0         0         0         0         0         0         0
         0         0         0         0         0         0         0         0
         0         0         0         0         0         0         0         0
         0         0         0         0         0         0         0         0
         0         0         0         0         0         0         0         0
         0         0         0         0         0         0         0         0
         0         0         0         0         0         0         0         0
         0         0         0         0         0         0         0         0
         0         0         0         0         0         0         0         0
         0         0         0         0         0         0         0         0
         0         0         0         0         0         0         0         0
         0         0         0         0         0         0         0         0
         0         0         0         0         0         0         0         0
         0         0         0         0         0         0         0         0
         0         0         0         0         0         0         0         0
         0         0         0         0         0         0         0         0
         0         0         0         0         0         0         0         0
         0         0         0         0         0         0         0         0
         0         0         0         0         0         0         0         0
         0         0         0         0         0         0         0         0
         0         0         0         0         0         0         0         0
         0         0         0         0         0         0         0         0
         0         0         0         0         0         0         0         0
         0         0         0         0         0         0         0         0
         0         0         0         0         0         0         0         0
         0         0         0         0         0         0         0         0
         0         0         0         0         0         0         0         0
         0         0         0         0         0         0         0         0
         0         0         0         0         0         0         0         0
         0         0         0         0         0         0         0         0
         0         0         0         0         0         0         0         0
         0         0         0         0         0         0         0         0
         0         0         0         0         0         0         0         0
         0         0         0         0         0         0         0         0
         0         0         0         0         0         0         0         0
         0         0         0         0         0         0         0         0
         0         0         0         0         0         0         0         0
         0         0         0         0         0         0         0         0
         0         0         0         0         0         0         0         0
         0         0         0         0         0         0         0         0
         0         0         0         0         0         0         0         0
         0         0         0         0         0         0         0         0
         0         0         0         0         0         0         0         0
         0         0         0         0         0         0         0         0
         0         0         0         0         0         0         0         0
         0         0         0         0         0         0         0         0
         0         0         0         0         0         0         0         0
         0         0         0         0         0         0         0         0
         0         0         0         0         0         0         0         0
         0         0         0         0         0         0         0         0
         0         0         0         0         0         0         0         0
         0         0         0         0         0         0         0         0
         0         0         0         0         0         0         0         0
         0         0         0         0         0         0         0         0
         0         0         0         0         0         0         0         0
         0         0         0         0         0         0         0         0
         0         0         0         0         0         0         0         0
         0         0         0         0         0         0         0         0
         0         0         0         0         0         0         0         0
         0         0         0         0         0         0         0         0
         0         0         0         0         0         0         0         0
         0         0         0         0         0         0         0         0
         0         0         0         0         0         0         0         0
         0         0         0         0         0         0         0         0
         0         0         0         0         0         0         0         0
         0         0         0         0         0         0         0         0
         0         0         0         0         0         0         0         0
         0         0         0         0         0         0         0         0
         0         0         0         0         0         0         0         0
         0         0         0         0         0         0         0         0
         0         0         0         0         0         0         0         0
         0         0         0         0         0         0         0         0
         0         0         0         0         0         0         0         0
         0         0         0         0         0         0         0         0
         0         0         0         0         0         0         0         0
         0         0         0         0         0         0         0         0
         0         0         0         0         0         0         0         0
         0         0         0         0         0         0         0         0
         0         0         0         0         0         0         0         0
         0         0         0         0         0         0         0         0
         0         0         0         0         0         0         0         0
         0         0         0         0         0         0         0         0
         0         0         0         0         0         0         0         0
         0         0         0         0         0         0         0         0
         0         0         0         0         0         0         0         0
         0         0         0         0         0         0         0         0
         0         0         0         0         0         0         0         0
         0         0         0         0         0         0         0         0
         0         0         0         0         0         0         0         0
         0         0         0         0         0         0         0         0
         0         0         0         0         0         0         0         0
         0         0         0         0         0         0         0         0
         0         0         0         0         0         0         0         0
         0         0         0         0         0         0         0         0
         0         0         0         0         0         0         0         0
         0         0         0         0         0         0         0         0
         0         0         0         0         0         0         0         0
         0         0         0         0         0         0         0         0
         0         0         0         0         0         0         0         0
         0         0         0         0         0         0         0         0
         0         0         0         0         0         0         0         0
         0         0         0         0         0         0         0         0
         0         0         0         0         0         0         0         0
         0         0         0         0         0         0         0         0
         0         0         0         0         0         0         0         0
         0         0         0         0         0         0         0         0
         0         0         0         0         0         0         0         0
         0         0         0         0         0         0         0         0
         0         0         0         0         0         0         0         0
         0         0         0         0         0         0         0         0
         0         0         0         0         0         0         0         0
         0         0         0         0         0         0         0         0
         0         0         0         0         0         0         0         0
         0         0         0         0         0         0         0         0
         0         0         0         0         0         0         0         0
         0         0         0         0         0         0         0         0
         0         0         0         0         0         0         0         0
         0         0         0         0         0         0         0         0
         0         0         0         0         0         0         0         0
         0         0         0         0         0         0         0         0
         0         0         0         0         0         0         0         0
         0         0         0         0         0         0         0         0
         0         0         0         0         0         0         0         0
         0         0         0         0         0         0         0         0
         0         0         0         0         0         0         0         0
         0         0         0         0         0         0         0         0
         0         0         0         0         0         0         0         0
         0         0         0         0         0         0         0         0
         0         0         0         0         0         0         0         0
         0         0         0         0         0         0         0         0
         0         0         0         0         0         0         0         0
         0         0         0         0         0         0         0         0
         0         0         0         0         0         0         0         0
         0         0         0         0         0         0         0         0
         0         0         0         0         0         0         0         0
         0         0         0         0         0         0         0         0
         0         0         0         0         0         0         0         0
         0         0         0         0         0         0         0         0
         0         0         0         0         0         0         0         0
         0         0         0         0         0         0         0         0
         0         0         0         0         0         0         0         0
         0         0         0         0         0         0         0         0
         0         0         0         0         0         0         0         0
         0         0         0         0         0         0         0         0
         0         0         0         0         0         0         0         0
         0         0         0         0         0         0         0         0
         0         0         0         0         0         0         0         0
         0         0         0         0         0         0         0         0
         0         0         0         0         0         0         0         0
         0         0         0         0         0         0         0         0
         0         0         0         0         0         0         0         0
         0         0         0         0         0         0         0         0
         0         0         0         0         0         0         0         0
         0         0         0         0         0         0         0         0
         0         0         0         0         0         0         0         0
         0         0         0         0         0         0         0         0
         0         0         0         0         0         0         0         0
         0         0         0         0         0         0         0         0
         0         0         0         0         0         0         0         0
         0         0         0         0         0         0         0         0
         0         0         0         0         0         0         0         0
         0         0         0         0         0         0         0         0
         0         0         0         0         0         0         0         0
         0         0         0         0         0         0         0         0
         0         0         0         0         0         0         0         0
         0         0         0         0         0         0         0         0
         0         0         0         0         0         0         0         0
         0         0         0         0         0         0         0         0
         0         0         0         0         0         0         0         0
         0         0         0         0         0         0         0         0
         0         0         0         0         0         0         0         0
         0         0         0         0         0         0         0         0
         0         0         0         0         0         0         0         0
         0         0         0         0         0         0         0         0
         0         0         0         0         0         0         0         0
         0         0         0         0         0         0         0         0
         0         0         0         0         0         0         0         0
         0         0         0         0         0         0         0         0
         0         0         0         0         0         0         0         0
         0         0         0         0         0         0         0         0
         0         0         0         0         0         0         0         0
         0         0         0         0         0         0         0         0
         0         0         0         0         0         0         0         0
         0         0         0         0         0         0         0         0
         0         0         0         0         0         0         0         0
         0         0         0         0         0         0         0         0
         0         0         0         0         0         0         0         0
         0         0         0         0         0         0         0         0
         0         0         0         0         0         0         0         0
         0         0         0         0         0         0         0         0
         0         0         0         0         0         0         0         0
         0         0         0         0         0         0         0         0
         0         0         0         0         0         0         0         0
         0         0         0         0         0         0         0         0
         0         0         0         0         0         0         0         0
         0         0         0         0         0         0         0         0
         0         0         0         0         0         0         0         0
         0         0         0         0         0         0         0         0
         0         0         0         0         0         0         0         0
         0         0         0         0         0         0         0         0
         0         0         0         0         0         0         0         0
         0         0         0         0         0         0         0         0
         0         0         0         0         0         0         0         0
         0         0         0         0         0         0         0         0
         0         0         0         0         0         0         0         0
         0         0         0         0         0         0         0         0
         0         0         0         0         0         0         0         0
         0         0         0         0         0         0         0         0
         0         0         0         0         0         0         0         0
         0         0         0         0         0         0         0         0
         0         0         0         0         0         0         0         0
         0         0         0         0         0         0         0         0
         0         0         0         0         0         0         0         0
         0         0         0         0         0         0         0         0
         0         0         0         0         0         0         0         0
         0         0         0         0         0         0         0         0
         0         0         0         0         0         0         0         0
         0         0         0         0         0         0         0         0
         0         0         0         0         0         0         0         0
         0         0         0         0         0         0         0         0
         0         0         0         0         0         0         0         0
         0         0         0         0         0         0         0         0
         0         0         0         0         0         0         0         0
         0         0         0         0         0         0         0         0
         0         0         0         0         0         0         0         0
         0         0         0         0         0         0         0         0
         0         0         0         0         0         0         0         0
         0         0         0         0         0         0         0         0
         0         0         0         0         0         0         0         0
         0         0         0         0         0         0         0         0
         0         0         0         0         0         0         0         0
         0         0         0         0         0         0         0         0
         0         0         0         0         0         0         0         0
         0         0         0         0         0         0         0         0
         0         0         0         0         0         0         0         0
         0         0         0         0         0         0         0         0
         0         0         0         0         0         0         0         0
         0         0         0         0         0         0         0         0
         0         0         0         0         0         0         0         0
         0         0         0         0         0         0         0         0
         0         0         0         0         0         0         0         0
         0         0         0         0         0         0         0         0
         0         0         0         0         0         0         0         0
         0         0         0         0         0         0         0         0
         0         0         0         0         0         0         0         0
         0         0         0         0         0         0         0         0
         0         0         0         0         0         0         0         0
         0         0         0         0         0         0         0         0
         0         0         0         0         0         0         0         0
         0         0         0         0         0         0         0         0
         0         0         0         0         0         0         0         0
         0         0         0         0         0         0         0         0
         0         0         0         0         0         0         0         0
         0         0         0         0         0         0         0         0
         0         0         0         0         0         0         0         0
         0         0         0         0         0         0         0         0
         0         0         0         0         0         0         0         0
         0         0         0         0         0         0         0         0
         0         0         0         0         0         0         0         0
         0         0         0         0         0         0         0         0
         0         0         0         0         0         0         0         0
         0         0         0         0         0         0         0         0
         0         0         0         0         0         0         0         0
         0         0         0         0         0         0         0         0
         0         0         0         0         0         0         0         0
         0         0         0         0         0         0         0         0
         0         0         0         0         0         0         0         0
         0         0         0         0         0         0         0         0
         0         0         0         0         0         0         0         0
         0         0         0         0         0         0         0         0
         0         0         0         0         0         0         0         0
         0         0         0         0         0         0         0         0
         0         0         0         0         0         0         0         0
         0         0         0         0         0         0         0         0
         0         0         0         0         0         0         0         0
         0         0         0         0         0         0         0         0
         0         0         0         0         0         0         0         0
         0         0         0         0         0         0         0         0
         0         0         0         0         0         0         0         0
         0         0         0         0         0         0         0         0
         0         0         0         0         0         0         0         0
         0         0         0         0         0         0         0         0
         0         0         0         0         0         0         0         0
         0         0         0         0         0         0         0         0
         0         0         0         0         0         0         0         0
         0         0         0         0         0         0         0         0
         0         0         0         0         0         0         0         0
         0         0         0         0         0         0         0         0
         0         0         0         0         0         0         0         0
         0         0         0         0         0         0         0         0
         0         0         0         0         0         0         0         0
         0         0         0         0         0         0         0         0
         0         0         0         0         0         0         0         0
         0         0         0         0         0         0         0         0
         0         0         0         0         0         0         0         0
         0         0         0         0         0         0         0         0
         0         0         0         0         0         0         0         0
         0         0         0         0         0         0         0         0
         0         0         0         0         0         0         0         0
         0         0         0         0         0         0         0         0
         0         0         0         0         0         0         0         0
         0         0         0         0         0         0         0         0
         0         0         0         0         0         0         0         0
         0         0         0         0         0         0         0         0
         0         0         0         0         0         0         0         0
         0         0         0         0         0         0         0         0
         0         0         0         0         0         0         0         0
         0         0         0         0         0         0         0         0
         0         0         0         0         0         0         0         0
         0         0         0         0         0         0         0         0
         0         0         0         0         0         0         0         0
         0         0         0         0         0         0         0         0
         0         0         0         0         0         0         0         0
         0         0         0         0         0         0         0         0
         0         0         0         0         0         0         0         0
         0         0         0         0         0         0         0         0
         0         0         0         0         0         0         0         0
         0         0         0         0         0         0         0         0
         0         0         0         0         0         0         0         0
         0         0         0         0         0         0         0         0
         0         0         0         0         0         0         0         0
         0         0         0         0         0         0         0         0
         0         0         0         0         0         0         0         0
         0         0         0         0         0         0         0         0
         0         0         0         0         0         0         0         0
         0         0         0         0         0         0         0         0
         0         0         0         0         0         0         0         0
         0         0         0         0         0         0         0         0
         0         0         0         0         0         0         0         0
         0         0         0         0         0         0         0         0
         0         0         0         0         0         0         0         0
         0         0         0         0         0         0         0         0
         0         0         0         0         0         0         0         0
         0         0         0         0         0         0         0         0
         0         0         0         0         0         0         0         0
         0         0         0         0         0         0         0         0
         0         0         0         0         0         0         0         0
         0         0         0         0         0         0         0         0
         0         0         0         0         0         0         0         0
         0         0         0         0         0         0         0         0
         0         0         0         0         0         0         0         0
         0         0         0         0         0         0         0         0
         0         0         0         0         0         0         0         0
         0         0         0         0         0         0         0         0
         0         0         0         0         0         0         0         0
         0         0         0         0         0         0         0         0
         0         0         0         0         0         0         0         0
         0         0         0         0         0         0         0         0
         0         0         0         0         0         0         0         0
         0         0         0         0         0         0         0         0
         0         0         0         0         0         0         0         0
         0         0         0         0         0         0         0         0
         0         0         0         0         0         0         0         0
         0         0         0         0         0         0         0         0
         0         0         0         0         0         0         0         0
         0         0         0         0         0         0         0         0
         0         0         0         0         0         0         0         0
         0         0         0         0         0         0         0         0
         0         0         0         0         0         0         0         0
         0         0         0         0         0         0         0         0
         0         0         0         0         0         0         0         0
         0         0         0         0         0         0         0         0
         0         0         0         0         0         0         0         0
         0         0         0         0         0         0         0         0
         0         0         0         0         0         0         0         0
         0         0         0         0         0         0         0         0
         0         0         0         0         0         0         0         0
         0         0         0         0         0         0         0         0
         0         0         0         0         0         0         0         0
         0         0         0         0         0         0         0         0
         0         0         0         0         0         0         0         0
         0         0         0         0         0         0         0         0
         0         0         0         0         0         0         0         0
         0         0         0         0         0         0         0         0
         0         0         0         0         0         0         0         0
         0         0         0         0         0         0         0         0
         0         0         0         0         0         0         0         0
         0         0         0         0         0         0         0         0
         0         0         0         0         0         0         0         0
         0         0         0         0         0         0         0         0
         0         0         0         0         0         0         0         0
         0         0         0         0         0         0         0         0
         0         0         0         0         0         0         0         0
         0         0         0         0         0         0         0         0
         0         0         0         0         0         0         0         0
         0         0         0         0         0         0         0         0
         0         0         0         0         0         0         0         0
         0         0         0         0         0         0         0         0
         0         0         0         0         0         0         0         0
         0         0         0         0         0         0         0         0
         0         0         0         0         0         0         0         0
         0         0         0         0         0         0         0         0
         0         0         0         0         0         0         0         0
         0         0         0         0         0         0         0         0
         0         0         0         0         0         0         0         0
         0         0         0         0         0         0         0         0
         0         0         0         0         0         0         0         0
         0         0         0         0         0         0         0         0
         0         0         0         0         0         0         0         0
         0         0         0         0         0         0         0         0
         0         0         0         0         0         0         0         0
         0         0         0         0         0         0         0         0
         0         0         0         0         0         0         0         0
         0         0         0         0         0         0         0         0
         0         0         0         0         0         0         0         0
         0         0         0         0         0         0         0         0
         0         0         0         0         0         0         0         0
         0         0         0         0         0         0         0         0
         0         0         0         0         0         0         0         0
         0         0         0         0         0         0         0         0
         0         0         0         0         0         0         0         0
         0         0         0         0         0         0         0         0
         0         0         0         0         0         0         0         0
         0         0         0         0         0         0         0         0
         0         0         0         0         0         0         0         0
         0         0         0         0         0         0         0         0
         0         0         0         0         0         0         0         0
         0         0         0         0         0         0         0         0
         0         0         0         0         0         0         0         0
         0         0         0         0         0         0         0         0
         0         0         0         0         0         0         0         0
         0         0         0         0         0         0         0         0
         0         0         0         0         0         0         0         0
         0         0         0         0         0         0         0         0
         0         0         0         0         0         0         0         0
         0         0         0         0         0         0         0         0
         0         0         0         0         0         0         0         0
         0         0         0         0         0         0         0         0
         0         0         0         0         0         0         0         0
         0         0         0         0         0         0         0         0
         0         0         0         0         0         0         0         0
         0         0         0         0         0         0         0         0
         0         0         0         0         0         0         0         0
         0         0         0         0         0         0         0         0
         0         0         0         0         0         0         0         0
         0         0         0         0         0         0         0         0
         0         0         0         0         0         0         0         0
         0         0         0         0         0         0         0         0
         0         0         0         0         0         0         0         0
         0         0         0         0         0         0         0         0
         0         0         0         0         0         0         0         0
         0         0         0         0         0         0         0         0
         0         0         0         0         0         0         0         0
         0         0         0         0         0         0         0         0
         0         0         0         0         0         0         0         0
         0         0         0         0         0         0         0         0
         0         0         0         0         0         0         0         0
         0         0         0         0         0         0         0         0
         0         0         0         0         0         0         0         0
         0         0         0         0         0         0         0         0
         0         0         0         0         0         0         0         0
         0         0         0         0         0         0         0         0
         0         0         0         0         0         0         0         0
         0         0         0         0         0         0         0         0
         0         0         0         0         0         0         0         0
         0         0         0         0         0         0         0         0
         0         0         0         0         0         0         0         0
         0         0         0         0         0         0         0         0
         0         0         0         0         0         0         0         0
         0         0         0         0         0         0         0         0
         0         0         0         0         0         0         0         0
         0         0         0         0         0         0         0         0
         0         0         0         0         0         0         0         0
         0         0         0         0         0         0         0         0
         0         0         0         0         0         0         0         0
         0         0         0         0         0         0         0         0
         0         0         0         0         0         0         0         0
         0         0         0         0         0         0         0         0
         0         0         0         0         0         0         0         0
         0         0         0         0         0         0         0         0
         0         0         0         0         0         0         0         0
         0         0         0         0         0         0         0         0
         0         0         0         0         0         0         0         0
         0         0         0         0         0         0         0         0
         0         0         0         0         0         0         0         0
         0         0         0         0         0         0         0         0
         0         0         0         0         0         0         0         0
         0         0         0         0         0         0         0         0
         0         0         0         0         0         0         0         0
         0         0         0         0         0         0         0         0
         0         0         0         0         0         0         0         0
         0         0         0         0         0         0         0         0
         0         0         0         0         0         0         0         0
         0         0         0         0         0         0         0         0
         0         0         0         0         0         0         0         0
         0         0         0         0         0         0         0         0
         0         0         0         0         0         0         0         0
         0         0         0         0         0         0         0         0
         0         0         0         0         0         0         0         0
         0         0         0         0         0         0         0         0
         0         0         0         0         0         0         0         0
         0         0         0         0         0         0         0         0
         0         0         0         0         0         0         0         0
         0         0         0         0         0         0         0         0
         0         0         0         0         0         0         0         0
         0         0         0         0         0         0         0         0
         0         0         0         0         0         0         0         0
         0         0         0         0         0         0         0         0
         0         0         0         0         0         0         0         0
         0         0         0         0         0         0         0         0
         0         0         0         0         0         0         0         0
         0         0         0         0         0         0         0         0
         0         0         0         0         0         0         0         0
         0         0         0         0         0         0         0         0
         0         0         0         0         0         0         0         0
         0         0         0         0         0         0         0         0
         0         0         0         0         0         0         0         0
         0         0         0         0         0         0         0         0
         0         0         0         0         0         0         0         0
         0         0         0         0         0         0         0         0
         0         0         0         0         0         0         0         0
         0         0         0         0         0         0         0         0
         0         0         0         0         0         0         0         0
         0         0         0         0         0         0         0         0
         0         0         0         0         0         0         0         0
         0         0         0         0         0         0         0         0
         0         0         0         0         0         0         0         0
         0         0         0         0         0         0         0         0
         0         0         0         0         0         0         0         0
         0         0         0         0         0         0         0         0
         0         0         0         0         0         0         0         0
         0         0         0         0         0         0         0         0
         0         0         0         0         0         0         0         0
         0         0         0         0         0         0         0         0
         0         0         0         0         0         0         0         0
         0         0         0         0         0         0         0         0
         0         0         0         0         0         0         0         0
         0         0         0         0         0         0         0         0
         0         0         0         0         0         0         0         0
         0         0         0         0         0         0         0         0
         0         0         0         0         0         0         0         0
         0         0         0         0         0         0         0         0
         0         0         0         0         0         0         0         0
         0         0         0         0         0         0         0         0
         0         0         0         0         0         0         0         0
         0         0         0         0         0         0         0         0
         0         0         0         0         0         0         0         0
         0         0         0         0         0         0         0         0
         0         0         0         0         0         0         0         0
         0         0         0         0         0         0         0         0
         0         0         0         0         0         0         0         0
         0         0         0         0         0         0         0         0
         0         0         0         0         0         0         0         0
         0         0         0         0         0         0         0         0
         0         0         0         0         0         0         0         0
         0         0         0         0         0         0         0         0
         0         0         0         0         0         0         0         0
         0         0         0         0         0         0         0         0
         0         0         0         0         0         0         0         0
         0         0         0         0         0         0         0         0
         0         0         0         0         0         0         0         0
         0         0         0         0         0         0         0         0
         0         0         0         0         0         0         0         0
         0         0         0         0         0         0         0         0
         0         0         0         0         0         0         0         0
         0         0         0         0         0         0         0         0
         0         0         0         0         0         0         0         0
         0         0         0         0         0         0         0         0
         0         0         0         0         0         0         0         0
         0         0         0         0         0         0         0         0
         0         0         0         0         0         0         0         0
         0         0         0         0         0         0         0         0
         0         0         0         0         0         0         0         0
         0         0         0         0         0         0         0         0
         0         0         0         0         0         0         0         0
         0         0         0         0         0         0         0         0
         0         0         0         0         0         0         0         0
         0         0         0         0         0         0         0         0
         0         0         0         0         0         0         0         0
         0         0         0         0         0         0         0         0
         0         0         0         0         0         0         0         0
         0         0         0         0         0         0         0         0
         0         0         0         0         0         0         0         0
         0         0         0         0         0         0         0         0
         0         0         0         0         0         0         0         0
         0         0         0         0         0         0         0         0
         0         0         0         0         0         0         0         0
         0         0         0         0         0         0         0         0
         0         0         0         0         0         0         0         0
         0         0         0         0         0         0         0         0
         0         0         0         0         0         0         0         0
         0         0         0         0         0         0         0         0
         0         0         0         0         0         0         0         0
         0         0         0         0         0         0         0         0
         0         0         0         0         0         0         0         0
         0         0         0         0         0         0         0         0
         0         0         0         0         0         0         0         0
         0         0         0         0         0         0         0         0
         0         0         0         0         0         0         0         0
         0         0         0         0         0         0         0         0
         0         0         0         0         0         0         0         0
         0         0         0         0         0         0         0         0
         0         0         0         0         0         0         0         0
         0         0         0         0         0         0         0         0
         0         0         0         0         0         0         0         0
         0         0         0         0         0         0         0         0
         0         0         0         0         0         0         0         0
         0         0         0         0         0         0         0         0
         0         0         0         0         0         0         0         0
         0         0         0         0         0         0         0         0
         0         0         0         0         0         0         0         0
         0         0         0         0         0         0         0         0
         0         0         0         0         0         0         0         0
         0         0         0         0         0         0         0         0
         0         0         0         0         0         0         0         0
         0         0         0         0         0         0         0         0
         0         0         0         0         0         0         0         0
         0         0         0         0         0         0         0         0
         0         0         0         0         0         0         0         0
         0         0         0         0         0         0         0         0
         0         0         0         0         0         0         0         0
         0         0         0         0         0         0         0         0
         0         0         0         0         0         0         0         0
         0         0         0         0         0         0         0         0
         0         0         0         0         0         0         0         0
         0         0         0         0         0         0         0         0
         0         0         0         0         0         0         0         0
         0         0         0         0         0         0         0         0
         0         0         0         0         0         0         0         0
         0         0         0         0         0         0         0         0
         0         0         0         0         0         0         0         0
         0         0         0         0         0         0         0         0
         0         0         0         0         0         0         0         0
         0         0         0         0         0         0         0         0
         0         0         0         0         0         0         0         0
         0         0         0         0         0         0         0         0
         0         0         0         0         0         0         0         0
         0         0         0         0         0         0         0         0
         0         0         0         0         0         0         0         0
         0         0         0         0         0         0         0         0
         0         0         0         0         0         0         0         0
         0         0         0         0         0         0         0         0
         0         0         0         0         0         0         0         0
         0         0         0         0         0         0         0         0
         0         0         0         0         0         0         0         0
         0         0         0         0         0         0         0         0
         0         0         0         0         0         0         0         0
         0         0         0         0         0         0         0         0
         0         0         0         0         0         0         0         0
         0         0         0         0         0         0         0         0
         0         0         0         0         0         0         0         0
         0         0         0         0         0         0         0         0
         0         0         0         0         0         0         0         0
         0         0         0         0         0         0         0         0
         0         0         0         0         0         0         0         0
         0         0         0         0         0         0         0         0
         0         0         0         0         0         0         0         0
         0         0         0         0         0         0         0         0
         0         0         0         0         0         0         0         0
         0         0         0         0         0         0         0         0
         0         0         0         0         0         0         0         0
         0         0         0         0         0         0         0         0
         0         0         0         0         0         0         0         0
         0         0         0         0         0         0         0         0
         0         0         0         0         0         0         0         0
         0         0         0         0         0         0         0         0
         0         0         0         0         0         0         0         0
         0         0         0         0         0         0         0         0
         0         0         0         0         0         0         0         0
         0         0         0         0         0         0         0         0
         0         0         0         0         0         0         0         0
         0         0         0         0         0         0         0         0
         0         0         0         0         0         0         0         0
         0         0         0         0         0         0         0         0
         0         0         0         0         0         0         0         0
         0         0         0         0         0         0         0         0
         0         0         0         0         0         0         0         0
         0         0         0         0         0         0         0         0
         0         0         0         0         0         0         0         0
         0         0         0         0         0         0         0         0
         0         0         0         0         0         0         0         0
         0         0         0         0         0         0         0         0
         0         0         0         0         0         0         0         0
         0         0         0         0         0         0         0         0
         0         0         0         0         0         0         0         0
         0         0         0         0         0         0         0         0
         0         0         0         0         0         0         0         0
         0         0         0         0         0         0         0         0
         0         0         0         0         0         0         0         0
         0         0         0         0         0         0         0         0
         0         0         0         0         0         0         0         0
         0         0         0         0         0         0         0         0
         0         0         0         0         0         0         0         0
         0         0         0         0         0         0         0         0
         0         0         0         0         0         0         0         0
         0         0         0         0         0         0         0         0
         0         0         0         0         0         0         0         0
         0         0         0         0         0         0         0         0
         0         0         0         0         0         0         0         0
         0         0         0         0         0         0         0         0
         0         0         0         0         0         0         0         0
         0         0         0         0         0         0         0         0
         0         0         0         0         0         0         0         0
         0         0         0         0         0         0         0         0
         0         0         0         0         0         0         0         0
         0         0         0         0         0         0         0         0
         0         0         0         0         0         0         0         0
         0         0         0         0         0         0         0         0
         0         0         0         0         0         0         0         0
         0         0         0         0         0         0         0         0
         0         0         0         0         0         0         0         0
         0         0         0         0         0         0         0         0
         0         0         0         0         0         0         0         0
         0         0         0         0         0         0         0         0
         0         0         0         0         0         0         0         0
         0         0         0         0         0         0         0         0
         0         0         0         0         0         0         0         0
         0         0         0         0         0         0         0         0
         0         0         0         0         0         0         0         0
         0         0         0         0         0         0         0         0
         0         0         0         0         0         0         0         0
         0         0         0         0         0         0         0         0
         0         0         0         0         0         0         0         0
         0         0         0         0         0         0         0         0
         0         0         0         0         0         0         0         0
         0         0         0         0         0         0         0         0
         0         0         0         0         0         0         0         0
         0         0         0         0         0         0         0         0
         0         0         0         0         0         0         0         0
         0         0         0         0         0         0         0         0
         0         0         0         0         0         0         0         0
         0         0         0         0         0         0         0         0
         0         0         0         0         0         0         0         0
         0         0         0         0         0         0         0         0
         0         0         0         0         0         0         0         0
         0         0         0         0         0         0         0         0
         0         0         0         0         0         0         0         0
         0         0         0         0         0         0         0         0
         0         0         0         0         0         0         0         0
         0         0         0         0         0         0         0         0
         0         0         0         0         0         0         0         0
         0         0         0         0         0         0         0         0
         0         0         0         0         0         0         0         0
         0         0         0         0         0         0         0         0
         0         0         0         0         0         0         0         0
         0         0         0         0         0         0         0         0
         0         0         0         0         0         0         0         0
         0         0         0         0         0         0         0         0
         0         0         0         0         0         0         0         0
         0         0         0         0         0         0         0         0
         0         0         0         0         0         0         0         0
         0         0         0         0         0         0         0         0
         0         0         0         0         0         0         0         0
         0         0         0         0         0         0         0         0
         0         0         0         0         0         0         0         0
         0         0         0         0         0         0         0         0
         0         0         0         0         0         0         0         0
         0         0         0         0         0         0         0         0
         0         0         0         0         0         0         0         0
         0         0         0         0         0         0         0         0
         0         0         0         0         0         0         0         0
         0         0         0         0         0         0         0         0
         0         0         0         0         0         0         0         0
         0         0         0         0         0         0         0         0
         0         0         0         0         0         0         0         0
         0         0         0         0         0         0         0         0
         0         0         0         0         0         0         0         0
         0         0         0         0         0         0         0         0
         0         0         0         0         0         0         0         0
         0         0         0         0         0         0         0         0
         0         0         0         0         0         0         0         0
         0         0         0         0         0         0         0         0
         0         0         0         0         0         0         0         0
         0         0         0         0         0         0         0         0
         0         0         0         0         0         0         0         0
         0         0         0         0         0         0         0         0
         0         0         0         0         0         0         0         0
         0         0         0         0         0         0         0         0
         0         0         0         0         0         0         0         0
         0         0         0         0         0         0         0         0
         0         0         0         0         0         0         0         0
         0         0         0         0         0         0         0         0
         0         0         0         0         0         0         0         0
         0         0         0         0         0         0         0         0
         0         0         0         0         0         0         0         0
         0         0         0         0         0         0         0         0
         0         0         0         0         0         0         0         0
         0         0         0         0         0         0         0         0
         0         0         0         0         0         0         0         0
         0         0         0         0         0         0         0         0
         0         0         0         0         0         0         0         0
         0         0         0         0         0         0         0         0
         0         0         0         0         0         0         0         0
         0         0         0         0         0         0         0         0
         0         0         0         0         0         0         0         0
         0         0         0         0         0         0         0         0
         0         0         0         0         0         0         0         0
         0         0         0         0         0         0         0         0
         0         0         0         0         0         0         0         0
         0         0         0         0         0         0         0         0
         0         0         0         0         0         0         0         0
         0         0         0         0         0         0         0         0
         0         0         0         0         0         0         0         0
         0         0         0         0         0         0         0         0
         0         0         0         0         0         0         0         0
         0         0         0         0         0         0         0         0
         0         0         0         0         0         0         0         0
         0         0         0         0         0         0         0         0
         0         0         0         0         0         0         0         0
         0         0         0         0         0         0         0         0
         0         0         0         0         0         0         0         0
         0         0         0         0         0         0         0         0
         0         0         0         0         0         0         0         0
         0         0         0         0         0         0         0         0
         0         0         0         0         0         0         0         0
         0         0         0         0         0         0         0         0
         0         0         0         0         0         0         0         0
         0         0         0         0         0         0         0         0
         0         0         0         0         0         0         0         0
         0         0         0         0         0         0         0         0
         0         0         0         0         0         0         0         0
         0         0         0         0         0         0         0         0
         0         0         0         0         0         0         0         0
         0         0         0         0         0         0         0         0
         0         0         0         0         0         0         0         0
         0         0         0         0         0         0         0         0
         0         0         0         0         0         0         0         0
         0         0         0         0         0         0         0         0
         0         0         0         0         0         0         0         0
         0         0         0         0         0         0         0         0
         0         0         0         0         0         0         0         0
         0         0         0         0         0         0         0         0
         0         0         0         0         0         0         0         0
         0         0         0         0         0         0         0         0
         0         0         0         0         0         0         0         0
         0         0         0         0         0         0         0         0
         0         0         0         0         0         0         0         0
         0         0         0         0         0         0         0         0
         0         0         0         0         0         0         0         0
         0         0         0         0         0         0         0         0
         0         0         0         0         0         0         0         0
         0         0         0         0         0         0         0         0
         0         0         0         0         0         0         0         0
         0         0         0         0         0         0         0         0
         0         0         0         0         0         0         0         0
         0         0         0         0         0         0         0         0
         0         0         0         0         0         0         0         0
         0         0         0         0         0         0         0         0
         0         0         0         0         0         0         0         0
         0         0         0         0         0         0         0         0
         0         0         0         0         0         0         0         0
         0         0         0         0         0         0         0         0
         0         0         0         0         0         0         0         0
         0         0         0         0         0         0         0         0
         0         0         0         0         0         0         0         0
         0         0         0         0         0         0         0         0
         0         0         0         0         0         0         0         0
         0         0         0         0         0         0         0         0
         0         0         0         0         0         0         0         0
         0         0         0         0         0         0         0         0
         0         0         0         0         0         0         0         0
         0         0         0         0         0         0         0         0
         0         0         0         0         0         0         0         0
         0         0         0         0         0         0         0         0
         0         0         0         0         0         0         0         0
         0         0         0         0         0         0         0         0
         0         0         0         0         0         0         0         0
         0         0         0         0         0         0         0         0
         0         0         0         0         0         0         0         0
         0         0         0         0         0         0         0         0
         0         0         0         0         0         0         0         0
         0         0         0         0         0         0         0         0
         0         0         0         0         0         0         0         0
         0         0         0         0         0         0         0         0
         0         0         0         0         0         0         0         0
         0         0         0         0         0         0         0         0
         0         0         0         0         0         0         0         0
         0         0         0         0         0         0         0         0
         0         0         0         0         0         0         0         0
         0         0         0         0         0         0         0         0
         0         0         0         0         0         0         0         0
         0         0         0         0         0         0         0         0
         0         0         0         0         0         0         0         0
         0         0         0         0         0         0         0         0
         0         0         0         0         0         0         0         0
         0         0         0         0         0         0         0         0
         0         0         0         0         0         0         0         0
         0         0         0         0         0         0         0         0
         0         0         0         0         0         0         0         0
         0         0         0         0         0         0         0         0
         0         0         0         0         0         0         0         0
         0         0         0         0         0         0         0         0
         0         0         0         0         0         0         0         0
         0         0         0         0         0         0         0         0
         0         0         0         0         0         0         0         0
         0         0         0         0         0         0         0         0
         0         0         0         0         0         0         0         0
         0         0         0         0         0         0         0         0
         0         0         0         0         0         0         0         0
         0         0         0         0         0         0         0         0
         0         0         0         0         0         0         0         0
         0         0         0         0         0         0         0         0
         0         0         0         0         0         0         0         0
         0         0         0         0         0         0         0         0
         0         0         0         0         0         0         0         0
         0         0         0         0         0         0         0         0
         0         0         0         0         0         0         0         0
         0         0         0         0         0         0         0         0
         0         0         0         0         0         0         0         0
         0         0         0         0         0         0         0         0
         0         0         0         0         0         0         0         0
         0         0         0         0         0         0         0         0
         0         0         0         0         0         0         0         0
         0         0         0         0         0         0         0         0
         0         0         0         0         0         0         0         0
         0         0         0         0         0         0         0         0
         0         0         0         0         0         0         0         0
         0         0         0         0         0         0         0         0
         0         0         0         0         0         0         0         0
         0         0         0         0         0         0         0         0
         0         0         0         0         0         0         0         0
         0         0         0         0         0         0         0         0
         0         0         0         0         0         0         0         0
         0         0         0         0         0         0         0         0
         0         0         0         0         0         0         0         0
         0         0         0         0         0         0         0         0
         0         0         0         0         0         0         0         0
         0         0         0         0         0         0         0         0
         0         0         0         0         0         0         0         0
         0         0         0         0         0         0         0         0
         0         0         0         0         0         0         0         0
         0         0         0         0         0         0         0         0
         0         0         0         0         0         0         0         0
         0         0         0         0         0         0         0         0
         0         0         0         0         0         0         0         0
         0         0         0         0         0         0         0         0
         0         0         0         0         0         0         0         0
         0         0         0         0         0         0         0         0
         0         0         0         0         0         0         0         0
         0         0         0         0         0         0         0         0
         0         0         0         0         0         0         0         0
         0         0         0         0         0         0         0         0
         0         0         0         0         0         0         0         0
         0         0         0         0         0         0         0         0
         0         0         0         0         0         0         0         0
         0         0         0         0         0         0         0         0
         0         0         0         0         0         0         0         0
         0         0         0         0         0         0         0         0
         0         0         0         0         0         0         0         0
         0         0         0         0         0         0         0         0
         0         0         0         0         0         0         0         0
         0         0         0         0         0         0         0         0
         0         0         0         0         0         0         0         0
         0         0         0         0         0         0         0         0
         0         0         0         0         0         0         0         0
         0         0         0         0         0         0         0         0
         0         0         0         0         0         0         0         0
         0         0         0         0         0         0         0         0
         0         0         0         0         0         0         0         0
         0         0         0         0         0         0         0         0
         0         0         0         0         0         0         0         0
         0         0         0         0         0         0         0         0
         0         0         0         0         0         0         0         0
         0         0         0         0         0         0         0         0
         0         0         0         0         0         0         0         0
         0         0         0         0         0         0         0         0
         0         0         0         0         0         0         0         0
         0         0         0         0         0         0         0         0
         0         0         0         0         0         0         0         0
         0         0         0         0         0         0         0         0
         0         0         0         0         0         0         0         0
         0         0         0         0         0         0         0         0
         0         0         0         0         0         0         0         0
         0         0         0         0         0         0         0         0
         0         0         0         0         0         0         0         0
         0         0         0         0         0         0         0         0
         0         0         0         0         0         0         0         0
         0         0         0         0         0         0         0         0
         0         0         0         0         0         0         0         0
         0         0         0         0         0         0         0         0
         0         0         0         0         0         0         0         0
         0         0         0         0         0         0         0         0
         0         0         0         0         0         0         0         0
         0         0         0         0         0         0         0         0
         0         0         0         0         0         0         0         0
         0         0         0         0         0         0         0         0
         0         0         0         0         0         0         0         0
         0         0         0         0         0         0         0         0
         0         0         0         0         0         0         0         0
         0         0         0         0         0         0         0         0
         0         0         0         0         0         0         0         0
         0         0         0         0         0         0         0         0
         0         0         0         0         0         0         0         0
         0         0         0         0         0         0         0         0
         0         0         0         0         0         0         0         0
         0         0         0         0         0         0         0         0
         0         0         0         0         0         0         0         0
         0         0         0         0         0         0         0         0
         0         0         0         0         0         0         0         0
         0         0         0         0         0         0         0         0
         0         0         0         0         0         0         0         0
         0         0         0         0         0         0         0         0
         0         0         0         0         0         0         0         0
         0         0         0         0         0         0         0         0
         0         0         0         0         0         0         0         0
         0         0         0         0         0         0         0         0
         0         0         0         0         0         0         0         0
         0         0         0         0         0         0         0         0
         0         0         0         0         0         0         0         0
         0         0         0         0         0         0         0         0
         0         0         0         0         0         0         0         0
         0         0         0         0         0         0         0         0
         0         0         0         0         0         0         0         0
         0         0         0         0         0         0         0         0
         0         0         0         0         0         0         0         0
         0         0         0         0         0         0         0         0
         0         0         0         0         0         0         0         0
         0         0         0         0         0         0         0         0
         0         0         0         0         0         0         0         0
         0         0         0         0         0         0         0         0
         0         0         0         0         0         0         0         0
         0         0         0         0         0         0         0         0
         0         0         0         0         0         0         0         0
         0         0         0         0         0         0         0         0
         0         0         0         0         0         0         0         0
         0         0         0         0         0         0         0         0
         0         0         0         0         0         0         0         0
         0         0         0         0         0         0         0         0
         0         0         0         0         0         0         0         0
         0         0         0         0         0         0         0         0
         0         0         0         0         0         0         0         0
         0         0         0         0         0         0         0         0
         0         0         0         0         0         0         0         0
         0         0         0         0         0         0         0         0
         0         0         0         0         0         0         0         0
         0         0         0         0         0         0         0         0
         0         0         0         0         0         0         0         0
         0         0         0         0         0         0         0         0
         0         0         0         0         0         0         0         0
         0         0         0         0         0         0         0         0
         0         0         0         0         0         0         0         0
         0         0         0         0         0         0         0         0
         0         0         0         0         0         0         0         0
         0         0         0         0         0         0         0         0
         0         0         0         0         0         0         0         0
         0         0         0         0         0         0         0         0
         0         0         0         0         0         0         0         0
         0         0         0         0         0         0         0         0
         0         0         0         0         0         0         0         0
         0         0         0         0         0         0         0         0
         0         0         0         0         0         0         0         0
         0         0         0         0         0         0         0         0
         0         0         0         0         0         0         0         0
         0         0         0         0         0         0         0         0
         0         0         0         0         0         0         0         0
         0         0         0         0         0         0         0         0
         0         0         0         0         0         0         0         0
         0         0         0         0         0         0         0         0
         0         0         0         0         0         0         0         0
         0         0         0         0         0         0         0         0
         0         0         0         0         0         0         0         0
         0         0         0         0         0         0         0         0
         0         0         0         0         0         0         0         0
         0         0         0         0         0         0         0         0
         0         0         0         0         0         0         0         0
         0         0         0         0         0         0         0         0
         0         0         0         0         0         0         0         0
         0         0         0         0         0         0         0         0
         0         0         0         0         0         0         0         0
         0         0         0         0         0         0         0         0
         0         0         0         0         0         0         0         0
         0         0         0         0         0         0         0         0
         0         0         0         0         0         0         0         0
         0         0         0         0         0         0         0         0
         0         0         0         0         0         0         0         0
         0         0         0         0         0         0         0         0
         0         0         0         0         0         0         0         0
         0         0         0         0         0         0         0         0
         0         0         0         0         0         0         0         0
         0         0         0         0         0         0         0         0
         0         0         0         0         0         0         0         0
         0         0         0         0         0         0         0         0
         0         0         0         0         0         0         0         0
         0         0         0         0         0         0         0         0
         0         0         0         0         0         0         0         0
         0         0         0         0         0         0         0         0
         0         0         0         0         0         0         0         0
         0         0         0         0         0         0         0         0
         0         0         0         0         0         0         0         0
         0         0         0         0         0         0         0         0
         0         0         0         0         0         0         0         0
         0         0         0         0         0         0         0         0
         0         0         0         0         0         0         0         0
         0         0         0         0         0         0         0         0
         0         0         0         0         0         0         0         0
         0         0         0         0         0         0         0         0
         0         0         0         0         0         0         0         0
         0         0         0         0         0         0         0         0
         0         0         0         0         0         0         0         0
         0         0         0         0         0         0         0         0
         0         0         0         0         0         0         0         0
         0         0         0         0         0         0         0         0
         0         0         0         0         0         0         0         0
         0         0         0         0         0         0         0         0
         0         0         0         0         0         0         0         0
         0         0         0         0         0         0         0         0
         0         0         0         0         0         0         0         0
         0         0         0         0         0         0         0         0
         0         0         0         0         0         0         0         0
         0         0         0         0         0         0         0         0
         0         0         0         0         0         0         0         0
         0         0         0         0         0         0         0         0
         0         0         0         0         0         0         0         0
         0         0         0         0         0         0         0         0
         0         0         0         0         0         0         0         0
         0         0         0         0         0         0         0         0
         0         0         0         0         0         0         0         0
         0         0         0         0         0         0         0         0
         0         0         0         0         0         0         0         0
         0         0         0         0         0         0         0         0
         0         0         0         0         0         0         0         0
         0         0         0         0         0         0         0         0
         0         0         0         0         0         0         0         0
         0         0         0         0         0         0         0         0
         0         0         0         0         0         0         0         0
         0         0         0         0         0         0         0         0
         0         0         0         0         0         0         0         0
         0         0         0         0         0         0         0         0
         0         0         0         0         0         0         0         0
         0         0         0         0         0         0         0         0
         0         0         0         0         0         0         0         0
         0         0         0         0         0         0         0         0
         0         0         0         0         0         0         0         0
         0         0         0         0         0         0         0         0
         0         0         0         0         0         0         0         0
         0         0         0         0         0         0         0         0
         0         0         0         0         0         0         0         0
         0         0         0         0         0         0         0         0
         0         0         0         0         0         0         0         0
         0         0         0         0         0         0         0         0
         0         0         0         0         0         0         0         0
         0         0         0         0         0         0         0         0
         0         0         0         0         0         0         0         0
         0         0         0         0         0         0         0         0
         0         0         0         0         0         0         0         0
         0         0         0         0         0         0         0         0
         0         0         0         0         0         0         0         0
         0         0         0         0         0         0         0         0
         0         0         0         0         0         0         0         0
         0         0         0         0         0         0         0         0
         0         0         0         0         0         0         0         0
         0         0         0         0         0         0         0         0
         0         0         0         0         0         0         0         0
         0         0         0         0         0         0         0         0
         0         0         0         0         0         0         0         0
         0         0         0         0         0         0         0         0
         0         0         0         0         0         0         0         0
         0         0         0         0         0         0         0         0
         0         0         0         0         0         0         0         0
         0         0         0         0         0         0         0         0
         0         0         0         0         0         0         0         0
         0         0         0         0         0         0         0         0
         0         0         0         0         0         0         0         0
         0         0         0         0         0         0         0         0
         0         0         0         0         0         0         0         0
         0         0         0         0         0         0         0         0
         0         0         0         0         0         0         0         0
         0         0         0         0         0         0         0         0
         0         0         0         0         0         0         0         0
         0         0         0         0         0         0         0         0
         0         0         0         0         0         0         0         0
         0         0         0         0         0         0         0         0
         0         0         0         0         0         0         0         0
         0         0         0         0         0         0         0         0
         0         0         0         0         0         0         0         0
         0         0         0         0         0         0         0         0
         0         0         0         0         0         0         0         0
         0         0         0         0         0         0         0         0
         0         0         0         0         0         0         0         0
         0         0         0         0         0         0         0         0
         0         0         0         0         0         0         0         0
         0         0         0         0         0         0         0         0
         0         0         0         0         0         0         0         0
         0         0         0         0         0         0         0         0
         0         0         0         0         0         0         0         0
         0         0         0         0         0         0         0         0
         0         0         0         0         0         0         0         0
         0         0         0         0         0         0         0         0
         0         0         0         0         0         0         0         0
         0         0         0         0         0         0         0         0
         0         0         0         0         0         0         0         0
         0         0         0         0         0         0         0         0
         0         0         0         0         0         0         0         0
         0         0         0         0         0         0         0         0
         0         0         0         0         0         0         0         0
         0         0         0         0         0         0         0         0
         0         0         0         0         0         0         0         0
         0         0         0         0         0         0         0         0
         0         0         0         0         0         0         0         0
         0         0         0         0         0         0         0         0
         0         0         0         0         0         0         0         0
         0         0         0         0         0         0         0         0
         0         0         0         0         0         0         0         0
         0         0         0         0         0         0         0         0
         0         0         0         0         0         0         0         0
         0         0         0         0         0         0         0         0
         0         0         0         0         0         0         0         0
         0         0         0         0         0         0         0         0
         0         0         0         0         0         0         0         0
         0         0         0         0         0         0         0         0
         0         0         0         0         0         0         0         0
         0         0         0         0         0         0         0         0
         0         0         0         0         0         0         0         0
         0         0         0         0         0         0         0         0
         0         0         0         0         0         0         0         0
         0         0         0         0         0         0         0         0
         0         0         0         0         0         0         0         0
         0         0         0         0         0         0         0         0
         0         0         0         0         0         0         0         0
         0         0         0         0         0         0         0         0
         0         0         0         0         0         0         0         0
         0         0         0         0         0         0         0         0
         0         0         0         0         0         0         0         0
         0         0         0         0         0         0         0         0
         0         0         0         0         0         0         0         0
         0         0         0         0         0         0         0         0
         0         0         0         0         0         0         0         0
         0         0         0         0         0         0         0         0
         0         0         0         0         0         0         0         0
         0         0         0         0         0         0         0         0
         0         0         0         0         0         0         0         0
         0         0         0         0         0         0         0         0
         0         0         0         0         0         0         0         0
         0         0         0         0         0         0         0         0
         0         0         0         0         0         0         0         0
         0         0         0         0         0         0         0         0
         0         0         0         0         0         0         0         0
         0         0         0         0         0         0         0         0
         0         0         0         0         0         0         0         0
         0         0         0         0         0         0         0         0
         0         0         0         0         0         0         0         0
         0         0         0         0         0         0         0         0
         0         0         0         0         0         0         0         0
         0         0         0         0         0         0         0         0
         0         0         0         0         0         0         0         0
         0         0         0         0         0         0         0         0
         0         0         0         0         0         0         0         0
         0         0         0         0         0         0         0         0
         0         0         0         0         0         0         0         0
         0         0         0         0         0         0         0         0
         0         0         0         0         0         0         0         0
         0         0         0         0         0         0         0         0
         0         0         0         0         0         0         0         0
         0         0         0         0         0         0         0         0
         0         0         0         0         0         0         0         0
         0         0         0         0         0         0         0         0
         0         0         0         0         0         0         0         0
         0         0         0         0         0         0         0         0
         0         0         0         0         0         0         0         0
         0         0         0         0         0         0         0         0
         0         0         0         0         0         0         0         0
         0         0         0         0         0         0         0         0
         0         0         0         0         0         0         0         0
         0         0         0         0         0         0         0         0
         0         0         0         0         0         0         0         0
         0         0         0         0         0         0         0         0
         0         0         0         0         0         0         0         0
         0         0         0         0         0         0         0         0
         0         0         0         0         0         0         0         0
         0         0         0         0         0         0         0         0
         0         0         0         0         0         0         0         0
         0         0         0         0         0         0         0         0
         0         0         0         0         0         0         0         0
         0         0         0         0         0         0         0         0
         0         0         0         0         0         0         0         0
         0         0         0         0         0         0         0         0
         0         0         0         0         0         0         0         0
         0         0         0         0         0         0         0         0
         0         0         0         0         0         0         0         0
         0         0         0         0         0         0         0         0
         0         0         0         0         0         0         0         0
         0         0         0         0         0         0         0         0
         0         0         0         0         0         0         0         0
         0         0         0         0         0         0         0         0
         0         0         0         0         0         0         0         0
         0         0         0         0         0         0         0         0
         0         0         0         0         0         0         0         0
         0         0         0         0         0         0         0         0
         0         0         0         0         0         0         0         0
         0         0         0         0         0         0         0         0
         0         0         0         0         0         0         0         0
         0         0         0         0         0         0         0         0
         0         0         0         0         0         0         0         0
         0         0         0         0         0         0         0         0
         0         0         0         0         0         0         0         0
         0         0         0         0         0         0         0         0
         0         0         0         0         0         0         0         0
         0         0         0         0         0         0         0         0
         0         0         0         0         0         0         0         0
         0         0         0         0         0         0         0         0
         0         0         0         0         0         0         0         0
         0         0         0         0         0         0         0         0
         0         0         0         0         0         0         0         0
         0         0         0         0         0         0         0         0
         0         0         0         0         0         0         0         0
         0         0         0         0         0         0         0         0
         0         0         0         0         0         0         0         0
         0         0         0         0         0         0         0         0
         0         0         0         0         0         0         0         0
         0         0         0         0         0         0         0         0
         0         0         0         0         0         0         0         0
         0         0         0         0         0         0         0         0
         0         0         0         0         0         0         0         0
         0         0         0         0         0         0         0         0
         0         0         0         0         0         0         0         0
         0         0         0         0         0         0         0         0
         0         0         0         0         0         0         0         0
         0         0         0         0         0         0         0         0
         0         0         0         0         0         0         0         0
         0         0         0         0         0         0         0         0
         0         0         0         0         0         0         0         0
         0         0         0         0         0         0         0         0
         0         0         0         0         0         0         0         0
         0         0         0         0         0         0         0         0
         0         0         0         0         0         0         0         0
         0         0         0         0         0         0         0         0
         0         0         0         0         0         0         0         0
         0         0         0         0         0         0         0         0
         0         0         0         0         0         0         0         0
         0         0         0         0         0         0         0         0
         0         0         0         0         0         0         0         0
         0         0         0         0         0         0         0         0
         0         0         0         0         0         0         0         0
         0         0         0         0         0         0         0         0
         0         0         0         0         0         0         0         0
         0         0         0         0         0         0         0         0
         0         0         0         0         0         0         0         0
         0         0         0         0         0         0         0         0
         0         0         0         0         0         0         0         0
         0         0         0         0         0         0         0         0
         0         0         0         0         0         0         0         0
         0         0         0         0         0         0         0         0
         0         0         0         0         0         0         0         0
         0         0         0         0         0         0         0         0
         0         0         0         0         0         0         0         0
         0         0         0         0         0         0         0         0
         0         0         0         0         0         0         0         0
         0         0         0         0         0         0         0         0
         0         0         0         0         0         0         0         0
         0         0         0         0         0         0         0         0
         0         0         0         0         0         0         0         0
         0         0         0         0         0         0         0         0
         0         0         0         0         0         0         0         0
         0         0         0         0         0         0         0         0
         0         0         0         0         0         0         0         0
         0         0         0         0         0         0         0         0
         0         0         0         0         0         0         0         0
         0         0         0         0         0         0         0         0
         0         0         0         0         0         0         0         0
         0         0         0         0         0         0         0         0
         0         0         0         0         0         0         0         0
         0         0         0         0         0         0         0         0
         0         0         0         0         0         0         0         0
         0         0         0         0         0         0         0         0
         0         0         0         0         0         0         0         0
         0         0         0         0         0         0         0         0
         0         0         0         0         0         0         0         0
         0         0         0         0         0         0         0         0
         0         0         0         0         0         0         0         0
         0         0         0         0         0         0         0         0
         0         0         0         0         0         0         0         0
         0         0         0         0         0         0         0         0
         0         0         0         0         0         0         0         0
         0         0         0         0         0         0         0         0
         0         0         0         0         0         0         0         0
         0         0         0         0         0         0         0         0
         0         0         0         0         0         0         0         0
         0         0         0         0         0         0         0         0
         0         0         0         0         0         0         0         0
         0         0         0         0         0         0         0         0
         0         0         0         0         0         0         0         0
         0         0         0         0         0         0         0         0
         0         0         0         0         0         0         0         0
         0         0         0         0         0         0         0         0
         0         0         0         0         0         0         0         0
         0         0         0         0         0         0         0         0
         0         0         0         0         0         0         0         0
         0         0         0         0         0         0         0         0
         0         0         0         0         0         0         0         0
         0         0         0         0         0         0         0         0
         0         0         0         0         0         0         0         0
         0         0         0         0         0         0         0         0
         0         0         0         0         0         0         0         0
         0         0         0         0         0         0         0         0
         0         0         0         0         0         0         0         0
         0         0         0         0         0         0         0         0
         0         0         0         0         0         0         0         0
         0         0         0         0         0         0         0         0
         0         0         0         0         0         0         0         0
         0         0         0         0         0         0         0         0
         0         0         0         0         0         0         0         0
         0         0         0         0         0         0         0         0
         0         0         0         0         0         0         0         0
         0         0         0         0         0         0         0         0
         0         0         0         0         0         0         0         0
         0         0         0         0         0         0         0         0
         0         0         0         0         0         0         0         0
         0         0         0         0         0         0         0         0
         0         0         0         0         0         0         0         0
         0         0         0         0         0         0         0         0
         0         0         0         0         0         0         0         0
         0         0         0         0         0         0         0         0
         0         0         0         0         0         0         0         0
         0         0         0         0         0         0         0         0
         0         0         0         0         0         0         0         0
         0         0         0         0         0         0         0         0
         0         0         0         0         0         0         0         0
         0         0         0         0         0         0         0         0
         0         0         0         0         0         0         0         0
         0         0         0         0         0         0         0         0
         0         0         0         0         0         0         0         0
         0         0         0         0         0         0         0         0
         0         0         0         0         0         0         0         0
         0         0         0         0         0         0         0         0
         0         0         0         0         0         0         0         0
         0         0         0         0         0         0         0         0
         0         0         0         0         0         0         0         0
         0         0         0         0         0         0         0         0
         0         0         0         0         0         0         0         0
         0         0         0         0         0         0         0         0
         0         0         0         0         0         0         0         0
         0         0         0         0         0         0         0         0
         0         0         0         0         0         0         0         0
         0         0         0         0         0         0         0         0
         0         0         0         0         0         0         0         0
         0         0         0         0         0         0         0         0
         0         0         0         0         0         0         0         0
         0         0         0         0         0         0         0         0
         0         0         0         0         0         0         0         0
         0         0         0         0         0         0         0         0
         0         0         0         0         0         0         0         0
         0         0         0         0         0         0         0         0
         0         0         0         0         0         0         0         0
         0         0         0         0         0         0         0         0
         0         0         0         0         0         0         0         0
         0         0         0         0         0         0         0         0
         0         0         0         0         0         0         0         0
         0         0         0         0         0         0         0         0
         0         0         0         0         0         0         0         0
         0         0         0         0         0         0         0         0
         0         0         0         0         0         0         0         0
         0         0         0         0         0         0         0         0
         0         0         0         0         0         0         0         0
         0         0         0         0         0         0         0         0
         0         0         0         0         0         0         0         0
         0         0         0         0         0         0         0         0
         0         0         0         0         0         0         0         0
         0         0         0         0         0         0         0         0
         0         0         0         0         0         0         0         0
         0         0         0         0         0         0         0         0
         0         0         0         0         0         0         0         0
         0         0         0         0         0         0         0         0
         0         0         0         0         0         0         0         0
         0         0         0         0         0         0         0         0
         0         0         0         0         0         0         0         0
         0         0         0         0         0         0         0         0
         0         0         0         0         0         0         0         0
         0         0         0         0         0         0         0         0
         0         0         0         0         0         0         0         0
         0         0         0         0         0         0         0         0
         0         0         0         0         0         0         0         0
         0         0         0         0         0         0         0         0
         0         0         0         0         0         0         0         0
         0         0         0         0         0         0         0         0
         0         0         0         0         0         0         0         0
         0         0         0         0         0         0         0         0
         0         0         0         0         0         0         0         0
         0         0         0         0         0         0         0         0
         0         0         0         0         0         0         0         0
         0         0         0         0         0         0         0         0
         0         0         0         0         0         0         0         0
         0         0         0         0         0         0         0         0
         0         0         0         0         0         0         0         0
         0         0         0         0         0         0         0         0
         0         0         0         0         0         0         0         0
         0         0         0         0         0         0         0         0
         0         0         0         0         0         0         0         0
         0         0         0         0         0         0         0         0
         0         0         0         0         0         0         0         0
         0         0         0         0         0         0         0         0
         0         0         0         0         0         0         0         0
         0         0         0         0         0         0         0         0
         0         0         0         0         0         0         0         0
         0         0         0         0         0         0         0         0
         0         0         0         0         0         0         0         0
         0         0         0         0         0         0         0         0
         0         0         0         0         0         0         0         0
         0         0         0         0         0         0         0         0
         0         0         0         0         0         0         0         0
         0         0         0         0         0         0         0         0
         0         0         0         0         0         0         0         0
         0         0         0         0         0         0         0         0
         0         0         0         0         0         0         0         0
         0         0         0         0         0         0         0         0
         0         0         0         0         0         0         0         0
         0         0         0         0         0         0         0         0
         0         0         0         0         0         0         0         0
         0         0         0         0         0         0         0         0
         0         0         0         0         0         0         0         0
         0         0         0         0         0         0         0         0
         0         0         0         0         0         0         0         0
         0         0         0         0         0         0         0         0
         0         0         0         0         0         0         0         0
         0         0         0         0         0         0         0         0
         0         0         0         0         0         0         0         0
         0         0         0         0         0         0         0         0
         0         0         0         0         0         0         0         0
         0         0         0         0         0         0         0         0
         0         0         0         0         0         0         0         0
         0         0         0         0         0         0         0         0
         0         0         0         0         0         0         0         0
         0         0         0         0         0         0         0         0
         0         0         0         0         0         0         0         0
         0         0         0         0         0         0         0         0
         0         0         0         0         0         0         0         0
         0         0         0         0         0         0         0         0
         0         0         0         0         0         0         0         0
         0         0         0         0         0         0         0         0
         0         0         0         0         0         0         0         0
         0         0         0         0         0         0         0         0
         0         0         0         0         0         0         0         0
         0         0         0         0         0         0         0         0
         0         0         0         0         0         0         0         0
         0         0         0         0         0         0         0         0
         0         0         0         0         0         0         0         0
         0         0         0         0         0         0         0         0
         0         0         0         0         0         0         0         0
         0         0         0         0         0         0         0         0
         0         0         0         0         0         0         0         0
         0         0         0         0         0         0         0         0
         0         0         0         0         0         0         0         0
         0         0         0         0         0         0         0         0
         0         0         0         0         0         0         0         0
         0         0         0         0         0         0         0         0
         0         0         0         0         0         0         0         0
         0         0         0         0         0         0         0         0
         0         0         0         0         0         0         0         0
         0         0         0         0         0         0         0         0
         0         0         0         0         0         0         0         0
         0         0         0         0         0         0         0         0
         0         0         0         0         0         0         0         0
         0         0         0         0         0         0         0         0
         0         0         0         0         0         0         0         0
         0         0         0         0         0         0         0         0
         0         0         0         0         0         0         0         0
         0         0         0         0         0         0         0         0
         0         0         0         0         0         0         0         0
         0         0         0         0         0         0         0         0
         0         0         0         0         0         0         0         0
         0         0         0         0         0         0         0         0
         0         0         0         0         0         0         0         0
         0         0         0         0         0         0         0         0
         0         0         0         0         0         0         0         0
         0         0         0         0         0         0         0         0
         0         0         0         0         0         0         0         0
         0         0         0         0         0         0         0         0
         0         0         0         0         0         0         0         0
         0         0         0         0         0         0         0         0
         0         0         0         0         0         0         0         0
         0         0         0         0         0         0         0         0
         0         0         0         0         0         0         0         0
         0         0         0         0         0         0         0         0
         0         0         0         0         0         0         0         0
         0         0         0         0         0         0         0         0
         0         0         0         0         0         0         0         0
         0         0         0         0         0         0         0         0
         0         0         0         0         0         0         0         0
         0         0         0         0         0         0         0         0
         0         0         0         0         0         0         0         0
         0         0         0         0         0         0         0         0
         0         0         0         0         0         0         0         0
         0         0         0         0         0         0         0         0
         0         0         0         0         0         0         0         0
         0         0         0         0         0         0         0         0
         0         0         0         0         0         0         0         0
         0         0         0         0         0         0         0         0
         0         0         0         0         0         0         0         0
         0         0         0         0         0         0         0         0
         0         0         0         0         0         0         0         0
         0         0         0         0         0         0         0         0
         0         0         0         0         0         0         0         0
         0         0         0         0         0         0         0         0
         0         0         0         0         0         0         0         0
         0         0         0         0         0         0         0         0
         0         0         0         0         0         0         0         0
         0         0         0         0         0         0         0         0
         0         0         0         0         0         0         0         0
         0         0         0         0         0         0         0         0
         0         0         0         0         0         0         0         0
         0         0         0         0         0         0         0         0
         0         0         0         0         0         0         0         0
         0         0         0         0         0         0         0         0
         0         0         0         0         0         0         0         0
         0         0         0         0         0         0         0         0
         0         0         0         0         0         0         0         0
         0         0         0         0         0         0         0         0
         0         0         0         0         0         0         0         0
         0         0         0         0         0         0         0         0
         0         0         0         0         0         0         0         0
         0         0         0         0         0         0         0         0
         0         0         0         0         0         0         0         0
         0         0         0         0         0         0         0         0
         0         0         0         0         0         0         0         0
         0         0         0         0         0         0         0         0
         0         0         0         0         0         0         0         0
         0         0         0         0         0         0         0         0
         0         0         0         0         0         0         0         0
         0         0         0         0         0         0         0         0
         0         0         0         0         0         0         0         0
         0         0         0         0         0         0         0         0
         0         0         0         0         0         0         0         0
         0         0         0         0         0         0         0         0
         0         0         0         0         0         0         0         0
         0         0         0         0         0         0         0         0
         0         0         0         0         0         0         0         0
         0         0         0         0         0         0         0         0
         0         0         0         0         0         0         0         0
         0         0         0         0         0         0         0         0
         0         0         0         0         0         0         0         0
         0         0         0         0         0         0         0         0
         0         0         0         0         0         0         0         0
         0         0         0         0         0         0         0         0
         0         0         0         0         0         0         0         0
         0         0         0         0         0         0         0         0
         0         0         0         0         0         0         0         0
         0         0         0         0         0         0         0         0
         0         0         0         0         0         0         0         0
         0         0         0         0         0         0         0         0
         0         0         0         0         0         0         0         0
         0         0         0         0         0         0         0         0
         0         0         0         0         0         0         0         0
         0         0         0         0         0         0         0         0
         0         0         0         0         0         0         0         0
         0         0         0         0         0         0         0         0
         0         0         0         0         0         0         0         0
         0         0         0         0         0         0         0         0
         0         0         0         0         0         0         0         0
         0         0         0         0         0         0         0         0
         0         0         0         0         0         0         0         0
         0         0         0         0         0         0         0         0
         0         0         0         0         0         0         0         0
         0         0         0         0         0         0         0         0
         0         0         0         0         0         0         0         0
         0         0         0         0         0         0         0         0
         0         0         0         0         0         0         0         0
         0         0         0         0         0         0         0         0
         0         0         0         0         0         0         0         0
         0         0         0         0         0         0         0         0
         0         0         0         0         0         0         0         0
         0         0         0         0         0         0         0         0
         0         0         0         0         0         0         0         0
         0         0         0         0         0         0         0         0
         0         0         0         0         0         0         0         0
         0         0         0         0         0         0         0         0
         0         0         0         0         0         0         0         0
         0         0         0         0         0         0         0         0
         0         0         0         0         0         0         0         0
         0         0         0         0         0         0         0         0
         0         0         0         0         0         0         0         0
         0         0         0         0         0         0         0         0
         0         0         0         0         0         0         0         0
         0         0         0         0         0         0         0         0
         0         0         0         0         0         0         0         0
         0         0         0         0         0         0         0         0
         0         0         0         0         0         0         0         0
         0         0         0         0         0         0         0         0
         0         0         0         0         0         0         0         0
         0         0         0         0         0         0         0         0
         0         0         0         0         0         0         0         0
         0         0         0         0         0         0         0         0
         0         0         0         0         0         0         0         0
         0         0         0         0         0         0         0         0
         0         0         0         0         0         0         0         0
         0         0         0         0         0         0         0         0
         0         0         0         0         0         0         0         0
         0         0         0         0         0         0         0         0
         0         0         0         0         0         0         0         0
         0         0         0         0         0         0         0         0
         0         0         0         0         0         0         0         0
         0         0         0         0         0         0         0         0
         0         0         0         0         0         0         0         0
         0         0         0         0         0         0         0         0
         0         0         0         0         0         0         0         0
         0         0         0         0         0         0         0         0
         0         0         0         0         0         0         0         0
         0         0         0         0         0         0         0         0
         0         0         0         0         0         0         0         0
         0         0         0         0         0         0         0         0
         0         0         0         0         0         0         0         0
         0         0         0         0         0         0         0         0
         0         0         0         0         0         0         0         0
         0         0         0         0         0         0         0         0
         0         0         0         0         0         0         0         0
         0         0         0         0         0         0         0         0
         0         0         0         0         0         0         0         0
         0         0         0         0         0         0         0         0
         0         0         0         0         0         0         0         0
         0         0         0         0         0         0         0         0
         0         0         0         0         0         0         0         0
         0         0         0         0         0         0         0         0
         0         0         0         0         0         0         0         0
         0         0         0         0         0         0         0         0
         0         0         0         0         0         0         0         0
         0         0         0         0         0         0         0         0
         0         0         0         0         0         0         0         0
         0         0         0         0         0         0         0         0
         0         0         0         0         0         0         0         0
         0         0         0         0         0         0         0         0
         0         0         0         0         0         0         0         0
         0         0         0         0         0         0         0         0
         0         0         0         0         0         0         0         0
         0         0         0         0         0         0         0         0
         0         0         0         0         0         0         0         0
         0         0         0         0         0         0         0         0
         0         0         0         0         0         0         0         0
         0         0         0         0         0         0         0         0
         0         0         0         0         0         0         0         0
         0         0         0         0         0         0         0         0
         0         0         0         0         0         0         0         0
         0         0         0         0         0         0         0         0
         0         0         0         0         0         0         0         0
         0         0         0         0         0         0         0         0
         0         0         0         0         0         0         0         0
         0         0         0         0         0         0         0         0
         0         0         0         0         0         0         0         0
         0         0         0         0         0         0         0         0
         0         0         0         0         0         0         0         0
         0         0         0         0         0         0         0         0
         0         0         0         0         0         0         0         0
         0         0         0         0         0         0         0         0
         0         0         0         0         0         0         0         0
         0         0         0         0         0         0         0         0
         0         0         0         0         0         0         0         0
         0         0         0         0         0         0         0         0
         0         0         0         0         0         0         0         0
         0         0         0         0         0         0         0         0
         0         0         0         0         0         0         0         0
         0         0         0         0         0         0         0         0
         0         0         0         0         0         0         0         0
         0         0         0         0         0         0         0         0
         0         0         0         0         0         0         0         0
         0         0         0         0         0         0         0         0
         0         0         0         0         0         0         0         0
         0         0         0         0         0         0         0         0
         0         0         0         0         0         0         0         0
         0         0         0         0         0         0         0         0
         0         0         0         0         0         0         0         0
         0         0         0         0         0         0         0         0
         0         0         0         0         0         0         0         0
         0         0         0         0         0         0         0         0
         0         0         0         0         0         0         0         0
         0         0         0         0         0         0         0         0
         0         0         0         0         0         0         0         0
         0         0         0         0         0         0         0         0
         0         0         0         0         0         0         0         0
         0         0         0         0         0         0         0         0
         0         0         0         0         0         0         0         0
         0         0         0         0         0         0         0         0
         0         0         0         0         0         0         0         0
         0         0         0         0         0         0         0         0
         0         0         0         0         0         0         0         0
         0         0         0         0         0         0         0         0
         0         0         0         0         0         0         0         0
         0         0         0         0         0         0         0         0
         0         0         0         0         0         0         0         0
         0         0         0         0         0         0         0         0
         0         0         0         0         0         0         0         0
         0         0         0         0         0         0         0         0
         0         0         0         0         0         0         0         0
         0         0         0         0         0         0         0         0
         0         0         0         0         0         0         0         0
         0         0         0         0         0         0         0         0
         0         0         0         0         0         0         0         0
         0         0         0         0         0         0         0         0
         0         0         0         0         0         0         0         0
         0         0         0         0         0         0         0         0
         0         0         0         0         0         0         0         0
         0         0         0         0         0         0         0         0
         0         0         0         0         0         0         0         0
         0         0         0         0         0         0         0         0
         0         0         0         0         0         0         0         0
         0         0         0         0         0         0         0         0
         0         0         0         0         0         0         0         0
         0         0         0         0         0         0         0         0
         0         0         0         0         0         0         0         0
         0         0         0         0         0         0         0         0
         0         0         0         0         0         0         0         0
         0         0         0         0         0         0         0         0
         0         0         0         0         0         0         0         0
         0         0         0         0         0         0         0         0
         0         0         0         0         0         0         0         0
         0         0         0         0         0         0         0         0
         0         0         0         0         0         0         0         0
         0         0         0         0         0         0         0         0
         0         0         0         0         0         0         0         0
         0         0         0         0         0         0         0         0
         0         0         0         0         0         0         0         0
         0         0         0         0         0         0         0         0
         0         0         0         0         0         0         0         0
         0         0         0         0         0         0         0         0
         0         0         0         0         0         0         0         0
         0         0         0         0         0         0         0         0
         0         0         0         0         0         0         0         0
         0         0         0         0         0         0         0         0
         0         0         0         0         0         0         0         0
         0         0         0         0         0         0         0         0
         0         0         0         0         0         0         0         0
         0         0         0         0         0         0         0         0
         0         0         0         0         0         0         0         0
         0         0         0         0         0         0         0         0
         0         0         0         0         0         0         0         0
         0         0         0         0         0         0         0         0
         0         0         0         0         0         0         0         0
         0         0         0         0         0         0         0         0
         0         0         0         0         0         0         0         0
         0         0         0         0         0         0         0         0
         0         0         0         0         0         0         0         0
         0         0         0         0         0         0         0         0
         0         0         0         0         0         0         0         0
         0         0         0         0         0         0         0         0
         0         0         0         0         0         0         0         0
         0         0         0         0         0         0         0         0
         0         0         0         0         0         0         0         0
         0         0         0         0         0         0         0         0
         0         0         0         0         0         0         0         0
         0         0         0         0         0         0         0         0
         0         0         0         0         0         0         0         0
         0         0         0         0         0         0         0         0
         0         0         0         0         0         0         0         0
         0         0         0         0         0         0         0         0
         0         0         0         0         0         0         0         0
         0         0         0         0         0         0         0         0
         0         0         0         0         0         0         0         0
         0         0         0         0         0         0         0         0
         0         0         0         0         0         0         0         0
         0         0         0         0         0         0         0         0
         0         0         0         0         0         0         0         0
         0         0         0         0         0         0         0         0
         0         0         0         0         0         0         0         0
         0         0         0         0         0         0         0         0
         0         0         0         0         0         0         0         0
         0         0         0         0         0         0         0         0
         0         0         0         0         0         0         0         0
         0         0         0         0         0         0         0         0
         0         0         0         0         0         0         0         0
         0         0         0         0         0         0         0         0
         0         0         0         0         0         0         0         0
         0         0         0         0         0         0         0         0
         0         0         0         0         0         0         0         0
         0         0         0         0         0         0         0         0
         0         0         0         0         0         0         0         0
         0         0         0         0         0         0         0         0
         0         0         0         0         0         0         0         0
         0         0         0         0         0         0         0         0
         0         0         0         0         0         0         0         0
         0         0         0         0         0         0         0         0
         0         0         0         0         0         0         0         0
         0         0         0         0         0         0         0         0
         0         0         0         0         0         0         0         0
         0         0         0         0         0         0         0         0
         0         0         0         0         0         0         0         0
         0         0         0         0         0         0         0         0
         0         0         0         0         0         0         0         0
         0         0         0         0         0         0         0         0
         0         0         0         0         0         0         0         0
         0         0         0         0         0         0         0         0
         0         0         0         0         0         0         0         0
         0         0         0         0         0         0         0         0
         0         0         0         0         0         0         0         0
         0         0         0         0         0         0         0         0
         0         0         0         0         0         0         0         0
         0         0         0         0         0         0         0         0
         0         0         0         0         0         0         0         0
         0         0         0         0         0         0         0         0
         0         0         0         0         0         0         0         0
         0         0         0         0         0         0         0         0
         0         0         0         0         0         0         0         0
         0         0         0         0         0         0         0         0
         0         0         0         0         0         0         0         0
         0         0         0         0         0         0         0         0
         0         0         0         0         0         0         0         0
         0         0         0         0         0         0         0         0
         0         0         0         0         0         0         0         0
         0         0         0         0         0         0         0         0
         0         0         0         0         0         0         0         0
         0         0         0         0         0         0         0         0
         0         0         0         0         0         0         0         0
         0         0         0         0         0         0         0         0
         0         0         0         0         0         0         0         0
         0         0         0         0         0         0         0         0
         0         0         0         0         0         0         0         0
         0         0         0         0         0         0         0         0
         0         0         0         0         0         0         0         0
         0         0         0         0         0         0         0         0
         0         0         0         0         0         0         0         0
         0         0         0         0         0         0         0         0
         0         0         0         0         0         0         0         0
         0         0         0         0         0         0         0         0
         0         0         0         0         0         0         0         0
         0         0         0         0         0         0         0         0
         0         0         0         0         0         0         0         0
         0         0         0         0         0         0         0         0
         0         0         0         0         0         0         0         0
         0         0         0         0         0         0         0         0
         0         0         0         0         0         0         0         0
         0         0         0         0         0         0         0         0
         0         0         0         0         0         0         0         0
         0         0         0         0         0         0         0         0
         0         0         0         0         0         0         0         0
         0         0         0         0         0         0         0         0
         0         0         0         0         0         0         0         0
         0         0         0         0         0         0         0         0
         0         0         0         0         0         0         0         0
         0         0         0         0         0         0         0         0
         0         0         0         0         0         0         0         0
         0         0         0         0         0         0         0         0
         0         0         0         0         0         0         0         0
         0         0         0         0         0         0         0         0
         0         0         0         0         0         0         0         0
         0         0         0         0         0         0         0         0
         0         0         0         0         0         0         0         0
         0         0         0         0         0         0         0         0
         0         0         0         0         0         0         0         0
         0         0         0         0         0         0         0         0
         0         0         0         0         0         0         0         0
         0         0         0         0         0         0         0         0
         0         0         0         0         0         0         0         0
         0         0         0         0         0         0         0         0
         0         0         0         0         0         0         0         0
         0         0         0         0         0         0         0         0
         0         0         0         0         0         0         0         0
         0         0         0         0         0         0         0         0
         0         0         0         0         0         0         0         0
         0         0         0         0         0         0         0         0
         0         0         0         0         0         0         0         0
         0         0         0         0         0         0         0         0
         0         0         0         0         0         0         0         0
         0         0         0         0         0         0         0         0
         0         0         0         0         0         0         0         0
         0         0         0         0         0         0         0         0
         0         0         0         0         0         0         0         0
         0         0         0         0         0         0         0         0
         0         0         0         0         0         0         0         0
         0         0         0         0         0         0         0         0
         0         0         0         0         0         0         0         0
         0         0         0         0         0         0         0         0
         0         0         0         0         0         0         0         0
         0         0         0         0         0         0         0         0
         0         0         0         0         0         0         0         0
         0         0         0         0         0         0         0         0
         0         0         0         0         0         0         0         0
         0         0         0         0         0         0         0         0
         0         0         0         0         0         0         0         0
         0         0         0         0         0         0         0         0
         0         0         0         0         0         0         0         0
         0         0         0         0         0         0         0         0
         0         0         0         0         0         0         0         0
         0         0         0         0         0         0         0         0
         0         0         0         0         0         0         0         0
         0         0         0         0         0         0         0         0
         0         0         0         0         0         0         0         0
         0         0         0         0         0         0         0         0
         0         0         0         0         0         0         0         0
         0         0         0         0         0         0         0         0
         0         0         0         0         0         0         0         0
         0         0         0         0         0         0         0         0
         0         0         0         0         0         0         0         0
         0         0         0         0         0         0         0         0
         0         0         0         0         0         0         0         0
         0         0         0         0         0         0         0         0
         0         0         0         0         0         0         0         0
         0         0         0         0         0         0         0         0
         0         0         0         0         0         0         0         0
         0         0         0         0         0         0         0         0
         0         0         0         0         0         0         0         0
         0         0         0         0         0         0         0         0
         0         0         0         0         0         0         0         0
         0         0         0         0         0         0         0         0
         0         0         0         0         0         0         0         0
         0         0         0         0         0         0         0         0
         0         0         0         0         0         0         0         0
         0         0         0         0         0         0         0         0
         0         0         0         0         0         0         0         0
         0         0         0         0         0         0         0         0
         0         0         0         0         0         0         0         0
         0         0         0         0         0         0         0         0
         0         0         0         0         0         0         0         0
         0         0         0         0         0         0         0         0
         0         0         0         0         0         0         0         0
         0         0         0         0         0         0         0         0
         0         0         0         0         0         0         0         0
         0         0         0         0         0         0         0         0
         0         0         0         0         0         0         0         0
         0         0         0         0         0         0         0         0
         0         0         0         0         0         0         0         0
         0         0         0         0         0         0         0         0
         0         0         0         0         0         0         0         0
         0         0         0         0         0         0         0         0
         0         0         0         0         0         0         0         0
         0         0         0         0         0         0         0         0
         0         0         0         0         0         0         0         0
         0         0         0         0         0         0         0         0
         0         0         0         0         0         0         0         0
         0         0         0         0         0         0         0         0
         0         0         0         0         0         0         0         0
         0         0         0         0         0         0         0         0
         0         0         0         0         0         0         0         0
         0         0         0         0         0         0         0         0
         0         0         0         0         0         0         0         0
         0         0         0         0         0         0         0         0
         0         0         0         0         0         0         0         0
         0         0         0         0         0         0         0         0
         0         0         0         0         0         0         0         0
         0         0         0         0         0         0         0         0
         0         0         0         0         0         0         0         0
         0         0         0         0         0         0         0         0
         0         0         0         0         0         0         0         0
         0         0         0         0         0         0         0         0
         0         0         0         0         0         0         0         0
         0         0         0         0         0         0         0         0
         0         0         0         0         0         0         0         0
         0         0         0         0         0         0         0         0
         0         0         0         0         0         0         0         0
         0         0         0         0         0         0         0         0
         0         0         0         0         0         0         0         0
         0         0         0         0         0         0         0         0
         0         0         0         0         0         0         0         0
         0         0         0         0         0         0         0         0
         0         0         0         0         0         0         0         0
         0         0         0         0         0         0         0         0
         0         0         0         0         0         0         0         0
         0         0         0         0         0         0         0         0
         0         0         0         0         0         0         0         0
         0         0         0         0         0         0         0         0
         0         0         0         0         0         0         0         0
         0         0         0         0         0         0         0         0
         0         0         0         0         0         0         0         0
         0         0         0         0         0         0         0         0
         0         0         0         0         0         0         0         0
         0         0         0         0         0         0         0         0
         0         0         0         0         0         0         0         0
         0         0         0         0         0         0         0         0
         0         0         0         0         0         0         0         0
         0         0         0         0         0         0         0         0
         0         0         0         0         0         0         0         0
         0         0         0         0         0         0         0         0
         0         0         0         0         0         0         0         0
         0         0         0         0         0         0         0         0
         0         0         0         0         0         0         0         0
         0         0         0         0         0         0         0         0
         0         0         0         0         0         0         0         0
         0         0         0         0         0         0         0         0
         0         0         0         0         0         0         0         0
         0         0         0         0         0         0         0         0
         0         0         0         0         0         0         0         0
         0         0         0         0         0         0         0         0
         0         0         0         0         0         0         0         0
         0         0         0         0         0         0         0         0
         0         0         0         0         0         0         0         0
         0         0         0         0         0         0         0         0
         0         0         0         0         0         0         0         0
         0         0         0         0         0         0         0         0
         0         0         0         0         0         0         0         0
         0         0         0         0         0         0         0         0
         0         0         0         0         0         0         0         0
         0         0         0         0         0         0         0         0
         0         0         0         0         0         0         0         0
         0         0         0         0         0         0         0         0
         0         0         0         0         0         0         0         0
         0         0         0         0         0         0         0         0
         0         0         0         0         0         0         0         0
         0         0         0         0         0         0         0         0
         0         0         0         0         0         0         0         0
         0         0         0         0         0         0         0         0
         0         0         0         0         0         0         0         0
         0         0         0         0         0         0         0         0
         0         0         0         0         0         0         0         0
         0         0         0         0         0         0         0         0
         0         0         0         0         0         0         0         0
         0         0         0         0         0         0         0         0
         0         0         0         0         0         0         0         0
         0         0         0         0         0         0         0         0
         0         0         0         0         0         0         0         0
         0         0         0         0         0         0         0         0
         0         0         0         0         0         0         0         0
         0         0         0         0         0         0         0         0
         0         0         0         0         0         0         0         0
         0         0         0         0         0         0         0         0
         0         0         0         0         0         0         0         0
         0         0         0         0         0         0         0         0
         0         0         0         0         0         0         0         0
         0         0         0         0         0         0         0         0
         0         0         0         0         0         0         0         0
         0         0         0         0         0         0         0         0
         0         0         0         0         0         0         0         0
         0         0         0         0         0         0         0         0
         0         0         0         0         0         0         0         0
         0         0         0         0         0         0         0         0
         0         0         0         0         0         0         0         0
         0         0         0         0         0         0         0         0
         0         0         0         0         0         0         0         0
         0         0         0         0         0         0         0         0
         0         0         0         0         0         0         0         0
         0         0         0         0         0         0         0         0
         0         0         0         0         0         0         0         0
         0         0         0         0         0         0         0         0
         0         0         0         0         0         0         0         0
         0         0         0         0         0         0         0         0
         0         0         0         0         0         0         0         0
         0         0         0         0         0         0         0         0
         0         0         0         0         0         0         0         0
         0         0         0         0         0         0         0         0
         0         0         0         0         0         0         0         0
         0         0         0         0         0         0         0         0
         0         0         0         0         0         0         0         0
         0         0         0         0         0         0         0         0
         0         0         0         0         0         0         0         0
         0         0         0         0         0         0         0         0
         0         0         0         0         0         0         0         0
         0         0         0         0         0         0         0         0
         0         0         0         0         0         0         0         0
         0         0         0         0         0         0         0         0
         0         0         0         0         0         0         0         0
         0         0         0         0         0         0         0         0
         0         0         0         0         0         0         0         0
         0         0         0         0         0         0         0         0
         0         0         0         0         0         0         0         0
         0         0         0         0         0         0         0         0
         0         0         0         0         0         0         0         0
         0         0         0         0         0         0         0         0
         0         0         0         0         0         0         0         0
         0         0         0         0         0         0         0         0
         0         0         0         0         0         0         0         0
         0         0         0         0         0         0         0         0
         0         0         0         0         0         0         0         0
         0         0         0         0         0         0         0         0
         0         0         0         0         0         0         0         0
         0         0         0         0         0         0         0         0
         0         0         0         0         0         0         0         0
         0         0         0         0         0         0         0         0
         0         0         0         0         0         0         0         0
         0         0         0         0         0         0         0         0
         0         0         0         0         0         0         0         0
         0         0         0         0         0         0         0         0
         0         0         0         0         0         0         0         0
         0         0         0         0         0         0         0         0
         0         0         0         0         0         0         0         0
         0         0         0         0         0         0         0         0
         0         0         0         0         0         0         0         0
         0         0         0         0         0         0         0         0
         0         0         0         0         0         0         0         0
         0         0         0         0         0         0         0         0
         0         0         0         0         0         0         0         0
         0         0         0         0         0         0         0         0
         0         0         0         0         0         0         0         0
         0         0         0         0         0         0         0         0
         0         0         0         0         0         0         0         0
         0         0         0         0         0         0         0         0
         0         0         0         0         0         0         0         0
         0         0         0         0         0         0         0         0
         0         0         0         0         0         0         0         0
         0         0         0         0         0         0         0         0
         0         0         0         0         0         0         0         0
         0         0         0         0         0         0         0         0
         0         0         0         0         0         0         0         0
         0         0         0         0         0         0         0         0
         0         0         0         0         0         0         0         0
         0         0         0         0         0         0         0         0
         0         0         0         0         0         0         0         0
         0         0         0         0         0         0         0         0
         0         0         0         0         0         0         0         0
         0         0         0         0         0         0         0         0
         0         0         0         0         0         0         0         0
         0         0         0         0         0         0         0         0
         0         0         0         0         0         0         0         0
         0         0         0         0         0         0         0         0
         0         0         0         0         0         0         0         0
         0         0         0         0         0         0         0         0
         0         0         0         0         0         0         0         0
         0         0         0         0         0         0         0         0
         0         0         0         0         0         0         0         0
         0         0         0         0         0         0         0         0
         0         0         0         0         0         0         0         0
         0         0         0         0         0         0         0         0
         0         0         0         0         0         0         0         0
         0         0         0         0         0         0         0         0
         0         0         0         0         0         0         0         0
         0         0         0         0         0         0         0         0
         0         0         0         0         0         0         0         0
         0         0         0         0         0         0         0         0
         0         0         0         0         0         0         0         0
         0         0         0         0         0         0         0         0
         0         0         0         0         0         0         0         0
         0         0         0         0         0         0         0         0
         0         0         0         0         0         0         0         0
         0         0         0         0         0         0         0         0
         0         0         0         0         0         0         0         0
         0         0         0         0         0         0         0         0
         0         0         0         0         0         0         0         0
         0         0         0         0         0         0         0         0
         0         0         0         0         0         0         0         0
         0         0         0         0         0         0         0         0
         0         0         0         0         0         0         0         0
         0         0         0         0         0         0         0         0
         0         0         0         0         0         0         0         0
         0         0         0         0         0         0         0         0
         0         0         0         0         0         0         0         0
         0         0         0         0         0         0         0         0
         0         0         0         0         0         0         0         0
         0         0         0         0         0         0         0         0
         0         0         0         0         0         0         0         0
         0         0         0         0         0         0         0         0
         0         0         0         0         0         0         0         0
         0         0         0         0         0         0         0         0
         0         0         0         0         0         0         0         0
         0         0         0         0         0         0         0         0
         0         0         0         0         0         0         0         0
         0         0         0         0         0         0         0         0
         0         0         0         0         0         0         0         0
         0         0         0         0         0         0         0         0
         0         0         0         0         0         0         0         0
         0         0         0         0         0         0         0         0
         0         0         0         0         0         0         0         0
         0         0         0         0         0         0         0         0
         0         0         0         0         0         0         0         0
         0         0         0         0         0         0         0         0
         0         0         0         0         0         0         0         0
         0         0         0         0         0         0         0         0
         0         0         0         0         0         0         0         0
         0         0         0         0         0         0         0         0
         0         0         0         0         0         0         0         0
         0         0         0         0         0         0         0         0
         0         0         0         0         0         0         0         0
         0         0         0         0         0         0         0         0
         0         0         0         0         0         0         0         0
         0         0         0         0         0         0         0         0
         0         0         0         0         0         0         0         0
         0         0         0         0         0         0         0         0
         0         0         0         0         0         0         0         0
         0         0         0         0         0         0         0         0
         0         0         0         0         0         0         0         0
         0         0         0         0         0         0         0         0
         0         0         0         0         0         0         0         0
         0         0         0         0         0         0         0         0
         0         0         0         0         0         0         0         0
         0         0         0         0         0         0         0         0
         0         0         0         0         0         0         0         0
         0         0         0         0         0         0         0         0
         0         0         0         0         0         0         0         0
         0         0         0         0         0         0         0         0
         0         0         0         0         0         0         0         0
         0         0         0         0         0         0         0         0
         0         0         0         0         0         0         0         0
         0         0         0         0         0         0         0         0
         0         0         0         0         0         0         0         0
         0         0         0         0         0         0         0         0
         0         0         0         0         0         0         0         0
         0         0         0         0         0         0         0         0
         0         0         0         0         0         0         0         0
         0         0         0         0         0         0         0         0
         0         0         0         0         0         0         0         0
         0         0         0         0         0         0         0         0
         0         0         0         0         0         0         0         0
         0         0         0         0         0         0         0         0
         0         0         0         0         0         0         0         0
         0         0         0         0         0         0         0         0
         0         0         0         0         0         0         0         0
         0         0         0         0         0         0         0         0
         0         0         0         0         0         0         0         0
         0         0         0         0         0         0         0         0
         0         0         0         0         0         0         0         0
         0         0         0         0         0         0         0         0
         0         0         0         0         0         0         0         0
         0         0         0         0         0         0         0         0
         0         0         0         0         0         0         0         0
         0         0         0         0         0         0         0         0
         0         0         0         0         0         0         0         0
         0         0         0         0         0         0         0         0
         0         0         0         0         0         0         0         0
         0         0         0         0         0         0         0         0
         0         0         0         0         0         0         0         0
         0         0         0         0         0         0         0         0
         0         0         0         0         0         0         0         0
         0         0         0         0         0         0         0         0
         0         0         0         0         0         0         0         0
         0         0         0         0         0         0         0         0
         0         0         0         0         0         0         0         0
         0         0         0         0         0         0         0         0
         0         0         0         0         0         0         0         0
         0         0         0         0         0         0         0         0
         0         0         0         0         0         0         0         0
         0         0         0         0         0         0         0         0
         0         0         0         0         0         0         0         0
         0         0         0         0         0         0         0         0
         0         0         0         0         0         0         0         0
         0         0         0         0         0         0         0         0
         0         0         0         0         0         0         0         0
         0         0         0         0         0         0         0         0
         0         0         0         0         0         0         0         0
         0         0         0         0         0         0         0         0
         0         0         0         0         0         0         0         0
         0         0         0         0         0         0         0         0
         0         0         0         0         0         0         0         0
         0         0         0         0         0         0         0         0
         0         0         0         0         0         0         0         0
         0         0         0         0         0         0         0         0
         0         0         0         0         0         0         0         0
         0         0         0         0         0         0         0         0
         0         0         0         0         0         0         0         0
         0         0         0         0         0         0         0         0
         0         0         0         0         0         0         0         0
         0         0         0         0         0         0         0         0
         0         0         0         0         0         0         0         0
         0         0         0         0         0         0         0         0
         0         0         0         0         0         0         0         0
         0         0         0         0         0         0         0         0
         0         0         0         0         0         0         0         0
         0         0         0         0         0         0         0         0
         0         0         0         0         0         0         0         0
         0         0         0         0         0         0         0         0
         0         0         0         0         0         0         0         0
         0         0         0         0         0         0         0         0
         0         0         0         0         0         0         0         0
         0         0         0         0         0         0         0         0
         0         0         0         0         0         0         0         0
         0         0         0         0         0         0         0         0
         0         0         0         0         0         0         0         0
         0         0         0         0         0         0         0         0
         0         0         0         0         0         0         0         0
         0         0         0         0         0         0         0         0
         0         0         0         0         0         0         0         0
         0         0         0         0         0         0         0         0
         0         0         0         0         0         0         0         0
         0         0         0         0         0         0         0         0
         0         0         0         0         0         0         0         0
         0         0         0         0         0         0         0         0
         0         0         0         0         0         0         0         0
         0         0         0         0         0         0         0         0
         0         0         0         0         0         0         0         0
         0         0         0         0         0         0         0         0
         0         0         0         0         0         0         0         0
         0         0         0         0         0         0         0         0
         0         0         0         0         0         0         0         0
         0         0         0         0         0         0         0         0
         0         0         0         0         0         0         0         0
         0         0         0         0         0         0         0         0
         0         0         0         0         0         0         0         0
         0         0         0         0         0         0         0         0
         0         0         0         0         0         0         0         0
         0         0         0         0         0         0         0         0
         0         0         0         0         0         0         0         0
         0         0         0         0         0         0         0         0
         0         0         0         0         0         0         0         0
         0         0         0         0         0         0         0         0
         0         0         0         0         0         0         0         0
         0         0         0         0         0         0         0         0
         0         0         0         0         0         0         0         0
         0         0         0         0         0         0         0         0
         0         0         0         0         0         0         0         0
         0         0         0         0         0         0         0         0
         0         0         0         0         0         0         0         0
         0         0         0         0         0         0         0         0
         0         0         0         0         0         0         0         0
         0         0         0         0         0         0         0         0
         0         0         0         0         0         0         0         0
         0         0         0         0         0         0         0         0
         0         0         0         0         0         0         0         0
         0         0         0         0         0         0         0         0
         0         0         0         0         0         0         0         0
         0         0         0         0         0         0         0         0
         0         0         0         0         0         0         0         0
         0         0         0         0         0         0         0         0
         0         0         0         0         0         0         0         0
         0         0         0         0         0         0         0         0
         0         0         0         0         0         0         0         0
         0         0         0         0         0         0         0         0
         0         0         0         0         0         0         0         0
         0         0         0         0         0         0         0         0
         0         0         0         0         0         0         0         0
         0         0         0         0         0         0         0         0
         0         0         0         0         0         0         0         0
         0         0         0         0         0         0         0         0
         0         0         0         0         0         0         0         0
         0         0         0         0         0         0         0         0
         0         0         0         0         0         0         0         0
         0         0         0         0         0         0         0         0
         0         0         0         0         0         0         0         0
         0         0         0         0         0         0         0         0
         0         0         0         0         0         0         0         0
         0         0         0         0         0         0         0         0
         0         0         0         0         0         0         0         0
         0         0         0         0         0         0         0         0
         0         0         0         0         0         0         0         0
         0         0         0         0         0         0         0         0
         0         0         0         0         0         0         0         0
         0         0         0         0         0         0         0         0
         0         0         0         0         0         0         0         0
         0         0         0         0         0         0         0         0
         0         0         0         0         0         0         0         0
         0         0         0         0         0         0         0         0
         0         0         0         0         0         0         0         0
         0         0         0         0         0         0         0         0
         0         0         0         0         0         0         0         0
         0         0         0         0         0         0         0         0
         0         0         0         0         0         0         0         0
         0         0         0         0         0         0         0         0
         0         0         0         0         0         0         0         0
         0         0         0         0         0         0         0         0
         0         0         0         0         0         0         0         0
         0         0         0         0         0         0         0         0
         0         0         0         0         0         0         0         0
         0         0         0         0         0         0         0         0
         0         0         0         0         0         0         0         0
         0         0         0         0         0         0         0         0
         0         0         0         0         0         0         0         0
         0         0         0         0         0         0         0         0
         0         0         0         0         0         0         0         0
         0         0         0         0         0         0         0         0
         0         0         0         0         0         0         0         0
         0         0         0         0         0         0         0         0
         0         0         0         0         0         0         0         0
         0         0         0         0         0         0         0         0
         0         0         0         0         0         0         0         0
         0         0         0         0         0         0         0         0
         0         0         0         0         0         0         0         0
         0         0         0         0         0         0         0         0
         0         0         0         0         0         0         0         0
         0         0         0         0         0         0         0         0
         0         0         0         0         0         0         0         0
         0         0         0         0         0         0         0         0
         0         0         0         0         0         0         0         0
         0         0         0         0         0         0         0         0
         0         0         0         0         0         0         0         0
         0         0         0         0         0         0         0         0
         0         0         0         0         0         0         0         0
         0         0         0         0         0         0         0         0
         0         0         0         0         0         0         0         0
         0         0         0         0         0         0         0         0
         0         0         0         0         0         0         0         0
         0         0         0         0         0         0         0         0
         0         0         0         0         0         0         0         0
         0         0         0         0         0         0         0         0
         0         0         0         0         0         0         0         0
         0         0         0         0         0         0         0         0
         0         0         0         0         0         0         0         0
         0         0         0         0         0         0         0         0
         0         0         0         0         0         0         0         0
         0         0         0         0         0         0         0         0
         0         0         0         0         0         0         0         0
         0         0         0         0         0         0         0         0
         0         0         0         0         0         0         0         0
         0         0         0         0         0         0         0         0
         0         0         0         0         0         0         0         0
         0         0         0         0         0         0         0         0
         0         0         0         0         0         0         0         0
         0         0         0         0         0         0         0         0
         0         0         0         0         0         0         0         0
         0         0         0         0         0         0         0         0
         0         0         0         0         0         0         0         0
         0         0         0         0         0         0         0         0
         0         0         0         0         0         0         0         0
         0         0         0         0         0         0         0         0
         0         0         0         0         0         0         0         0
         0         0         0         0         0         0         0         0
         0         0         0         0         0         0         0         0
         0         0         0         0         0         0         0         0
         0         0         0         0         0         0         0         0
         0         0         0         0         0         0         0         0
         0         0         0         0         0         0         0         0
         0         0         0         0         0         0         0         0
         0         0         0         0         0         0         0         0
         0         0         0         0         0         0         0         0
         0         0         0         0         0         0         0         0
         0         0         0         0         0         0         0         0
         0         0         0         0         0         0         0         0
         0         0         0         0         0         0         0         0
         0         0         0         0         0         0         0         0
         0         0         0         0         0         0         0         0
         0         0         0         0         0         0         0         0
         0         0         0         0         0         0         0         0
         0         0         0         0         0         0         0         0
         0         0         0         0         0         0         0         0
         0         0         0         0         0         0         0         0
         0         0         0         0         0         0         0         0
         0         0         0         0         0         0         0         0
         0         0         0         0         0         0         0         0
         0         0         0         0         0         0         0         0
         0         0         0         0         0         0         0         0
         0         0         0         0         0         0         0         0
         0         0         0         0         0         0         0         0
         0         0         0         0         0         0         0         0
         0         0         0         0         0         0         0         0
         0         0         0         0         0         0         0         0
         0         0         0         0         0         0         0         0
         0         0         0         0         0         0         0         0
         0         0         0         0         0         0         0         0
         0         0         0         0         0         0         0         0
         0         0         0         0         0         0         0         0
         0         0         0         0         0         0         0         0
         0         0         0         0         0         0         0         0
         0         0         0         0         0         0         0         0
         0         0         0         0         0         0         0         0
         0         0         0         0         0         0         0         0
         0         0         0         0         0         0         0         0
         0         0         0         0         0         0         0         0
         0         0         0         0         0         0         0         0
         0         0         0         0         0         0         0         0
         0         0         0         0         0         0         0         0
         0         0         0         0         0         0         0         0
         0         0         0         0         0         0         0         0
         0         0         0         0         0         0         0         0
         0         0         0         0         0         0         0         0
         0         0         0         0         0         0         0         0
         0         0         0         0         0         0         0         0
         0         0         0         0         0         0         0         0
         0         0         0         0         0         0         0         0
         0         0         0         0         0         0         0         0
         0         0         0         0         0         0         0         0
         0         0         0         0         0         0         0         0
         0         0         0         0         0         0         0         0
         0         0         0         0         0         0         0         0
         0         0         0         0         0         0         0         0
         0         0         0         0         0         0         0         0
         0         0         0         0         0         0         0         0
         0         0         0         0         0         0         0         0
         0         0         0         0         0         0         0         0
         0         0         0         0         0         0         0         0
         0         0         0         0         0         0         0         0
         0         0         0         0         0         0         0         0
         0         0         0         0         0         0         0         0
         0         0         0         0         0         0         0         0
         0         0         0         0         0         0         0         0
         0         0         0         0         0         0         0         0
         0         0         0         0         0         0         0         0
         0         0         0         0         0         0         0         0
         0         0         0         0         0         0         0         0
         0         0         0         0         0         0         0         0
         0         0         0         0         0         0         0         0
         0         0         0         0         0         0         0         0
         0         0         0         0         0         0         0         0
         0         0         0         0         0         0         0         0
         0         0         0         0         0         0         0         0
         0         0         0         0         0         0         0         0
         0         0         0         0         0         0         0         0
         0         0         0         0         0         0         0         0
         0         0         0         0         0         0         0         0
         0         0         0         0         0         0         0         0
         0         0         0         0         0         0         0         0
         0         0         0         0         0         0         0         0
         0         0         0         0         0         0         0         0
         0         0         0         0         0         0         0         0
         0         0         0         0         0         0         0         0
         0         0         0         0         0         0         0         0
         0         0         0         0         0         0         0         0
         0         0         0         0         0         0         0         0
         0         0         0         0         0         0         0         0
         0         0         0         0         0         0         0         0
         0         0         0         0         0         0         0         0
         0         0         0         0         0         0         0         0
         0         0         0         0         0         0         0         0
         0         0         0         0         0         0         0         0
         0         0         0         0         0         0         0         0
         0         0         0         0         0         0         0         0
         0         0         0         0         0         0         0         0
         0         0         0         0         0         0         0         0
         0         0         0         0         0         0         0         0
         0         0         0         0         0         0         0         0
         0         0         0         0         0         0         0         0
         0         0         0         0         0         0         0         0
         0         0         0         0         0         0         0         0
         0         0         0         0         0         0         0         0
         0         0         0         0         0         0         0         0
         0         0         0         0         0         0         0         0
         0         0         0         0         0         0         0         0
         0         0         0         0         0         0         0         0
         0         0         0         0         0         0         0         0
         0         0         0         0         0         0         0         0
         0         0         0         0         0         0         0         0
         0         0         0         0         0         0         0         0
         0         0         0         0         0         0         0         0
         0         0         0         0         0         0         0         0
         0         0         0         0         0         0         0         0
         0         0         0         0         0         0         0         0
         0         0         0         0         0         0         0         0
         0         0         0         0         0         0         0         0
         0         0         0         0         0         0         0         0
         0         0         0         0         0         0         0         0
         0         0         0         0         0         0         0         0
         0         0         0         0         0         0         0         0
         0         0         0         0         0         0         0         0
         0         0         0         0         0         0         0         0
         0         0         0         0         0         0         0         0
         0         0         0         0         0         0         0         0
         0         0         0         0         0         0         0         0
         0         0         0         0         0         0         0         0
         0         0         0         0         0         0         0         0
         0         0         0         0         0         0         0         0
         0         0         0         0         0         0         0         0
         0         0         0         0         0         0         0         0
         0         0         0         0         0         0         0         0
         0         0         0         0         0         0         0         0
         0         0         0         0         0         0         0         0
         0         0         0         0         0         0         0         0
         0         0         0         0         0         0         0         0
         0         0         0         0         0         0         0         0
         0         0         0         0         0         0         0         0
         0         0         0         0         0         0         0         0
         0         0         0         0         0         0         0         0
         0         0         0         0         0         0         0         0
         0         0         0         0         0         0         0         0
         0         0         0         0         0         0         0         0
         0         0         0         0         0         0         0         0
         0         0         0         0         0         0         0         0
         0         0         0         0         0         0         0         0
         0         0         0         0         0         0         0         0
         0         0         0         0         0         0         0         0
         0         0         0         0         0         0         0         0
         0         0         0         0         0         0         0         0
         0         0         0         0         0         0         0         0
         0         0         0         0         0         0         0         0
         0         0         0         0         0         0         0         0
         0         0         0         0         0         0         0         0
         0         0         0         0         0         0         0         0
         0         0         0         0         0         0         0         0
         0         0         0         0         0         0         0         0
         0         0         0         0         0         0         0         0
         0         0         0         0         0         0         0         0
         0         0         0         0         0         0         0         0
         0         0         0         0         0         0         0         0
         0         0         0         0         0         0         0         0
         0         0         0         0         0         0         0         0
         0         0         0         0         0         0         0         0
         0         0         0         0         0         0         0         0
         0         0         0         0         0         0         0         0
         0         0         0         0         0         0         0         0
         0         0         0         0         0         0         0         0
         0         0         0         0         0         0         0         0
         0         0         0         0         0         0         0         0
         0         0         0         0         0         0         0         0
         0         0         0         0         0         0         0         0
         0         0         0         0         0         0         0         0
         0         0         0         0         0         0         0         0
         0         0         0         0         0         0         0         0
         0         0         0         0         0         0         0         0
         0         0         0         0         0         0         0         0
         0         0         0         0         0         0         0         0
         0         0         0         0         0         0         0         0
         0         0         0         0         0         0         0         0
         0         0         0         0         0         0         0         0
         0         0         0         0         0         0         0         0
         0         0         0         0         0         0         0         0
         0         0         0         0         0         0         0         0
         0         0         0         0         0         0         0         0
         0         0         0         0         0         0         0         0
         0         0         0         0         0         0         0         0
         0         0         0         0         0         0         0         0
         0         0         0         0         0         0         0         0
         0         0         0         0         0         0         0         0
         0         0         0         0         0         0         0         0
         0         0         0         0         0         0         0         0
         0         0         0         0         0         0         0         0
         0         0         0         0         0         0         0         0
         0         0         0         0         0         0         0         0
         0         0         0         0         0         0         0         0
         0         0         0         0         0         0         0         0
         0         0         0         0         0         0         0         0
         0         0         0         0         0         0         0         0
         0         0         0         0         0         0         0         0
         0         0         0         0         0         0         0         0
         0         0         0         0         0         0         0         0
         0         0         0         0         0         0         0         0
         0         0         0         0         0         0         0         0
         0         0         0         0         0         0         0         0
         0         0         0         0         0         0         0         0
         0         0         0         0         0         0         0         0
         0         0         0         0         0         0         0         0
         0         0         0         0         0         0         0         0
         0         0         0         0         0         0         0         0
         0         0         0         0         0         0         0         0
         0         0         0         0         0         0         0         0
         0         0         0         0         0         0         0         0
         0         0         0         0         0         0         0         0
         0         0         0         0         0         0         0         0
         0         0         0         0         0         0         0         0
         0         0         0         0         0         0         0         0
         0         0         0         0         0         0         0         0
         0         0         0         0         0         0         0         0
         0         0         0         0         0         0         0         0
         0         0         0         0         0         0         0         0
         0         0         0         0         0         0         0         0
         0         0         0         0         0         0         0         0
         0         0         0         0         0         0         0         0
         0         0         0         0         0         0         0         0
         0         0         0         0         0         0         0         0
         0         0         0         0         0         0         0         0
         0         0         0         0         0         0         0         0
         0         0         0         0         0         0         0         0
         0         0         0         0         0         0         0         0
         0         0         0         0         0         0         0         0
         0         0         0         0         0         0         0         0
         0         0         0         0         0         0         0         0
         0         0         0         0         0         0         0         0
         0         0         0         0         0         0         0         0
         0         0         0         0         0         0         0         0
         0         0         0         0         0         0         0         0
         0         0         0         0         0         0         0         0
         0         0         0         0         0         0         0         0
         0         0         0         0         0         0         0         0
         0         0         0         0         0         0         0         0
         0         0         0         0         0         0         0         0
         0         0         0         0         0         0         0         0
         0         0         0         0         0         0         0         0
         0         0         0         0         0         0         0         0
         0         0         0         0         0         0         0         0
         0         0         0         0         0         0         0         0
         0         0         0         0         0         0         0         0
         0         0         0         0         0         0         0         0
         0         0         0         0         0         0         0         0
         0         0         0         0         0         0         0         0
         0         0         0         0         0         0         0         0
         0         0         0         0         0         0         0         0
         0         0         0         0         0         0         0         0
         0         0         0         0         0         0         0         0
         0         0         0         0         0         0         0         0
         0         0         0         0         0         0         0         0
         0         0         0         0         0         0         0         0
         0         0         0         0         0         0         0         0
         0         0         0         0         0         0         0         0
         0         0         0         0         0         0         0         0
         0         0         0         0         0         0         0         0
         0         0         0         0         0         0         0         0
         0         0         0         0         0         0         0         0
         0         0         0         0         0         0         0         0
         0         0         0         0         0         0         0         0
         0         0         0         0         0         0         0         0
         0         0         0         0         0         0         0         0
         0         0         0         0         0         0         0         0
         0         0         0         0         0         0         0         0
         0         0         0         0         0         0         0         0
         0         0         0         0         0         0         0         0
         0         0         0         0         0         0         0         0
         0         0         0         0         0         0         0         0
         0         0         0         0         0         0         0         0
         0         0         0         0         0         0         0         0
         0         0         0         0         0         0         0         0
         0         0         0         0         0         0         0         0
         0         0         0         0         0         0         0         0
         0         0         0         0         0         0         0         0
         0         0         0         0         0         0         0         0
         0         0         0         0         0         0         0         0
         0         0         0         0         0         0         0         0
         0         0         0         0         0         0         0         0
         0         0         0         0         0         0         0         0
         0         0         0         0         0         0         0         0
         0         0         0         0         0         0         0         0
         0         0         0         0         0         0         0         0
         0         0         0         0         0         0         0         0
         0         0         0         0         0         0         0         0
         0         0         0         0         0         0         0         0
         0         0         0         0         0         0         0         0
         0         0         0         0         0         0         0         0
         0         0         0         0         0         0         0         0
         0         0         0         0         0         0         0         0
         0         0         0         0         0         0         0         0
         0         0         0         0         0         0         0         0
         0         0         0         0         0         0         0         0
         0         0         0         0         0         0         0         0
         0         0         0         0         0         0         0         0
         0         0         0         0         0         0         0         0
         0         0         0         0         0         0         0         0
         0         0         0         0         0         0         0         0
         0         0         0         0         0         0         0         0
         0         0         0         0         0         0         0         0
         0         0         0         0         0         0         0         0
         0         0         0         0         0         0         0         0
         0         0         0         0         0         0         0         0
         0         0         0         0         0         0         0         0
         0         0         0         0         0         0         0         0
         0         0         0         0         0         0         0         0
         0         0         0         0         0         0         0         0
         0         0         0         0         0         0         0         0
         0         0         0         0         0         0         0         0
         0         0         0         0         0         0         0         0
         0         0         0         0         0         0         0         0
         0         0         0         0         0         0         0         0
         0         0         0         0         0         0         0         0
         0         0         0         0         0         0         0         0
         0         0         0         0         0         0         0         0
         0         0         0         0         0         0         0         0
         0         0         0         0         0         0         0         0
         0         0         0         0         0         0         0         0
         0         0         0         0         0         0         0         0
         0         0         0         0         0         0         0         0
         0         0         0         0         0         0         0         0
         0         0         0         0         0         0         0         0
         0         0         0         0         0         0         0         0
         0         0         0         0         0         0         0         0
         0         0         0         0         0         0         0         0
         0         0         0         0         0         0         0         0
         0         0         0         0         0         0         0         0
         0         0         0         0         0         0         0         0
         0         0         0         0         0         0         0         0
         0         0         0         0         0         0         0         0
         0         0         0         0         0         0         0         0
         0         0         0         0         0         0         0         0
         0         0         0         0         0         0         0         0
         0         0         0         0         0         0         0         0
         0         0         0         0         0         0         0         0
         0         0         0         0         0         0         0         0
         0         0         0         0         0         0         0         0
         0         0         0         0         0         0         0         0
         0         0         0         0         0         0         0         0
         0         0         0         0         0         0         0         0
         0         0         0         0         0         0         0         0
         0         0         0         0         0         0         0         0
         0         0         0         0         0         0         0         0
         0         0         0         0         0         0         0         0
         0         0         0         0         0         0         0         0
         0         0         0         0         0         0         0         0
         0         0         0         0         0         0         0         0
         0         0         0         0         0         0         0         0
         0         0         0         0         0         0         0         0
         0         0         0         0         0         0         0         0
         0         0         0         0         0         0         0         0
         0         0         0         0         0         0         0         0
         0         0         0         0         0         0         0         0
         0         0         0         0         0         0         0         0
         0         0         0         0         0         0         0         0
         0         0         0         0         0         0         0         0
         0         0         0         0         0         0         0         0
         0         0         0         0         0         0         0         0
         0         0         0         0         0         0         0         0
         0         0         0         0         0         0         0         0
         0         0         0         0         0         0         0         0
         0         0         0         0         0         0         0         0
         0         0         0         0         0         0         0         0
         0         0         0         0         0         0         0         0
         0         0         0         0         0         0         0         0
         0         0         0         0         0         0         0         0
         0         0         0         0         0         0         0         0
         0         0         0         0         0         0         0         0
         0         0         0         0         0         0         0         0
         0         0         0         0         0         0         0         0
         0         0         0         0         0         0         0         0
         0         0         0         0         0         0         0         0
         0         0         0         0         0         0         0         0
         0         0         0         0         0         0         0         0
         0         0         0         0         0         0         0         0
         0         0         0         0         0         0         0         0
         0         0         0         0         0         0         0         0
         0         0         0         0         0         0         0         0
         0         0         0         0         0         0         0         0
         0         0         0         0         0         0         0         0
         0         0         0         0         0         0         0         0
         0         0         0         0         0         0         0         0
         0         0         0         0         0         0         0         0
         0         0         0         0         0         0         0         0
         0         0         0         0         0         0         0         0
         0         0         0         0         0         0         0         0
         0         0         0         0         0         0         0         0
         0         0         0         0         0         0         0         0
         0         0         0         0         0         0         0         0
         0         0         0         0         0         0         0         0
         0         0         0         0         0         0         0         0
         0         0         0         0         0         0         0         0
         0         0         0         0         0         0         0         0
         0         0         0         0         0         0         0         0
         0         0         0         0         0         0         0         0
         0         0         0         0         0         0         0         0
         0         0         0         0         0         0         0         0
         0         0         0         0         0         0         0         0
         0         0         0         0         0         0         0         0
         0         0         0         0         0         0         0         0
         0         0         0         0         0         0         0         0
         0         0         0         0         0         0         0         0
         0         0         0         0         0         0         0         0
         0         0         0         0         0         0         0         0
         0         0         0         0         0         0         0         0
         0         0         0         0         0         0         0         0
         0         0         0         0         0         0         0         0
         0         0         0         0         0         0         0         0
         0         0         0         0         0         0         0         0
         0         0         0         0         0         0         0         0
         0         0         0         0         0         0         0         0
         0         0         0         0         0         0         0         0
         0         0         0         0         0         0         0         0
         0         0         0         0         0         0         0         0
         0         0         0         0         0         0         0         0
         0         0         0         0         0         0         0         0
         0         0         0         0         0         0         0         0
         0         0         0         0         0         0         0         0
         0         0         0         0         0         0         0         0
         0         0         0         0         0         0         0         0
         0         0         0         0         0         0         0         0
         0         0         0         0         0         0         0         0
         0         0         0         0         0         0         0         0
         0         0         0         0         0         0         0         0
         0         0         0         0         0         0         0         0
         0         0         0         0         0         0         0         0
         0         0         0         0         0         0         0         0
         0         0         0         0         0         0         0         0
         0         0         0         0         0         0         0         0
         0         0         0         0         0         0         0         0
         0         0         0         0         0         0         0         0
         0         0         0         0         0         0         0         0
         0         0         0         0         0         0         0         0
         0         0         0         0         0         0         0         0
         0         0         0         0         0         0         0         0
         0         0         0         0         0         0         0         0
         0         0         0         0         0         0         0         0
         0         0         0         0         0         0         0         0
         0         0         0         0         0         0         0         0
         0         0         0         0         0         0         0         0
         0         0         0         0         0         0         0         0
         0         0         0         0         0         0         0         0
         0         0         0         0         0         0         0         0
         0         0         0         0         0         0         0         0
         0         0         0         0         0         0         0         0
         0         0         0         0         0         0         0         0
         0         0         0         0         0         0         0         0
         0         0         0         0         0         0         0         0
         0         0         0         0         0         0         0         0
         0         0         0         0         0         0         0         0
         0         0         0         0         0         0         0         0
         0         0         0         0         0         0         0         0
         0         0         0         0         0         0         0         0
         0         0         0         0         0         0         0         0
         0         0         0         0         0         0         0         0
         0         0         0         0         0         0         0         0
         0         0         0         0         0         0         0         0
         0         0         0         0         0         0         0         0
         0         0         0         0         0         0         0         0
         0         0         0         0         0         0         0         0
         0         0         0         0         0         0         0         0
         0         0         0         0         0         0         0         0
         0         0         0         0         0         0         0         0
         0         0         0         0         0         0         0         0
         0         0         0         0         0         0         0         0
         0         0         0         0         0         0         0         0
         0         0         0         0         0         0         0         0
         0         0         0         0         0         0         0         0
         0         0         0         0         0         0         0         0
         0         0         0         0         0         0         0         0
         0         0         0         0         0         0         0         0
         0         0         0         0         0         0         0         0
         0         0         0         0         0         0         0         0
         0         0         0         0         0         0         0         0
         0         0         0         0         0         0         0         0
         0         0         0         0         0         0         0         0
         0         0         0         0         0         0         0         0
         0         0         0         0         0         0         0         0
         0         0         0         0         0         0         0         0
         0         0         0         0         0         0         0         0
         0         0         0         0         0         0         0         0
         0         0         0         0         0         0         0         0
         0         0         0         0         0         0         0         0
         0         0         0         0         0         0         0         0
         0         0         0         0         0         0         0         0
         0         0         0         0         0         0         0         0
         0         0         0         0         0         0         0         0
         0         0         0         0         0         0         0         0
         0         0         0         0         0         0         0         0
         0         0         0         0         0         0         0         0
         0         0         0         0         0         0         0         0
         0         0         0         0         0         0         0         0
         0         0         0         0         0         0         0         0
         0         0         0         0         0         0         0         0
         0         0         0         0         0         0         0         0
         0         0         0         0         0         0         0         0
         0         0         0         0         0         0         0         0
         0         0         0         0         0         0         0         0
         0         0         0         0         0         0         0         0
         0         0         0         0         0         0         0         0
         0         0         0         0         0         0         0         0
         0         0         0         0         0         0         0         0
         0         0         0         0         0         0         0         0
         0         0         0         0         0         0         0         0
         0         0         0         0         0         0         0         0
         0         0         0         0         0         0         0         0
         0         0         0         0         0         0         0         0
         0         0         0         0         0         0         0         0
         0         0         0         0         0         0         0         0
         0         0         0         0         0         0         0         0
         0         0         0         0         0         0         0         0
         0         0         0         0         0         0         0         0
         0         0         0         0         0         0         0         0
         0         0         0         0         0         0         0         0
         0         0         0         0         0         0         0         0
         0         0         0         0         0         0         0         0
         0         0         0         0         0         0         0         0
         0         0         0         0         0         0         0         0
         0         0         0         0         0         0         0         0
         0         0         0         0         0         0         0         0
         0         0         0         0         0         0         0         0
         0         0         0         0         0         0         0         0
         0         0         0         0         0         0         0         0
         0         0         0         0         0         0         0         0
         0         0         0         0         0         0         0         0
         0         0         0         0         0         0         0         0
         0         0         0         0         0         0         0         0
         0         0         0         0         0         0         0         0
         0         0         0         0         0         0         0         0
         0         0         0         0         0         0         0         0
         0         0         0         0         0         0         0         0
         0         0         0         0         0         0         0         0
         0         0         0         0         0         0         0         0
         0         0         0         0         0         0         0         0
         0         0         0         0         0         0         0         0
         0         0         0         0         0         0         0         0
         0         0         0         0         0         0         0         0
         0         0         0         0         0         0         0         0
         0         0         0         0         0         0         0         0
         0         0         0         0         0         0         0         0
         0         0         0         0         0         0         0         0
         0         0         0         0         0         0         0         0
         0         0         0         0         0         0         0         0
         0         0         0         0         0         0         0         0
         0         0         0         0         0         0         0         0
         0         0         0         0         0         0         0         0
         0         0         0         0         0         0         0         0
         0         0         0         0         0         0         0         0
         0         0         0         0         0         0         0         0
         0         0         0         0         0         0         0         0
         0         0         0         0         0         0         0         0
         0         0         0         0         0         0         0         0
         0         0         0         0         0         0         0         0
         0         0         0         0         0         0         0         0
         0         0         0         0         0         0         0         0
         0         0         0         0         0         0         0         0
         0         0         0         0         0         0         0         0
         0         0         0         0         0         0         0         0
         0         0         0         0         0         0         0         0
         0         0         0         0         0         0         0         0
         0         0         0         0         0         0         0         0
         0         0         0         0         0         0         0         0
         0         0         0         0         0         0         0         0
         0         0         0         0         0         0         0         0
         0         0         0         0         0         0         0         0
         0         0         0         0         0         0         0         0
         0         0         0         0         0         0         0         0
         0         0         0         0         0         0         0         0
         0         0         0         0         0         0         0         0
         0         0         0         0         0         0         0         0
         0         0         0         0         0         0         0         0
         0         0         0         0         0         0         0         0
         0         0         0         0         0         0         0         0
         0         0         0         0         0         0         0         0
         0         0         0         0         0         0         0         0
         0         0         0         0         0         0         0         0
         0         0         0         0         0         0         0         0
         0         0         0         0         0         0         0         0
         0         0         0         0         0         0         0         0
         0         0         0         0         0         0         0         0
         0         0         0         0         0         0         0         0
         0         0         0         0         0         0         0         0
         0         0         0         0         0         0         0         0
         0         0         0         0         0         0         0         0
         0         0         0         0         0         0         0         0
         0         0         0         0         0         0         0         0
         0         0         0         0         0         0         0         0
         0         0         0         0         0         0         0         0
         0         0         0         0         0         0         0         0
         0         0         0         0         0         0         0         0
         0         0         0         0         0         0         0         0
         0         0         0         0         0         0         0         0
         0         0         0         0         0         0         0         0
         0         0         0         0         0         0         0         0
         0         0         0         0         0         0         0         0
         0         0         0         0         0         0         0         0
         0         0         0         0         0         0         0         0
         0         0         0         0         0         0         0         0
         0         0         0         0         0         0         0         0
         0         0         0         0         0         0         0         0
         0         0         0         0         0         0         0         0
         0         0         0         0         0         0         0         0
         0         0         0         0         0         0         0         0
         0         0         0         0         0         0         0         0
         0         0         0         0         0         0         0         0
         0         0         0         0         0         0         0         0
         0         0         0         0         0         0         0         0
         0         0         0         0         0         0         0         0
         0         0         0         0         0         0         0         0
         0         0         0         0         0         0         0         0
         0         0         0         0         0         0         0         0
         0         0         0         0         0         0         0         0
         0         0         0         0         0         0         0         0
         0         0         0         0         0         0         0         0
         0         0         0         0         0         0         0         0
         0         0         0         0         0         0         0         0
         0         0         0         0         0         0         0         0
         0         0         0         0         0         0         0         0
         0         0         0         0         0         0         0         0
         0         0         0         0         0         0         0         0
         0         0         0         0         0         0         0         0
         0         0         0         0         0         0         0         0
         0         0         0         0         0         0         0         0
         0         0         0         0         0         0         0         0
         0         0         0         0         0         0         0         0
         0         0         0         0         0         0         0         0
         0         0         0         0         0         0         0         0
         0         0         0         0         0         0         0         0
         0         0         0         0         0         0         0         0
         0         0         0         0         0         0         0         0
         0         0         0         0         0         0         0         0
         0         0         0         0         0         0         0         0
         0         0         0         0         0         0         0         0
         0         0         0         0         0         0         0         0
         0         0         0         0         0         0         0         0
         0         0         0         0         0         0         0         0
         0         0         0         0         0         0         0         0
         0         0         0         0         0         0         0         0
         0         0         0         0         0         0         0         0
         0         0         0         0         0         0         0         0
         0         0         0         0         0         0         0         0
         0         0         0         0         0         0         0         0
         0         0         0         0         0         0         0         0
         0         0         0         0         0         0         0         0
         0         0         0         0         0         0         0         0
         0         0         0         0         0         0         0         0
         0         0         0         0         0         0         0         0
         0         0         0         0         0         0         0         0
         0         0         0         0         0         0         0         0
         0         0         0         0         0         0         0         0
         0         0         0         0         0         0         0         0
         0         0         0         0         0         0         0         0
         0         0         0         0         0         0         0         0
         0         0         0         0         0         0         0         0
         0         0         0         0         0         0         0         0
         0         0         0         0         0         0         0         0
         0         0         0         0         0         0         0         0
         0         0         0         0         0         0         0         0
         0         0         0         0         0         0         0         0
         0         0         0         0         0         0         0         0
         0         0         0         0         0         0         0         0
         0         0         0         0         0         0         0         0
         0         0         0         0         0         0         0         0
         0         0         0         0         0         0         0         0
         0         0         0         0         0         0         0         0
         0         0         0         0         0         0         0         0
         0         0         0         0         0         0         0         0
         0         0         0         0         0         0         0         0
         0         0         0         0         0         0         0         0
         0         0         0         0         0         0         0         0
         0         0         0         0         0         0         0         0
         0         0         0         0         0         0         0         0
         0         0         0         0         0         0         0         0
         0         0         0         0         0         0         0         0
         0         0         0         0         0         0         0         0
         0         0         0         0         0         0         0         0
         0         0         0         0         0         0         0         0
         0         0         0         0         0         0         0         0
         0         0         0         0         0         0         0         0
         0         0         0         0         0         0         0         0
         0         0         0         0         0         0         0         0
         0         0         0         0         0         0         0         0
         0         0         0         0         0         0         0         0
         0         0         0         0         0         0         0         0
         0         0         0         0         0         0         0         0
         0         0         0         0         0         0         0         0
         0         0         0         0         0         0         0         0
         0         0         0         0         0         0         0         0
         0         0         0         0         0         0         0         0
         0         0         0         0         0         0         0         0
         0         0         0         0         0         0         0         0
         0         0         0         0         0         0         0         0
         0         0         0         0         0         0         0         0
         0         0         0         0         0         0         0         0
         0         0         0         0         0         0         0         0
         0         0         0         0         0         0         0         0
         0         0         0         0         0         0         0         0
         0         0         0         0         0         0         0         0
         0         0         0         0         0         0         0         0
         0         0         0         0         0         0         0         0
         0         0         0         0         0         0         0         0
         0         0         0         0         0         0         0         0
         0         0         0         0         0         0         0         0
         0         0         0         0         0         0         0         0
         0         0         0         0         0         0         0         0
         0         0         0         0         0         0         0         0
         0         0         0         0         0         0         0         0
         0         0         0         0         0         0         0         0
         0         0         0         0         0         0         0         0
         0         0         0         0         0         0         0         0
         0         0         0         0         0         0         0         0
         0         0         0         0         0         0         0         0
         0         0         0         0         0         0         0         0
         0         0         0         0         0         0         0         0
         0         0         0         0         0         0         0         0
         0         0         0         0         0         0         0         0
         0         0         0         0         0         0         0         0
         0         0         0         0         0         0         0         0
         0         0         0         0         0         0         0         0
         0         0         0         0         0         0         0         0
         0         0         0         0         0         0         0         0
         0         0         0         0         0         0         0         0
         0         0         0         0         0         0         0         0
         0         0         0         0         0         0         0         0
         0         0         0         0         0         0         0         0
         0         0         0         0         0         0         0         0
         0         0         0         0         0         0         0         0
         0         0         0         0         0         0         0         0
         0         0         0         0         0         0         0         0
         0         0         0         0         0         0         0         0
         0         0         0         0         0         0         0         0
         0         0         0         0         0         0         0         0
         0         0         0         0         0         0         0         0
         0         0         0         0         0         0         0         0
         0         0         0         0         0         0         0         0
         0         0         0         0         0         0         0         0
         0         0         0         0         0         0         0         0
         0         0         0         0         0         0         0         0
         0         0         0         0         0         0         0         0
         0         0         0         0         0         0         0         0
         0         0         0         0         0         0         0         0
         0         0         0         0         0         0         0         0
         0         0         0         0         0         0         0         0
         0         0         0         0         0         0         0         0
         0         0         0         0         0         0         0         0
         0         0         0         0         0         0         0         0
         0         0         0         0         0         0         0         0
         0         0         0         0         0         0         0         0
         0         0         0         0         0         0         0         0
         0         0         0         0         0         0         0         0
         0         0         0         0         0         0         0         0
         0         0         0         0         0         0         0         0
         0         0         0         0         0         0         0         0
         0         0         0         0         0         0         0         0
         0         0         0         0         0         0         0         0
         0         0         0         0         0         0         0         0
         0         0         0         0         0         0         0         0
         0         0         0         0         0         0         0         0
         0         0         0         0         0         0         0         0
         0         0         0         0         0         0         0         0
         0         0         0         0         0         0         0         0
         0         0         0         0         0         0         0         0
         0         0         0         0         0         0         0         0
         0         0         0         0         0         0         0         0
         0         0         0         0         0         0         0         0
         0         0         0         0         0         0         0         0
         0         0         0         0         0         0         0         0
         0         0         0         0         0         0         0         0
         0         0         0         0         0         0         0         0
         0         0         0         0         0         0         0         0
         0         0         0         0         0         0         0         0
         0         0         0         0         0         0         0         0
         0         0         0         0         0         0         0         0
         0         0         0         0         0         0         0         0
         0         0         0         0         0         0         0         0
         0         0         0         0         0         0         0         0
         0         0         0         0         0         0         0         0
         0         0         0         0         0         0         0         0
         0         0         0         0         0         0         0         0
         0         0         0         0         0         0         0         0
         0         0         0         0         0         0         0         0
         0         0         0         0         0         0         0         0
         0         0         0         0         0         0         0         0
         0         0         0         0         0         0         0         0
         0         0         0         0         0         0         0         0
         0         0         0         0         0         0         0         0
         0         0         0         0         0         0         0         0
         0         0         0         0         0         0         0         0
         0         0         0         0         0         0         0         0
         0         0         0         0         0         0         0         0
         0         0         0         0         0         0         0         0
         0         0         0         0         0         0         0         0
         0         0         0         0         0         0         0         0
         0         0         0         0         0         0         0         0
         0         0         0         0         0         0         0         0
         0         0         0         0         0         0         0         0
         0         0         0         0         0         0         0         0
         0         0         0         0         0         0         0         0
         0         0         0         0         0         0         0         0
         0         0         0         0         0         0         0         0
         0         0         0         0         0         0         0         0
         0         0         0         0         0         0         0         0
         0         0         0         0         0         0         0         0
         0         0         0         0         0         0         0         0
         0         0         0         0         0         0         0         0
         0         0         0         0         0         0         0         0
         0         0         0         0         0         0         0         0
         0         0         0         0         0         0         0         0
         0         0         0         0         0         0         0         0
         0         0         0         0         0         0         0         0
         0         0         0         0         0         0         0         0
         0         0         0         0         0         0         0         0
         0         0         0         0         0         0         0         0
         0         0         0         0         0         0         0         0
         0         0         0         0         0         0         0         0
         0         0         0         0         0         0         0         0
         0         0         0         0         0         0         0         0
         0         0         0         0         0         0         0         0
         0         0         0         0         0         0         0         0
         0         0         0         0         0         0         0         0
         0         0         0         0         0         0         0         0
         0         0         0         0         0         0         0         0
         0         0         0         0         0         0         0         0
         0         0         0         0         0         0         0         0
         0         0         0         0         0         0         0         0
         0         0         0         0         0         0         0         0
         0         0         0         0         0         0         0         0
         0         0         0         0         0         0         0         0
         0         0         0         0         0         0         0         0
         0         0         0         0         0         0         0         0
         0         0         0         0         0         0         0         0
         0         0         0         0         0         0         0         0
         0         0         0         0         0         0         0         0
         0         0         0         0         0         0         0         0
         0         0         0         0         0         0         0         0
         0         0         0         0         0         0         0         0
         0         0         0         0         0         0         0         0
         0         0         0         0         0         0         0         0
         0         0         0         0         0         0         0         0
         0         0         0         0         0         0         0         0
         0         0         0         0         0         0         0         0
         0         0         0         0         0         0         0         0
         0         0         0         0         0         0         0         0
         0         0         0         0         0         0         0         0
         0         0         0         0         0         0         0         0
         0         0         0         0         0         0         0         0
         0         0         0         0         0         0         0         0
         0         0         0         0         0         0         0         0
         0         0         0         0         0         0         0         0
         0         0         0         0         0         0         0         0
         0         0         0         0         0         0         0         0
         0         0         0         0         0         0         0         0
         0         0         0         0         0         0         0         0
         0         0         0         0         0         0         0         0
         0         0         0         0         0         0         0         0
         0         0         0         0         0         0         0         0
         0         0         0         0         0         0         0         0
         0         0         0         0         0         0         0         0
         0         0         0         0         0         0         0         0
         0         0         0         0         0         0         0         0
         0         0         0         0         0         0         0         0
         0         0         0         0         0         0         0         0
         0         0         0         0         0         0         0         0
         0         0         0         0         0         0         0         0
         0         0         0         0         0         0         0         0
         0         0         0         0         0         0         0         0
         0         0         0         0         0         0         0         0
         0         0         0         0         0         0         0         0
         0         0         0         0         0         0         0         0
         0         0         0         0         0         0         0         0
         0         0         0         0         0         0         0         0
         0         0         0         0         0         0         0         0
         0         0         0         0         0         0         0         0
         0         0         0         0         0         0         0         0
         0         0         0         0         0         0         0         0
         0         0         0         0         0         0         0         0
         0         0         0         0         0         0         0         0
         0         0         0         0         0         0         0         0
         0         0         0         0         0         0         0         0
         0         0         0         0         0         0         0         0
         0         0         0         0         0         0         0         0
         0         0         0         0         0         0         0         0
         0         0         0         0         0         0         0         0
         0         0         0         0         0         0         0         0
         0         0         0         0         0         0         0         0
         0         0         0         0         0         0         0         0
         0         0         0         0         0         0         0         0
         0         0         0         0         0         0         0         0
         0         0         0         0         0         0         0         0
         0         0         0         0         0         0         0         0
         0         0         0         0         0         0         0         0
         0         0         0         0         0         0         0         0
         0         0         0         0         0         0         0         0
         0         0         0         0         0         0         0         0
         0         0         0         0         0         0         0         0
         0         0         0         0         0         0         0         0
         0         0         0         0         0         0         0         0
         0         0         0         0         0         0         0         0
         0         0         0         0         0         0         0         0
         0         0         0         0         0         0         0         0
         0         0         0         0         0         0         0         0
         0         0         0         0         0         0         0         0
         0         0         0         0         0         0         0         0
         0         0         0         0         0         0         0         0
         0         0         0         0         0         0         0         0
         0         0         0         0         0         0         0         0
         0         0         0         0         0         0         0         0
         0         0         0         0         0         0         0         0
         0         0         0         0         0         0         0         0
         0         0         0         0         0         0         0         0
         0         0         0         0         0         0         0         0
         0         0         0         0         0         0         0         0
         0         0         0         0         0         0         0         0
         0         0         0         0         0         0         0         0
         0         0         0         0         0         0         0         0
         0         0         0         0         0         0         0         0
         0         0         0         0         0         0         0         0
         0         0         0         0         0         0         0         0
         0         0         0         0         0         0         0         0
         0         0         0         0         0         0         0         0
         0         0         0         0         0         0         0         0
         0         0         0         0         0         0         0         0
         0         0         0         0         0         0         0         0
         0         0         0         0         0         0         0         0
         0         0         0         0         0         0         0         0
         0         0         0         0         0         0         0         0
         0         0         0         0         0         0         0         0
         0         0         0         0         0         0         0         0
         0         0         0         0         0         0         0         0
         0         0         0         0         0         0         0         0
         0         0         0         0         0         0         0         0
         0         0         0         0         0         0         0         0
         0         0         0         0         0         0         0         0
         0         0         0         0         0         0         0         0
         0         0         0         0         0         0         0         0
         0         0         0         0         0         0         0         0
         0         0         0         0         0         0         0         0
         0         0         0         0         0         0         0         0
         0         0         0         0         0         0         0         0
         0         0         0         0         0         0         0         0
         0         0         0         0         0         0         0         0
         0         0         0         0         0         0         0         0
         0         0         0         0         0         0         0         0
         0         0         0         0         0         0         0         0
         0         0         0         0         0         0         0         0
         0         0         0         0         0         0         0         0
         0         0         0         0         0         0         0         0
         0         0         0         0         0         0         0         0
         0         0         0         0         0         0         0         0
         0         0         0         0         0         0         0         0
         0         0         0         0         0         0         0         0
         0         0         0         0         0         0         0         0
         0         0         0         0         0         0         0         0
         0         0         0         0         0         0         0         0
         0         0         0         0         0         0         0         0
         0         0         0         0         0         0         0         0
         0         0         0         0         0         0         0         0
         0         0         0         0         0         0         0         0
         0         0         0         0         0         0         0         0
         0         0         0         0         0         0         0         0
         0         0         0         0         0         0         0         0
         0         0         0         0         0         0         0         0
         0         0         0         0         0         0         0         0
         0         0         0         0         0         0         0         0
         0         0         0         0         0         0         0         0
         0         0         0         0         0         0         0         0
         0         0         0         0         0         0         0         0
         0         0         0         0         0         0         0         0
         0         0         0         0         0         0         0         0
         0         0         0         0         0         0         0         0
         0         0         0         0         0         0         0         0
         0         0         0         0         0         0         0         0
         0         0         0         0         0         0         0         0
         0         0         0         0         0         0         0         0
         0         0         0         0         0         0         0         0
         0         0         0         0         0         0         0         0
         0         0         0         0         0         0         0         0
         0         0         0         0         0         0         0         0
         0         0         0         0         0         0         0         0
         0         0         0         0         0         0         0         0
         0         0         0         0         0         0         0         0
         0         0         0         0         0         0         0         0
         0         0         0         0         0         0         0         0
         0         0         0         0         0         0         0         0
         0         0         0         0         0         0         0         0
         0         0         0         0         0         0         0         0
         0         0         0         0         0         0         0         0
         0         0         0         0         0         0         0         0
         0         0         0         0         0         0         0         0
         0         0         0         0         0         0         0         0
         0         0         0         0         0         0         0         0
         0         0         0         0         0         0         0         0
         0         0         0         0         0         0         0         0
         0         0         0         0         0         0         0         0
         0         0         0         0         0         0         0         0
         0         0         0         0         0         0         0         0
         0         0         0         0         0         0         0         0
         0         0         0         0         0         0         0         0
         0         0         0         0         0         0         0         0
         0         0         0         0         0         0         0         0
         0         0         0         0         0         0         0         0
         0         0         0         0         0         0         0         0
         0         0         0         0         0         0         0         0
         0         0         0         0         0         0         0         0
         0         0         0         0         0         0         0         0
         0         0         0         0         0         0         0         0
         0         0         0         0         0         0         0         0
         0         0         0         0         0         0         0         0
         0         0         0         0         0         0         0         0
         0         0         0         0         0         0         0         0
         0         0         0         0         0         0         0         0
         0         0         0         0         0         0         0         0
         0         0         0         0         0         0         0         0
         0         0         0         0         0         0         0         0
         0         0         0         0         0         0         0         0
         0         0         0         0         0         0         0         0
         0         0         0         0         0         0         0         0
         0         0         0         0         0         0         0         0
         0         0         0         0         0         0         0         0
         0         0         0         0         0         0         0         0
         0         0         0         0         0         0         0         0
         0         0         0         0         0         0         0         0
         0         0         0         0         0         0         0         0
         0         0         0         0         0         0         0         0
         0         0         0         0         0         0         0         0
         0         0         0         0         0         0         0         0
         0         0         0         0         0         0         0         0
         0         0         0         0         0         0         0         0
         0         0         0         0         0         0         0         0
         0         0         0         0         0         0         0         0
         0         0         0         0         0         0         0         0
         0         0         0         0         0         0         0         0
         0         0         0         0         0         0         0         0
         0         0         0         0         0         0         0         0
         0         0         0         0         0         0         0         0
         0         0         0         0         0         0         0         0
         0         0         0         0         0         0         0         0
         0         0         0         0         0         0         0         0
         0         0         0         0         0         0         0         0
         0         0         0         0         0         0         0         0
         0         0         0         0         0         0         0         0
         0         0         0         0         0         0         0         0
         0         0         0         0         0         0         0         0
         0         0         0         0         0         0         0         0
         0         0         0         0         0         0         0         0
         0         0         0         0         0         0         0         0
         0         0         0         0         0         0         0         0
         0         0         0         0         0         0         0         0
         0         0         0         0         0         0         0         0
         0         0         0         0         0         0         0         0
         0         0         0         0         0         0         0         0
         0         0         0         0         0         0         0         0
         0         0         0         0         0         0         0         0
         0         0         0         0         0         0         0         0
         0         0         0         0         0         0         0         0
         0         0         0         0         0         0         0         0
         0         0         0         0         0         0         0         0
         0         0         0         0         0         0         0         0
         0         0         0         0         0         0         0         0
         0         0         0         0         0         0         0         0
         0         0         0         0         0         0         0         0
         0         0         0         0         0         0         0         0
         0         0         0         0         0         0         0         0
         0         0         0         0         0         0         0         0
         0         0         0         0         0         0         0         0
         0         0         0         0         0         0         0         0
         0         0         0         0         0         0         0         0
         0         0         0         0         0         0         0         0
         0         0         0         0         0         0         0         0
         0         0         0         0         0         0         0         0
         0         0         0         0         0         0         0         0
         0         0         0         0         0         0         0         0
         0         0         0         0         0         0         0         0
         0         0         0         0         0         0         0         0
         0         0         0         0         0         0         0         0
         0         0         0         0         0         0         0         0
         0         0         0         0         0         0         0         0
         0         0         0         0         0         0         0         0
         0         0         0         0         0         0         0         0
         0         0         0         0         0         0         0         0
         0         0         0         0         0         0         0         0
         0         0         0         0         0         0         0         0
         0         0         0         0         0         0         0         0
         0         0         0         0         0         0         0         0
         0         0         0         0         0         0         0         0
         0         0         0         0         0         0         0         0
         0         0         0         0         0         0         0         0
         0         0         0         0         0         0         0         0
         0         0         0         0         0         0         0         0
         0         0         0         0         0         0         0         0
         0         0         0         0         0         0         0         0
         0         0         0         0         0         0         0         0
         0         0         0         0         0         0         0         0
         0         0         0         0         0         0         0         0
         0         0         0         0         0         0         0         0
         0         0         0         0         0         0         0         0
         0         0         0         0         0         0         0         0
         0         0         0         0         0         0         0         0
         0         0         0         0         0         0         0         0
         0         0         0         0         0         0         0         0
         0         0         0         0         0         0         0         0
         0         0         0         0         0         0         0         0
         0         0         0         0         0         0         0         0
         0         0         0         0         0         0         0         0
         0         0         0         0         0         0         0         0
         0         0         0         0         0         0         0         0
         0         0         0         0         0         0         0         0
         0         0         0         0         0         0         0         0
         0         0         0         0         0         0         0         0
         0         0         0         0         0         0         0         0
         0         0         0         0         0         0         0         0
         0         0         0         0         0         0         0         0
         0         0         0         0         0         0         0         0
         0         0         0         0         0         0         0         0
         0         0         0         0         0         0         0         0
         0         0         0         0         0         0         0         0
         0         0         0         0         0         0         0         0
         0         0         0         0         0         0         0         0
         0         0         0         0         0         0         0         0
         0         0         0         0         0         0         0         0
         0         0         0         0         0         0         0         0
         0         0         0         0         0         0         0         0
         0         0         0         0         0         0         0         0
         0         0         0         0         0         0         0         0
         0         0         0         0         0         0         0         0
         0         0         0         0         0         0         0         0
         0         0         0         0         0         0         0         0
         0         0         0         0         0         0         0         0
         0         0         0         0         0         0         0         0
         0         0         0         0         0         0         0         0
         0         0         0         0         0         0         0         0
         0         0         0         0         0         0         0         0
         0         0         0         0         0         0         0         0
         0         0         0         0         0         0         0         0
         0         0         0         0         0         0         0         0
         0         0         0         0         0         0         0         0
         0         0         0         0         0         0         0         0
         0         0         0         0         0         0         0         0
         0         0         0         0         0         0         0         0
         0         0         0         0         0         0         0         0
         0         0         0         0         0         0         0         0
         0         0         0         0         0         0         0         0
         0         0         0         0         0         0         0         0
         0         0         0         0         0         0         0         0
         0         0         0         0         0         0         0         0
         0         0         0         0         0         0         0         0
         0         0         0         0         0         0         0         0
         0         0         0         0         0         0         0         0
         0         0         0         0         0         0         0         0
         0         0         0         0         0         0         0         0
         0         0         0         0         0         0         0         0
         0         0         0         0         0         0         0         0
         0         0         0         0         0         0         0         0
         0         0         0         0         0         0         0         0
         0         0         0         0         0         0         0         0
         0         0         0         0         0         0         0         0
         0         0         0         0         0         0         0         0
         0         0         0         0         0         0         0         0
         0         0         0         0         0         0         0         0
         0         0         0         0         0         0         0         0
         0         0         0         0         0         0         0         0
         0         0         0         0         0         0         0         0
         0         0         0         0         0         0         0         0
         0         0         0         0         0         0         0         0
         0         0         0         0         0         0         0         0
         0         0         0         0         0         0         0         0
         0         0         0         0         0         0         0         0
         0         0         0         0         0         0         0         0
         0         0         0         0         0         0         0         0
         0         0         0         0         0         0         0         0
         0         0         0         0         0         0         0         0
         0         0         0         0         0         0         0         0
         0         0         0         0         0         0         0         0
         0         0         0         0         0         0         0         0
         0         0         0         0         0         0         0         0
         0         0         0         0         0         0         0         0
         0         0         0         0         0         0         0         0
         0         0         0         0         0         0         0         0
         0         0         0         0         0         0         0         0
         0         0         0         0         0         0         0         0
         0         0         0         0         0         0         0         0
         0         0         0         0         0         0         0         0
         0         0         0         0         0         0         0         0
         0         0         0         0         0         0         0         0
         0         0         0         0         0         0         0         0
         0         0         0         0         0         0         0         0
         0         0         0         0         0         0         0         0
         0         0         0         0         0         0         0         0
         0         0         0         0         0         0         0         0
         0         0         0         0         0         0         0         0
         0         0         0         0         0         0         0         0
         0         0         0         0         0         0         0         0
         0         0         0         0         0         0         0         0
         0         0         0         0         0         0         0         0
         0         0         0         0         0         0         0         0
         0         0         0         0         0         0         0         0
         0         0         0         0         0         0         0         0
         0         0         0         0         0         0         0         0
         0         0         0         0         0         0         0         0
         0         0         0         0         0         0         0         0
         0         0         0         0         0         0         0         0
         0         0         0         0         0         0         0         0
         0         0         0         0         0         0         0         0
         0         0         0         0         0         0         0         0
         0         0         0         0         0         0         0         0
         0         0         0         0         0         0         0         0
         0         0         0         0         0         0         0         0
         0         0         0         0         0         0         0         0
         0         0         0         0         0         0         0         0
         0         0         0         0         0         0         0         0
         0         0         0         0         0         0         0         0
         0         0         0         0         0         0         0         0
         0         0         0         0         0         0         0         0
         0         0         0         0         0         0         0         0
         0         0         0         0         0         0         0         0
         0         0         0         0         0         0         0         0
         0         0         0         0         0         0         0         0
         0         0         0         0         0         0         0         0
         0         0         0         0         0         0         0         0
         0         0         0         0         0         0         0         0
         0         0         0         0         0         0         0         0
         0         0         0         0         0         0         0         0
         0         0         0         0         0         0         0         0
         0         0         0         0         0         0         0         0
         0         0         0         0         0         0         0         0
         0         0         0         0         0         0         0         0
         0         0         0         0         0         0         0         0
         0         0         0         0         0         0         0         0
         0         0         0         0         0         0         0         0
         0         0         0         0         0         0         0         0
         0         0         0         0         0         0         0         0
         0         0         0         0         0         0         0         0
         0         0         0         0         0         0         0         0
         0         0         0         0         0         0         0         0
         0         0         0         0         0         0         0         0
         0         0         0         0         0         0         0         0
         0         0         0         0         0         0         0         0
         0         0         0         0         0         0         0         0
         0         0         0         0         0         0         0         0
         0         0         0         0         0         0         0         0
         0         0         0         0         0         0         0         0
         0         0         0         0         0         0         0         0
         0         0         0         0         0         0         0         0
         0         0         0         0         0         0         0         0
         0         0         0         0         0         0         0         0
         0         0         0         0         0         0         0         0
         0         0         0         0         0         0         0         0
         0         0         0         0         0         0         0         0
         0         0         0         0         0         0         0         0
         0         0         0         0         0         0         0         0
         0         0         0         0         0         0         0         0
         0         0         0         0         0         0         0         0
         0         0         0         0         0         0         0         0
         0         0         0         0         0         0         0         0
         0         0         0         0         0         0         0         0
         0         0         0         0         0         0         0         0
         0         0         0         0         0         0         0         0
         0         0         0         0         0         0         0         0
         0         0         0         0         0         0         0         0
         0         0         0         0         0         0         0         0
         0         0         0         0         0         0         0         0
         0         0         0         0         0         0         0         0
         0         0         0         0         0         0         0         0
         0         0         0         0         0         0         0         0
         0         0         0         0         0         0         0         0
         0         0         0         0         0         0         0         0
         0         0         0         0         0         0         0         0
         0         0         0         0         0         0         0         0
         0         0         0         0         0         0         0         0
         0         0         0         0         0         0         0         0
         0         0         0         0         0         0         0         0
         0         0         0         0         0         0         0         0
         0         0         0         0         0         0         0         0
         0         0         0         0         0         0         0         0
         0         0         0         0         0         0         0         0
         0         0         0         0         0         0         0         0
         0         0         0         0         0         0         0         0
         0         0         0         0         0         0         0         0
         0         0         0         0         0         0         0         0
         0         0         0         0         0         0         0         0
         0         0         0         0         0         0         0         0
         0         0         0         0         0         0         0         0
         0         0         0         0         0         0         0         0
         0         0         0         0         0         0         0         0
         0         0         0         0         0         0         0         0
         0         0         0         0         0         0         0         0
         0         0         0         0         0         0         0         0
         0         0         0         0         0         0         0         0
         0         0         0         0         0         0         0         0
         0         0         0         0         0         0         0         0
         0         0         0         0         0         0         0         0
         0         0         0         0         0         0         0         0
         0         0         0         0         0         0         0         0
         0         0         0         0         0         0         0         0
         0         0         0         0         0         0         0         0
         0         0         0         0         0         0         0         0
         0         0         0         0         0         0         0         0
         0         0         0         0         0         0         0         0
         0         0         0         0         0         0         0         0
         0         0         0         0         0         0         0         0
         0         0         0         0         0         0         0         0
         0         0         0         0         0         0         0         0
         0         0         0         0         0         0         0         0
         0         0         0         0         0         0         0         0
         0         0         0         0         0         0         0         0
         0         0         0         0         0         0         0         0
         0         0         0         0         0         0         0         0
         0         0         0         0         0         0         0         0
         0         0         0         0         0         0         0         0
         0         0         0         0         0         0         0         0
         0         0         0         0         0         0         0         0
         0         0         0         0         0         0         0         0
         0         0         0         0         0         0         0         0
         0         0         0         0         0         0         0         0
         0         0         0         0         0         0         0         0
         0         0         0         0         0         0         0         0
         0         0         0         0         0         0         0         0
         0         0         0         0         0         0         0         0
         0         0         0         0         0         0         0         0
         0         0         0         0         0         0         0         0
         0         0         0         0         0         0         0         0
         0         0         0         0         0         0         0         0
         0         0         0         0         0         0         0         0
         0         0         0         0         0         0         0         0
         0         0         0         0         0         0         0         0
         0         0         0         0         0         0         0         0
         0         0         0         0         0         0         0         0
         0         0         0         0         0         0         0         0
         0         0         0         0         0         0         0         0
         0         0         0         0         0         0         0         0
         0         0         0         0         0         0         0         0
         0         0         0         0         0         0         0         0
         0         0         0         0         0         0         0         0
         0         0         0         0         0         0         0         0
         0         0         0         0         0         0         0         0
         0         0         0         0         0         0         0         0
         0         0         0         0         0         0         0         0
         0         0         0         0         0         0         0         0
         0         0         0         0         0         0         0         0
         0         0         0         0         0         0         0         0
         0         0         0         0         0         0         0         0
         0         0         0         0         0         0         0         0
         0         0         0         0         0         0         0         0
         0         0         0         0         0         0         0         0
         0         0         0         0         0         0         0         0
         0         0         0         0         0         0         0         0
         0         0         0         0         0         0         0         0
         0         0         0         0         0         0         0         0
         0         0         0         0         0         0         0         0
         0         0         0         0         0         0         0         0
         0         0         0         0         0         0         0         0
         0         0         0         0         0         0         0         0
         0         0         0         0         0         0         0         0
         0         0         0         0         0         0         0         0
         0         0         0         0         0         0         0         0
         0         0         0         0         0         0         0         0
         0         0         0         0         0         0         0         0
         0         0         0         0         0         0         0         0
         0         0         0         0         0         0         0         0
         0         0         0         0         0         0         0         0
         0         0         0         0         0         0         0         0
         0         0         0         0         0         0         0         0
         0         0         0         0         0         0         0         0
         0         0         0         0         0         0         0         0
         0         0         0         0         0         0         0         0
         0         0         0         0         0         0         0         0
         0         0         0         0         0         0         0         0
         0         0         0         0         0         0         0         0
         0         0         0         0         0         0         0         0
         0         0         0         0         0         0         0         0
         0         0         0         0         0         0         0         0
         0         0         0         0         0         0         0         0
         0         0         0         0         0         0         0         0
         0         0         0         0         0         0         0         0
         0         0         0         0         0         0         0         0
         0         0         0         0         0         0         0         0
         0         0         0         0         0         0         0         0
         0         0         0         0         0         0         0         0
         0         0         0         0         0         0         0         0
         0         0         0         0         0         0         0         0
         0         0         0         0         0         0         0         0
         0         0         0         0         0         0         0         0
         0         0         0         0         0         0         0         0
         0         0         0         0         0         0         0         0
         0         0         0         0         0         0         0         0
         0         0         0         0         0         0         0         0
         0         0         0         0         0         0         0         0
         0         0         0         0         0         0         0         0
         0         0         0         0         0         0         0         0
         0         0         0         0         0         0

         0         0 !NGRP NST2


         0         0 !NUMLP NUMLPH

         0 !NCRTERM: cross-terms

